Membrane in water
40167
    1TCq1    O1    1   3.489   1.732  10.710  0.5732 -0.1004  0.1054
    1TCq1    C1    2   3.387   1.819  10.740 -0.2958  0.1843  0.6316
    1TCq1    O2    3   3.391   1.943  10.734  0.0037 -0.0836 -0.2847
    1TCq1    C2    4   3.320   1.746  10.844  0.4087  0.1072 -0.1053
    1TCq1    C3    5   3.298   1.810  10.963 -0.6704  0.1832 -0.8725
    1TCq1    C4    6   3.237   1.733  11.058  0.6303  0.6738 -0.1347
    1TCq1    C5    7   3.177   1.616  11.022  0.0278  0.0426 -0.8953
    1TCq1    C6    8   3.192   1.560  10.901  0.2062 -0.0671 -0.6340
    1TCq1    C7    9   3.267   1.623  10.807  0.8859 -0.3253  0.5228
    1TCq1    C8   10   3.164   1.418  10.880 -0.1906 -0.7950 -0.2011
    1TCq1    O4   11   3.094   1.363  10.966 -0.7622  0.6050  0.1868
    1TCq1    C9   12   3.226   1.786  11.192  0.3297 -0.5105 -1.1049
    1TCq1    O5   13   3.272   1.900  11.213  0.5598 -0.0959 -0.0599
    1TCq1    O6   14   3.153   1.727  11.274 -0.3995 -0.3001 -0.5585
    1TCq1    H1   15   3.480   1.639  10.740 -1.4773  0.6992  1.9793
    1TCq1    H2   16   3.342   1.904  10.993  2.6675 -0.8961 -2.4325
    1TCq1    H3   17   3.125   1.570  11.105  1.4311 -1.0540 -0.6317
    1TCq1    H4   18   3.281   1.582  10.708  2.0617  1.0970  0.1026
    2MPD2     C   19   3.234   0.926  10.712  0.7840 -0.1619 -0.4240
    2MPD2    C1   20   3.145   0.986  10.795 -0.4440 -0.2002  0.4667
    2MPD2    C2   21   3.153   1.121  10.827  0.0913  0.5971  0.0944
    2MPD2    C3   22   3.247   1.207  10.773 -0.0873 -0.6597 -0.0186
    2MPD2    C4   23   3.336   1.143  10.690 -0.5765 -0.7944 -0.4918
    2MPD2    C5   24   3.328   1.012  10.662 -0.0286 -0.4021 -0.3109
    2MPD2     H   25   3.082   1.156  10.902 -0.1500  1.5380 -0.5831
    2MPD2    H1   26   3.422   1.191  10.646  0.4716 -5.0342 -2.9750
    2MPD2    H2   27   3.223   0.821  10.685 -0.2458  0.0198 -0.7028
    2MPD2    H3   28   3.403   0.978  10.592 -1.5907 -2.0306 -1.1934
    2MPD2     N   29   3.247   1.349  10.795  0.0640 -0.0354  0.0733
    2MPD2    H5   30   3.303   1.413  10.740  2.1526 -2.2889 -0.4687
    2MPD2    N1   31   3.033   0.928  10.856  0.2909 -0.2475  0.6902
    2MPD2    H7   32   2.984   0.971  10.934  0.5683 -0.0633  0.7622
    3TCq1    O1   33   2.811   1.677  10.056 -0.0001 -0.0051 -0.0337
    3TCq1    C1   34   2.703   1.609  10.006 -0.2162 -0.1862 -0.0581
    3TCq1    O2   35   2.703   1.496   9.957 -0.0633  0.0676  0.0642
    3TCq1    C2   36   2.597   1.669  10.071 -0.3297  0.6329  0.1321
    3TCq1    C3   37   2.589   1.803  10.047  0.5629 -0.6378  0.1600
    3TCq1    C4   38   2.519   1.881  10.139 -0.3100 -0.8808 -0.7573
    3TCq1    C5   39   2.441   1.812  10.231  1.0016  0.1581 -0.3372
    3TCq1    C6   40   2.451   1.676  10.243  0.1061  0.2050 -0.5334
    3TCq1    C7   41   2.535   1.597  10.168  0.5524 -0.1793 -0.2306
    3TCq1    C8   42   2.367   1.606  10.328 -0.1114 -0.2699 -0.4270
    3TCq1    O4   43   2.357   1.487  10.308  0.8516  0.1091 -0.0323
    3TCq1    C9   44   2.520   2.027  10.122 -0.1364  0.3716 -0.6099
    3TCq1    O5   45   2.577   2.072  10.015 -0.0687  0.1555  0.7568
    3TCq1    O6   46   2.455   2.098  10.210 -0.2316 -0.3462  0.6296
    3TCq1    H1   47   2.765   1.742  10.113  0.8019 -0.4018  1.0567
    3TCq1    H2   48   2.655   1.842   9.970  1.1680 -2.4584 -0.2292
    3TCq1    H3   49   2.388   1.878  10.298  1.6579  0.0264  0.3072
    3TCq1    H4   50   2.542   1.489  10.170 -2.4538 -0.3723 -0.6835
    4MPD2     C   51   2.066   1.607  10.757 -0.5381 -0.4405 -0.3627
    4MPD2    C1   52   2.063   1.726  10.692  1.1958 -0.0969 -0.2149
    4MPD2    C2   53   2.126   1.748  10.574  0.0005  0.0798 -0.2360
    4MPD2    C3   54   2.212   1.650  10.522 -0.0989  0.7402  0.7714
    4MPD2    C4   55   2.215   1.524  10.582 -0.8645  0.2761 -0.0131
    4MPD2    C5   56   2.141   1.503  10.697 -0.0458 -0.0588 -0.0309
    4MPD2     H   57   2.131   1.847  10.529  1.0746  0.3670  0.5333
    4MPD2    H1   58   2.295   1.458  10.549 -0.7542  0.7406 -0.6760
    4MPD2    H2   59   2.023   1.601  10.856  0.6761 -0.9048  0.1300
    4MPD2    H3   60   2.154   1.407  10.745 -0.9923 -0.5899 -0.8426
    4MPD2     N   61   2.292   1.689  10.413  0.1408  0.4364 -0.0195
    4MPD2    H5   62   2.287   1.789  10.396  0.9083  0.6383  0.9398
    4MPD2    N1   63   1.994   1.835  10.751 -0.4559  0.0392  0.5283
    4MPD2    H7   64   2.021   1.928  10.719 -2.6764  1.1808  1.9758
    5TCq1    O1   65   3.448   3.441  12.235  0.1574 -0.4337 -0.0806
    5TCq1    C1   66   3.398   3.475  12.116 -0.2636 -0.2728  0.4203
    5TCq1    O2   67   3.449   3.453  12.008 -0.1090 -0.3318 -0.0839
    5TCq1    C2   68   3.261   3.433  12.127  0.0002  0.3750  0.5870
    5TCq1    C3   69   3.193   3.477  12.234 -0.1391  0.4917  0.2544
    5TCq1    C4   70   3.069   3.422  12.256 -0.5367 -0.2900  0.2079
    5TCq1    C5   71   3.016   3.331  12.174 -0.5304 -0.5282  0.1932
    5TCq1    C6   72   3.086   3.296  12.057 -0.7689  0.4093  0.4158
    5TCq1    C7   73   3.210   3.347  12.038 -0.5867  0.2005  0.1046
    5TCq1    C8   74   3.026   3.235  11.937 -0.2891 -0.0061  0.4283
    5TCq1    O4   75   3.079   3.240  11.828 -0.1630  0.2888 -0.7695
    5TCq1    C9   76   3.001   3.475  12.373  0.2803  0.5917 -0.2586
    5TCq1    O5   77   3.039   3.577  12.435  0.1825 -0.4663 -0.4421
    5TCq1    O6   78   2.907   3.410  12.418 -0.0434  0.6471 -0.2075
    5TCq1    H1   79   3.380   3.412  12.299 -0.1694 -1.9108 -1.0960
    5TCq1    H2   80   3.242   3.562  12.280  0.3488  1.2329 -1.6074
    5TCq1    H3   81   2.912   3.303  12.185 -1.0393  1.1301 -0.3247
    5TCq1    H4   82   3.252   3.337  11.939  2.2706  1.1616  1.2246
    6MPD2     C   83   2.698   3.054  11.921  0.1882  0.0957  0.1853
    6MPD2    C1   84   2.831   3.082  11.888  0.2466  0.0834  0.2756
    6MPD2    C2   85   2.876   3.034  11.765  0.5569  0.0671 -0.0024
    6MPD2    C3   86   2.798   2.953  11.683  0.2550 -0.4546  0.1902
    6MPD2    C4   87   2.673   2.907  11.730  0.1804 -0.1196  0.5707
    6MPD2    C5   88   2.623   2.974  11.838 -0.5931  0.1876  0.3071
    6MPD2     H   89   2.971   3.056  11.717  0.9510 -1.5561  0.0176
    6MPD2    H1   90   2.611   2.834  11.679  2.0125 -1.5670  0.4389
    6MPD2    H2   91   2.659   3.107  12.007  0.4845 -0.8696  0.9135
    6MPD2    H3   92   2.524   2.951  11.873 -1.3695 -0.6439 -2.4285
    6MPD2     N   93   2.846   2.927  11.552  0.1554  0.2265 -0.3549
    6MPD2    H5   94   2.945   2.937  11.535  0.8387 -1.0541  2.8208
    6MPD2    N1   95   2.907   3.167  11.972  0.0679  0.7493  0.5970
    6MPD2    H7   96   2.872   3.193  12.063 -1.1466 -0.2378  0.4215
    7TCq1    O1   97   0.236   3.731  13.063 -0.1380 -0.4218 -0.1986
    7TCq1    C1   98   0.196   3.724  12.936  0.6646 -0.3250 -0.0109
    7TCq1    O2   99   0.128   3.809  12.886 -0.1455  0.1456 -0.3607
    7TCq1    C2  100   0.186   3.588  12.899 -0.1269 -0.3902  0.8177
    7TCq1    C3  101   0.138   3.567  12.777 -0.3462 -0.3449 -0.2485
    7TCq1    C4  102   0.119   3.440  12.732 -0.0574  0.7263  0.2369
    7TCq1    C5  103   0.158   3.340  12.809 -0.2787 -0.3568  0.2307
    7TCq1    C6  104   0.210   3.360  12.934 -0.2676 -0.1095  0.7689
    7TCq1    C7  105   0.221   3.486  12.988  0.0001 -0.6284 -0.1020
    7TCq1    C8  106   0.240   3.253  13.024  0.7449 -0.6981  0.4541
    7TCq1    O4  107   0.164   3.158  13.037 -0.1924  0.0476 -0.8620
    7TCq1    C9  108   0.062   3.411  12.604 -0.1633  0.0608 -0.2786
    7TCq1    O5  109   0.047   3.294  12.567  0.1444  0.8068  0.0012
    7TCq1    O6  110   0.008   3.510  12.545  0.0381  0.5456  0.0894
    7TCq1    H1  111   0.303   3.661  13.081  0.2617 -0.3358 -1.3229
    7TCq1    H2  112   0.116   3.652  12.713 -1.0041 -0.3478 -0.0295
    7TCq1    H3  113   0.151   3.239  12.769  1.9255  0.0622 -1.2360
    7TCq1    H4  114   0.250   3.502  13.091 -1.6835  2.5495 -0.1365
    8MPD2     C  115   0.544   3.060  13.371  0.3187  0.4617  0.2275
    8MPD2    C1  116   0.420   3.019  13.328  0.0999  0.2294  0.2944
    8MPD2    C2  117   0.353   3.107  13.246 -0.6864  0.5036 -0.3414
    8MPD2    C3  118   0.411   3.214  13.196 -0.5529 -0.3084  0.4266
    8MPD2    C4  119   0.539   3.250  13.229  0.5239  0.4258  0.2604
    8MPD2    C5  120   0.602   3.180  13.327  0.0121 -0.5570 -0.0351
    8MPD2     H  121   0.254   3.079  13.210 -0.5225 -0.4867 -0.0281
    8MPD2    H1  122   0.590   3.340  13.199  2.2431 -1.2003 -1.7364
    8MPD2    H2  123   0.605   2.994  13.432 -1.4490  0.8630  2.4126
    8MPD2    H3  124   0.698   3.203  13.370  0.3448 -1.5698 -0.2509
    8MPD2     N  125   0.350   3.293  13.097  0.0072  0.3345 -0.6970
    8MPD2    H5  126   0.398   3.380  13.075  0.2879  0.0042 -1.3679
    8MPD2    N1  127   0.365   2.906  13.389 -0.0816  0.1918  0.7185
    8MPD2    H7  128   0.415   2.858  13.463  0.5421 -2.1566 -1.2427
    9TCq1    O1  129   2.503   1.335  10.555  0.1205 -0.0014  0.0724
    9TCq1    C1  130   2.548   1.284  10.435 -0.2666 -0.1878  0.7963
    9TCq1    O2  131   2.484   1.204  10.370 -0.1640 -0.3937  0.3574
    9TCq1    C2  132   2.658   1.361  10.383 -0.0568 -0.2850 -0.1496
    9TCq1    C3  133   2.718   1.311  10.280  0.0517  0.1498 -0.6270
    9TCq1    C4  134   2.833   1.367  10.233  0.6889  0.0438 -0.5757
    9TCq1    C5  135   2.880   1.479  10.295  0.1803  0.6328  0.4295
    9TCq1    C6  136   2.819   1.524  10.406 -0.2102  0.6271  0.1145
    9TCq1    C7  137   2.705   1.468  10.449  0.7114 -0.3571 -0.1407
    9TCq1    C8  138   2.895   1.619  10.489  0.4130  0.2244 -0.0162
    9TCq1    O4  139   3.002   1.662  10.447 -0.3288  0.6008 -0.1387
    9TCq1    C9  140   2.906   1.310  10.125 -0.1788  0.3876  0.1476
    9TCq1    O5  141   2.850   1.217  10.055  0.3942 -0.4869 -0.2427
    9TCq1    O6  142   3.030   1.342  10.111  0.6627 -0.0770 -0.0980
    9TCq1    H1  143   2.558   1.388  10.616 -0.2864  0.7127 -0.1817
    9TCq1    H2  144   2.682   1.224  10.227 -0.8868 -0.4360  0.9588
    9TCq1    H3  145   2.967   1.531  10.257 -1.4856  0.6033 -3.3956
    9TCq1    H4  146   2.651   1.502  10.537 -1.2334 -1.3912 -0.9145
   10MPD2     C  147   2.981   1.822  10.685 -0.2528  0.5171 -0.0633
   10MPD2    C1  148   2.898   1.718  10.713  0.1215 -0.9946  0.1103
   10MPD2    C2  149   2.837   1.710  10.834 -0.8878  1.1125  0.8613
   10MPD2    C3  150   2.883   1.784  10.948 -0.3970  0.4934  0.4995
   10MPD2    C4  151   2.963   1.897  10.909 -0.0654 -0.2204  1.0564
   10MPD2    C5  152   3.013   1.915  10.781  0.0286 -0.5145 -0.3855
   10MPD2     H  153   2.760   1.635  10.852  0.8738 -0.6902  0.8741
   10MPD2    H1  154   2.989   1.976  10.978 -1.1988 -1.3937  2.8274
   10MPD2    H2  155   3.035   1.829  10.591 -0.0368 -2.6502 -0.1736
   10MPD2    H3  156   3.086   1.991  10.754  0.7841 -0.7938  0.8984
   10MPD2     N  157   2.843   1.772  11.083  0.4975  0.2023  1.4132
   10MPD2    H5  158   2.888   1.837  11.146  2.2067  0.6995 -0.3331
   10MPD2    N1  159   2.845   1.630  10.618  0.2265 -0.6894  0.0122
   10MPD2    H7  160   2.775   1.565  10.653 -1.9700  1.1094 -1.0592
   11TCq1    O1  161   4.287   0.972  14.397  0.2576 -0.0928  0.3252
   11TCq1    C1  162   4.171   1.019  14.336  0.0118  0.6866  1.2195
   11TCq1    O2  163   4.058   0.972  14.330 -0.6326  0.0333 -0.4782
   11TCq1    C2  164   4.191   1.158  14.319  0.2874  0.1039  0.1726
   11TCq1    C3  165   4.278   1.235  14.393  0.1456  1.0304  0.2911
   11TCq1    C4  166   4.298   1.366  14.350 -0.2691  0.4783 -0.4179
   11TCq1    C5  167   4.226   1.416  14.243 -0.4535  0.0287 -0.0637
   11TCq1    C6  168   4.148   1.334  14.172 -0.7837 -0.3178 -0.5345
   11TCq1    C7  169   4.136   1.202  14.201 -0.5483 -0.3315 -0.1584
   11TCq1    C8  170   4.041   1.410  14.109  0.0673  0.3070  0.3860
   11TCq1    O4  171   4.064   1.524  14.080 -0.0254  0.1083  0.0221
   11TCq1    C9  172   4.392   1.443  14.428  0.1737 -0.0618  0.5195
   11TCq1    O5  173   4.401   1.565  14.404 -0.4600 -0.1544  0.2164
   11TCq1    O6  174   4.454   1.384  14.517  0.0397 -0.4504 -0.2730
   11TCq1    H1  175   4.364   1.020  14.360  0.8550 -2.2438 -1.2237
   11TCq1    H2  176   4.312   1.207  14.492 -1.5870  0.8990  0.8360
   11TCq1    H3  177   4.242   1.521  14.219  0.5421 -0.1013  0.0262
   11TCq1    H4  178   4.078   1.132  14.143 -2.1861 -0.0648  1.1730
   12MPD2     C  179   3.778   1.509  14.009  0.3710 -0.1221 -0.3461
   12MPD2    C1  180   3.813   1.374  14.017 -0.2465  0.0133 -0.2489
   12MPD2    C2  181   3.709   1.287  13.988 -0.2151  0.0776 -0.1103
   12MPD2    C3  182   3.578   1.325  13.949 -0.6623 -0.1785  0.2636
   12MPD2    C4  183   3.546   1.454  13.939 -0.1448 -0.1015 -0.7265
   12MPD2    C5  184   3.645   1.544  13.981 -0.3816  0.1066  0.2035
   12MPD2     H  185   3.731   1.182  14.003 -0.7835 -0.2383 -1.4228
   12MPD2    H1  186   3.451   1.497  13.909 -1.0139 -2.5109 -1.3555
   12MPD2    H2  187   3.850   1.589  14.023  0.5371 -0.0745 -1.4785
   12MPD2    H3  188   3.617   1.648  13.990 -1.5561 -0.2780  0.9481
   12MPD2     N  189   3.482   1.222  13.921  0.0230 -0.1912 -0.4540
   12MPD2    H5  190   3.497   1.125  13.944 -0.0554  0.3501  1.8560
   12MPD2    N1  191   3.936   1.326  14.075 -0.2625 -0.0055  0.6530
   12MPD2    H7  192   3.939   1.228  14.099 -2.4349  0.0665  1.1860
   13TCq1    O1  193   3.182   1.398  10.306 -0.3149  0.4852  0.1919
   13TCq1    C1  194   3.192   1.355  10.431  0.0089 -0.3680 -0.2401
   13TCq1    O2  195   3.250   1.417  10.517 -0.3878 -0.7283 -0.2703
   13TCq1    C2  196   3.139   1.217  10.434 -0.8194  0.6232 -0.1806
   13TCq1    C3  197   3.139   1.140  10.315 -0.7715 -0.4290  0.0669
   13TCq1    C4  198   3.045   1.040  10.292 -0.3958 -0.1843  0.4354
   13TCq1    C5  199   2.945   1.017  10.384 -0.0995  0.2579  0.2734
   13TCq1    C6  200   2.939   1.102  10.494  0.0376  0.8855 -0.4663
   13TCq1    C7  201   3.031   1.203  10.519  0.4409  0.5989 -0.5558
   13TCq1    C8  202   2.831   1.102  10.592 -0.2373 -0.9289  0.1912
   13TCq1    O4  203   2.820   1.202  10.660  0.0975 -0.2547 -0.3571
   13TCq1    C9  204   3.044   0.967  10.170 -0.1257 -0.1431  0.2319
   13TCq1    O5  205   3.126   1.003  10.083 -0.1231 -0.4025 -0.3033
   13TCq1    O6  206   2.961   0.877  10.149  0.1198 -0.0465 -0.2652
   13TCq1    H1  207   3.113   1.361  10.247 -1.6955  3.7537 -0.2138
   13TCq1    H2  208   3.218   1.157  10.242 -2.5909 -1.7837 -2.2079
   13TCq1    H3  209   2.867   0.950  10.351  0.1060  0.0223  0.2661
   13TCq1    H4  210   3.013   1.277  10.596  2.6027 -0.8944  1.3773
   14MPD2     C  211   2.553   0.860  10.606  0.5136  0.3137  0.2902
   14MPD2    C1  212   2.630   0.967  10.651 -0.3593  0.7859  0.4571
   14MPD2    C2  213   2.592   1.030  10.765 -0.2077  0.5357 -0.0832
   14MPD2    C3  214   2.470   1.004  10.824 -0.2262 -0.3384 -0.5376
   14MPD2    C4  215   2.386   0.915  10.761 -0.5706  0.5442 -0.7462
   14MPD2    C5  216   2.426   0.847  10.652 -0.8666  0.3937 -0.1729
   14MPD2     H  217   2.646   1.116  10.804  0.7475  0.8206 -2.0182
   14MPD2    H1  218   2.292   0.882  10.804 -0.1146 -2.8839 -2.4001
   14MPD2    H2  219   2.587   0.813  10.515  2.1130  0.2643  0.9056
   14MPD2    H3  220   2.367   0.766  10.610  0.2914 -0.4901 -0.0734
   14MPD2     N  221   2.434   1.076  10.939 -0.3308 -0.6548  0.1870
   14MPD2    H5  222   2.482   1.160  10.968  1.5673 -1.4243 -0.7104
   14MPD2    N1  223   2.751   0.991  10.581 -0.2066  0.5884  0.5098
   14MPD2    H7  224   2.773   0.916  10.517  0.7728  2.2334 -1.0674
   15TCq1    O1  225   4.090   0.814   1.322 -0.0351 -0.1819 -0.0710
   15TCq1    C1  226   4.211   0.871   1.328  1.1446  0.2831  0.7534
   15TCq1    O2  227   4.230   0.993   1.330  0.3059 -0.1155 -0.0397
   15TCq1    C2  228   4.308   0.772   1.384  0.6751  0.1358  0.1550
   15TCq1    C3  229   4.409   0.815   1.464 -0.7086  0.4577  0.5757
   15TCq1    C4  230   4.512   0.736   1.491  0.4471 -0.4868  0.3391
   15TCq1    C5  231   4.520   0.614   1.428  0.4215  0.5741  0.8897
   15TCq1    C6  232   4.423   0.574   1.339 -0.6286 -0.0506 -0.6689
   15TCq1    C7  233   4.315   0.651   1.316 -0.2726  0.0721  0.4359
   15TCq1    C8  234   4.438   0.439   1.283 -0.3414  0.0083  0.7623
   15TCq1    O4  235   4.547   0.386   1.298 -0.3685 -0.0856  0.1281
   15TCq1    C9  236   4.620   0.781   1.579 -0.0155 -1.0870  0.5066
   15TCq1    O5  237   4.603   0.898   1.620 -0.1431 -0.2120 -0.2045
   15TCq1    O6  238   4.722   0.711   1.600  0.7319 -0.4699  0.1935
   15TCq1    H1  239   4.092   0.719   1.346 -0.6107 -0.5670 -1.5686
   15TCq1    H2  240   4.410   0.903   1.527  1.4686  1.2123 -0.5070
   15TCq1    H3  241   4.604   0.553   1.457  1.5453  0.8993 -1.6788
   15TCq1    H4  242   4.249   0.635   1.232  2.7200 -1.1090 -1.6782
   16MPD2     C  243   4.197   0.219   1.138 -0.0890 -0.0754  0.5158
   16MPD2    C1  244   4.327   0.269   1.158 -0.2528  0.8604  0.4433
   16MPD2    C2  245   4.439   0.194   1.127  0.2308 -0.4380  0.1016
   16MPD2    C3  246   4.422   0.080   1.067  0.2816 -0.7037 -1.0180
   16MPD2    C4  247   4.299   0.031   1.026 -0.1777  0.3196 -0.1131
   16MPD2    C5  248   4.188   0.109   1.057  0.6987 -0.1773 -0.0531
   16MPD2     H  249   4.540   0.232   1.126  1.1513 -2.8313  1.0779
   16MPD2    H1  250   4.290   4.662   0.979  0.5611 -0.3293  1.0654
   16MPD2    H2  251   4.106   0.275   1.155 -0.5611 -0.6172 -0.2441
   16MPD2    H3  252   4.090   0.080   1.023  1.7603 -1.2852 -2.1733
   16MPD2     N  253   4.539   0.009   1.031  0.0904  0.1383  0.4452
   16MPD2    H5  254   4.625   0.053   1.061  0.1968  1.7256 -2.0988
   16MPD2    N1  255   4.329   0.394   1.225 -0.4552  0.0907 -0.1180
   16MPD2    H7  256   4.243   0.447   1.234  0.5188  1.5226  0.7149
   17TCq1    O1  257   1.826   0.101   9.345 -0.1164  0.1712  0.1316
   17TCq1    C1  258   1.931   0.018   9.339  0.1847 -0.2024  0.2683
   17TCq1    O2  259   1.932   4.635   9.394  0.0387  0.5012  0.3402
   17TCq1    C2  260   2.048   0.106   9.356 -0.2348  0.6073 -0.5395
   17TCq1    C3  261   2.093   0.171   9.248  0.4481 -0.3284 -0.3509
   17TCq1    C4  262   2.218   0.227   9.252 -0.5724  0.0222 -0.5157
   17TCq1    C5  263   2.300   0.211   9.361  0.0355 -0.3861  0.5171
   17TCq1    C6  264   2.254   0.128   9.464 -0.8226  1.0062 -0.9422
   17TCq1    C7  265   2.126   0.068   9.464 -0.1677 -0.1011  0.5308
   17TCq1    C8  266   2.337   0.102   9.584  0.1728 -0.0225  1.0311
   17TCq1    O4  267   2.267   0.051   9.671  0.6921 -0.6298  0.8582
   17TCq1    C9  268   2.249   0.326   9.145 -0.2733 -0.8006  0.5963
   17TCq1    O5  269   2.347   0.405   9.155 -0.2043  0.1467 -0.4865
   17TCq1    O6  270   2.181   0.314   9.045 -0.1286 -0.2020 -0.3109
   17TCq1    H1  271   1.860   0.189   9.319 -1.2078 -0.0289 -1.9687
   17TCq1    H2  272   2.034   0.181   9.157  1.1020 -0.5001 -0.7992
   17TCq1    H3  273   2.381   0.284   9.361  1.1023 -1.5647 -0.7482
   17TCq1    H4  274   2.083   4.727   9.536 -1.0201 -0.9602 -0.7888
   18MPD2     C  275   2.538   0.079   9.796 -0.4692 -0.1367 -0.5631
   18MPD2    C1  276   2.561   0.133   9.674  0.1506 -0.3943 -0.1700
   18MPD2    C2  277   2.685   0.193   9.646 -0.0535 -0.6928  0.1853
   18MPD2    C3  278   2.785   0.188   9.739  0.6695  0.6642  0.2167
   18MPD2    C4  279   2.756   0.132   9.863  0.4259  0.1630 -0.2436
   18MPD2    C5  280   2.635   0.071   9.888  0.1742 -0.6496  0.1064
   18MPD2     H  281   2.701   0.243   9.551  2.2285 -0.0885  0.9095
   18MPD2    H1  282   2.837   0.117   9.933 -1.3330 -1.2804  1.5019
   18MPD2    H2  283   2.450   0.017   9.814 -0.1338 -0.2863  0.5729
   18MPD2    H3  284   2.619   0.018   9.981 -2.2602  0.3663  0.2369
   18MPD2     N  285   2.910   0.239   9.725 -0.0548 -0.6614  0.1480
   18MPD2    H5  286   2.964   0.226   9.811 -0.8979 -1.2634  0.5845
   18MPD2    N1  287   2.469   0.134   9.568  0.2616 -0.2653  0.1658
   18MPD2    H7  288   2.492   0.167   9.475 -0.7711  1.2067  0.4219
   19TMC2    C1  289   4.482   1.404  13.344 -0.1140  0.1344  0.6443
   19TMC2    C2  290   4.474   1.384  13.205 -0.3284  0.3304 -0.5585
   19TMC2    C3  291   4.357   1.348  13.152 -0.3406 -0.0325  0.3811
   19TMC2    C4  292   4.383   1.377  13.431 -0.4759 -0.0826 -0.2745
   19TMC2    C5  293   4.268   1.325  13.369  0.5912 -1.0461 -0.5459
   19TMC2    C6  294   4.251   1.307  13.230  0.1337 -1.0296  0.4006
   19TMC2     C  295   4.616   1.449  13.386  0.4607 -0.1712  0.1776
   19TMC2     O  296   4.678   1.522  13.302 -0.2280  0.0947  0.0527
   19TMC2     H  297   4.557   1.410  13.140 -0.6278 -0.6433 -1.3301
   19TMC2    H1  298   4.388   1.385  13.539  2.2901 -1.8543 -0.2708
   19TMC2    H2  299   4.156   1.272  13.194  0.0655  0.9420 -1.3215
   19TMC2    C7  300   4.171   1.271  13.464  0.7690  0.6697 -0.1991
   19TMC2    C8  301   4.344   1.345  13.002 -0.1827 -0.5466 -0.8359
   19TMC2    O1  302   4.165   1.317  13.580  0.2079  0.3091 -0.4320
   19TMC2    O2  303   4.429   1.293  12.930 -0.0281 -0.0024  0.1571
   19TMC2    O5  304   4.220   1.373  12.966 -0.0492  0.1934  0.5130
   19TMC2    H5  305   4.171   1.421  13.036  0.9009  1.4589  0.3117
   20MPD2     C  306   0.156   1.508  13.513  0.1143  0.4124  0.3156
   20MPD2    C1  307   0.053   1.438  13.574 -0.6620  0.6836 -0.0025
   20MPD2    C2  308   0.083   1.383  13.696  0.3093 -0.1166 -0.0862
   20MPD2    C3  309   0.204   1.411  13.757  0.1575 -0.1781  0.0387
   20MPD2    C4  310   0.296   1.493  13.699  0.1494 -0.1276  0.5061
   20MPD2    C5  311   0.273   1.536  13.576 -0.2195  0.7658  0.1725
   20MPD2     H  312   0.003   1.322  13.735  1.0488 -0.9411  0.1411
   20MPD2    H1  313   0.394   1.518  13.737 -0.6783  1.4786  1.5383
   20MPD2    H2  314   0.144   1.551  13.415  0.0264 -2.9458 -1.1428
   20MPD2    H3  315   0.350   1.589  13.522 -0.4787  0.2352 -0.7082
   20MPD2     N  316   0.239   1.348  13.873  0.2591  0.1004 -0.4994
   20MPD2    H5  317   0.326   1.379  13.915 -0.5336  3.5362 -1.4172
   20MPD2    N1  318   4.654   1.415  13.515  0.4538 -0.9213 -0.1196
   20MPD2    H7  319   4.581   1.368  13.567  0.1143 -1.2583 -0.8977
   21MPD2     C  320   1.852   1.902  14.450 -0.6299  0.1639  0.0890
   21MPD2    C1  321   1.884   1.773  14.435 -0.1479  0.2464  0.0509
   21MPD2    C2  322   1.902   1.721  14.310 -0.2033  0.3317  0.3725
   21MPD2    C3  323   1.885   1.800  14.198 -0.5394  0.2280 -0.2025
   21MPD2    C4  324   1.856   1.931  14.216  0.1783 -0.2311  0.4721
   21MPD2    C5  325   1.832   1.982  14.337 -0.2421 -0.5144 -0.3862
   21MPD2     H  326   1.926   1.615  14.300 -1.9401 -0.0273 -0.0697
   21MPD2    H1  327   1.844   2.005  14.138  1.5920 -1.3632 -0.8079
   21MPD2    H2  328   1.835   1.948  14.547 -1.7378  0.9437 -0.4689
   21MPD2    H3  329   1.789   2.080  14.352 -2.6569 -1.7777  1.0734
   21MPD2     N  330   1.891   1.747  14.065  0.4444  0.1189  0.1433
   21MPD2    H5  331   1.873   1.817  13.994 -0.3014 -0.7535 -0.5376
   21MPD2    N1  332   1.911   1.688  14.546 -0.2317  0.1450 -0.3057
   21MPD2    H7  333   1.953   1.597  14.529  1.8307  0.5196  2.9457
   22TCq2    C1  334   1.927   1.620  14.033  0.0649 -0.1361 -0.1097
   22TCq2    O2  335   1.989   1.530  14.091 -0.4154  0.0303  0.0628
   22TCq2    C2  336   1.896   1.598  13.888  0.3069 -0.1960 -0.0399
   22TCq2    C3  337   1.987   1.511  13.827 -0.2451 -0.4129 -0.1636
   22TCq2    C4  338   1.965   1.477  13.701  0.5160 -0.1771 -0.3974
   22TCq2    C5  339   1.852   1.523  13.638  0.5066  0.5380  0.8208
   22TCq2    C6  340   1.771   1.616  13.696 -0.4661  0.0844 -0.5443
   22TCq2    C7  341   1.800   1.661  13.824 -0.1236  0.7189  0.0509
   22TCq2    C8  342   1.655   1.677  13.634 -0.2045  0.1331 -0.1136
   22TCq2    O4  343   1.604   1.623  13.539 -0.1734 -1.1259 -0.0873
   22TCq2    C9  344   2.061   1.388  13.642 -0.3436  0.0231  0.0927
   22TCq2    O5  345   2.181   1.384  13.683  1.3080  0.3650  0.0849
   22TCq2    O6  346   2.027   1.327  13.535  0.2016  0.6176  0.4838
   22TCq2    H2  347   2.070   1.478  13.888  1.0659 -0.2022 -1.8301
   22TCq2    H3  348   1.835   1.507  13.533 -0.9115 -2.0089  1.4393
   22TCq2    H4  349   1.731   1.717  13.887  0.6048  0.6023  0.9617
   23MPD2     C  350   3.792   3.222  14.629  0.0455 -0.0563  0.6606
   23MPD2    C1  351   3.742   3.156  14.741  0.5510  0.3441 -0.2783
   23MPD2    C2  352   3.609   3.168  14.760  0.2428 -0.5364  0.1752
   23MPD2    C3  353   3.531   3.260  14.695 -0.3562  0.1661 -0.0368
   23MPD2    C4  354   3.588   3.324  14.581 -0.3164  0.7456  0.1720
   23MPD2    C5  355   3.717   3.304  14.555 -0.2366  0.7500 -0.2452
   23MPD2     H  356   3.575   3.111  14.846  0.5434 -2.0886 -0.7314
   23MPD2    H1  357   3.536   3.390  14.512  0.8454  1.3906 -0.0890
   23MPD2    H2  358   3.894   3.209  14.596  0.2724  0.8592  1.0245
   23MPD2    H3  359   3.763   3.354  14.470 -0.1629 -1.4913 -1.5341
   23MPD2     N  360   3.391   3.285  14.720  0.0423  0.0483 -0.5836
   23MPD2    H5  361   3.343   3.339  14.649  0.7282  0.1758 -0.9490
   23MPD2    N1  362   3.816   3.065  14.827  1.0394  0.2143  0.0715
   23MPD2    H7  363   3.772   3.006  14.898 -1.3254  0.6438 -1.0377
   24TCq2    C1  364   3.320   3.250  14.834 -0.0340  0.2374 -0.2204
   24TCq2    O2  365   3.366   3.198  14.937  1.1164 -0.2528 -0.1977
   24TCq2    C2  366   3.176   3.273  14.826 -0.1517 -0.3384  0.1162
   24TCq2    C3  367   3.107   3.245  14.941 -0.1125 -0.3098 -0.3671
   24TCq2    C4  368   2.975   3.241  14.937 -0.4633  0.0520  0.0460
   24TCq2    C5  369   2.906   3.247  14.822 -0.4825  0.8171 -0.7976
   24TCq2    C6  370   2.981   3.269  14.708 -0.2483  0.3728  0.8759
   24TCq2    C7  371   3.116   3.290  14.710 -0.0998 -0.1361  0.4772
   24TCq2    C8  372   2.919   3.237  14.579 -0.0672  0.4302  0.5182
   24TCq2    O4  373   2.991   3.206  14.487  0.3042  0.2344  0.3508
   24TCq2    C9  374   2.905   3.219  15.059 -0.0558  0.5061  0.0701
   24TCq2    O5  375   2.777   3.222  15.050 -0.1972 -0.6637 -1.0959
   24TCq2    O6  376   2.965   3.190  15.167  0.0462 -0.2839  0.1824
   24TCq2    H2  377   3.161   3.247  15.035 -0.9075  0.0039  0.0930
   24TCq2    H3  378   2.798   3.244  14.823 -0.4075 -2.8186 -2.7904
   24TCq2    H4  379   3.166   3.332  14.623  1.5786  1.1189  2.0294
   25TMC2    C1  380   2.358   0.292  11.349 -0.9146  0.4642  1.1737
   25TMC2    C2  381   2.462   0.386  11.360 -0.3408  0.5186  0.3284
   25TMC2    C3  382   2.481   0.449  11.480 -0.6948  0.2810 -0.5070
   25TMC2    C4  383   2.289   0.245  11.462 -0.0211  0.3774 -0.6527
   25TMC2    C5  384   2.318   0.320  11.578  0.7501  0.2755 -0.1248
   25TMC2    C6  385   2.409   0.414  11.594  0.0270  0.2189 -0.4724
   25TMC2     C  386   2.379   0.196  11.237  0.6788  0.3771 -0.7251
   25TMC2     O  387   2.483   0.213  11.176  0.1991  0.2199  0.3493
   25TMC2     H  388   2.525   0.420  11.278 -0.7473 -0.1396 -0.2539
   25TMC2    H1  389   2.203   0.180  11.463 -0.3149  0.7825  0.7455
   25TMC2    H2  390   2.436   0.454  11.690 -0.9244  1.6310 -0.7881
   25TMC2    C7  391   2.238   0.297  11.698  0.0330  0.7284  0.0423
   25TMC2    C8  392   2.568   0.567  11.483  0.9426  0.4282 -0.0305
   25TMC2    O1  393   2.282   0.346  11.800  0.2165 -0.3373 -0.6115
   25TMC2    O2  394   2.604   0.593  11.596 -0.0562  0.3418  0.1666
   25TMC2    O5  395   2.516   0.652  11.389  0.7419  0.2853 -0.2879
   25TMC2    H5  396   2.488   0.595  11.314  0.4176 -0.3084  0.2849
   26MPD2     C  397   2.339   4.467  10.999 -0.5847  0.0626 -0.2318
   26MPD2    C1  398   2.235   4.472  11.086  0.8342 -0.2410  0.1091
   26MPD2    C2  399   2.216   4.590  11.161 -0.4760 -0.0102 -0.0727
   26MPD2    C3  400   2.307   4.691  11.158 -0.3229 -0.2991 -0.3691
   26MPD2    C4  401   2.400   4.687  11.052 -0.1692  0.5687  0.8598
   26MPD2    C5  402   2.422   4.574  10.983  0.4457  0.4206  0.3436
   26MPD2     H  403   2.128   4.598  11.223 -0.7237 -1.3759 -0.2289
   26MPD2    H1  404   2.477   0.035  11.048  0.1955  0.2498  1.8439
   26MPD2    H2  405   2.350   4.382  10.933 -0.4053  0.7529 -1.0874
   26MPD2    H3  406   2.505   4.570  10.913 -0.2368  3.0999 -0.6277
   26MPD2     N  407   2.302   0.079  11.240  0.3595  0.2360 -0.5680
   26MPD2    H5  408   2.227   0.083  11.308 -0.6023  2.2769 -1.7543
   26MPD2    N1  409   2.154   4.363  11.093 -0.1616  0.0933  0.2482
   26MPD2    H7  410   2.172   4.302  11.014  0.6191  2.5688 -1.5061
   27TMC2    C1  411   1.091   2.043  11.934  0.8083  0.7293  0.7575
   27TMC2    C2  412   0.998   2.117  11.865 -0.2989  0.3463 -0.6793
   27TMC2    C3  413   1.048   2.227  11.802 -1.2251  0.3598  0.0744
   27TMC2    C4  414   1.223   2.053  11.932 -1.0200 -0.7391  0.2963
   27TMC2    C5  415   1.269   2.158  11.861 -0.1605  0.4199  0.0673
   27TMC2    C6  416   1.187   2.247  11.798 -0.6096  0.2624  0.0407
   27TMC2     C  417   1.040   1.933  12.011 -0.4395  0.8494  0.4642
   27TMC2     O  418   1.117   1.840  12.020 -0.2396 -0.4581 -0.1229
   27TMC2     H  419   0.894   2.089  11.851 -0.7615  1.0533  1.3269
   27TMC2    H1  420   1.282   1.983  11.990  0.4133  0.9004  0.8459
   27TMC2    H2  421   1.223   2.309  11.716  0.9881  0.0158  0.5467
   27TMC2    C7  422   1.380   2.225  11.933  0.4274 -0.3298 -0.4874
   27TMC2    C8  423   0.965   2.295  11.709 -0.6839  0.1167  0.1246
   27TMC2    O1  424   1.444   2.160  12.014  0.3871  0.4787  0.2961
   27TMC2    O2  425   0.930   2.235  11.609  0.1888  0.7421 -0.4638
   27TMC2    O5  426   1.021   2.416  11.703 -0.0337 -0.0388 -0.1939
   27TMC2    H5  427   1.055   2.444  11.791  0.1676 -0.4771 -0.1322
   28MPD2     C  428   0.778   1.740  12.395  0.9359 -0.2167 -0.9245
   28MPD2    C1  429   0.740   1.864  12.384  0.3238 -0.2602  0.8258
   28MPD2    C2  430   0.785   1.942  12.273  0.2426  0.4538  0.8830
   28MPD2    C3  431   0.871   1.881  12.182  0.4857  0.3869  0.4231
   28MPD2    C4  432   0.908   1.746  12.200 -0.8145  0.0918 -0.3229
   28MPD2    C5  433   0.856   1.677  12.303  0.6888 -0.6457  0.4179
   28MPD2     H  434   0.765   2.047  12.260 -1.9718 -0.1573 -0.5776
   28MPD2    H1  435   0.967   1.695  12.125  0.3217  0.5079  0.3018
   28MPD2    H2  436   0.730   1.688  12.477  0.3663  0.0809 -1.0636
   28MPD2    H3  437   0.875   1.571  12.306  2.2440 -0.3935 -0.7160
   28MPD2     N  438   0.924   1.967  12.086  0.6420  0.0018 -0.7157
   28MPD2    H5  439   0.883   2.060  12.088 -1.3352 -0.8745 -0.1825
   28MPD2    N1  440   0.658   1.907  12.485  0.2535  0.3722 -0.5208
   28MPD2    H7  441   0.625   1.840  12.554  2.4770 -0.2083 -0.0296
   29MPD2     C  442   0.305   0.000  13.624 -0.4007 -0.7976  0.2270
   29MPD2    C1  443   0.407   4.708  13.712  0.6316  0.2854 -0.1698
   29MPD2    C2  444   0.473   0.090  13.767 -0.3124 -0.7027 -0.8602
   29MPD2    C3  445   0.426   0.221  13.746 -0.6887  0.1253 -0.0912
   29MPD2    C4  446   0.320   0.238  13.666  0.1922  0.3190 -0.0005
   29MPD2    C5  447   0.260   0.134  13.608 -0.8049  0.5378  0.1455
   29MPD2     H  448   0.565   0.081  13.823  0.3559  2.8468 -1.4059
   29MPD2    H1  449   0.286   0.339  13.646 -0.0340  0.1330 -0.5533
   29MPD2    H2  450   0.241   4.650  13.584 -0.7657  0.1335 -0.9905
   29MPD2    H3  451   0.185   0.147  13.530 -0.0307 -1.1192 -0.8841
   29MPD2     N  452   0.480   0.325  13.821 -0.1421 -0.8062  0.6219
   29MPD2    H5  453   0.553   0.299  13.886  1.0988 -0.4395 -0.6173
   29MPD2    N1  454   0.463   4.588  13.745 -0.3091 -0.3509 -0.3666
   29MPD2    H7  455   0.536   4.590  13.816  1.6145  1.5147 -2.3953
   30TCq2    C1  456   0.433   0.454  13.824  0.2048  0.0353  0.0383
   30TCq2    O2  457   0.332   0.507  13.776 -0.2092  0.5460 -0.3461
   30TCq2    C2  458   0.525   0.528  13.904 -0.2692 -0.4749  0.4149
   30TCq2    C3  459   0.475   0.591  14.016 -0.4332  0.5972  0.2307
   30TCq2    C4  460   0.550   0.651  14.110 -0.1792 -0.0080  0.0961
   30TCq2    C5  461   0.687   0.638  14.096 -0.1015 -1.0009  0.6346
   30TCq2    C6  462   0.742   0.583  13.984  0.3058 -0.3080 -0.4269
   30TCq2    C7  463   0.665   0.524  13.887  0.2859 -0.1722  0.7045
   30TCq2    C8  464   0.879   0.604  13.947 -0.8654  0.8044 -0.2859
   30TCq2    O4  465   0.931   0.532  13.862 -0.3858  0.0304 -0.3293
   30TCq2    C9  466   0.484   0.710  14.220 -0.1629 -0.1685  0.6487
   30TCq2    O5  467   0.561   0.773  14.299  0.0575 -0.4754 -0.2152
   30TCq2    O6  468   0.361   0.687  14.233 -0.0571  0.4240  0.5360
   30TCq2    H2  469   0.369   0.612  14.027 -0.4737  1.6751 -2.3160
   30TCq2    H3  470   0.745   0.667  14.183  0.6217  1.8038 -0.7827
   30TCq2    H4  471   0.709   0.480  13.799  0.2197 -0.7672  0.9667
   31MPD2     C  472   3.378   4.130  14.499 -0.4905  0.1099  0.3443
   31MPD2    C1  473   3.271   4.093  14.426 -0.2651 -0.5602  0.2400
   31MPD2    C2  474   3.203   3.981  14.459 -0.0823  0.4880 -0.0224
   31MPD2    C3  475   3.234   3.906  14.570 -0.5285  0.5756 -0.4928
   31MPD2    C4  476   3.351   3.945  14.636 -0.4778 -0.2145 -0.2344
   31MPD2    C5  477   3.415   4.058  14.607  0.0825 -0.0554  0.2238
   31MPD2     H  478   3.119   3.967  14.393 -0.3874  0.0948  0.4532
   31MPD2    H1  479   3.375   3.885  14.723 -2.8707 -1.0293 -0.1519
   31MPD2    H2  480   3.426   4.226  14.484 -3.0661  1.0109 -2.0747
   31MPD2    H3  481   3.509   4.079  14.657 -0.0857  2.1548 -0.3970
   31MPD2     N  482   3.161   3.799  14.623 -0.2191  0.6834 -0.0835
   31MPD2    H5  483   3.186   3.762  14.714 -0.4874 -1.4850 -0.8767
   31MPD2    N1  484   3.226   4.187  14.319  0.2916  0.1969 -0.0271
   31MPD2    H7  485   3.278   4.274  14.321  0.1766  0.2680 -0.1961
   32TCq2    C1  486   3.028   3.768  14.591 -0.1934 -0.1817  1.3097
   32TCq2    O2  487   2.968   3.812  14.492  0.0522 -0.3309 -0.3952
   32TCq2    C2  488   2.961   3.679  14.687  0.6185 -0.1931 -0.1526
   32TCq2    C3  489   2.839   3.636  14.651  0.4326 -0.0462  0.2385
   32TCq2    C4  490   2.755   3.578  14.742  0.4158  0.1631 -0.9113
   32TCq2    C5  491   2.806   3.547  14.865  0.3360 -0.3704  0.1777
   32TCq2    C6  492   2.929   3.592  14.899  0.2663 -0.7718  0.4062
   32TCq2    C7  493   3.004   3.674  14.821  0.2743  0.3551  0.2167
   32TCq2    C8  494   2.973   3.586  15.036 -0.1182  0.2058 -0.3732
   32TCq2    O4  495   3.094   3.564  15.059  0.0071 -0.3742  0.0498
   32TCq2    C9  496   2.624   3.530  14.703 -0.1808 -0.3838 -0.4896
   32TCq2    O5  497   2.587   3.430  14.772 -0.3009  0.0852 -0.3677
   32TCq2    O6  498   2.545   3.610  14.650  0.3755 -0.5962 -0.1171
   32TCq2    H2  499   2.805   3.637  14.547  2.5138 -0.9711 -0.4379
   32TCq2    H3  500   2.746   3.498  14.941 -0.3131  0.0970 -0.0353
   32TCq2    H4  501   3.092   3.725  14.857 -0.1394  2.2756 -1.4673
   33MPD2     C  502   3.468   0.330   9.183  0.4521 -0.2425 -0.7559
   33MPD2    C1  503   3.497   0.418   9.287  0.2755 -0.6424  0.0032
   33MPD2    C2  504   3.614   0.490   9.285  0.9190 -0.0756  0.1372
   33MPD2    C3  505   3.711   0.458   9.189  0.4979 -0.0872 -0.0418
   33MPD2    C4  506   3.680   0.377   9.087  0.1653  0.5126 -0.6184
   33MPD2    C5  507   3.556   0.319   9.079 -0.0176  0.2691 -0.0899
   33MPD2     H  508   3.619   0.578   9.348 -0.1856  1.2839 -1.6409
   33MPD2    H1  509   3.749   0.375   9.003  1.3466 -0.8459  0.3796
   33MPD2    H2  510   3.376   0.273   9.181  0.7749 -0.7537 -1.3442
   33MPD2    H3  511   3.543   0.252   8.995 -0.2355 -2.4540  2.1066
   33MPD2     N  512   3.839   0.516   9.183  0.5377  0.2102 -0.1400
   33MPD2    H5  513   3.900   0.499   9.103  1.4611  2.9098 -0.0178
   33MPD2    N1  514   3.392   0.427   9.383  0.2777 -0.1233 -0.5315
   33MPD2    H7  515   3.307   0.373   9.371 -0.8020  1.7102 -1.2272
   34TCq2    C1  516   3.888   0.601   9.278 -0.1437  0.3594  0.5500
   34TCq2    O2  517   3.829   0.652   9.374 -0.3627  0.0080 -0.0345
   34TCq2    C2  518   4.027   0.641   9.247 -0.1429 -0.7287 -0.2080
   34TCq2    C3  519   4.102   0.559   9.164 -0.2067 -0.3663  0.0645
   34TCq2    C4  520   4.224   0.602   9.126  0.3259  0.1062 -0.5269
   34TCq2    C5  521   4.267   0.721   9.176  0.0367 -0.3397 -0.4730
   34TCq2    C6  522   4.197   0.793   9.274  0.6511 -0.1539  0.0738
   34TCq2    C7  523   4.075   0.753   9.310  0.2684 -0.1555 -0.6151
   34TCq2    C8  524   4.235   0.933   9.300 -0.0097  0.3714 -0.3349
   34TCq2    O4  525   4.182   0.994   9.393 -0.0095  0.1195  0.6441
   34TCq2    C9  526   4.300   0.525   9.031  0.6130  0.0555 -0.2662
   34TCq2    O5  527   4.251   0.419   8.986 -0.1513 -0.1929 -0.2931
   34TCq2    O6  528   4.409   0.588   9.001  0.4978 -0.3181 -0.2835
   34TCq2    H2  529   4.066   0.471   9.112  0.7965 -1.5850  1.4393
   34TCq2    H3  530   4.362   0.760   9.141  0.7095 -1.2111  0.3899
   34TCq2    H4  531   4.025   0.797   9.395  0.6098  2.2844 -1.6920
   35MPD2     C  532   0.236   2.858  11.758 -0.3795  0.3335 -0.2503
   35MPD2    C1  533   0.211   2.722  11.773 -0.3826 -0.3324 -0.3635
   35MPD2    C2  534   0.098   2.667  11.702 -0.1578 -0.6578  0.1275
   35MPD2    C3  535   0.023   2.742  11.617  0.3289 -0.0685  0.4665
   35MPD2    C4  536   0.048   2.877  11.597  0.5541  0.0940 -0.1208
   35MPD2    C5  537   0.150   2.923  11.674 -0.2367 -1.0661 -0.7742
   35MPD2     H  538   0.070   2.565  11.726  2.5405 -1.2977  0.5624
   35MPD2    H1  539   4.714   2.946  11.541  1.5145  0.7841 -0.3380
   35MPD2    H2  540   0.325   2.907  11.796  1.0464 -2.0174 -0.5112
   35MPD2    H3  541   0.173   3.029  11.665  0.5093 -0.9849  1.9742
   35MPD2     N  542   4.641   2.674  11.555 -0.3423 -0.2282 -0.1619
   35MPD2    H5  543   4.623   2.582  11.594 -0.3030 -1.2096 -2.5019
   35MPD2    N1  544   0.284   2.657  11.868 -0.1232 -0.1634 -0.5099
   35MPD2    H7  545   0.350   2.714  11.920 -0.1383  1.0165 -1.7976
   36TCq2    C1  546   4.571   2.723  11.446  0.0465  0.4593 -0.2243
   36TCq2    O2  547   4.584   2.828  11.387 -0.4434  0.3139  0.3298
   36TCq2    C2  548   4.469   2.633  11.401 -0.2936  0.3172  1.0050
   36TCq2    C3  549   4.428   2.650  11.272  0.4331  0.0037 -0.2611
   36TCq2    C4  550   4.316   2.595  11.240  0.6338  0.0584  0.2594
   36TCq2    C5  551   4.235   2.527  11.329  0.2321 -0.9667  0.7076
   36TCq2    C6  552   4.278   2.503  11.455  0.4540 -0.2427  0.2861
   36TCq2    C7  553   4.398   2.551  11.495 -0.8471  0.2234  0.4017
   36TCq2    C8  554   4.226   2.386  11.510  0.3333 -0.3176  0.3849
   36TCq2    O4  555   4.109   2.355  11.480  0.1763  0.5624  0.4044
   36TCq2    C9  556   4.277   2.602  11.099  0.2183  0.0786 -0.3088
   36TCq2    O5  557   4.362   2.639  11.018 -0.3230 -0.1033  0.1762
   36TCq2    O6  558   4.178   2.529  11.072 -0.3507 -0.4967 -0.2555
   36TCq2    H2  559   4.488   2.699  11.197 -2.5842  0.2208 -2.5635
   36TCq2    H3  560   4.149   2.473  11.290 -1.3143  1.8014  0.2972
   36TCq2    H4  561   4.425   2.536  11.599  0.0530  2.4403  0.5060
   37TMC2    C1  562   1.976   2.526  11.672 -0.2547 -0.0851 -0.0076
   37TMC2    C2  563   1.912   2.455  11.576  0.0103  0.2497  0.9570
   37TMC2    C3  564   1.972   2.402  11.467  0.1601  0.2713 -0.6609
   37TMC2    C4  565   2.110   2.559  11.654 -0.0484 -0.3079 -0.1907
   37TMC2    C5  566   2.166   2.505  11.541  0.0174  0.1869 -0.8824
   37TMC2    C6  567   2.102   2.423  11.453 -0.1212 -0.1090  0.6200
   37TMC2     C  568   1.919   2.531  11.799  1.0030  0.3522 -0.5242
   37TMC2     O  569   1.797   2.527  11.818 -0.7072 -0.5375 -0.0805
   37TMC2     H  570   1.809   2.425  11.586 -0.6285  1.7796 -1.0141
   37TMC2    H1  571   2.171   2.625  11.714  0.7043 -1.3700  0.2148
   37TMC2    H2  572   2.151   2.357  11.382  0.6362  1.3222 -0.1950
   37TMC2    C7  573   2.307   2.503  11.541  0.3614 -0.0440 -0.0255
   37TMC2    C8  574   1.882   2.373  11.359  0.6447  0.1674  0.1882
   37TMC2    O1  575   2.365   2.508  11.653 -0.0231 -0.4785 -0.6441
   37TMC2    O2  576   1.766   2.331  11.374  0.2012  0.8985  0.0179
   37TMC2    O5  577   1.943   2.404  11.249  0.1440 -0.8056 -0.3566
   37TMC2    H5  578   2.038   2.420  11.267 -0.1482 -0.5872  0.9763
   38MPD2     C  579   1.965   2.617  12.293  0.4057 -0.3373  0.5771
   38MPD2    C1  580   2.089   2.584  12.241 -0.3337 -0.1212 -0.2096
   38MPD2    C2  581   2.104   2.566  12.109  0.2957 -0.3160 -0.5582
   38MPD2    C3  582   1.994   2.564  12.030 -0.7213 -0.2669 -0.4076
   38MPD2    C4  583   1.872   2.597  12.081  0.4629 -0.0020  0.2973
   38MPD2    C5  584   1.863   2.624  12.216  0.0032 -0.4863  0.2789
   38MPD2     H  585   2.199   2.561  12.056 -0.2463 -0.8778 -1.4843
   38MPD2    H1  586   1.775   2.585  12.035 -0.0600 -0.5597  1.5557
   38MPD2    H2  587   1.942   2.645  12.395 -0.8940 -0.5283  0.3343
   38MPD2    H3  588   1.769   2.646  12.264  0.5689  1.1473  0.6373
   38MPD2     N  589   2.015   2.545  11.895  0.1734 -0.2127 -0.5878
   38MPD2    H5  590   2.110   2.522  11.868  1.1707  2.0649  0.9836
   38MPD2    N1  591   2.203   2.579  12.323 -0.0017 -0.7497 -0.0335
   38MPD2    H7  592   2.284   2.531  12.285  0.7716 -0.1216  0.8105
   39MPD2     C  593   0.555   4.074   1.217  0.0943 -0.8259 -0.0769
   39MPD2    C1  594   0.465   4.081   1.330  0.1444 -0.8776 -0.5155
   39MPD2    C2  595   0.329   4.105   1.305  0.1027 -0.3021 -0.0190
   39MPD2    C3  596   0.286   4.112   1.174  0.5324  0.1978 -0.3980
   39MPD2    C4  597   0.375   4.085   1.068  0.0620 -0.6712 -0.0608
   39MPD2    C5  598   0.507   4.086   1.087  0.1217 -0.0899  0.6528
   39MPD2     H  599   0.263   4.141   1.383 -0.0031 -2.6261  0.9658
   39MPD2    H1  600   0.338   4.098   0.967 -1.7229 -1.7732  0.4512
   39MPD2    H2  601   0.663   4.066   1.223  0.2145  0.2696 -0.7573
   39MPD2    H3  602   0.570   4.074   0.999  1.7035  0.1286  1.7417
   39MPD2     N  603   0.160   4.158   1.129 -0.6974 -0.0682  0.1208
   39MPD2    H5  604   0.143   4.164   1.029  0.9167  0.9059 -0.0896
   39MPD2    N1  605   0.521   4.061   1.455 -0.2355  0.5239 -0.0852
   39MPD2    H7  606   0.620   4.043   1.459 -0.0534  1.1309 -2.0716
   40TCq2    C1  607   0.450   4.073   1.575  0.7500  0.3026  0.4209
   40TCq2    O2  608   0.333   4.098   1.596 -0.0550 -0.0443 -1.0048
   40TCq2    C2  609   0.533   4.047   1.693  0.1001 -0.4062 -0.4085
   40TCq2    C3  610   0.478   3.964   1.785 -0.3868  0.1689 -0.5180
   40TCq2    C4  611   0.543   3.956   1.906  0.4475  0.5208 -0.9023
   40TCq2    C5  612   0.662   4.011   1.921 -0.0076  1.0811 -0.2016
   40TCq2    C6  613   0.718   4.092   1.826  0.1445  0.0892  0.1502
   40TCq2    C7  614   0.652   4.113   1.708  0.3412  0.1783 -0.3748
   40TCq2    C8  615   0.851   4.138   1.859 -0.4231  0.3231 -0.6835
   40TCq2    O4  616   0.919   4.070   1.931  0.5278 -0.5806  0.3117
   40TCq2    C9  617   0.485   3.882   2.009  0.4559 -0.6323 -0.2317
   40TCq2    O5  618   0.548   3.877   2.118  0.6460  0.0336 -0.4630
   40TCq2    O6  619   0.370   3.832   1.994 -0.5919  0.6551 -0.1528
   40TCq2    H2  620   0.378   3.927   1.769  0.0906 -0.1784 -2.7128
   40TCq2    H3  621   0.716   3.988   2.013  0.2840  1.7588 -0.2030
   40TCq2    H4  622   0.706   4.166   1.630  2.8764 -0.0241  1.2420
   41TMC2    C1  623   4.089   2.263  13.812  0.1408  1.0516 -0.3503
   41TMC2    C2  624   4.075   2.154  13.733  0.1547 -0.0083 -0.0949
   41TMC2    C3  625   4.057   2.176  13.602 -0.8374 -0.2890 -0.4419
   41TMC2    C4  626   4.117   2.384  13.758  0.7373 -0.5599  0.0101
   41TMC2    C5  627   4.102   2.401  13.626  0.1982 -0.2028 -0.3030
   41TMC2    C6  628   4.067   2.301  13.544 -0.0469 -0.3195  0.5938
   41TMC2     C  629   4.112   2.243  13.957 -0.0161  0.4048 -0.1489
   41TMC2     O  630   4.104   2.129  14.004  0.2743  0.4318 -0.3467
   41TMC2     H  631   4.054   2.055  13.773 -0.4594 -1.1217 -3.2089
   41TMC2    H1  632   4.136   2.469  13.822 -2.6548 -0.7455  1.2342
   41TMC2    H2  633   4.057   2.310  13.436  1.1581  0.4458  0.5449
   41TMC2    C7  634   4.129   2.531  13.578  0.1713 -0.0658 -0.4098
   41TMC2    C8  635   3.979   2.086  13.524 -0.4099 -0.2995 -0.5912
   41TMC2    O1  636   4.111   2.618  13.658  0.2224 -0.5518  0.1271
   41TMC2    O2  637   3.873   2.121  13.475 -0.9327 -0.5077 -0.1110
   41TMC2    O5  638   4.023   1.960  13.547 -0.1306 -0.1989  0.0383
   41TMC2    H5  639   4.119   1.960  13.568  0.2171  0.9914 -1.5057
   42MPD2     C  640   4.167   2.250  14.246 -0.5313  0.1183  0.0902
   42MPD2    C1  641   4.160   2.360  14.166 -0.2317 -0.0420  0.8713
   42MPD2    C2  642   4.166   2.487  14.224 -0.1298 -0.3498 -0.1678
   42MPD2    C3  643   4.169   2.494  14.364 -0.0179 -0.7249  0.2972
   42MPD2    C4  644   4.183   2.378  14.442  0.6123 -0.5799 -0.1813
   42MPD2    C5  645   4.186   2.255  14.384 -0.5415  0.0286  0.0963
   42MPD2     H  646   4.169   2.574  14.160  2.1922 -1.3107 -1.3801
   42MPD2    H1  647   4.176   2.376  14.550  1.1427  1.6045 -0.1127
   42MPD2    H2  648   4.174   2.147  14.214 -0.3731  0.0217  0.4377
   42MPD2    H3  649   4.203   2.159  14.431  1.9873  0.9686  1.1293
   42MPD2     N  650   4.162   2.624  14.429 -0.2191  0.4126 -0.4328
   42MPD2    H5  651   4.171   2.622  14.530 -0.5008 -2.3715 -0.4680
   42MPD2    N1  652   4.127   2.351  14.028 -0.1220 -0.3006 -0.2097
   42MPD2    H7  653   4.107   2.439  13.983  2.9097 -0.8080 -2.5519
   43MPD2     C  654   0.536   0.694   0.816  0.2569  0.2661 -0.7806
   43MPD2    C1  655   0.645   0.766   0.786 -0.5024 -0.2554  1.4287
   43MPD2    C2  656   0.630   0.908   0.777 -0.5027  0.4994 -0.8477
   43MPD2    C3  657   0.504   0.970   0.783  0.1336  0.2390  0.1641
   43MPD2    C4  658   0.389   0.894   0.817  0.0286  0.2067 -0.0040
   43MPD2    C5  659   0.414   0.758   0.832  0.6348 -0.2038  0.9912
   43MPD2     H  660   0.721   0.964   0.762 -0.5184  1.0494  1.2495
   43MPD2    H1  661   0.292   0.938   0.838 -0.7755 -1.2523 -0.7084
   43MPD2    H2  662   0.533   0.586   0.819 -1.4185  0.3570  1.0370
   43MPD2    H3  663   0.322   0.703   0.848  0.8437 -1.2098 -1.2316
   43MPD2     N  664   0.487   1.108   0.737  0.3099 -0.0753 -0.2098
   43MPD2    H5  665   0.393   1.143   0.723  0.3497 -0.1920 -0.7752
   43MPD2    N1  666   0.771   0.709   0.754  0.4155  0.3620 -0.0463
   43MPD2    H7  667   0.847   0.775   0.744  0.7677 -0.1439 -0.7148
   44TCq2    C1  668   0.673   1.669   0.606 -1.0989 -0.4355  0.7735
   44TCq2    O2  669   0.646   1.752   0.527 -0.7893  0.2813  0.1938
   44TCq2    C2  670   0.585   1.552   0.603 -0.6783  0.3287 -0.7503
   44TCq2    C3  671   0.493   1.544   0.505 -0.4028  0.2592  0.1954
   44TCq2    C4  672   0.411   1.434   0.484 -0.2208  0.7571 -0.2531
   44TCq2    C5  673   0.440   1.325   0.559 -0.0571  0.2729 -0.7464
   44TCq2    C6  674   0.531   1.334   0.659 -0.2311  0.1574  0.0544
   44TCq2    C7  675   0.605   1.446   0.688  0.3830  0.2545 -0.3445
   44TCq2    C8  676   0.586   1.205   0.723  0.1087  0.3586  0.5681
   44TCq2    O4  677   0.700   1.201   0.765 -0.5308  0.4477 -0.2713
   44TCq2    C9  678   0.341   1.423   0.357 -0.0411  0.1050 -0.1813
   44TCq2    O5  679   0.332   1.528   0.292 -0.0019 -0.0295 -0.0656
   44TCq2    O6  680   0.287   1.315   0.332 -0.0967  0.2820 -0.6322
   44TCq2    H2  681   0.470   1.616   0.427 -0.5958  0.4557  0.4317
   44TCq2    H3  682   0.390   1.233   0.531 -0.1794  0.1826 -0.2449
   44TCq2    H4  683   0.675   1.445   0.770 -1.3946 -3.2168  1.1193
   45TMC2    C1  684   2.070   2.324   9.536 -0.0873 -0.2865 -0.4831
   45TMC2    C2  685   2.200   2.307   9.507  0.1054 -0.3220 -0.5241
   45TMC2    C3  686   2.291   2.388   9.571  0.0548 -0.8803 -0.2011
   45TMC2    C4  687   2.030   2.422   9.626 -0.0260  0.2581 -0.0375
   45TMC2    C5  688   2.123   2.504   9.685 -0.1215  0.5935 -0.0735
   45TMC2    C6  689   2.252   2.496   9.647  0.1901 -0.6239  0.1857
   45TMC2     C  690   1.976   2.247   9.456 -0.2113  0.0318 -0.0575
   45TMC2     O  691   2.020   2.149   9.401  0.6949  0.3614  0.6485
   45TMC2     H  692   2.227   2.235   9.431 -0.1477 -1.0346  0.0692
   45TMC2    H1  693   1.923   2.428   9.645  0.2681 -1.8238  2.2855
   45TMC2    H2  694   2.311   2.585   9.664  2.1243 -1.9280  0.3133
   45TMC2    C7  695   2.080   2.606   9.775  0.2987 -0.4508  0.1920
   45TMC2    C8  696   2.413   2.406   9.500 -0.2730 -0.2114 -0.2849
   45TMC2    O1  697   2.163   2.653   9.849 -0.2539  0.1843  0.1130
   45TMC2    O2  698   2.448   2.527   9.496 -0.1459 -0.1299 -0.5476
   45TMC2    O5  699   2.443   2.307   9.413 -0.2102 -0.3665 -0.6720
   45TMC2    H5  700   2.413   2.221   9.451  1.5616 -0.7229 -0.0874
   46MPD2     C  701   1.742   2.149   9.307  0.5758 -0.1625  0.6685
   46MPD2    C1  702   1.741   2.271   9.374 -1.0370 -0.5919 -0.1234
   46MPD2    C2  703   1.621   2.341   9.382  0.0491  0.6438  0.2060
   46MPD2    C3  704   1.505   2.296   9.317 -0.8633  0.2383 -0.0593
   46MPD2    C4  705   1.514   2.177   9.246  0.2149  0.9099  0.7421
   46MPD2    C5  706   1.634   2.112   9.237  0.2357 -1.2419 -0.1269
   46MPD2     H  707   1.618   2.431   9.443 -1.6730  0.6475  0.1178
   46MPD2    H1  708   1.432   2.126   9.196  0.1400  1.4111  0.3520
   46MPD2    H2  709   1.822   2.076   9.307  0.4569 -0.2977 -2.3127
   46MPD2    H3  710   1.634   2.015   9.190 -0.8863 -1.7123  0.8211
   46MPD2     N  711   1.390   2.373   9.328  0.7618  0.2422  0.2810
   46MPD2    H5  712   1.396   2.462   9.377  0.7149  0.6028 -0.3685
   46MPD2    N1  713   1.850   2.310   9.451 -0.6816  0.4891 -0.2321
   46MPD2    H7  714   1.830   2.382   9.520 -1.9717  1.8332 -2.0186
   47TMC2    C1  715   4.386   2.705   9.703  0.0576 -0.3149 -0.1570
   47TMC2    C2  716   4.444   2.599   9.649  0.0407 -0.3993  0.0877
   47TMC2    C3  717   4.393   2.550   9.533  0.0701  0.4052 -0.9043
   47TMC2    C4  718   4.276   2.764   9.652 -0.1380  0.2580  0.3519
   47TMC2    C5  719   4.225   2.706   9.540 -0.1874  0.0036 -1.1734
   47TMC2    C6  720   4.279   2.597   9.479  0.0132  0.4276 -0.5123
   47TMC2     C  721   4.412   2.742   9.841  0.3415 -0.1691  0.5327
   47TMC2     O  722   4.404   2.854   9.884  0.0316  0.5678  0.9695
   47TMC2     H  723   4.540   2.563   9.685  0.7330  0.0128 -1.3515
   47TMC2    H1  724   4.231   2.849   9.703 -2.3466  1.3224 -3.4019
   47TMC2    H2  725   4.227   2.561   9.391 -1.6563  2.9948 -0.5729
   47TMC2    C7  726   4.082   2.714   9.513  0.4953 -0.3188 -0.6383
   47TMC2    C8  727   4.478   2.471   9.449  0.0873  0.5336  0.7881
   47TMC2    O1  728   4.055   2.677   9.399  0.3353 -0.2129  0.0328
   47TMC2    O2  729   4.562   2.394   9.484 -0.0795  0.3625  0.7128
   47TMC2    O5  730   4.492   2.533   9.329 -0.2870  0.1113 -0.2026
   47TMC2    H5  731   4.440   2.615   9.320 -0.2355  0.2297  0.5328
   48MPD2     C  732   4.468   2.746  10.135 -0.6162  0.2233 -0.2167
   48MPD2    C1  733   4.482   2.632  10.056 -0.2124  0.4858  0.5861
   48MPD2    C2  734   4.547   2.520  10.105 -0.3898  0.1819 -0.3182
   48MPD2    C3  735   4.566   2.495  10.234 -0.0358 -0.8009  0.0064
   48MPD2    C4  736   4.545   2.600  10.317 -0.9634 -0.5841  0.0112
   48MPD2    C5  737   4.505   2.724  10.270 -0.4251  0.3286  0.3091
   48MPD2     H  738   4.564   2.443  10.030  1.3422  0.7274 -0.4916
   48MPD2    H1  739   4.566   2.597  10.423  1.0205 -0.2688 -0.3724
   48MPD2    H2  740   4.445   2.847  10.103  1.6108  0.4103 -1.2308
   48MPD2    H3  741   4.507   2.814  10.330 -3.2967  1.0807 -0.7297
   48MPD2     N  742   4.636   2.381  10.277 -0.7221 -0.5095  0.3220
   48MPD2    H5  743   4.674   2.320  10.204 -0.9341 -1.0265  0.6439
   48MPD2    N1  744   4.465   2.634   9.912  0.4960  0.5768 -0.5040
   48MPD2    H7  745   4.480   2.544   9.868 -0.0263  0.1006  0.3044
   49MPD2     C  746   2.575   0.478   9.754 -0.3385 -0.1762  0.3200
   49MPD2    C1  747   2.473   0.469   9.843  0.1026 -0.0847 -1.6266
   49MPD2    C2  748   2.489   0.473   9.978 -0.3444 -0.0153 -0.7247
   49MPD2    C3  749   2.611   0.502  10.035 -0.0249  0.5863  0.1061
   49MPD2    C4  750   2.713   0.527   9.942  0.5419 -0.2891  0.1704
   49MPD2    C5  751   2.700   0.504   9.806 -0.2150  0.3108 -0.4018
   49MPD2     H  752   2.403   0.450  10.040 -0.6721  0.1326 -1.1184
   49MPD2    H1  753   2.812   0.554   9.978  1.8423 -1.0137 -2.7651
   49MPD2    H2  754   2.569   0.468   9.646 -1.4455 -0.6098  0.4222
   49MPD2    H3  755   2.792   0.520   9.751 -0.1534  2.0701  0.1931
   49MPD2     N  756   2.633   0.511  10.178 -0.4351 -0.1460 -0.3123
   49MPD2    H5  757   2.727   0.508  10.215 -0.0696  1.3028 -1.1375
   49MPD2    N1  758   2.339   0.453   9.803 -0.1123 -0.6842 -0.0435
   49MPD2    H7  759   2.268   0.441   9.874 -2.5456  0.5252 -2.2492
   50TCq2    C1  760   2.295   0.445   9.667  0.0257 -0.7429 -0.0419
   50TCq2    O2  761   2.358   0.458   9.561  0.1087  0.4363  0.1721
   50TCq2    C2  762   2.154   0.418   9.662  0.7532  0.0127 -0.7637
   50TCq2    C3  763   2.094   0.439   9.538  0.4296  0.4575  0.6140
   50TCq2    C4  764   1.969   0.400   9.512 -0.6517 -0.8086 -0.3091
   50TCq2    C5  765   1.903   0.325   9.607  0.4850  0.4088  0.0338
   50TCq2    C6  766   1.972   0.288   9.722  0.1441 -0.2308  0.1218
   50TCq2    C7  767   2.098   0.336   9.751  0.4181 -0.5805 -0.0373
   50TCq2    C8  768   1.923   0.185   9.815  0.5937 -0.3794 -0.4209
   50TCq2    O4  769   1.977   0.170   9.922 -0.1702 -0.7083 -0.0247
   50TCq2    C9  770   1.916   0.428   9.383 -1.5728 -0.3382 -0.2589
   50TCq2    O5  771   1.842   0.346   9.326 -0.1847 -0.0457  0.4165
   50TCq2    O6  772   1.964   0.529   9.329 -0.4313 -0.0062  0.9243
   50TCq2    H2  773   2.150   0.504   9.473  0.4337  0.0406  0.2042
   50TCq2    H3  774   1.801   0.296   9.583  1.4559 -2.8067 -0.1552
   50TCq2    H4  775   2.163   0.278   9.816  0.6249 -0.9830 -0.6060
   51MPD2     C  776   2.466   4.210   1.283 -0.6501 -0.5586 -0.3143
   51MPD2    C1  777   2.533   4.116   1.357 -0.0124 -0.0762  0.4411
   51MPD2    C2  778   2.512   4.093   1.493  0.3203  0.7757 -0.2046
   51MPD2    C3  779   2.413   4.161   1.558 -0.4161 -0.1522  0.2622
   51MPD2    C4  780   2.339   4.248   1.476 -0.3318 -0.0876  0.1973
   51MPD2    C5  781   2.354   4.265   1.350 -0.4087 -0.2538 -0.0015
   51MPD2     H  782   2.574   4.024   1.550 -0.5200  0.8744  0.8271
   51MPD2    H1  783   2.250   4.298   1.514 -1.5748 -1.2806 -1.1476
   51MPD2    H2  784   2.463   4.201   1.175  1.2052 -2.6581 -0.1784
   51MPD2    H3  785   2.278   4.320   1.295 -2.0327 -3.7511 -1.2702
   51MPD2     N  786   2.377   4.141   1.698 -0.0633  0.6879  0.6082
   51MPD2    H5  787   2.319   4.210   1.744 -0.5116 -1.5299  3.4481
   51MPD2    N1  788   2.639   4.042   1.294  0.3252 -0.3805 -0.1905
   51MPD2    H7  789   2.673   3.960   1.344 -1.6832 -0.9537  0.2042
   52TCq2    C1  790   2.418   4.044   1.779  0.6502 -0.0718 -0.2119
   52TCq2    O2  791   2.493   3.952   1.749 -0.2821  0.0665 -0.3844
   52TCq2    C2  792   2.359   4.044   1.912 -0.3383  0.5833  0.4757
   52TCq2    C3  793   2.242   4.110   1.945  0.2913  0.6341  0.4742
   52TCq2    C4  794   2.214   4.143   2.077  0.3280  0.7102  0.1665
   52TCq2    C5  795   2.299   4.102   2.173 -0.3124  0.1720 -0.4308
   52TCq2    C6  796   2.406   4.024   2.142 -0.0821  0.4628 -0.3134
   52TCq2    C7  797   2.441   3.998   2.012 -0.2037  0.0943 -0.0710
   52TCq2    C8  798   2.526   4.062   2.212  0.2830 -0.3344  0.6987
   52TCq2    O4  799   2.625   4.087   2.143 -0.5225 -0.3833 -0.1303
   52TCq2    C9  800   2.110   4.241   2.097  0.3390 -0.2647 -0.2101
   52TCq2    O5  801   2.079   4.309   1.999 -0.1817 -0.4196  0.1268
   52TCq2    O6  802   2.067   4.253   2.216  0.2408 -0.1889 -0.2830
   52TCq2    H2  803   2.177   4.150   1.868 -3.1869 -2.0646  1.9820
   52TCq2    H3  804   2.280   4.134   2.275  0.7685  0.4598 -0.3255
   52TCq2    H4  805   2.523   3.931   1.986 -0.0473  1.2551 -2.5157
   53TMC2    C1  806   3.010   2.521  11.670  0.9998 -0.6685 -0.4909
   53TMC2    C2  807   3.116   2.606  11.685 -1.2784 -0.0621  0.0901
   53TMC2    C3  808   3.130   2.677  11.802  0.1776 -0.1371  0.2905
   53TMC2    C4  809   2.917   2.501  11.770  0.3614  0.0069  0.0079
   53TMC2    C5  810   2.938   2.576  11.886 -1.1059 -0.4970 -0.1256
   53TMC2    C6  811   3.047   2.664  11.910  0.2449  0.1220  0.7139
   53TMC2     C  812   2.959   2.501  11.539  0.1633  0.0433 -0.2953
   53TMC2     O  813   3.036   2.502  11.443 -0.6475  0.1533 -0.5073
   53TMC2     H  814   3.187   2.621  11.605 -0.0922 -2.3363  0.7242
   53TMC2    H1  815   2.846   2.419  11.774  0.7639 -0.3456 -0.1648
   53TMC2    H2  816   3.068   2.717  12.002 -0.7800  1.2585  0.2948
   53TMC2    C7  817   2.805   2.606  11.939 -0.0632 -0.6728 -0.2450
   53TMC2    C8  818   3.224   2.788  11.799  1.3084 -1.2550 -0.1574
   53TMC2    O1  819   2.718   2.591  11.852 -0.0847 -0.4370 -0.0912
   53TMC2    O2  820   3.188   2.899  11.767  0.6570 -0.0545 -0.4495
   53TMC2    O5  821   3.306   2.767  11.907 -0.4626  0.2820  0.1039
   53TMC2    H5  822   3.323   2.671  11.921  0.6869  0.6507  1.1639
   54MPD2     C  823   2.771   2.489  11.303 -0.7772  0.3824  0.2249
   54MPD2    C1  824   2.736   2.494  11.439  0.3788 -0.0037 -0.6895
   54MPD2    C2  825   2.602   2.499  11.482  0.0193 -0.0731 -0.4613
   54MPD2    C3  826   2.503   2.499  11.386 -1.3130  0.4156 -0.0165
   54MPD2    C4  827   2.538   2.498  11.252  0.2354  0.1146 -0.2456
   54MPD2    C5  828   2.665   2.487  11.211  0.0679 -0.0458  0.2780
   54MPD2     H  829   2.588   2.486  11.588  1.4425  3.3103  0.1626
   54MPD2    H1  830   2.459   2.518  11.181 -0.4426 -1.3056  0.1245
   54MPD2    H2  831   2.873   2.497  11.269 -1.6309 -1.5557 -2.7533
   54MPD2    H3  832   2.683   2.498  11.104  0.1357  1.6131  0.4616
   54MPD2     N  833   2.367   2.507  11.417  0.1918  1.0610  0.0086
   54MPD2    H5  834   2.306   2.528  11.338  0.8268 -0.3302 -0.8636
   54MPD2    N1  835   2.826   2.507  11.543 -0.0815  0.2812 -0.2618
   54MPD2    H7  836   2.790   2.531  11.635 -1.3169 -0.0488 -0.6610
   55MPD2     C  837   3.465   0.288  17.349  0.1509  0.2339 -0.3470
   55MPD2    C1  838   3.413   0.223  17.457 -0.1526  0.3315  0.0553
   55MPD2    C2  839   3.288   0.249  17.505 -0.4975  0.4859  0.4786
   55MPD2    C3  840   3.212   0.349  17.438  0.2127  0.2814  0.3370
   55MPD2    C4  841   3.267   0.418  17.335  0.4689 -0.9846 -0.3256
   55MPD2    C5  842   3.395   0.388  17.296  0.2483  0.1961  0.3588
   55MPD2     H  843   3.246   0.197  17.591  0.0328  0.6911  0.8645
   55MPD2    H1  844   3.215   0.498  17.284 -1.0195 -2.6572 -1.4180
   55MPD2    H2  845   3.560   0.266  17.302  1.0862  3.0194  0.2560
   55MPD2    H3  846   3.439   0.448  17.217  0.4566  2.0134  1.8492
   55MPD2     N  847   3.080   0.376  17.490  0.5093  0.1150  0.1935
   55MPD2    H5  848   3.039   0.329  17.570  1.0078  0.5874  0.7205
   55MPD2    N1  849   3.503   0.121  17.504  0.0508  0.1387  0.0341
   55MPD2    H7  850   3.590   0.112  17.452  0.3184 -1.2016  0.7354
   56TCq2    C1  851   3.469   0.031  17.603 -0.3952 -0.4560 -0.4267
   56TCq2    O2  852   3.374   0.034  17.682 -0.4166  0.0754 -0.2264
   56TCq2    C2  853   3.575   4.655  17.615 -0.9787  0.4079  0.4686
   56TCq2    C3  854   3.669   4.657  17.528 -0.2574  0.2185  0.1390
   56TCq2    C4  855   3.793   4.612  17.565  0.0315  0.0310  0.7567
   56TCq2    C5  856   3.820   4.600  17.700  0.3969  0.0033  0.3640
   56TCq2    C6  857   3.718   4.606   0.079 -0.0139  0.3752  0.0747
   56TCq2    C7  858   3.592   4.631   0.034  0.2608 -0.5796  0.1052
   56TCq2    C8  859   3.746   4.640   0.216  0.1932  0.2921 -0.1419
   56TCq2    O4  860   3.861   4.671   0.241  0.0425 -0.1984  0.4574
   56TCq2    C9  861   3.885   4.576  17.461  0.7096 -0.2956  0.3152
   56TCq2    O5  862   3.882   4.629  17.347 -0.1515 -0.0553 -0.3079
   56TCq2    O6  863   3.963   4.483  17.494 -0.7538 -0.1874  0.0656
   56TCq2    H2  864   3.648   4.671  17.423 -0.5398  1.2280  0.3221
   56TCq2    H3  865   3.912   4.552   0.019 -0.6642 -1.5875  1.0513
   56TCq2    H4  866   3.503   4.646   0.094  1.1874  3.2637  0.5422
   57TMC2    C1  867   2.714   1.459  13.452  0.2467  0.7124 -0.1196
   57TMC2    C2  868   2.775   1.515  13.557  0.2342  0.4940 -0.3303
   57TMC2    C3  869   2.909   1.499  13.584  0.0204  0.1759  0.4276
   57TMC2    C4  870   2.793   1.395  13.362  0.4405  0.3887 -0.1065
   57TMC2    C5  871   2.934   1.391  13.379 -0.9811 -0.0060  0.3153
   57TMC2    C6  872   2.995   1.431  13.494  0.1765 -0.4490 -0.6297
   57TMC2     C  873   2.572   1.496  13.433 -0.1508 -0.3534 -0.1349
   57TMC2     O  874   2.521   1.565  13.522  0.4802  0.0482  0.5683
   57TMC2     H  875   2.719   1.577  13.625  0.7250 -1.6256  2.0114
   57TMC2    H1  876   2.755   1.368  13.264 -0.9527 -0.6388  0.7320
   57TMC2    H2  877   3.101   1.413  13.512  0.1621  0.2188  0.1465
   57TMC2    C7  878   3.010   1.375  13.256  0.3453 -0.3844 -0.2785
   57TMC2    C8  879   2.965   1.543  13.710  0.4177 -0.8284 -0.0919
   57TMC2    O1  880   2.960   1.316  13.162  0.2375 -0.1029 -0.2170
   57TMC2    O2  881   3.085   1.570  13.728 -0.1724  0.1591  0.0402
   57TMC2    O5  882   2.874   1.529  13.808 -0.2876  0.3719 -0.0525
   57TMC2    H5  883   2.787   1.489  13.786 -0.6967  1.6936 -0.8437
   58MPD2     C  884   2.111   1.485  13.190 -0.3537 -0.4240  0.5669
   58MPD2    C1  885   2.163   1.553  13.300  1.0483 -0.0975 -0.3207
   58MPD2    C2  886   2.287   1.531  13.356 -0.2646 -0.6517 -0.3666
   58MPD2    C3  887   2.378   1.439  13.295  0.2365  0.6524  0.1906
   58MPD2    C4  888   2.331   1.371  13.180  0.1339 -0.1040 -0.1189
   58MPD2    C5  889   2.197   1.389  13.142  1.2092 -0.0024  0.1208
   58MPD2     H  890   2.293   1.574  13.455  1.7070 -0.8520 -0.4070
   58MPD2    H1  891   2.395   1.298  13.132  0.9166  0.2978  0.3118
   58MPD2    H2  892   2.012   1.494  13.148  0.1779 -2.5207 -1.1204
   58MPD2    H3  893   2.163   1.347  13.048 -1.2436  0.6265  0.7080
   58MPD2     N  894   2.514   1.430  13.329 -0.3092  0.0072  0.0660
   58MPD2    H5  895   2.574   1.368  13.275 -0.3291 -0.3965  0.5078
   58MPD2    N1  896   2.081   1.649  13.368 -0.2061  0.0639  0.2923
   58MPD2    H7  897   2.127   1.689  13.450  0.2051  0.0141  0.0850
   59MPD2     C  898   0.388   1.468  13.053 -0.7733 -0.1257 -0.1599
   59MPD2    C1  899   0.378   1.556  12.946 -0.6589 -1.0016  0.1805
   59MPD2    C2  900   0.443   1.675  12.950  0.7541 -0.5576  0.1041
   59MPD2    C3  901   0.505   1.713  13.071  0.1752 -0.3108  0.3222
   59MPD2    C4  902   0.505   1.634  13.178  0.0781  0.1284 -0.1923
   59MPD2    C5  903   0.442   1.510  13.172 -0.4835 -0.2661 -0.3663
   59MPD2     H  904   0.439   1.725  12.854  1.2435 -0.6227  0.0459
   59MPD2    H1  905   0.550   1.661  13.273 -0.0563 -1.2820  0.2698
   59MPD2    H2  906   0.337   1.373  13.060 -1.3851  0.2699  0.7804
   59MPD2    H3  907   0.443   1.453  13.264  1.7022 -0.3493 -0.4306
   59MPD2     N  908   0.574   1.834  13.087 -0.3697  0.3005  0.4628
   59MPD2    H5  909   0.601   1.854  13.183 -1.8383  0.5045  0.8229
   59MPD2    N1  910   0.321   1.512  12.827 -0.6541  0.7212 -0.6031
   59MPD2    H7  911   0.328   1.580  12.752  1.4907  1.1661 -0.0113
   60TCq2    C1  912   0.299   1.377  12.794  0.2773 -0.1931  0.0359
   60TCq2    O2  913   0.294   1.276  12.858 -0.1900 -0.2905  0.2237
   60TCq2    C2  914   0.257   1.363  12.652  0.2326  0.4286 -0.4342
   60TCq2    C3  915   0.177   1.259  12.605 -0.4321  0.0582 -0.1335
   60TCq2    C4  916   0.153   1.249  12.469 -1.0489  0.0466 -0.4206
   60TCq2    C5  917   0.216   1.333  12.381  0.2937  0.1842  0.5296
   60TCq2    C6  918   0.313   1.425  12.429  0.1348 -0.1180  0.1870
   60TCq2    C7  919   0.334   1.435  12.566  0.3028 -0.0803  0.3896
   60TCq2    C8  920   0.389   1.495  12.320  0.6412  0.3512  0.2171
   60TCq2    O4  921   0.413   1.422  12.223 -0.3947  0.0556  0.8017
   60TCq2    C9  922   0.066   1.146  12.419  0.8359 -0.2029 -0.0470
   60TCq2    O5  923   0.002   1.094  12.512 -0.2004  0.0155  0.4706
   60TCq2    O6  924   0.049   1.129  12.295 -0.3584 -0.1588  0.4260
   60TCq2    H2  925   0.119   1.193  12.668  1.4037  2.5706  4.1714
   60TCq2    H3  926   0.188   1.329  12.276  1.7241  0.8694  0.1236
   60TCq2    H4  927   0.422   1.491  12.598 -0.2149  0.7896  0.2670
   61MPD2     C  928   4.357   3.597  15.486  0.8444 -0.4780  0.5373
   61MPD2    C1  929   4.331   3.732  15.465 -0.1845  0.9338 -0.5905
   61MPD2    C2  930   4.355   3.786  15.341 -0.2541 -0.0614  0.1034
   61MPD2    C3  931   4.415   3.710  15.242  0.0070  0.8552 -0.2870
   61MPD2    C4  932   4.439   3.572  15.265 -0.0480 -0.9972  0.2320
   61MPD2    C5  933   4.405   3.514  15.387  0.3801 -1.0999 -0.0165
   61MPD2     H  934   4.328   3.887  15.314  0.7007 -0.0773 -0.9025
   61MPD2    H1  935   4.485   3.508  15.191 -1.9043 -0.3423 -1.4975
   61MPD2    H2  936   4.334   3.547  15.580 -1.6650  1.5784  1.0319
   61MPD2    H3  937   4.418   3.408  15.406 -4.9270 -1.6440  0.5070
   61MPD2     N  938   4.440   3.762  15.116 -0.3124 -0.2124 -0.7148
   61MPD2    H5  939   4.456   3.707  15.033 -2.9975  0.0371 -1.4067
   61MPD2    N1  940   4.289   3.819  15.573 -0.0324 -0.0026  0.6993
   61MPD2    H7  941   4.257   3.911  15.543  2.4294  0.4930 -0.4708
   62TCq2    C1  942   4.286   3.787  15.705 -0.0108  0.3097 -0.5929
   62TCq2    O2  943   4.327   3.685  15.759  0.1055  0.1134  0.0826
   62TCq2    C2  944   4.245   3.896  15.787 -0.4873  0.2851 -0.3859
   62TCq2    C3  945   4.254   3.885  15.923 -0.2882  0.3569 -0.1321
   62TCq2    C4  946   4.245   4.004  16.007  1.2460  0.3930  0.5569
   62TCq2    C5  947   4.207   4.121  15.947  0.2139  0.0236  0.4548
   62TCq2    C6  948   4.178   4.124  15.811  0.1284  0.0495  0.2766
   62TCq2    C7  949   4.204   4.014  15.733 -0.3028  0.1865  0.9518
   62TCq2    C8  950   4.200   4.244  15.739 -0.3852 -0.0582 -0.5284
   62TCq2    O4  951   4.277   4.233  15.645 -0.5607 -0.3553 -0.0521
   62TCq2    C9  952   4.280   4.003  16.149  0.4222 -0.5223 -0.5030
   62TCq2    O5  953   4.343   3.903  16.199 -0.5074 -0.1025 -0.5084
   62TCq2    O6  954   4.281   4.116  16.203  0.1163 -0.3567  0.1967
   62TCq2    H2  955   4.293   3.799  15.976  0.9416  0.3308 -1.0576
   62TCq2    H3  956   4.203   4.212  16.006  0.2169  0.3310 -0.0131
   62TCq2    H4  957   4.175   4.020  15.629 -3.4249  1.7677  1.9146
   63TMC2    C1  958   4.056   3.169  10.545  0.4551 -0.0317  0.3500
   63TMC2    C2  959   4.096   3.134  10.668  0.6397 -0.3012  0.4044
   63TMC2    C3  960   4.201   3.206  10.728 -0.0913  0.3901  0.3711
   63TMC2    C4  961   4.126   3.256  10.468  0.1817 -0.5066  1.5389
   63TMC2    C5  962   4.239   3.309  10.521  0.3530 -0.3596  0.1400
   63TMC2    C6  963   4.282   3.283  10.648  0.1037  0.0452  0.0502
   63TMC2     C  964   3.945   3.094  10.484 -0.8623 -0.2896 -0.1291
   63TMC2     O  965   3.975   3.037  10.375 -0.0833  0.3192  0.1212
   63TMC2     H  966   4.053   3.046  10.714 -0.1894 -0.1140 -0.0085
   63TMC2    H1  967   4.082   3.281  10.372 -0.4623  2.7923  2.6688
   63TMC2    H2  968   4.373   3.324  10.690  0.7577 -0.2675 -1.0522
   63TMC2    C7  969   4.317   3.397  10.435 -0.7762 -0.1161 -0.2988
   63TMC2    C8  970   4.252   3.176  10.861  0.2534 -0.1004 -0.2837
   63TMC2    O1  971   4.280   3.407  10.318  0.1381  0.2214 -0.1987
   63TMC2    O2  972   4.361   3.198  10.904  0.1624  0.2247  0.6094
   63TMC2    O5  973   4.142   3.138  10.933 -0.1707 -0.5143  0.2645
   63TMC2    H5  974   4.056   3.154  10.890  0.4300  1.9649 -0.0471
   64MPD2     C  975   3.523   2.814  10.581  0.0568  0.7427 -0.3713
   64MPD2    C1  976   3.634   2.783  10.511  0.0307 -0.0722  0.2083
   64MPD2    C2  977   3.734   2.876  10.494 -0.7101  0.1710 -0.3805
   64MPD2    C3  978   3.731   2.991  10.561 -0.0365 -0.4472 -0.3108
   64MPD2    C4  979   3.623   3.018  10.645  0.1906  0.0517  0.1980
   64MPD2    C5  980   3.518   2.931  10.654  0.1279 -0.5692  0.2879
   64MPD2     H  981   3.822   2.840  10.443 -0.3911  0.4926 -0.0534
   64MPD2    H1  982   3.627   3.097  10.719  1.7133 -1.5815  1.8711
   64MPD2    H2  983   3.436   2.750  10.571  0.3705  0.3658 -0.6986
   64MPD2    H3  984   3.430   2.951  10.715  1.2111 -0.2332  1.7248
   64MPD2     N  985   3.839   3.079  10.568 -0.4292  0.4319 -0.6610
   64MPD2    H5  986   3.843   3.133  10.653  0.3118 -2.8050  1.3810
   64MPD2    N1  987   3.655   2.652  10.462 -0.3561 -0.2845  0.0583
   64MPD2    H7  988   3.745   2.631  10.420  0.2612 -0.7786  1.6314
   65MPD2     C  989   0.624   2.870  15.882 -0.1717 -0.0692 -0.8368
   65MPD2    C1  990   0.593   2.877  15.749 -0.2858  0.0381 -0.1466
   65MPD2    C2  991   0.542   2.768  15.686 -0.3145  0.2383 -0.1125
   65MPD2    C3  992   0.522   2.650  15.755 -1.3420 -0.4489 -0.3231
   65MPD2    C4  993   0.548   2.643  15.892  0.5032  0.8392  0.2563
   65MPD2    C5  994   0.601   2.755  15.947 -0.2341  0.0017  0.2776
   65MPD2     H  995   0.501   2.783  15.586 -2.0622  1.6100  0.8039
   65MPD2    H1  996   0.545   2.549  15.945  4.0071 -0.2916 -1.5890
   65MPD2    H2  997   0.673   2.950  15.935 -0.6497  0.7069 -1.5700
   65MPD2    H3  998   0.644   2.741  16.045 -1.2918 -0.1226  0.7142
   65MPD2     N  999   0.456   2.538  15.699  0.5125  0.2767 -0.1461
   65MPD2    H5 1000   0.428   2.466  15.765 -0.8510  1.2007  0.2768
   65MPD2    N1 1001   0.595   3.003  15.675  0.0501 -0.2004 -0.0112
   65MPD2    H7 1002   0.579   3.001  15.575 -0.3393  0.6036  0.0329
   66TCq2    C1 1003   0.597   3.123  15.736 -0.4307 -0.2727  0.9179
   66TCq2    O2 1004   0.587   3.157  15.855 -0.9472  0.3104  0.3495
   66TCq2    C2 1005   0.574   3.226  15.641 -0.7153  0.3072  0.1019
   66TCq2    C3 1006   0.631   3.216  15.519 -0.3397  0.7194 -0.1841
   66TCq2    C4 1007   0.557   3.257  15.410  0.5824 -0.3548  0.0469
   66TCq2    C5 1008   0.431   3.309  15.424  0.4032 -0.7864 -0.0463
   66TCq2    C6 1009   0.376   3.332  15.551 -0.4235  0.2838  0.3634
   66TCq2    C7 1010   0.445   3.276  15.658  0.4292 -0.0310  0.0088
   66TCq2    C8 1011   0.246   3.396  15.565 -0.1361 -0.3436  0.3852
   66TCq2    O4 1012   0.168   3.385  15.473 -0.0517  0.6485  0.3034
   66TCq2    C9 1013   0.613   3.253  15.280 -0.1794 -0.3613 -0.2989
   66TCq2    O5 1014   0.550   3.310  15.183  0.1652  0.1529  0.1239
   66TCq2    O6 1015   0.705   3.170  15.276  0.1379  0.1848  0.3782
   66TCq2    H2 1016   0.725   3.163  15.513 -1.0401 -0.4653 -0.8308
   66TCq2    H3 1017   0.380   3.335  15.332  3.0398 -0.4496 -1.4083
   66TCq2    H4 1018   0.414   3.293  15.761 -1.5572  1.1579 -0.7758
   67MPD2     C 1019   0.473   2.030  14.146 -0.8474 -0.4779 -0.4907
   67MPD2    C1 1020   0.377   2.134  14.158 -0.2895  0.1792 -0.2739
   67MPD2    C2 1021   0.265   2.127  14.083  0.2189  0.5601  0.9100
   67MPD2    C3 1022   0.223   2.005  14.032  0.3414 -0.1690 -0.8430
   67MPD2    C4 1023   0.304   1.899  14.039  0.0430  0.1863  0.0491
   67MPD2    C5 1024   0.427   1.913  14.092 -0.4987  0.0737  0.0476
   67MPD2     H 1025   0.190   2.206  14.085 -0.3134  0.0280  1.7688
   67MPD2    H1 1026   0.271   1.804  13.999 -2.1025  2.1192 -2.8287
   67MPD2    H2 1027   0.566   2.023  14.201 -0.0579  1.3785 -1.5598
   67MPD2    H3 1028   0.491   1.826  14.096 -1.5054 -0.7398 -1.6642
   67MPD2     N 1029   0.101   1.982  13.967 -0.1419 -0.3337 -0.2804
   67MPD2    H5 1030   0.065   1.889  13.950 -0.3229 -0.4536  0.7640
   67MPD2    N1 1031   0.389   2.242  14.246 -0.4070  0.2273 -0.3072
   67MPD2    H7 1032   0.309   2.299  14.272 -1.1399 -0.3573 -1.2532
   68TCq2    C1 1033   0.508   2.268  14.303 -0.0825  0.2045 -0.0178
   68TCq2    O2 1034   0.623   2.233  14.274 -0.3787 -0.6324 -0.2912
   68TCq2    C2 1035   0.500   2.352  14.423 -0.8424  0.3150 -0.1640
   68TCq2    C3 1036   0.391   2.367  14.505  0.5516 -0.3922  0.2947
   68TCq2    C4 1037   0.406   2.434  14.622  0.3628  0.3464 -0.3065
   68TCq2    C5 1038   0.525   2.478  14.672 -0.6704 -0.2194  0.0936
   68TCq2    C6 1039   0.628   2.481  14.590 -0.8471  0.0128  0.1408
   68TCq2    C7 1040   0.617   2.414  14.470  0.3542 -0.3179  0.1126
   68TCq2    C8 1041   0.762   2.468  14.647 -0.3534 -0.4139 -0.0152
   68TCq2    O4 1042   0.860   2.471  14.575 -0.6892 -0.1185  0.4772
   68TCq2    C9 1043   0.286   2.451  14.709  0.2837  0.4492 -0.2740
   68TCq2    O5 1044   0.169   2.432  14.661 -0.6013 -0.2135 -0.1286
   68TCq2    O6 1045   0.320   2.499  14.821  0.1243 -0.1613  0.4532
   68TCq2    H2 1046   0.295   2.323  14.483  0.4685  0.1200 -0.3653
   68TCq2    H3 1047   0.531   2.540  14.760 -1.1487 -0.3557  0.2198
   68TCq2    H4 1048   0.708   2.399  14.412 -0.1210  2.6933 -1.4261
   69TMC2    C1 1049   3.108   3.338  12.864 -0.8808  0.5000 -0.0811
   69TMC2    C2 1050   3.080   3.470  12.862  0.3705  0.3426 -0.5103
   69TMC2    C3 1051   3.127   3.541  12.754 -0.2756 -0.5439 -0.0193
   69TMC2    C4 1052   3.198   3.285  12.778  0.0356  0.4013  0.1176
   69TMC2    C5 1053   3.244   3.361  12.673 -0.5317 -0.5006  0.1419
   69TMC2    C6 1054   3.206   3.492  12.656  0.0417 -0.0022  0.8435
   69TMC2     C 1055   3.035   3.248  12.948  0.2582  0.2468  0.1939
   69TMC2     O 1056   3.103   3.151  12.982 -0.3159 -0.1715  0.2963
   69TMC2     H 1057   3.023   3.515  12.942 -1.1450  1.7469 -2.3824
   69TMC2    H1 1058   3.209   3.177  12.779 -2.2083  0.1612 -0.2219
   69TMC2    H2 1059   3.227   3.542  12.562 -0.1919 -1.2690  0.1190
   69TMC2    C7 1060   3.268   3.295  12.541 -0.0341  0.3493  0.7474
   69TMC2    C8 1061   3.095   3.683  12.758 -0.1298  0.4308  0.2213
   69TMC2    O1 1062   3.361   3.338  12.470 -0.7259 -0.1541  0.1893
   69TMC2    O2 1063   3.072   3.741  12.862 -0.5812 -0.0733  0.3221
   69TMC2    O5 1064   3.099   3.729  12.629 -0.0005 -0.0947 -0.4189
   69TMC2    H5 1065   3.097   3.659  12.561  2.2025  0.1434 -0.7210
   70MPD2     C 1066   2.690   3.265  13.067  0.6944 -0.3978  0.2808
   70MPD2    C1 1067   2.815   3.210  13.050 -0.2682 -0.0357 -0.2009
   70MPD2    C2 1068   2.842   3.091  13.113 -0.1930 -0.5250 -0.1607
   70MPD2    C3 1069   2.741   3.020  13.179  0.2144  0.1247 -0.1993
   70MPD2    C4 1070   2.615   3.072  13.187 -0.0823  1.7021 -0.3323
   70MPD2    C5 1071   2.592   3.191  13.137 -0.1477  0.0314  0.2904
   70MPD2     H 1072   2.942   3.050  13.115 -0.3539 -0.9680 -1.0152
   70MPD2    H1 1073   2.535   3.013  13.232  1.7846 -0.1127  0.6011
   70MPD2    H2 1074   2.659   3.353  13.012 -0.0555 -0.9231 -0.1405
   70MPD2    H3 1075   2.490   3.225  13.153 -0.7881 -1.7789 -0.0069
   70MPD2     N 1076   2.758   2.896  13.241 -0.1958  0.0313 -0.0148
   70MPD2    H5 1077   2.680   2.836  13.263 -0.4253 -0.3545 -1.8608
   70MPD2    N1 1078   2.907   3.286  12.977 -1.0670  0.2593  0.1243
   70MPD2    H7 1079   2.877   3.377  12.943 -2.7622  0.3092  1.7520
   71TMC2    C1 1080   4.637   3.387   1.388 -0.2454  0.0414  0.2677
   71TMC2    C2 1081   0.011   3.415   1.480 -0.1286 -0.0395 -0.2111
   71TMC2    C3 1082   4.699   3.422   1.609 -0.0670 -0.1235 -0.1135
   71TMC2    C4 1083   4.508   3.369   1.421 -0.1130 -0.1291  0.1610
   71TMC2    C5 1084   4.477   3.373   1.557  0.1541 -0.3486  0.6254
   71TMC2    C6 1085   4.573   3.396   1.644  0.4339  0.6157  0.6036
   71TMC2     C 1086   4.682   3.371   1.244 -0.2368  0.0415 -0.0261
   71TMC2     O 1087   4.593   3.374   1.166  0.3687  0.2900  0.4416
   71TMC2     H 1088   0.108   3.440   1.438  1.4193 -1.3470  2.6248
   71TMC2    H1 1089   4.435   3.350   1.344 -0.3461  0.0050  0.3497
   71TMC2    H2 1090   4.558   3.392   1.752 -1.2202 -2.0403  0.2505
   71TMC2    C7 1091   4.343   3.362   1.602  0.4539  0.2591 -0.1347
   71TMC2    C8 1092   0.072   3.437   1.711 -0.2523  0.0802  0.0093
   71TMC2    O1 1093   4.334   3.349   1.722  0.8503 -0.3015 -0.2961
   71TMC2    O2 1094   0.187   3.432   1.661 -0.7673  0.3195 -0.8210
   71TMC2    O5 1095   0.027   3.541   1.792 -0.2149 -0.5192  0.4843
   71TMC2    H5 1096   4.659   3.563   1.785  0.2834  0.6410 -2.7910
   72MPD2     C 1097   0.249   3.221   0.867  0.1319  0.1597 -0.0980
   72MPD2    C1 1098   0.152   3.318   0.868 -0.0130 -0.0162 -0.9716
   72MPD2    C2 1099   0.098   3.349   0.996  0.2129 -0.3567  0.1514
   72MPD2    C3 1100   0.131   3.278   1.111  0.5124 -0.0351  0.2062
   72MPD2    C4 1101   0.229   3.181   1.099  0.5595  0.2150 -0.2601
   72MPD2    C5 1102   0.285   3.154   0.982  0.6219  0.6219  0.2224
   72MPD2     H 1103   0.034   3.437   1.000  0.8726  0.1150  0.2376
   72MPD2    H1 1104   0.262   3.138   1.193 -0.4284 -0.7477 -0.3572
   72MPD2    H2 1105   0.310   3.194   0.781  0.0317 -0.5451  0.0609
   72MPD2    H3 1106   0.373   3.091   0.988 -0.7008 -1.3713 -1.3494
   72MPD2     N 1107   0.071   3.302   1.236  0.4741 -0.0148 -0.2206
   72MPD2    H5 1108   0.111   3.265   1.322 -1.8549 -1.6649  0.1593
   72MPD2    N1 1109   0.112   3.388   0.751 -0.1269  0.2069 -0.0689
   72MPD2    H7 1110   0.047   3.464   0.762  0.7343  1.2159 -1.9954
   73TMC2    C1 1111   4.441   0.707  13.713  0.9586  0.2212 -0.4146
   73TMC2    C2 1112   4.331   0.773  13.777  0.2072  0.2801  0.0504
   73TMC2    C3 1113   4.339   0.785  13.913 -0.5813  0.1418 -0.6520
   73TMC2    C4 1114   4.545   0.670  13.782 -0.0025 -0.3159 -0.7761
   73TMC2    C5 1115   4.556   0.713  13.911  0.4104 -0.4185  1.2157
   73TMC2    C6 1116   4.450   0.758  13.985  0.0805  0.3646  0.1659
   73TMC2     C 1117   4.481   0.767  13.587 -0.0649 -0.2249 -0.4660
   73TMC2     O 1118   4.602   0.777  13.572  0.5981 -0.1482 -0.4121
   73TMC2     H 1119   4.239   0.796  13.723  0.6252 -0.9861 -1.2073
   73TMC2    H1 1120   4.626   0.626  13.725  0.6433 -0.4423  0.2395
   73TMC2    H2 1121   4.462   0.789  14.088  0.3101 -1.5246  0.7098
   73TMC2    C7 1122   4.687   0.759  13.944 -0.2989 -0.8335 -0.2451
   73TMC2    C8 1123   4.222   0.844  13.970  0.2423  0.3158 -0.4938
   73TMC2    O1 1124   0.009   0.741  14.054  0.3865 -0.0867  0.3921
   73TMC2    O2 1125   4.111   0.830  13.920  0.3946 -0.2859  0.0437
   73TMC2    O5 1126   4.270   0.967  14.027  0.8812 -0.7344  0.4101
   73TMC2    H5 1127   4.362   0.960  14.062  0.8774 -1.4951  0.2713
   74MPD2     C 1128   4.477   0.995  13.134 -0.6039 -0.3391  0.4556
   74MPD2    C1 1129   4.564   1.013  13.238 -0.3855  0.3673  0.3640
   74MPD2    C2 1130   4.526   0.966  13.363  0.2168 -0.4492 -0.3800
   74MPD2    C3 1131   4.409   0.891  13.381  0.2518 -0.4749  0.2425
   74MPD2    C4 1132   4.320   0.889  13.277  0.0836 -0.2385 -0.4051
   74MPD2    C5 1133   4.353   0.935  13.151 -0.0983 -0.2955  0.8247
   74MPD2     H 1134   4.590   0.982  13.450  0.5860 -0.1688 -0.7042
   74MPD2    H1 1135   4.228   0.832  13.279  0.7026 -1.2256  0.0780
   74MPD2    H2 1136   4.514   1.026  13.037 -1.5643 -2.3681 -0.5609
   74MPD2    H3 1137   4.279   0.926  13.071 -0.6076  0.0252  1.2565
   74MPD2     N 1138   4.382   0.815  13.498 -0.2424 -0.0921 -0.2736
   74MPD2    H5 1139   4.289   0.778  13.516 -0.7048  1.3177  0.2786
   74MPD2    N1 1140   4.689   1.076  13.211  0.4478  0.0462  0.4461
   74MPD2    H7 1141   4.703   1.103  13.114  2.9756 -0.8715  0.5461
   75TCq2    C1 1142   0.026   2.086  13.917  0.1706  0.3552 -0.7296
   75TCq2    O2 1143   0.072   2.195  13.880 -0.0987 -0.5437  0.3884
   75TCq2    C2 1144   4.635   2.029  13.862  0.4015  0.0975 -0.5134
   75TCq2    C3 1145   4.579   1.928  13.935 -0.9424 -0.5116 -0.4277
   75TCq2    C4 1146   4.451   1.895  13.918  0.5423  0.2360 -0.6151
   75TCq2    C5 1147   4.380   1.941  13.814  0.8226  0.1406  0.2245
   75TCq2    C6 1148   4.440   2.043  13.739  0.1146 -0.7655  0.3947
   75TCq2    C7 1149   4.566   2.087  13.759 -0.1211  0.1097  0.0564
   75TCq2    C8 1150   4.373   2.061  13.609  0.5120  0.2467 -0.0004
   75TCq2    O4 1151   4.294   1.974  13.569 -0.3542 -0.3637  0.4871
   75TCq2    C9 1152   4.391   1.785  13.994  0.2926 -0.5138  0.9820
   75TCq2    O5 1153   4.270   1.760  13.966  0.6956  0.7582  0.2184
   75TCq2    O6 1154   4.441   1.760  14.106  0.8150  0.7401  0.2475
   75TCq2    H2 1155   4.632   1.882  14.017 -0.6776 -0.1824 -0.4165
   75TCq2    H3 1156   4.279   1.909  13.789  0.8879  0.7041 -0.7641
   75TCq2    H4 1157   4.620   2.162  13.702 -0.1321  1.7754  2.2753
   76MPD2     C 1158   4.000   2.688  12.219 -0.3274  0.2908  0.3544
   76MPD2    C1 1159   3.940   2.650  12.099 -0.5202  0.0383  0.3885
   76MPD2    C2 1160   3.939   2.512  12.064  0.4340  0.7167  0.6398
   76MPD2    C3 1161   4.000   2.419  12.145  0.1837  0.8135 -0.3768
   76MPD2    C4 1162   4.066   2.460  12.259  0.3547 -0.0510  0.1082
   76MPD2    C5 1163   4.057   2.591  12.300 -0.0222 -0.7981 -0.8733
   76MPD2     H 1164   3.888   2.477  11.975  0.4833 -2.0360  1.7191
   76MPD2    H1 1165   4.107   2.385  12.325 -0.1067  0.2996  0.7959
   76MPD2    H2 1166   3.993   2.790  12.255  2.7816  0.5657  0.1406
   76MPD2    H3 1167   4.097   2.627  12.394  1.0001  1.1563 -2.0479
   76MPD2     N 1168   4.002   2.285  12.117  0.1291 -0.4528  0.5105
   76MPD2    H5 1169   4.065   2.225  12.169  1.7021  1.4174  0.7641
   76MPD2    N1 1170   3.870   2.742  12.013 -0.4974  0.7663  0.2688
   76MPD2    H7 1171   3.816   2.694  11.942 -1.4818  2.5686 -0.2042
   77TCq2    C1 1172   3.947   2.227  12.010 -0.2341 -0.7359  0.6924
   77TCq2    O2 1173   3.848   2.264  11.949  0.3262  0.0997  0.7956
   77TCq2    C2 1174   4.012   2.102  11.981 -0.8223  0.3678  0.4164
   77TCq2    C3 1175   3.945   1.990  11.953 -0.5213 -0.2004 -0.4910
   77TCq2    C4 1176   4.009   1.868  11.949  0.1718 -0.3048 -0.4250
   77TCq2    C5 1177   4.134   1.855  11.990  0.5181 -0.2570  0.3668
   77TCq2    C6 1178   4.194   1.968  12.034  0.9006 -0.2683 -0.0576
   77TCq2    C7 1179   4.145   2.097  12.019  0.0474 -0.2154  0.0710
   77TCq2    C8 1180   4.309   1.945  12.118  0.1491 -0.2460 -0.0545
   77TCq2    O4 1181   4.358   1.836  12.122  0.3193  0.4871  0.1803
   77TCq2    C9 1182   3.934   1.758  11.905 -0.6016 -0.1819  0.2301
   77TCq2    O5 1183   3.999   1.653  11.877 -0.1685 -0.1262 -0.3734
   77TCq2    O6 1184   3.811   1.778  11.883  0.4865  0.2554 -0.4082
   77TCq2    H2 1185   3.838   1.994  11.938 -0.5898 -1.6676 -0.3819
   77TCq2    H3 1186   4.172   1.758  12.020  2.1714  0.8907  2.0255
   77TCq2    H4 1187   4.199   2.190  12.034 -0.4166  0.1494 -0.4917
   78MPD1     C 1188   4.347   2.999   1.366 -0.2024  0.1582  0.7901
   78MPD1    C1 1189   4.457   3.019   1.289 -0.0013  0.1869 -0.7459
   78MPD1    C2 1190   4.579   3.008   1.359  0.1277 -0.4929 -0.3874
   78MPD1    C3 1191   4.587   3.011   1.495 -0.7528  0.5227 -0.4734
   78MPD1    C4 1192   4.471   2.995   1.570  0.3328  0.3039 -0.4476
   78MPD1    C5 1193   4.349   2.978   1.505  0.3901  0.3384  1.1186
   78MPD1     H 1194   4.672   3.004   1.303  1.8381  3.1032  2.1619
   78MPD1    H1 1195   4.485   2.988   1.677 -0.7494 -1.0350 -0.3951
   78MPD1    H2 1196   4.247   2.982   1.326 -0.1101  3.2847 -0.7521
   78MPD1    H3 1197   4.259   2.969   1.565  0.7614  3.4404  2.1379
   78MPD1     N 1198   4.710   3.022   1.571  0.8902 -0.0145  0.0860
   78MPD1    H5 1199   4.718   2.999   1.669 -0.5339  0.4585  0.3131
   78MPD1    N1 1200   4.454   2.996   1.150  0.1256 -0.1152  0.7594
   78MPD1    H6 1201   4.533   3.034   1.097  0.1910 -2.7682 -1.0675
   78MPD1    H7 1202   4.364   3.028   1.116  0.8688  1.5811  0.4091
   79TCq2    C1 1203   0.109   3.044   1.522 -0.7279 -1.0725 -0.1397
   79TCq2    O2 1204   0.139   3.098   1.421  0.3100  0.4393 -0.6488
   79TCq2    C2 1205   0.215   3.038   1.625 -0.0489 -0.6805 -0.0449
   79TCq2    C3 1206   0.201   2.953   1.725  0.6117 -0.7436 -0.0678
   79TCq2    C4 1207   0.288   2.949   1.826  0.6343  0.1515 -0.1974
   79TCq2    C5 1208   0.388   3.037   1.833 -0.0373  0.0980  0.5047
   79TCq2    C6 1209   0.390   3.133   1.738 -0.3119 -0.3384 -0.2157
   79TCq2    C7 1210   0.311   3.135   1.628 -0.1879  0.2590 -0.3093
   79TCq2    C8 1211   0.496   3.241   1.759 -0.3002  0.2502 -0.2987
   79TCq2    O4 1212   0.596   3.206   1.823  0.0141 -0.5845  0.4184
   79TCq2    C9 1213   0.275   2.845   1.917 -1.0498 -0.2416 -0.2989
   79TCq2    O5 1214   0.326   2.862   2.033  0.4448 -0.0817  0.5219
   79TCq2    O6 1215   0.194   2.752   1.888 -0.1736  0.4762 -0.3583
   79TCq2    H2 1216   0.124   2.878   1.710  0.1960 -0.3193 -0.0766
   79TCq2    H3 1217   0.463   3.053   1.910  1.5366 -1.3779 -0.7144
   79TCq2    H4 1218   0.323   3.215   1.556 -0.2023  1.4046  0.9711
   80MPD2     C 1219   2.925   2.136  12.000 -0.9027  0.1604 -0.0067
   80MPD2    C1 1220   2.800   2.189  11.964  0.2738 -0.6634  0.2953
   80MPD2    C2 1221   2.724   2.256  12.058  0.1426  0.0197 -0.6825
   80MPD2    C3 1222   2.775   2.287  12.185  0.2906  0.2125  0.1667
   80MPD2    C4 1223   2.904   2.248  12.217  0.3358 -0.6328 -0.5841
   80MPD2    C5 1224   2.977   2.175  12.126 -0.6343 -0.2267 -0.5150
   80MPD2     H 1225   2.633   2.305  12.024  0.4901 -0.8598 -2.8761
   80MPD2    H1 1226   2.952   2.265  12.313 -1.5336  0.6909  0.0976
   80MPD2    H2 1227   2.985   2.066  11.943 -1.2875  1.0383 -1.5112
   80MPD2    H3 1228   3.074   2.135  12.153 -0.8310 -0.0822  0.4307
   80MPD2     N 1229   2.711   2.369  12.283  0.5768  0.1248 -0.4867
   80MPD2    H5 1230   2.756   2.378  12.373 -1.2028 -0.4082  0.4334
   80MPD2    N1 1231   2.754   2.178  11.825  0.5151  0.0285  0.8303
   80MPD2    H7 1232   2.657   2.202  11.806 -0.0122  0.5953  4.2056
   81TCq2    C1 1233   2.833   2.129  11.726 -0.2632  0.8682 -0.1571
   81TCq2    O2 1234   2.956   2.124  11.719 -0.0639 -0.1152 -0.2741
   81TCq2    C2 1235   2.779   2.121  11.596 -0.5926  0.0334 -0.5509
   81TCq2    C3 1236   2.866   2.106  11.488 -0.1504  0.6004 -0.4212
   81TCq2    C4 1237   2.808   2.087  11.365  0.7612 -0.3651 -1.1167
   81TCq2    C5 1238   2.676   2.053  11.356  0.2570 -0.4226 -0.1172
   81TCq2    C6 1239   2.597   2.059  11.465 -0.2556 -0.0503 -0.5440
   81TCq2    C7 1240   2.645   2.095  11.589  0.8273  0.2307  0.2510
   81TCq2    C8 1241   2.455   2.044  11.439  0.5629 -0.7548  0.1021
   81TCq2    O4 1242   2.424   1.982  11.339 -0.2154 -0.3135  0.6083
   81TCq2    C9 1243   2.892   2.080  11.252  0.5402 -0.6589  0.2661
   81TCq2    O5 1244   3.014   2.042  11.271  0.1567  0.2710  1.1415
   81TCq2    O6 1245   2.826   2.092  11.146  0.7655  0.1237 -0.0017
   81TCq2    H2 1246   2.973   2.120  11.498 -0.1194  0.4913 -0.6106
   81TCq2    H3 1247   2.638   2.033  11.256  0.4487  1.3979 -0.5434
   81TCq2    H4 1248   2.587   2.077  11.679 -1.0058  0.7405 -0.8262
   82MPD2     C 1249   1.326   1.902  10.738  0.7946  0.4438 -0.4931
   82MPD2    C1 1250   1.218   1.823  10.766  0.6721  0.0964  0.2593
   82MPD2    C2 1251   1.242   1.703  10.834 -0.0211  0.3528 -0.8972
   82MPD2    C3 1252   1.369   1.679  10.880 -0.0729  0.6993 -0.7919
   82MPD2    C4 1253   1.471   1.771  10.861  0.0427 -0.0074  0.1661
   82MPD2    C5 1254   1.445   1.882  10.794  0.8814  0.2222  0.1258
   82MPD2     H 1255   1.165   1.626  10.841  0.6595  0.0529  3.1081
   82MPD2    H1 1256   1.576   1.754  10.879  0.9227  1.7255 -3.1884
   82MPD2    H2 1257   1.308   1.991  10.679  0.2111 -0.1476 -1.2010
   82MPD2    H3 1258   1.518   1.954  10.758  0.2507  0.6660 -0.2531
   82MPD2     N 1259   1.409   1.562  10.942  0.2389  0.0228  0.1111
   82MPD2    H5 1260   1.507   1.544  10.959  0.5186  0.7763 -0.6956
   82MPD2    N1 1261   1.093   1.853  10.706 -1.0104 -0.7575 -0.1598
   82MPD2    H7 1262   1.091   1.928  10.638  0.1157  0.5632  1.2617
   83TCq2    C1 1263   1.319   1.466  10.986 -0.5013 -0.0759  0.2727
   83TCq2    O2 1264   1.199   1.456  10.980  0.1736 -0.2404 -0.8136
   83TCq2    C2 1265   1.397   1.344  11.025 -0.5132 -0.1927 -0.3602
   83TCq2    C3 1266   1.500   1.304  10.942  0.1063 -0.3374  0.1685
   83TCq2    C4 1267   1.513   1.176  10.897  0.4747 -0.2853 -0.6649
   83TCq2    C5 1268   1.429   1.085  10.947  0.2288 -0.3539 -0.3194
   83TCq2    C6 1269   1.336   1.119  11.042  0.3598  0.4329  0.0635
   83TCq2    C7 1270   1.321   1.249  11.086  0.6581  0.1383  0.4220
   83TCq2    C8 1271   1.216   1.038  11.065  0.1609  0.3555  0.2028
   83TCq2    O4 1272   1.160   1.059  11.172  0.1808  0.0795 -0.1288
   83TCq2    C9 1273   1.625   1.133  10.815 -0.9587 -1.0311 -0.9033
   83TCq2    O5 1274   1.720   1.216  10.812 -0.4589 -0.1365 -0.7280
   83TCq2    O6 1275   1.630   1.013  10.784 -0.6152 -0.0618 -0.4880
   83TCq2    H2 1276   1.562   1.382  10.898 -1.2088 -0.4980 -1.9767
   83TCq2    H3 1277   1.431   0.981  10.918  1.3444 -0.2770 -0.4986
   83TCq2    H4 1278   1.230   1.286  11.133 -0.0531  1.8055 -2.2191
   84TCq2    C1 1279   2.539   0.508  10.277 -0.2839  0.0855 -0.0301
   84TCq2    O2 1280   2.419   0.522  10.265  0.3495  0.4775 -0.1675
   84TCq2    C2 1281   2.585   0.487  10.416  0.2723 -0.3100 -0.3546
   84TCq2    C3 1282   2.717   0.462  10.443  0.3407 -0.5438  0.1896
   84TCq2    C4 1283   2.753   0.454  10.573  0.3616  0.1478 -0.2733
   84TCq2    C5 1284   2.665   0.461  10.677  0.8642 -0.3726 -0.0103
   84TCq2    C6 1285   2.534   0.483  10.644  0.6907  0.1536 -0.1016
   84TCq2    C7 1286   2.495   0.498  10.520  0.3688  0.2663 -0.4764
   84TCq2    C8 1287   2.441   0.498  10.756  0.2371  0.3949 -0.5807
   84TCq2    O4 1288   2.477   0.553  10.859 -0.4083  0.2554 -0.5813
   84TCq2    C9 1289   2.887   0.415  10.607  0.3270 -0.1742 -0.4529
   84TCq2    O5 1290   2.969   0.413  10.515 -0.8401  0.1150  0.2854
   84TCq2    O6 1291   2.911   0.380  10.726  0.1246  0.1119  0.3554
   84TCq2    H2 1292   2.794   0.446  10.369 -1.1375  0.0212 -1.4819
   84TCq2    H3 1293   2.694   0.451  10.781  4.0916  2.9323 -0.6041
   84TCq2    H4 1294   2.392   0.519  10.494  0.0379 -2.6925 -1.5277
   85MPD2     C 1295   2.715   3.836  16.423 -0.5385 -1.4270 -0.2069
   85MPD2    C1 1296   2.622   3.862  16.328 -0.0963  0.0610 -1.1470
   85MPD2    C2 1297   2.661   3.948  16.227  0.1172  0.7236 -0.3105
   85MPD2    C3 1298   2.790   3.994  16.219  0.5405 -0.3202  0.3661
   85MPD2    C4 1299   2.878   3.964  16.327  0.3531 -0.5673  0.1194
   85MPD2    C5 1300   2.837   3.886  16.425 -0.5893 -0.6692 -0.1593
   85MPD2     H 1301   2.590   3.972  16.149  0.0149  2.3834  0.3013
   85MPD2    H1 1302   2.975   4.010  16.333  0.4546 -0.6843 -0.6309
   85MPD2    H2 1303   2.698   3.773  16.510 -1.9159  0.2330  0.7270
   85MPD2    H3 1304   2.897   3.870  16.514  0.2734  0.2414 -0.5755
   85MPD2     N 1305   2.817   4.086  16.115  0.3545  0.5255 -0.0804
   85MPD2    H5 1306   2.739   4.127  16.065 -0.0712 -1.2632 -0.8974
   85MPD2    N1 1307   2.492   3.796  16.325  0.8195 -0.0824  0.0102
   85MPD2    H7 1308   2.437   3.814  16.242 -1.4497 -1.1475  1.2991
   86TCq2    C1 1309   2.941   4.112  16.071 -0.3718  0.3790  0.4121
   86TCq2    O2 1310   3.047   4.060  16.099  0.4232  0.2418  0.5565
   86TCq2    C2 1311   2.934   4.217  15.967  0.4912 -0.0650  0.2257
   86TCq2    C3 1312   2.821   4.280  15.936 -0.0407  0.8373 -0.2055
   86TCq2    C4 1313   2.822   4.358  15.824  0.4524  0.5170  0.0958
   86TCq2    C5 1314   2.935   4.374  15.746 -0.4052  0.1378 -0.2450
   86TCq2    C6 1315   3.046   4.300  15.781  0.1556 -0.4256  0.4909
   86TCq2    C7 1316   3.054   4.221  15.893  0.1610 -0.1992 -0.0624
   86TCq2    C8 1317   3.150   4.266  15.681  0.4533  0.3323 -0.4061
   86TCq2    O4 1318   3.240   4.185  15.707  0.0663  0.6630 -0.2651
   86TCq2    C9 1319   2.696   4.410  15.767 -0.3768  0.5020 -0.1394
   86TCq2    O5 1320   2.583   4.392  15.816  0.1513  0.3790  0.0072
   86TCq2    O6 1321   2.709   4.477  15.659 -0.2720  0.1296  0.3544
   86TCq2    H2 1322   2.743   4.296  16.010 -0.9526  0.8442 -1.1657
   86TCq2    H3 1323   2.916   4.411  15.646  0.5331 -0.9075 -0.8128
   86TCq2    H4 1324   3.144   4.167  15.921 -1.4504 -2.3288  0.9599
   87MPD2     C 1325   0.231   2.049   0.864  0.1907  0.0659  0.1805
   87MPD2    C1 1326   0.223   2.136   0.756  0.6983 -0.6099  0.6217
   87MPD2    C2 1327   0.124   2.110   0.658  0.1414  0.0860  0.3344
   87MPD2    C3 1328   0.026   2.013   0.678  0.2229  0.0290 -0.1930
   87MPD2    C4 1329   0.033   1.935   0.791 -0.3331 -0.3002  0.2022
   87MPD2    C5 1330   0.136   1.950   0.878 -0.1950 -0.4388 -0.1600
   87MPD2     H 1331   0.110   2.173   0.571 -0.2633 -2.2478 -1.2961
   87MPD2    H1 1332   4.680   1.865   0.808 -1.4011  0.0644 -3.3955
   87MPD2    H2 1333   0.296   2.063   0.949 -1.6050  1.6784  1.2999
   87MPD2    H3 1334   0.140   1.901   0.975  2.0850  1.8292  0.8980
   87MPD2     N 1335   4.630   2.005   0.600  0.0764 -0.3853 -0.3033
   87MPD2    H5 1336   4.547   1.964   0.641  0.7083  0.5910  2.0050
   87MPD2    N1 1337   0.314   2.243   0.745 -0.7779  0.7738  0.2494
   87MPD2    H7 1338   0.385   2.245   0.818 -1.0657 -1.1026  0.5978
   88TCq2    C1 1339   0.324   2.330   0.640 -0.9611 -0.3271 -0.0263
   88TCq2    O2 1340   0.276   2.321   0.531  0.0779 -1.0243 -0.4588
   88TCq2    C2 1341   0.418   2.446   0.654 -0.0806 -0.8829 -0.4823
   88TCq2    C3 1342   0.466   2.475   0.784 -0.2135 -0.2157 -0.1006
   88TCq2    C4 1343   0.554   2.576   0.801  0.3882 -0.1018 -0.7902
   88TCq2    C5 1344   0.602   2.648   0.690  0.5664 -0.0482 -1.0337
   88TCq2    C6 1345   0.561   2.610   0.561  0.6208  0.3076 -0.1423
   88TCq2    C7 1346   0.466   2.516   0.544 -0.0452 -0.0770  0.5274
   88TCq2    C8 1347   0.608   2.696   0.450 -0.0784 -0.3089  0.3769
   88TCq2    O4 1348   0.727   2.718   0.461  0.1920 -0.6728 -0.4164
   88TCq2    C9 1349   0.596   2.614   0.935 -0.3847 -0.3639  0.5832
   88TCq2    O5 1350   0.525   2.568   1.030 -0.2168 -0.3790 -0.4481
   88TCq2    O6 1351   0.688   2.701   0.944  0.3617  0.0267  0.0848
   88TCq2    H2 1352   0.429   2.421   0.870 -0.9776 -2.0835 -1.5960
   88TCq2    H3 1353   0.675   2.726   0.705  1.6206 -1.1842 -0.3009
   88TCq2    H4 1354   0.433   2.500   0.442  0.8848 -2.2090  0.5483
   89MPD2     C 1355   1.104   4.276   1.892 -0.9459 -0.4628 -0.7267
   89MPD2    C1 1356   1.000   4.333   1.826  0.1417 -0.6006 -0.0484
   89MPD2    C2 1357   1.008   4.454   1.767 -0.5078 -0.3109  0.5790
   89MPD2    C3 1358   1.127   4.522   1.767  0.3053  0.4172  0.5013
   89MPD2    C4 1359   1.235   4.459   1.829  0.5113 -0.3050 -0.3073
   89MPD2    C5 1360   1.226   4.338   1.888  0.4072  0.5849 -0.4647
   89MPD2     H 1361   0.923   4.506   1.724 -0.5196  0.5096  1.5828
   89MPD2    H1 1362   1.334   4.502   1.841 -0.3216  1.6616 -0.4097
   89MPD2    H2 1363   1.105   4.184   1.950  0.9262  0.7482  1.1858
   89MPD2    H3 1364   1.315   4.293   1.930 -0.9025 -2.0340 -0.4869
   89MPD2     N 1365   1.135   4.648   1.706  0.1044  1.1005 -0.8727
   89MPD2    H5 1366   1.051   4.687   1.665  1.6122  3.4975 -1.7454
   89MPD2    N1 1367   0.875   4.264   1.816 -0.3045 -0.4934  0.5318
   89MPD2    H7 1368   0.792   4.304   1.774  1.5587  1.0345 -1.6842
   90TCq2    C1 1369   1.243   0.004   1.713  0.2274  0.3248 -0.3377
   90TCq2    O2 1370   1.323   0.008   1.804 -0.0778 -0.2612  0.0661
   90TCq2    C2 1371   1.236   0.132   1.648 -0.5819  0.1620  0.7067
   90TCq2    C3 1372   1.331   0.224   1.685  0.3981  0.3796 -0.4944
   90TCq2    C4 1373   1.325   0.354   1.644 -0.2502 -0.2988 -0.1095
   90TCq2    C5 1374   1.231   0.388   1.555  0.0273  0.3056 -0.2233
   90TCq2    C6 1375   1.143   0.297   1.509  0.2166  0.2029  0.3414
   90TCq2    C7 1376   1.129   0.169   1.565  0.2825  0.4048 -0.3852
   90TCq2    C8 1377   1.044   0.326   1.410  0.3037  0.2648 -0.2503
   90TCq2    O4 1378   0.940   0.264   1.412  0.2128 -0.0902 -0.0520
   90TCq2    C9 1379   1.412   0.453   1.689 -0.2192  0.6792 -0.2359
   90TCq2    O5 1380   1.534   0.420   1.711  0.2640 -0.3648  0.4439
   90TCq2    O6 1381   1.378   0.574   1.667  0.0841 -0.7893 -0.8028
   90TCq2    H2 1382   1.412   0.203   1.754 -0.9952  0.1126  1.0640
   90TCq2    H3 1383   1.231   0.491   1.522 -0.0406  0.1161 -0.8082
   90TCq2    H4 1384   1.066   0.090   1.526  1.1672  0.2168 -1.4600
   91TMC2    C1 1385   2.574   0.102  16.341  0.2634 -0.1723  0.6506
   91TMC2    C2 1386   2.621   0.179  16.234  0.1713  0.3017  0.6195
   91TMC2    C3 1387   2.530   0.251  16.157 -0.4544 -0.4262 -1.0496
   91TMC2    C4 1388   2.440   0.087  16.358  0.8519  0.6924 -0.1873
   91TMC2    C5 1389   2.355   0.151  16.271  0.1681 -0.1838 -0.2175
   91TMC2    C6 1390   2.395   0.230  16.172 -0.1658 -0.2573  0.2992
   91TMC2     C 1391   2.660   0.010  16.418  0.9305 -0.4827  0.4136
   91TMC2     O 1392   2.601   4.649  16.484 -0.0953 -0.0381 -0.3729
   91TMC2     H 1393   2.728   0.191  16.220  0.4023  0.0324  2.1040
   91TMC2    H1 1394   2.389   0.059  16.449  1.2187 -0.2526 -0.2703
   91TMC2    H2 1395   2.327   0.295  16.117 -1.7794 -1.9027  0.3599
   91TMC2    C7 1396   2.220   0.112  16.279  0.2306 -0.4221  0.0570
   91TMC2    C8 1397   2.576   0.368  16.104 -0.5867 -0.3716 -1.1696
   91TMC2    O1 1398   2.179   0.067  16.386 -0.2405 -0.7597  0.1320
   91TMC2    O2 1399   2.681   0.360  16.042 -0.1990 -0.7135 -0.0350
   91TMC2    O5 1400   2.546   0.471  16.190  0.3895  0.3591  0.8780
   91TMC2    H5 1401   2.472   0.470  16.254  0.5169 -3.2386  0.9669
   92MPD2     C 1402   2.878   4.618  16.582  0.4139  1.0944 -0.6539
   92MPD2    C1 1403   2.896   4.716  16.487 -0.1075  0.1495  0.0726
   92MPD2    C2 1404   3.025   0.040  16.459 -0.3230  0.5161 -0.7853
   92MPD2    C3 1405   3.124   0.017  16.539  0.1809 -0.6252 -0.3407
   92MPD2    C4 1406   3.107   4.655  16.643 -0.2169 -0.3239 -0.3560
   92MPD2    C5 1407   2.984   4.595  16.664  0.6082 -0.0204 -0.3345
   92MPD2     H 1408   3.030   0.114  16.380  1.6811 -1.0577 -2.1510
   92MPD2    H1 1409   3.188   4.625  16.710 -0.9273 -2.1744 -0.3256
   92MPD2    H2 1410   2.786   4.563  16.601  1.3749 -0.2507  0.0814
   92MPD2    H3 1411   2.980   4.527  16.749  1.6337  0.4057  0.0546
   92MPD2     N 1412   3.244   0.091  16.510 -0.1285 -0.0031 -0.2632
   92MPD2    H5 1413   3.246   0.141  16.422 -2.3998  2.5171  1.1168
   92MPD2    N1 1414   2.791   0.037  16.402  0.1673  0.1636  0.0679
   92MPD2    H7 1415   2.821   0.116  16.346  1.1671 -0.7231 -0.6494
   93MPD2     C 1416   4.033   0.127  12.913 -0.6587  1.1077 -0.7362
   93MPD2    C1 1417   4.043   0.032  13.017  0.1343 -0.1179  1.3509
   93MPD2    C2 1418   3.925   4.716  13.074 -0.0585  0.1046 -0.1210
   93MPD2    C3 1419   3.799   0.035  13.037 -0.3271 -0.1482 -0.7348
   93MPD2    C4 1420   3.794   0.127  12.939  0.0972  0.0009 -0.9166
   93MPD2    C5 1421   3.908   0.177  12.883 -0.3295  0.2639  0.3485
   93MPD2     H 1422   3.943   4.635  13.145 -2.3726  1.1177  1.6151
   93MPD2    H1 1423   3.696   0.149  12.897 -1.8109 -3.1765  1.9068
   93MPD2    H2 1424   4.123   0.172  12.872  1.1163 -1.1694  0.6782
   93MPD2    H3 1425   3.903   0.239  12.794  1.0923 -0.4756 -0.2462
   93MPD2     N 1426   3.683   4.718  13.098 -0.0180  0.0226  0.0662
   93MPD2    H5 1427   3.596   0.022  13.056  0.0368  0.0451 -0.0300
   93MPD2    N1 1428   4.170   4.696  13.051 -0.7754 -0.6520 -0.5541
   93MPD2    H7 1429   4.168   4.623  13.121  1.7849  1.0133  1.2523
   94TCq2    C1 1430   4.298   0.003  13.012 -0.9887  0.0169  0.1476
   94TCq2    O2 1431   4.330   0.101  12.945  0.3440  0.2118 -0.0642
   94TCq2    C2 1432   4.415   4.657  13.060  0.1112  0.1932  0.8317
   94TCq2    C3 1433   4.402   4.523  13.084  0.6795 -0.2632 -0.2461
   94TCq2    C4 1434   4.490   4.457  13.157  0.1878  0.3250  0.1831
   94TCq2    C5 1435   4.603   4.510  13.199  0.0398 -0.4476 -0.3480
   94TCq2    C6 1436   4.623   4.644  13.172  0.3666 -0.0620  0.6150
   94TCq2    C7 1437   4.529   4.724  13.103  0.1545 -0.4150  0.1569
   94TCq2    C8 1438   0.033   4.687  13.192 -0.0731 -0.7203  0.1005
   94TCq2    O4 1439   0.122   4.601  13.164 -0.3301 -0.0173 -0.5023
   94TCq2    C9 1440   4.458   4.314  13.185  0.0514 -0.1001 -0.0308
   94TCq2    O5 1441   4.545   4.236  13.239 -0.6530  0.2444 -0.0975
   94TCq2    O6 1442   4.337   4.291  13.178  0.3062 -0.7428  0.7087
   94TCq2    H2 1443   4.320   4.472  13.036  0.6688 -1.8707  1.4617
   94TCq2    H3 1444   4.682   4.450  13.241  0.4370  0.2868 -0.0362
   94TCq2    H4 1445   4.542   0.095  13.062 -0.8876 -0.0744  0.6561
   95TMC2    C1 1446   4.230   2.451  15.996 -0.5177 -0.4651  0.3465
   95TMC2    C2 1447   4.114   2.385  15.985  0.0551  0.3261 -0.0746
   95TMC2    C3 1448   4.031   2.380  16.096  0.2843 -0.6993  0.1300
   95TMC2    C4 1449   4.270   2.506  16.113 -0.1287  0.5637  0.5334
   95TMC2    C5 1450   4.182   2.503  16.218 -0.0813 -0.0978  0.4175
   95TMC2    C6 1451   4.062   2.442  16.208 -0.5804 -0.6293  0.2819
   95TMC2     C 1452   4.310   2.480  15.882  0.4426  1.1159  0.0952
   95TMC2     O 1453   4.426   2.524  15.895  0.3896 -0.1677  0.4939
   95TMC2     H 1454   4.086   2.327  15.898  1.2223 -1.8423  0.9682
   95TMC2    H1 1455   4.370   2.546  16.127 -0.2688  1.3836 -0.8427
   95TMC2    H2 1456   4.004   2.411  16.295  0.5778 -0.5518  1.0740
   95TMC2    C7 1457   4.222   2.562  16.345 -1.2614  0.1522 -0.1475
   95TMC2    C8 1458   3.902   2.311  16.091 -0.3792 -0.1448 -0.1325
   95TMC2    O1 1459   4.335   2.612  16.343 -0.0782  0.5320  0.0174
   95TMC2    O2 1460   3.841   2.274  16.192  0.3502  0.2385 -0.2357
   95TMC2    O5 1461   3.855   2.316  15.962  0.1733 -0.0058 -0.3732
   95TMC2    H5 1462   3.899   2.391  15.917 -0.1445  0.5080  0.1802
   96MPD2     C 1463   4.417   2.517  15.389  0.3901  0.7560 -0.7432
   96MPD2    C1 1464   4.495   2.478  15.492 -0.1125  0.4159 -0.4815
   96MPD2    C2 1465   4.441   2.470  15.618  0.5640  0.1808 -0.0796
   96MPD2    C3 1466   4.306   2.493  15.634  0.2585 -0.2636  0.0123
   96MPD2    C4 1467   4.224   2.520  15.519  0.0773  0.4910 -0.1108
   96MPD2    C5 1468   4.286   2.531  15.398 -0.0570  0.2951 -0.1194
   96MPD2     H 1469   4.503   2.428  15.696  1.1397 -0.2360 -0.7561
   96MPD2    H1 1470   4.118   2.541  15.527  0.6648  3.3014  0.3583
   96MPD2    H2 1471   4.463   2.518  15.291  1.5283 -1.1930 -0.2402
   96MPD2    H3 1472   4.219   2.549  15.315 -0.6293 -0.0690  0.2586
   96MPD2     N 1473   4.246   2.471  15.761 -0.0493  0.6383  0.3051
   96MPD2    H5 1474   4.144   2.467  15.762 -0.0419  0.7848  1.6159
   96MPD2    N1 1475   4.629   2.439  15.457 -0.1145  0.6720  0.5246
   96MPD2    H7 1476   4.648   2.464  15.360 -1.5626 -1.5733 -0.3351
   97MPD2     C 1477   2.477   3.696   1.191  0.2189 -0.4914  0.6605
   97MPD2    C1 1478   2.405   3.813   1.194  0.4028  0.6506  0.2245
   97MPD2    C2 1479   2.422   3.900   1.087 -0.0364 -1.1273  0.1714
   97MPD2    C3 1480   2.501   3.871   0.974  0.3260 -0.1049 -0.0984
   97MPD2    C4 1481   2.564   3.749   0.972 -0.4665 -0.7935 -0.1237
   97MPD2    C5 1482   2.555   3.669   1.086 -0.4750 -0.1624  0.2801
   97MPD2     H 1483   2.367   3.993   1.098 -2.9898 -2.5974 -1.7815
   97MPD2    H1 1484   2.643   3.723   0.903  1.3347  2.5616  0.6924
   97MPD2    H2 1485   2.473   3.637   1.282 -0.2567  1.8284  2.1420
   97MPD2    H3 1486   2.600   3.571   1.089  1.4901  0.7247  0.2487
   97MPD2     N 1487   2.518   3.959   0.863  0.0960  0.0019 -0.1553
   97MPD2    H5 1488   2.573   3.918   0.789 -1.3651  0.4826 -1.4991
   97MPD2    N1 1489   2.317   3.834   1.298  0.0738 -0.2498 -0.3544
   97MPD2    H7 1490   2.315   3.759   1.367  0.0351  1.8074  1.8853
   98TCq2    C1 1491   2.474   4.085   0.842 -0.1505 -0.3275 -0.1537
   98TCq2    O2 1492   2.399   4.160   0.907  0.2089  0.2133 -0.0951
   98TCq2    C2 1493   2.496   4.125   0.705 -0.5426  0.8729  0.0002
   98TCq2    C3 1494   2.586   4.051   0.633 -0.0356 -0.3485 -0.5714
   98TCq2    C4 1495   2.598   4.086   0.499  0.0711  0.0135  0.3788
   98TCq2    C5 1496   2.524   4.191   0.443 -0.7449 -0.6674  0.0144
   98TCq2    C6 1497   2.427   4.253   0.521 -0.6052  0.2503 -0.1630
   98TCq2    C7 1498   2.418   4.226   0.653 -0.3382 -0.1492  0.1724
   98TCq2    C8 1499   2.320   4.325   0.461  0.8888  0.3459 -0.2596
   98TCq2    O4 1500   2.256   4.396   0.533 -0.1299  0.3784 -0.0733
   98TCq2    C9 1501   2.698   4.029   0.414 -0.3789 -0.4432  0.8068
   98TCq2    O5 1502   2.680   4.027   0.290  0.5846  0.0766  0.4093
   98TCq2    O6 1503   2.787   3.966   0.474  0.2878  0.0248  1.2087
   98TCq2    H2 1504   2.655   3.979   0.677  0.5825  1.9181  2.1551
   98TCq2    H3 1505   2.547   4.225   0.343 -2.5503 -1.7963 -0.7771
   98TCq2    H4 1506   2.346   4.279   0.715 -0.3381  0.2066 -0.1321
   99MPD2     C 1507   1.019   1.962   0.840 -0.2108  0.7664 -0.0757
   99MPD2    C1 1508   0.989   1.859   0.921 -0.0805  1.5375  0.1173
   99MPD2    C2 1509   0.896   1.771   0.880  0.1842  0.1557  0.1068
   99MPD2    C3 1510   0.826   1.779   0.764  1.0068 -1.0907 -0.3056
   99MPD2    C4 1511   0.850   1.889   0.683  0.5769  0.2442 -0.9822
   99MPD2    C5 1512   0.942   1.980   0.722 -0.8333 -0.2878 -0.5792
   99MPD2     H 1513   0.882   1.682   0.940  1.2745 -0.6914 -0.9085
   99MPD2    H1 1514   0.813   1.899   0.581 -2.0814 -0.2054 -0.0754
   99MPD2    H2 1515   1.097   2.035   0.860  0.4101  0.1496 -0.2839
   99MPD2    H3 1516   0.962   2.065   0.658 -0.2942 -0.5064 -0.7020
   99MPD2     N 1517   0.737   1.673   0.721 -0.3751 -0.3123 -0.2641
   99MPD2    H5 1518   0.708   1.598   0.783 -0.2319 -0.4916 -0.4133
   99MPD2    N1 1519   1.056   1.816   1.035 -0.1926  0.6106  0.3884
   99MPD2    H7 1520   1.011   1.734   1.074 -2.3223  0.8250 -1.6086
  100TCq2    C1 1521   1.167   1.874   1.094 -0.0368 -0.1993 -0.2685
  100TCq2    O2 1522   1.215   1.982   1.079  0.0799 -0.2977  0.3260
  100TCq2    C2 1523   1.226   1.792   1.200  0.1657 -0.1620  0.4600
  100TCq2    C3 1524   1.326   1.854   1.277 -0.2161 -0.4763  0.4572
  100TCq2    C4 1525   1.390   1.766   1.367 -0.7179 -0.0212  0.0415
  100TCq2    C5 1526   1.363   1.635   1.370 -0.2041 -0.4491 -0.0149
  100TCq2    C6 1527   1.279   1.581   1.285 -0.5826  0.5451  0.3527
  100TCq2    C7 1528   1.207   1.658   1.199  0.1727  0.4652 -0.6871
  100TCq2    C8 1529   1.264   1.441   1.292  0.2599  0.2955  0.1562
  100TCq2    O4 1530   1.341   1.380   1.371 -0.1636  0.7490 -0.2286
  100TCq2    C9 1531   1.492   1.822   1.440 -0.2100 -0.7655 -0.2400
  100TCq2    O5 1532   1.559   1.745   1.514 -0.0504  0.1998  0.0832
  100TCq2    O6 1533   1.498   1.946   1.440 -0.0765  0.2793  0.1490
  100TCq2    H2 1534   1.349   1.960   1.275 -0.1721 -0.4724  1.2598
  100TCq2    H3 1535   1.416   1.574   1.442 -0.8953 -1.1150 -0.0624
  100TCq2    H4 1536   1.148   1.610   1.122  1.4364 -0.4470 -1.0967
  101MPD2     C 1537   0.787   2.840  12.702  0.5840  0.7826 -0.1763
  101MPD2    C1 1538   0.898   2.813  12.781 -0.4930 -0.7029  0.5621
  101MPD2    C2 1539   0.912   2.684  12.834  0.1375 -0.6746 -0.7119
  101MPD2    C3 1540   0.812   2.585  12.811 -1.4805  0.0614 -0.4881
  101MPD2    C4 1541   0.690   2.622  12.737 -0.3686 -0.3252 -0.1955
  101MPD2    C5 1542   0.685   2.742  12.678  0.3842  0.0605 -0.1037
  101MPD2     H 1543   1.004   2.677  12.892  0.3905 -0.2197 -1.0554
  101MPD2    H1 1544   0.605   2.555  12.733  0.7714 -1.8450  1.5411
  101MPD2    H2 1545   0.765   2.939  12.662  0.4234  1.7352  2.2987
  101MPD2    H3 1546   0.594   2.775  12.629  1.4062 -0.2540 -2.2074
  101MPD2     N 1547   0.836   2.454  12.864  0.5451 -0.8004  0.4315
  101MPD2    H5 1548   0.900   2.457  12.944  0.5731  2.2394  0.2935
  101MPD2    N1 1549   0.996   2.918  12.791  0.6157 -0.0473  0.2946
  101MPD2    H7 1550   0.967   3.012  12.765  3.4917  0.3909 -1.2959
  102TCq2    C1 1551   1.427   3.101  12.549 -0.1198 -0.5404  0.1567
  102TCq2    O2 1552   1.514   3.013  12.547 -0.4368  0.0041  0.3854
  102TCq2    C2 1553   1.349   3.131  12.665 -0.0174  0.3154  0.1322
  102TCq2    C3 1554   1.285   3.249  12.692 -0.2853  0.1768 -0.4298
  102TCq2    C4 1555   1.181   3.258  12.782 -0.0380 -0.0270  0.1475
  102TCq2    C5 1556   1.132   3.146  12.844 -0.1976  0.0681 -0.1556
  102TCq2    C6 1557   1.205   3.029  12.820  0.2923 -0.3196 -1.1028
  102TCq2    C7 1558   1.311   3.024  12.735  0.6671  0.3426  0.5756
  102TCq2    C8 1559   1.132   2.899  12.819 -0.0304  0.0820 -0.0274
  102TCq2    O4 1560   1.191   2.792  12.827  0.2599  0.4139  0.1488
  102TCq2    C9 1561   1.111   3.382  12.801  0.0971  0.0005  0.0550
  102TCq2    O5 1562   1.157   3.487  12.742  0.2157 -0.1099  0.5785
  102TCq2    O6 1563   1.017   3.388  12.885 -0.0189 -0.0710 -0.5817
  102TCq2    H2 1564   1.315   3.337  12.636 -0.8030  1.1613  0.8590
  102TCq2    H3 1565   1.051   3.142  12.915 -1.2956  0.0431 -1.4109
  102TCq2    H4 1566   1.361   2.928  12.728  1.0402  0.6494 -1.0270
  103TMC2    C1 1567   4.454   2.482  12.687 -0.4502  0.4989  0.3850
  103TMC2    C2 1568   4.569   2.558  12.682  0.2665  0.7096 -0.5229
  103TMC2    C3 1569   4.596   2.652  12.782  0.6124  0.4161  0.2216
  103TMC2    C4 1570   4.350   2.501  12.777  0.4490  0.2466 -0.1533
  103TMC2    C5 1571   4.379   2.599  12.868 -0.1151 -0.6689 -0.1924
  103TMC2    C6 1572   4.501   2.658  12.884 -0.5448  0.0327 -0.8768
  103TMC2     C 1573   4.432   2.377  12.592 -0.0802  0.4901  0.0331
  103TMC2     O 1574   4.318   2.329  12.584 -0.0687  0.6228  0.4380
  103TMC2     H 1575   4.659   2.541  12.623 -0.9331 -0.7505 -1.9294
  103TMC2    H1 1576   4.262   2.438  12.786 -0.3954  1.4865  0.2868
  103TMC2    H2 1577   4.520   2.719  12.972  0.9692  0.5004 -1.5214
  103TMC2    C7 1578   4.272   2.623  12.957  0.3764  0.2180 -0.2743
  103TMC2    C8 1579   0.006   2.672  12.819 -0.3028 -0.0055  0.6409
  103TMC2    O1 1580   4.184   2.540  12.970 -0.5068  0.3492 -0.3108
  103TMC2    O2 1581   0.036   2.678  12.939  0.8742 -0.1471  0.0525
  103TMC2    O5 1582   0.084   2.711  12.713 -0.0913  0.0283 -0.5148
  103TMC2    H5 1583   0.020   2.725  12.640  0.7809  0.4802 -1.1855
  104MPD2     C 1584   4.666   2.148  12.430  0.1025  0.3442  0.2286
  104MPD2    C1 1585   4.552   2.228  12.442 -0.6893  0.0997 -0.0596
  104MPD2    C2 1586   4.437   2.190  12.372 -0.7675  0.3601 -0.2187
  104MPD2    C3 1587   4.438   2.079  12.291 -0.7688 -0.8704  0.7714
  104MPD2    C4 1588   4.551   1.995  12.282  0.0645  0.0140  0.1382
  104MPD2    C5 1589   4.663   2.031  12.354  0.9887  0.3921  0.0321
  104MPD2     H 1590   4.343   2.242  12.375 -0.2302  1.4049 -1.4185
  104MPD2    H1 1591   4.558   1.910  12.216 -0.5444 -1.2347  1.6874
  104MPD2    H2 1592   0.032   2.166  12.481  0.8701  0.3151 -1.1860
  104MPD2    H3 1593   0.031   1.981  12.345  0.2014 -1.3350  1.1760
  104MPD2     N 1594   4.326   2.054  12.205  0.2407  0.0083 -0.5036
  104MPD2    H5 1595   4.259   2.130  12.207  1.2041  0.8105  0.9671
  104MPD2    N1 1596   4.549   2.334  12.535 -0.1423 -0.2583 -0.1114
  104MPD2    H7 1597   4.634   2.379  12.567 -2.4475  3.5550  0.6848
  105MPD2     C 1598   1.260   2.341  17.114  0.3105 -0.2601  0.2210
  105MPD2    C1 1599   1.138   2.375  17.165 -0.1442 -0.9180 -0.7722
  105MPD2    C2 1600   1.118   2.486  17.238 -0.6003  0.5063  0.3497
  105MPD2    C3 1601   1.225   2.573  17.245 -0.6087 -0.4386 -0.1625
  105MPD2    C4 1602   1.346   2.549  17.180  1.1547  0.1756 -0.5582
  105MPD2    C5 1603   1.359   2.434  17.113  0.2605  0.3924 -0.8694
  105MPD2     H 1604   1.028   2.525  17.283 -0.5057  0.7851  0.2930
  105MPD2    H1 1605   1.437   2.608  17.183  1.5734 -0.5616  1.7628
  105MPD2    H2 1606   1.275   2.255  17.050 -2.9880 -0.9182  0.2921
  105MPD2    H3 1607   1.450   2.405  17.062  0.2190 -0.1386 -0.6388
  105MPD2     N 1608   1.198   2.675  17.336  0.5446 -0.1076  0.3065
  105MPD2    H5 1609   1.111   2.656  17.385  0.5617 -2.6958 -0.6721
  105MPD2    N1 1610   1.021   2.294  17.134  0.5893  0.2587  0.5609
  105MPD2    H7 1611   0.936   2.333  17.173 -0.0720  0.7791 -1.3990
  106TCq2    C1 1612   1.282   2.775  17.384 -0.2631 -0.1483 -0.3889
  106TCq2    O2 1613   1.402   2.799  17.359  0.5470 -1.4074  1.2072
  106TCq2    C2 1614   1.220   2.862  17.483 -0.3136  0.6551  0.2401
  106TCq2    C3 1615   1.292   2.907  17.591 -0.8097 -0.2535 -0.3306
  106TCq2    C4 1616   1.231   2.954  17.703 -0.4453 -0.0498 -0.1090
  106TCq2    C5 1617   1.094   2.958  17.711  0.0163 -0.5295  0.4196
  106TCq2    C6 1618   1.020   2.922  17.604 -0.7481 -0.7404 -0.8077
  106TCq2    C7 1619   1.084   2.875  17.488  0.1728 -0.8276  0.1702
  106TCq2    C8 1620   0.873   2.910  17.600 -0.3268 -0.0518  0.4050
  106TCq2    O4 1621   0.815   2.880  17.497  0.0637 -0.0656  0.0440
  106TCq2    C9 1622   1.309   3.003   0.104  0.7044 -0.3091 -0.4571
  106TCq2    O5 1623   1.247   3.043   0.206  0.3834 -0.0708  0.3479
  106TCq2    O6 1624   1.432   3.012   0.082 -0.3808 -0.2901  0.1223
  106TCq2    H2 1625   1.400   2.897  17.598 -0.7123  1.7838  1.2680
  106TCq2    H3 1626   1.044   2.997   0.088 -0.1544  1.5534 -0.6090
  106TCq2    H4 1627   1.019   2.838  17.410 -1.3895  0.4806  0.8555
  107TMC2    C1 1628   1.784   1.092  11.191 -0.1467  1.0715  0.1902
  107TMC2    C2 1629   1.848   1.179  11.106  0.3046  0.2077  0.7448
  107TMC2    C3 1630   1.948   1.136  11.033  0.1481 -0.2232 -0.3829
  107TMC2    C4 1631   1.821   0.959  11.205  0.3291  0.3184 -0.0152
  107TMC2    C5 1632   1.930   0.917  11.126  0.0422 -0.3072  0.3706
  107TMC2    C6 1633   1.998   1.012  11.042  0.1455  0.5835  0.4958
  107TMC2     C 1634   1.696   1.137  11.298 -0.1621 -0.9580  0.6681
  107TMC2     O 1635   1.685   1.067  11.393 -0.7014 -0.2945 -0.2248
  107TMC2     H 1636   1.819   1.282  11.087 -0.5860  0.0709  1.3623
  107TMC2    H1 1637   1.752   0.888  11.250  1.2653  0.2761  1.3509
  107TMC2    H2 1638   2.057   0.982  10.956  0.9477  1.0881  0.8700
  107TMC2    C7 1639   1.920   0.787  11.071  1.0356  0.4294 -0.1429
  107TMC2    C8 1640   2.006   1.214  10.920  0.5309 -0.1999 -0.3983
  107TMC2    O1 1641   1.803   0.763  11.043  0.3849 -0.2305 -0.3576
  107TMC2    O2 1642   2.126   1.212  10.891 -0.0931  0.7690  0.0353
  107TMC2    O5 1643   1.927   1.321  10.908 -0.4153 -0.3668  0.2928
  107TMC2    H5 1644   1.847   1.281  10.867 -0.5523  0.5403 -0.3188
  108MPD2     C 1645   1.515   1.450  11.311  0.4299 -0.2809 -0.0273
  108MPD2    C1 1646   1.564   1.334  11.366 -0.1085  0.0076  0.7793
  108MPD2    C2 1647   1.523   1.295  11.491 -0.8043  0.6944  0.2664
  108MPD2    C3 1648   1.425   1.363  11.559 -0.0155 -0.3155 -0.3838
  108MPD2    C4 1649   1.355   1.469  11.494 -0.5653  0.0449 -0.6092
  108MPD2    C5 1650   1.405   1.510  11.370 -0.0988  0.0545 -0.1379
  108MPD2     H 1651   1.577   1.211  11.534 -0.4460  1.3090  1.0188
  108MPD2    H1 1652   1.271   1.525  11.533  0.7883  0.8077  1.1801
  108MPD2    H2 1653   1.542   1.479  11.210 -0.0729 -1.1285 -0.4028
  108MPD2    H3 1654   1.361   1.591  11.313 -0.5514 -0.2178 -0.1667
  108MPD2     N 1655   1.396   1.343  11.692 -0.7423  0.0777  0.2315
  108MPD2    H5 1656   1.317   1.397  11.726  0.7382  1.6528  1.1890
  108MPD2    N1 1657   1.652   1.267  11.282 -0.8281 -0.3420 -0.2865
  108MPD2    H7 1658   1.674   1.301  11.189 -1.1244  1.3047  0.2348
  109MPD2     C 1659   1.370   3.069   2.080  0.0738  0.6344  0.7769
  109MPD2    C1 1660   1.446   3.175   2.029 -0.5402  0.0850  0.1192
  109MPD2    C2 1661   1.570   3.215   2.083  0.1628 -0.3416 -0.0512
  109MPD2    C3 1662   1.609   3.149   2.200  0.1754 -0.1700 -0.6048
  109MPD2    C4 1663   1.530   3.050   2.259  0.3056 -0.8698 -0.3703
  109MPD2    C5 1664   1.419   3.002   2.191  0.5035 -0.1134  0.7153
  109MPD2     H 1665   1.631   3.275   2.016 -0.6004  1.2244  0.6723
  109MPD2    H1 1666   1.569   3.002   2.349  0.5148  0.1151  0.0588
  109MPD2    H2 1667   1.281   3.035   2.029  0.6030 -1.3647  1.1906
  109MPD2    H3 1668   1.361   2.920   2.232  0.7036  0.4029  2.0196
  109MPD2     N 1669   1.738   3.191   2.252  0.0939  0.3604  0.4470
  109MPD2    H5 1670   1.804   3.228   2.184 -0.8968 -0.9216 -1.1831
  109MPD2    N1 1671   1.383   3.238   1.916 -0.0676 -0.6896 -0.1498
  109MPD2    H7 1672   1.288   3.215   1.891 -0.1040 -1.5926  0.7860
  110TCq2    C1 1673   1.798   3.158   2.372  0.2375 -0.3138 -0.4213
  110TCq2    O2 1674   1.756   3.083   2.457  0.5356 -0.3426 -0.3888
  110TCq2    C2 1675   1.933   3.218   2.376 -0.6831 -0.1693  0.4420
  110TCq2    C3 1676   2.016   3.162   2.465  0.8082  0.1559 -0.0047
  110TCq2    C4 1677   2.147   3.188   2.456 -0.1917  0.3314  0.4114
  110TCq2    C5 1678   2.200   3.266   2.359  0.0643  0.3100 -0.0453
  110TCq2    C6 1679   2.114   3.330   2.277  0.1266  0.0839 -0.4135
  110TCq2    C7 1680   1.975   3.312   2.284  0.0734  0.2599 -0.1794
  110TCq2    C8 1681   2.162   3.411   2.165 -0.7772 -0.2640 -0.2877
  110TCq2    O4 1682   2.078   3.436   2.085 -0.2603 -0.0147 -0.0455
  110TCq2    C9 1683   2.237   3.130   2.552 -0.3542  0.0374  0.6221
  110TCq2    O5 1684   2.360   3.169   2.533  0.4531  0.4025 -0.4263
  110TCq2    O6 1685   2.193   3.096   2.668  0.0785 -0.9353 -0.3050
  110TCq2    H2 1686   1.970   3.092   2.533 -2.8816 -0.2265 -2.8930
  110TCq2    H3 1687   2.307   3.274   2.348  0.3948 -0.2858  2.8092
  110TCq2    H4 1688   1.903   3.355   2.215  0.4250  2.2692  0.7105
  111TMC2    C1 1689   1.550   2.659  11.064  0.4437  0.2666 -0.9028
  111TMC2    C2 1690   1.600   2.581  10.969 -0.2042 -0.2290 -0.6466
  111TMC2    C3 1691   1.728   2.548  10.959 -0.1734  0.7586  0.1299
  111TMC2    C4 1692   1.644   2.729  11.140 -0.6145  0.5273 -0.1289
  111TMC2    C5 1693   1.777   2.694  11.131  0.2283  0.8345  0.8133
  111TMC2    C6 1694   1.819   2.594  11.044 -0.7100  0.0421  0.0119
  111TMC2     C 1695   1.432   2.740  11.027  0.5339 -0.0627  0.3305
  111TMC2     O 1696   1.413   2.785  10.918  0.5723 -0.0290 -0.1872
  111TMC2     H 1697   1.525   2.533  10.908 -0.9356 -0.0398  0.0989
  111TMC2    H1 1698   1.599   2.797  11.212 -1.1307  0.8017 -0.7125
  111TMC2    H2 1699   1.914   2.542  11.049 -0.1143  0.8429 -2.9383
  111TMC2    C7 1700   1.857   2.747  11.241 -0.3015  0.0320 -0.3158
  111TMC2    C8 1701   1.774   2.494  10.835 -0.9169 -0.3384  0.2857
  111TMC2    O1 1702   1.793   2.802  11.331  0.7517 -0.0302 -0.1779
  111TMC2    O2 1703   1.708   2.420  10.764  0.0853  0.4766  0.0926
  111TMC2    O5 1704   1.866   2.578  10.787  0.3372  0.2117 -0.2760
  111TMC2    H5 1705   1.896   2.642  10.855  3.3305 -1.2601 -0.2324
  112MPD2     C 1706   1.000   3.008  11.149  0.6842  1.1019  0.5950
  112MPD2    C1 1707   1.098   3.018  11.051  0.2330 -0.1896  0.0920
  112MPD2    C2 1708   1.214   2.942  11.050 -0.1475 -0.5365 -0.4168
  112MPD2    C3 1709   1.228   2.844  11.137 -0.2800  0.5309  0.4262
  112MPD2    C4 1710   1.141   2.831  11.239  0.6433  0.3381  0.3970
  112MPD2    C5 1711   1.024   2.909  11.244  0.7181 -0.1206  0.0279
  112MPD2     H 1712   1.293   2.965  10.979  1.0585 -0.4943  0.9527
  112MPD2    H1 1713   1.152   2.752  11.312 -1.4811 -1.2825 -1.0191
  112MPD2    H2 1714   0.916   3.075  11.160  0.1706  1.0744 -3.1842
  112MPD2    H3 1715   0.953   2.885  11.322 -0.0402 -1.4085 -1.0455
  112MPD2     N 1716   1.341   2.751  11.134  0.0207  0.2343  0.4322
  112MPD2    H5 1717   1.357   2.689  11.213  0.6766 -1.2433 -0.8612
  112MPD2    N1 1718   1.089   3.112  10.941  0.7389 -0.3092  0.5113
  112MPD2    H7 1719   1.153   3.098  10.864  1.9244  0.1105  1.4165
  113MPD2     C 1720   4.726   0.942   0.712  0.3330  0.7416  0.9816
  113MPD2    C1 1721   4.648   1.048   0.738 -1.0861 -0.5147  0.0065
  113MPD2    C2 1722   4.513   1.036   0.741 -0.5112  0.4767  0.0589
  113MPD2    C3 1723   4.456   0.908   0.737 -0.1544  0.8900  0.4908
  113MPD2    C4 1724   4.528   0.799   0.717 -0.1053  0.3138 -0.2221
  113MPD2    C5 1725   4.666   0.821   0.707  0.1531 -0.4864 -0.7755
  113MPD2     H 1726   4.455   1.127   0.744  0.0620  0.7475  2.7634
  113MPD2    H1 1727   4.474   0.705   0.723  1.2916 -0.4902 -0.0902
  113MPD2    H2 1728   0.107   0.938   0.711  0.2944 -0.0912 -0.4125
  113MPD2    H3 1729   0.003   0.735   0.695 -0.1922 -1.4388  4.0939
  113MPD2     N 1730   4.317   0.897   0.749  0.5510  0.1320  0.2805
  113MPD2    H5 1731   4.272   0.810   0.726 -0.1263 -0.0933  2.4727
  113MPD2    N1 1732   4.692   1.183   0.738 -0.8238  0.1468  0.2709
  113MPD2    H7 1733   4.620   1.250   0.760 -0.5944  0.3596  0.3701
  114TCq2    C1 1734   4.241   0.990   0.811  0.1624 -0.6652 -0.3729
  114TCq2    O2 1735   4.285   1.072   0.891 -0.2323 -0.0755  0.1539
  114TCq2    C2 1736   4.101   0.951   0.824  0.0481  0.4893 -0.4129
  114TCq2    C3 1737   4.053   0.876   0.720 -1.2180 -0.0601  1.0654
  114TCq2    C4 1738   3.939   0.808   0.747  0.1023  0.7387  0.1920
  114TCq2    C5 1739   3.888   0.803   0.875 -0.4056  0.3763 -0.3379
  114TCq2    C6 1740   3.931   0.893   0.970  0.1340  0.3181  0.1602
  114TCq2    C7 1741   4.042   0.967   0.950  0.2043  0.3816  0.5724
  114TCq2    C8 1742   3.847   0.908   1.086 -0.1311  0.1434  0.0236
  114TCq2    O4 1743   3.839   1.021   1.132 -0.4860  0.0649 -0.3293
  114TCq2    C9 1744   3.877   0.729   0.643  0.1833 -0.4462  0.6970
  114TCq2    O5 1745   3.950   0.711   0.545 -0.2116 -0.2578  0.0998
  114TCq2    O6 1746   3.763   0.683   0.669  0.3638 -0.2040 -0.5206
  114TCq2    H2 1747   4.103   0.867   0.625  1.9375  2.6152  2.4379
  114TCq2    H3 1748   3.798   0.743   0.885 -0.7295  0.8117 -0.6980
  114TCq2    H4 1749   4.085   1.027   1.030  0.3375  1.2970 -0.1863
  115TMC2    C1 1750   0.342   4.212   0.307  1.1991 -1.1911  0.6726
  115TMC2    C2 1751   0.418   4.259   0.418 -0.3188  0.0768 -0.3960
  115TMC2    C3 1752   0.430   4.389   0.438  0.1598  0.4719  0.7356
  115TMC2    C4 1753   0.277   4.298   0.227 -0.2629  0.4715 -0.2218
  115TMC2    C5 1754   0.297   4.433   0.258  0.0360  0.1685 -0.2412
  115TMC2    C6 1755   0.364   4.483   0.363 -0.3370  0.5304 -0.0163
  115TMC2     C 1756   0.335   4.066   0.270 -1.1650  0.1211  0.5442
  115TMC2     O 1757   0.261   4.029   0.179 -0.6834 -0.4925  0.1153
  115TMC2     H 1758   0.470   4.188   0.482  1.2047  0.7548 -0.8652
  115TMC2    H1 1759   0.217   4.265   0.144  0.8024  0.9128 -1.1678
  115TMC2    H2 1760   0.366   4.588   0.387  1.4258  0.7056 -0.9074
  115TMC2    C7 1761   0.222   4.535   0.187 -0.3925 -0.6072  0.2326
  115TMC2    C8 1762   0.518   4.439   0.538  0.1383  1.1005 -0.1355
  115TMC2    O1 1763   0.103   4.511   0.159  0.2397 -0.7310  0.2775
  115TMC2    O2 1764   0.624   4.382   0.569 -0.4768  0.5332  0.5296
  115TMC2    O5 1765   0.437   4.487   0.630 -0.3394  0.0539  0.6637
  115TMC2    H5 1766   0.364   4.548   0.607  1.1797  1.2747 -0.8813
  116MPD2     C 1767   0.420   3.569   0.367 -0.3002  0.7865 -0.4009
  116MPD2    C1 1768   0.387   3.636   0.251  0.0264 -0.0052 -0.0452
  116MPD2    C2 1769   0.372   3.772   0.244  0.2010 -0.6797  0.4414
  116MPD2    C3 1770   0.394   3.849   0.360 -0.3595  0.4096  0.2044
  116MPD2    C4 1771   0.430   3.786   0.482  0.0221  0.4317  0.0996
  116MPD2    C5 1772   0.441   3.648   0.478  0.0536  0.1357 -0.0738
  116MPD2     H 1773   0.359   3.824   0.149  0.3949  3.1063  2.4795
  116MPD2    H1 1774   0.443   3.845   0.571 -1.6353  0.3627  0.3867
  116MPD2    H2 1775   0.413   3.461   0.366  0.6005  0.7352 -1.2460
  116MPD2    H3 1776   0.474   3.600   0.569 -3.3723 -1.8943  0.0782
  116MPD2     N 1777   0.394   3.984   0.363 -0.4477  0.3150 -0.1616
  116MPD2    H5 1778   0.433   4.026   0.446  0.7182 -0.2750 -0.4159
  116MPD2    N1 1779   0.384   3.550   0.136 -0.3347 -0.8177  0.0031
  116MPD2    H7 1780   0.417   3.454   0.145  0.2534 -0.4941  1.2735
  117TMC2    C1 1781   3.788   0.354  13.402  0.0119  0.2690  0.2473
  117TMC2    C2 1782   3.871   0.257  13.365 -0.3328  0.4404 -0.8025
  117TMC2    C3 1783   4.004   0.290  13.342  0.1723 -0.9679  0.2876
  117TMC2    C4 1784   3.834   0.482  13.434  0.2938 -0.0257 -0.1382
  117TMC2    C5 1785   3.966   0.507  13.441  0.1801 -0.3785 -0.1957
  117TMC2    C6 1786   4.050   0.408  13.392  0.0562 -0.5541  0.0565
  117TMC2     C 1787   3.651   0.326  13.409 -0.2490 -1.0215  0.5875
  117TMC2     O 1788   3.615   0.253  13.317 -0.2918 -0.0722  0.0005
  117TMC2     H 1789   3.836   0.158  13.338  1.9724 -0.6478  0.2034
  117TMC2    H1 1790   3.762   0.563  13.431  0.2524 -0.0961 -1.0045
  117TMC2    H2 1791   4.154   0.437  13.385 -0.3000  1.0693  1.5728
  117TMC2    C7 1792   4.013   0.645  13.469  0.7340  0.0253  0.2998
  117TMC2    C8 1793   4.085   0.168  13.329  0.1134  0.4517 -0.5212
  117TMC2    O1 1794   4.132   0.669  13.458 -0.5344 -0.4451  0.1845
  117TMC2    O2 1795   4.051   0.076  13.401 -0.1808 -0.2271  0.4838
  117TMC2    O5 1796   4.206   0.214  13.305 -0.3782 -0.0246  0.2152
  117TMC2    H5 1797   4.196   0.292  13.246 -2.5332  0.0025  0.6160
  118MPD2     C 1798   3.839   0.919  13.625 -0.9688 -0.1473 -0.1907
  118MPD2    C1 1799   3.934   0.853  13.550  0.1253 -0.1509 -0.1173
  118MPD2    C2 1800   4.027   0.934  13.478  0.5936  0.7745 -0.4186
  118MPD2    C3 1801   4.027   1.071  13.493  0.8132 -0.1020  0.0314
  118MPD2    C4 1802   3.937   1.134  13.585  0.0714 -0.4037 -0.0393
  118MPD2    C5 1803   3.841   1.051  13.644  0.2448  0.3040 -0.9351
  118MPD2     H 1804   4.092   0.891  13.403  1.7736  1.0697  0.4473
  118MPD2    H1 1805   3.935   1.241  13.599 -0.9486 -0.4188 -0.0838
  118MPD2    H2 1806   3.769   0.858  13.680 -0.1277 -0.5222  0.4756
  118MPD2    H3 1807   3.770   1.089  13.716  0.1283  0.2533 -1.0250
  118MPD2     N 1808   4.127   1.148  13.423  0.4139 -0.1297 -0.0904
  118MPD2    H5 1809   4.179   1.108  13.345 -1.2664  0.2175 -1.4023
  118MPD2    N1 1810   3.918   0.718  13.530 -0.3360  0.8676  0.7333
  118MPD2    H7 1811   3.841   0.666  13.569 -0.2997  0.5804  0.4240
  119MPD2     C 1812   2.412   2.009  13.426 -0.2895 -0.3740  0.2687
  119MPD2    C1 1813   2.280   2.049  13.390  0.5371 -0.4133 -0.1224
  119MPD2    C2 1814   2.223   2.004  13.272 -0.1329 -0.3400 -0.6974
  119MPD2    C3 1815   2.286   1.913  13.195 -0.5074 -1.0298  0.3726
  119MPD2    C4 1816   2.410   1.870  13.228  0.2187  0.6408 -0.5175
  119MPD2    C5 1817   2.473   1.926  13.333 -0.4887  0.0470 -0.1883
  119MPD2     H 1818   2.131   2.056  13.248 -0.5634 -1.2169 -0.9512
  119MPD2    H1 1819   2.463   1.798  13.166 -1.2973 -2.2086  1.5049
  119MPD2    H2 1820   2.466   2.051  13.510 -1.5589  0.7544  0.5156
  119MPD2    H3 1821   2.581   1.919  13.342 -0.6353 -1.8607  0.0799
  119MPD2     N 1822   2.222   1.853  13.087 -0.1013 -0.0276 -0.6984
  119MPD2    H5 1823   2.278   1.790  13.031 -1.4416 -2.4351  0.6259
  119MPD2    N1 1824   2.212   2.129  13.481  0.3279 -0.1995 -0.4308
  119MPD2    H7 1825   2.269   2.187  13.541 -1.3932  1.1754 -0.1294
  120TCq2    C1 1826   2.088   1.878  13.048 -0.3945  0.0206  0.8920
  120TCq2    O2 1827   2.013   1.968  13.075 -0.0905  0.3606  0.0039
  120TCq2    C2 1828   2.041   1.771  12.962  0.1965 -0.9723 -0.2300
  120TCq2    C3 1829   2.135   1.701  12.885 -0.2337  0.0931  0.0175
  120TCq2    C4 1830   2.106   1.572  12.846 -0.4895 -0.4338 -0.9057
  120TCq2    C5 1831   1.983   1.523  12.863 -0.2981  0.7058  0.4492
  120TCq2    C6 1832   1.890   1.592  12.929  0.9197  0.0900  0.4312
  120TCq2    C7 1833   1.918   1.717  12.982 -0.3743 -0.3292 -0.0950
  120TCq2    C8 1834   1.754   1.527  12.942  0.1327  0.6949 -0.2096
  120TCq2    O4 1835   1.730   1.432  12.864  0.8732  0.4208  0.0710
  120TCq2    C9 1836   2.212   1.488  12.788 -0.1803 -0.1552 -0.0449
  120TCq2    O5 1837   2.320   1.542  12.784 -0.3499  0.2459  0.1138
  120TCq2    O6 1838   2.200   1.365  12.759 -0.1277  0.1984  0.3591
  120TCq2    H2 1839   2.238   1.733  12.879  0.5717 -2.6179 -0.4747
  120TCq2    H3 1840   1.971   1.420  12.832  0.8939  0.6695  0.1114
  120TCq2    H4 1841   1.848   1.771  13.045  0.4162  0.0395  0.4588
  121TMC2    C1 1842   3.531   3.774  13.955  0.0854  0.5267  0.1403
  121TMC2    C2 1843   3.495   3.753  14.087 -0.3924 -0.5309  0.5606
  121TMC2    C3 1844   3.374   3.813  14.131 -0.2144 -0.0474  0.2143
  121TMC2    C4 1845   3.453   3.853  13.870  0.9486 -0.4545 -0.5837
  121TMC2    C5 1846   3.343   3.906  13.921  0.3968 -0.3743  0.5556
  121TMC2    C6 1847   3.294   3.882  14.052 -0.9110  0.0319 -0.2254
  121TMC2     C 1848   3.647   3.695  13.897 -0.7679 -0.3108  0.1895
  121TMC2     O 1849   3.711   3.635  13.987  0.2610 -0.0529  0.1219
  121TMC2     H 1850   3.556   3.686  14.146  1.3477  0.2621 -0.3341
  121TMC2    H1 1851   3.486   3.881  13.771 -0.2756  1.2785 -0.5124
  121TMC2    H2 1852   3.207   3.937  14.087 -0.5008  0.9878 -0.6857
  121TMC2    C7 1853   3.286   4.012  13.845 -0.1519  0.1579  0.4284
  121TMC2    C8 1854   3.301   3.727  14.226  0.1730 -0.1665  0.4210
  121TMC2    O1 1855   3.357   4.070  13.763 -0.2033  0.4181 -0.2243
  121TMC2    O2 1856   3.192   3.684  14.202 -0.3802 -0.3264 -0.9900
  121TMC2    O5 1857   3.398   3.678  14.304  0.2885  0.0176  0.2871
  121TMC2    H5 1858   3.469   3.742  14.324 -1.2060  1.9387 -0.5375
  122MPD2     C 1859   3.825   3.528  13.718  0.4081  0.5441  0.4395
  122MPD2    C1 1860   3.739   3.626  13.674 -0.4961  0.1511  0.6065
  122MPD2    C2 1861   3.730   3.646  13.537  0.5784 -0.7164 -0.4881
  122MPD2    C3 1862   3.811   3.571  13.455  0.1148  0.7882  1.1807
  122MPD2    C4 1863   3.894   3.475  13.502  0.2295 -0.2058 -0.3218
  122MPD2    C5 1864   3.909   3.459  13.640  0.7919 -0.0286 -0.7432
  122MPD2     H 1865   3.657   3.713  13.494  3.4242  1.6758 -1.5212
  122MPD2    H1 1866   3.971   3.431  13.440  0.8694  0.3392  0.0763
  122MPD2    H2 1867   3.818   3.511  13.825  1.4659 -0.2183  0.3899
  122MPD2    H3 1868   3.971   3.388  13.694 -0.0838  0.2804  0.6338
  122MPD2     N 1869   3.814   3.585  13.313  0.0159 -0.2827 -0.0086
  122MPD2    H5 1870   3.872   3.518  13.263 -0.0156 -1.9792  2.2570
  122MPD2    N1 1871   3.648   3.698  13.760  0.2151  0.5719 -0.2700
  122MPD2    H7 1872   3.573   3.755  13.721 -0.2439  2.8189  3.9491
  123MPD2     C 1873   0.394   1.041   9.253 -0.4106 -0.1624  0.2346
  123MPD2    C1 1874   0.512   0.975   9.284  0.2973  0.0402  0.3480
  123MPD2    C2 1875   0.529   0.845   9.242  0.3208  0.2265 -0.3866
  123MPD2    C3 1876   0.439   0.789   9.152  0.1629 -0.0137 -0.0512
  123MPD2    C4 1877   0.334   0.864   9.112  0.1513 -0.2748  0.0435
  123MPD2    C5 1878   0.306   0.987   9.161 -0.2126  0.0813 -0.3315
  123MPD2     H 1879   0.618   0.787   9.260 -0.8499 -1.4747 -0.0647
  123MPD2    H1 1880   0.268   0.834   9.031  2.0008 -1.9752 -0.8302
  123MPD2    H2 1881   0.385   1.140   9.297 -2.0509  0.1386 -0.8138
  123MPD2    H3 1882   0.221   1.049   9.135  0.2620  1.2163  0.8197
  123MPD2     N 1883   0.479   0.670   9.092  0.9554  0.3674 -0.0858
  123MPD2    H5 1884   0.574   0.639   9.114  0.8691 -0.7349 -1.3012
  123MPD2    N1 1885   0.610   1.046   9.360  0.2451  0.5211 -0.0589
  123MPD2    H7 1886   0.577   1.136   9.392 -2.4466 -0.1877 -0.7896
  124TCq2    C1 1887   0.413   0.602   8.991 -0.6206  0.4442 -0.0437
  124TCq2    O2 1888   0.303   0.622   8.942 -0.3982  0.0046 -0.0444
  124TCq2    C2 1889   0.504   0.501   8.939 -0.0312 -0.0036  0.0645
  124TCq2    C3 1890   0.441   0.386   8.893 -0.3526  0.8159 -0.5296
  124TCq2    C4 1891   0.516   0.272   8.886  0.2665 -0.1168  0.4470
  124TCq2    C5 1892   0.652   0.278   8.909  0.5950  0.2716 -0.3274
  124TCq2    C6 1893   0.714   0.401   8.922  0.2569 -0.0109  0.1158
  124TCq2    C7 1894   0.636   0.514   8.939 -0.2846 -0.0161  0.3129
  124TCq2    C8 1895   0.856   0.403   8.950  0.6017 -0.5000 -0.4804
  124TCq2    O4 1896   0.911   0.510   8.953 -0.6118  0.1467 -0.0303
  124TCq2    C9 1897   0.462   0.150   8.840  0.4815  0.3215 -0.0726
  124TCq2    O5 1898   0.338   0.153   8.810  0.2685  0.3787 -0.0433
  124TCq2    O6 1899   0.527   0.047   8.846 -0.3487  0.4366  0.3562
  124TCq2    H2 1900   0.332   0.379   8.892 -0.3749  1.0149  0.8683
  124TCq2    H3 1901   0.713   0.189   8.899 -2.6347 -2.3454  3.4695
  124TCq2    H4 1902   0.691   0.601   8.973 -1.7935  1.1690 -0.2449
  125TMC2    C1 1903   3.249   2.404   9.214 -0.3299  0.5747  0.3001
  125TMC2    C2 1904   3.307   2.412   9.085 -0.4090 -0.4212 -0.0934
  125TMC2    C3 1905   3.421   2.490   9.075  0.4728 -0.1614 -1.2743
  125TMC2    C4 1906   3.287   2.486   9.316  0.1156  0.5705  0.7320
  125TMC2    C5 1907   3.393   2.577   9.291  0.5904  0.1956  0.1098
  125TMC2    C6 1908   3.462   2.580   9.171  0.0287  0.2121 -0.5695
  125TMC2     C 1909   3.147   2.302   9.234  0.4421  0.5954  0.2303
  125TMC2     O 1910   3.115   2.243   9.132  0.0046 -0.0412 -0.4412
  125TMC2     H 1911   3.293   2.332   9.013 -0.0578  1.1927 -1.9490
  125TMC2    H1 1912   3.244   2.483   9.416  0.0385 -1.4354  0.6445
  125TMC2    H2 1913   3.536   2.657   9.152  1.2055 -0.5245  0.9826
  125TMC2    C7 1914   3.435   2.656   9.403 -0.5473 -0.2385  0.2674
  125TMC2    C8 1915   3.492   2.486   8.950  0.0690 -0.1971 -0.6071
  125TMC2    O1 1916   3.358   2.651   9.499  0.5129  0.0910  0.0636
  125TMC2    O2 1917   3.442   2.443   8.848  0.5167  0.1500  0.6149
  125TMC2    O5 1918   3.621   2.517   8.969  0.4656  0.3859  0.0093
  125TMC2    H5 1919   3.642   2.543   9.061  1.9143  0.2429 -0.2793
  126MPD1     C 1920   2.741   2.083   9.455  0.4092  0.0642 -0.6953
  126MPD1    C1 1921   2.774   2.190   9.527  0.4444  0.1916  0.3421
  126MPD1    C2 1922   2.890   2.257   9.490  0.3472  0.8125  0.2155
  126MPD1    C3 1923   2.966   2.222   9.381 -0.8851 -0.0882 -0.0612
  126MPD1    C4 1924   2.935   2.112   9.314  0.0663 -0.2185 -0.8107
  126MPD1    C5 1925   2.823   2.037   9.351  0.0363  0.2095 -0.3883
  126MPD1     H 1926   2.924   2.342   9.547  2.5054  1.1844 -1.6858
  126MPD1    H1 1927   2.995   2.075   9.231  1.4310  2.0551 -0.8247
  126MPD1    H2 1928   2.643   2.041   9.474  0.8206  0.3919  2.2052
  126MPD1    H3 1929   2.794   1.963   9.278 -2.6118  0.0648  0.8289
  126MPD1     N 1930   3.076   2.307   9.348 -0.1297  0.4783 -0.9684
  126MPD1    H5 1931   3.096   2.386   9.408  0.5482 -0.6872  0.3603
  126MPD1    N1 1932   2.679   2.250   9.614 -0.0157 -0.1478  0.0582
  126MPD1    H6 1933   2.717   2.316   9.682 -0.4603  1.5135 -1.2976
  126MPD1    H7 1934   2.635   2.178   9.671  0.6851 -1.5927 -1.2412
  127MPD2     C 1935   0.115   1.743   9.742 -0.5179 -0.5475  0.1371
  127MPD2    C1 1936   0.018   1.840   9.757 -0.4210  0.1664  0.4254
  127MPD2    C2 1937   0.008   1.913   9.872  0.1607 -0.7350  0.3534
  127MPD2    C3 1938   0.105   1.902   9.973  0.0471  0.4303 -0.2007
  127MPD2    C4 1939   0.215   1.831   9.939 -0.6305 -0.3114  0.2943
  127MPD2    C5 1940   0.218   1.745   9.832 -0.6298 -0.2598 -0.3142
  127MPD2     H 1941   4.650   1.978   9.887  1.3230  1.0606 -0.7753
  127MPD2    H1 1942   0.297   1.822  10.011 -1.2184 -1.8075  0.7674
  127MPD2    H2 1943   0.117   1.679   9.655  0.0959 -0.5491  0.1528
  127MPD2    H3 1944   0.300   1.676   9.823 -2.1482 -1.9369 -1.1667
  127MPD2     N 1945   0.093   1.977  10.095 -0.0082  0.7079  0.7078
  127MPD2    H5 1946   0.006   2.025  10.113 -2.0138 -2.9257  0.6787
  127MPD2    N1 1947   4.642   1.824   9.674 -0.3267  0.1651 -0.1305
  127MPD2    H7 1948   4.636   1.746   9.610 -0.3885  0.1541 -0.1106
  128TCq2    C1 1949   4.527   1.905   9.661  0.1153  0.5758 -0.2216
  128TCq2    O2 1950   4.486   1.989   9.739  0.6940  0.1420 -0.2574
  128TCq2    C2 1951   4.426   1.843   9.571  0.6724  0.6043  0.0621
  128TCq2    C3 1952   4.288   1.859   9.593  0.2244  0.0958  0.4629
  128TCq2    C4 1953   4.205   1.790   9.516  0.2173  0.0026  0.4368
  128TCq2    C5 1954   4.244   1.692   9.431 -0.3721 -0.2524  0.7118
  128TCq2    C6 1955   4.381   1.667   9.429  0.3351  0.0402 -0.7647
  128TCq2    C7 1956   4.473   1.752   9.483  0.2047 -0.1725  1.0427
  128TCq2    C8 1957   4.436   1.577   9.324 -0.0835 -0.4551 -1.4411
  128TCq2    O4 1958   4.532   1.611   9.254  0.5463 -0.3804  0.6337
  128TCq2    C9 1959   4.059   1.820   9.521 -0.4875 -0.5487 -0.2798
  128TCq2    O5 1960   4.011   1.875   9.622 -0.6547 -0.1983  0.2962
  128TCq2    O6 1961   3.992   1.755   9.432  0.5906  0.1253  0.4226
  128TCq2    H2 1962   4.256   1.940   9.658  2.0894 -0.8124  2.5133
  128TCq2    H3 1963   4.171   1.629   9.382 -0.0615 -0.3406  0.3573
  128TCq2    H4 1964   4.577   1.739   9.455 -0.3847 -0.8719 -0.8268
  129MPD2     C 1965   2.704   3.225   1.306 -0.5108  0.1077  0.4397
  129MPD2    C1 1966   2.697   3.321   1.408 -0.0562  0.2906  0.9421
  129MPD2    C2 1967   2.754   3.446   1.393 -0.5138 -0.2578  0.3577
  129MPD2    C3 1968   2.814   3.477   1.271  0.5055 -0.3415  0.1869
  129MPD2    C4 1969   2.819   3.383   1.167  0.1355  0.2553 -0.6790
  129MPD2    C5 1970   2.776   3.257   1.192  0.6548 -0.1889 -0.0658
  129MPD2     H 1971   2.757   3.513   1.478  0.1711 -1.1199  1.0113
  129MPD2    H1 1972   2.848   3.404   1.064  0.4944  0.4953 -0.5302
  129MPD2    H2 1973   2.664   3.124   1.308 -0.3440  0.0586  1.4209
  129MPD2    H3 1974   2.776   3.189   1.108 -1.6192  0.0230 -0.2364
  129MPD2     N 1975   2.857   3.611   1.254  0.2650 -0.2076  0.3021
  129MPD2    H5 1976   2.828   3.687   1.314 -4.0392 -3.0916  1.7928
  129MPD2    N1 1977   2.634   3.291   1.529  0.3476 -0.4057 -0.0480
  129MPD2    H7 1978   2.613   3.372   1.587  1.1213  0.5516 -1.1118
  130TCq2    C1 1979   2.577   3.171   1.559 -0.6837 -0.2170 -0.1274
  130TCq2    O2 1980   2.574   3.062   1.504 -0.2361 -0.1214 -0.2526
  130TCq2    C2 1981   2.533   3.176   1.694  0.1773 -0.4600  0.2096
  130TCq2    C3 1982   2.620   3.199   1.798 -0.0921  0.8058 -0.3121
  130TCq2    C4 1983   2.563   3.206   1.922 -0.0436 -0.0451  0.0675
  130TCq2    C5 1984   2.428   3.178   1.946 -0.7002 -0.4236 -0.1833
  130TCq2    C6 1985   2.344   3.153   1.840  0.3462 -0.5427  0.2007
  130TCq2    C7 1986   2.398   3.146   1.713  0.7052 -0.0604  0.2964
  130TCq2    C8 1987   2.200   3.118   1.853 -0.3369  0.0507  0.1635
  130TCq2    O4 1988   2.124   3.117   1.756  0.2254 -0.4493  0.2226
  130TCq2    C9 1989   2.650   3.231   2.031  0.1940  0.1395  0.0935
  130TCq2    O5 1990   2.775   3.238   2.011  0.0304 -0.4012  0.3923
  130TCq2    O6 1991   2.589   3.239   2.143 -0.0366  0.5833 -0.1773
  130TCq2    H2 1992   2.725   3.212   1.778  0.5950 -1.0857  2.1381
  130TCq2    H3 1993   2.390   3.182   2.048  0.5234  1.6070  0.1922
  130TCq2    H4 1994   2.323   3.151   1.634 -0.2503  3.1354  1.4077
  131MPD2     C 1995   1.008   1.957   9.391  0.4399  0.7560 -0.0921
  131MPD2    C1 1996   1.121   1.883   9.436  0.4141  0.3104 -0.2948
  131MPD2    C2 1997   1.103   1.749   9.460 -0.0200 -0.1392  0.1544
  131MPD2    C3 1998   0.978   1.692   9.463  0.3343  0.5084 -0.1694
  131MPD2    C4 1999   0.871   1.774   9.446  0.0454  0.3542  0.4117
  131MPD2    C5 2000   0.885   1.903   9.405  0.5979  0.1446 -0.0400
  131MPD2     H 2001   1.189   1.691   9.491  0.1162 -0.1635 -0.2621
  131MPD2    H1 2002   0.771   1.734   9.456  0.3526 -0.8821 -1.3558
  131MPD2    H2 2003   1.018   2.059   9.357 -0.5936  1.9398  3.2232
  131MPD2    H3 2004   0.790   1.953   9.394 -0.7727 -2.3597  0.4301
  131MPD2     N 2005   0.968   1.552   9.494  0.2350  0.4556 -0.4481
  131MPD2    H5 2006   1.057   1.505   9.505  0.0468 -0.2057 -1.7310
  131MPD2    N1 2007   1.246   1.957   9.448  0.4906  0.7976 -0.3610
  131MPD2    H7 2008   1.241   2.055   9.424  0.9133  1.0289  0.4939
  132TCq2    C1 2009   1.804   1.957   9.667  0.0875 -0.1298 -0.5334
  132TCq2    O2 2010   1.812   1.842   9.624 -0.1868  0.1736  0.2868
  132TCq2    C2 2011   1.668   2.010   9.650 -0.6070 -0.9302 -0.5842
  132TCq2    C3 2012   1.631   2.137   9.698  0.5009  0.4722  1.1703
  132TCq2    C4 2013   1.504   2.182   9.679 -0.4415  0.1474  0.1589
  132TCq2    C5 2014   1.418   2.117   9.599 -0.0422 -0.5260  0.0238
  132TCq2    C6 2015   1.457   1.994   9.543 -0.3369  0.2102 -0.0226
  132TCq2    C7 2016   1.576   1.937   9.574  0.5066 -0.4578  0.1581
  132TCq2    C8 2017   1.362   1.897   9.492 -0.7496 -0.1884 -0.0259
  132TCq2    O4 2018   1.396   1.782   9.498  0.2491 -0.0028  0.1929
  132TCq2    C9 2019   1.452   2.289   9.766  0.0056  0.2945  0.5617
  132TCq2    O5 2020   1.543   2.332   9.838 -0.0296  0.2202 -0.0913
  132TCq2    O6 2021   1.336   2.271   9.805 -0.0933  0.0709 -0.3502
  132TCq2    H2 2022   1.695   2.192   9.766  3.2015 -0.5056 -0.5554
  132TCq2    H3 2023   1.321   2.163   9.583  0.1023  0.3629  1.7744
  132TCq2    H4 2024   1.612   1.852   9.518 -1.3335 -0.9805 -0.2482
  133MPD2     C 2025   1.263   3.102   8.881  0.3305  0.1026  0.6660
  133MPD2    C1 2026   1.171   3.117   8.985 -0.0164  0.1430  0.1617
  133MPD2    C2 2027   1.171   3.026   9.083  0.1363  0.3101  0.4442
  133MPD2    C3 2028   1.252   2.917   9.088 -0.3207  0.2247 -0.2110
  133MPD2    C4 2029   1.344   2.904   8.989 -0.0959  0.1227 -0.5516
  133MPD2    C5 2030   1.351   2.999   8.889  0.0859 -0.0478  0.5781
  133MPD2     H 2031   1.087   3.034   9.151 -0.0150  0.5856  0.2248
  133MPD2    H1 2032   1.409   2.818   8.976 -1.0311 -0.9783  2.0423
  133MPD2    H2 2033   1.260   3.166   8.794  2.2407 -0.1183  0.4563
  133MPD2    H3 2034   1.418   2.980   8.806 -1.8245  0.5278 -1.1054
  133MPD2     N 2035   1.244   2.816   9.185  0.0533  0.0177  0.5232
  133MPD2    H5 2036   1.307   2.739   9.165 -0.1355  0.0677 -0.2394
  133MPD2    N1 2037   1.072   3.211   8.971  0.2503 -0.8703  0.5268
  133MPD2    H7 2038   1.076   3.261   8.882 -3.1776  0.4395  1.1084
  134TCq2    C1 2039   0.984   3.261   9.065  0.0803 -0.6725  0.1141
  134TCq2    O2 2040   0.979   3.231   9.185 -0.0669 -0.1142  0.1045
  134TCq2    C2 2041   0.906   3.369   9.012  0.6536 -0.1071  0.3244
  134TCq2    C3 2042   0.879   3.386   8.882  0.2881 -0.1854  0.3001
  134TCq2    C4 2043   0.804   3.492   8.833 -0.0623 -0.5994  0.5748
  134TCq2    C5 2044   0.762   3.584   8.919  0.4798 -0.5679  0.0378
  134TCq2    C6 2045   0.787   3.574   9.050  0.3019  0.3951  0.3340
  134TCq2    C7 2046   0.860   3.466   9.102  0.5622  0.7206  0.7325
  134TCq2    C8 2047   0.782   3.696   9.135  0.2928  0.2508  0.1177
  134TCq2    O4 2048   0.849   3.705   9.237  0.1462  0.2958 -1.0554
  134TCq2    C9 2049   0.767   3.492   8.696 -0.1446 -0.4381 -0.3287
  134TCq2    O5 2050   0.702   3.592   8.652 -0.1395 -0.1686  0.2578
  134TCq2    O6 2051   0.804   3.402   8.619  0.3447 -0.4809 -0.3106
  134TCq2    H2 2052   0.901   3.310   8.808  0.3859  0.5583 -0.4297
  134TCq2    H3 2053   0.725   3.675   8.873  4.4308  0.4453 -1.1345
  134TCq2    H4 2054   0.881   3.467   9.208  0.1784 -1.6570  0.8330
  135MPD2     C 2055   3.761   3.194   9.375 -0.1629  0.2817  0.5653
  135MPD2    C1 2056   3.830   3.299   9.324  0.2383  0.4597  0.2157
  135MPD2    C2 2057   3.969   3.281   9.291  0.4302  0.4126  0.5095
  135MPD2    C3 2058   4.030   3.172   9.334  0.3016 -0.1803 -0.2038
  135MPD2    C4 2059   3.955   3.072   9.396 -0.7119  0.0671  0.7790
  135MPD2    C5 2060   3.819   3.076   9.409 -0.4379  0.6281  0.4725
  135MPD2     H 2061   4.027   3.362   9.249  0.1514  0.4645  0.2296
  135MPD2    H1 2062   3.997   2.975   9.419  2.0655  0.7059 -1.6650
  135MPD2    H2 2063   3.653   3.190   9.373 -0.1733  1.5738 -1.7570
  135MPD2    H3 2064   3.767   2.988   9.445  0.1173 -0.5754 -1.6732
  135MPD2     N 2065   4.173   3.141   9.332  0.7292 -0.2897  0.0167
  135MPD2    H5 2066   4.205   3.060   9.384 -0.1355 -1.4412 -1.2395
  135MPD2    N1 2067   3.761   3.425   9.301  0.5447 -0.7054 -0.3159
  135MPD2    H7 2068   3.812   3.502   9.259 -3.4700  3.1286  1.8026
  136TCq2    C1 2069   3.638   3.459   9.343  1.1508 -0.5048  0.0476
  136TCq2    O2 2070   3.561   3.395   9.416  0.0947  0.1412  0.3043
  136TCq2    C2 2071   3.601   3.595   9.308  0.0729  0.0815  0.3965
  136TCq2    C3 2072   3.685   3.677   9.248  0.1863 -0.7967  0.4996
  136TCq2    C4 2073   3.651   3.799   9.216  0.6111 -0.4872  0.4125
  136TCq2    C5 2074   3.528   3.854   9.250  0.9500 -0.9463 -0.1811
  136TCq2    C6 2075   3.448   3.770   9.324  0.4598 -0.1190  0.1301
  136TCq2    C7 2076   3.477   3.638   9.352 -0.3167  0.6926 -0.2452
  136TCq2    C8 2077   3.317   3.826   9.368  0.4309 -0.5583  0.7466
  136TCq2    O4 2078   3.289   3.930   9.310  0.2986  0.2329  0.3436
  136TCq2    C9 2079   3.739   3.875   9.130  0.5447 -0.0538  0.3989
  136TCq2    O5 2080   3.693   3.980   9.074 -0.2946  0.4015 -0.1247
  136TCq2    O6 2081   3.858   3.839   9.112  0.2205  0.5610 -0.1796
  136TCq2    H2 2082   3.790   3.653   9.234  0.2839 -0.0367 -0.0625
  136TCq2    H3 2083   3.508   3.957   9.224 -0.1043 -1.4579 -1.3937
  136TCq2    H4 2084   3.405   3.568   9.392  0.3190 -0.6672 -1.4709
  137MPD2     C 2085   3.980   2.410   9.714 -1.0448 -0.1099 -0.5020
  137MPD2    C1 2086   3.852   2.450   9.743  0.4367 -0.1448 -0.4783
  137MPD2    C2 2087   3.827   2.547   9.840 -0.4004  1.1122 -0.0779
  137MPD2    C3 2088   3.935   2.585   9.914 -0.4251  0.5308  0.6387
  137MPD2    C4 2089   4.057   2.532   9.897 -0.7446  0.0060  0.0113
  137MPD2    C5 2090   4.079   2.446   9.796  0.6650  0.7559 -0.3373
  137MPD2     H 2091   3.730   2.593   9.852  0.1630  2.2311  0.1606
  137MPD2    H1 2092   4.140   2.566   9.957  0.1402 -0.3062 -1.0282
  137MPD2    H2 2093   4.005   2.336   9.639 -1.5683 -0.5021 -0.2908
  137MPD2    H3 2094   4.177   2.400   9.790  0.4428  0.1672  0.6517
  137MPD2     N 2095   3.912   2.694  10.002  0.0610 -0.1204  0.1960
  137MPD2    H5 2096   3.816   2.725  10.007  0.2514  0.8282 -1.8590
  137MPD2    N1 2097   3.748   2.404   9.652  0.1543 -0.0868 -0.3958
  137MPD2    H7 2098   3.781   2.339   9.582  0.5330  0.5321 -0.7879
  138TCq2    C1 2099   3.614   2.416   9.669  0.5494  0.4076  0.8615
  138TCq2    O2 2100   3.550   2.470   9.757 -0.1131  0.4509  0.0151
  138TCq2    C2 2101   3.539   2.339   9.569 -0.4305  0.1530  0.2079
  138TCq2    C3 2102   3.597   2.306   9.449 -0.0410 -0.5821  0.1612
  138TCq2    C4 2103   3.534   2.225   9.364 -0.1670 -0.4265 -0.6589
  138TCq2    C5 2104   3.419   2.170   9.407 -0.2923 -0.5315 -0.6326
  138TCq2    C6 2105   3.356   2.203   9.526 -0.1783 -0.0518  0.2236
  138TCq2    C7 2106   3.411   2.305   9.600  0.2582  0.2559  0.4620
  138TCq2    C8 2107   3.268   2.116   9.599  0.7779  0.3404 -0.5575
  138TCq2    O4 2108   3.262   2.001   9.558 -0.9742 -0.3476  0.1882
  138TCq2    C9 2109   3.583   2.185   9.236 -0.3303 -0.4402  0.2793
  138TCq2    O5 2110   3.674   2.252   9.182 -0.2223  0.2700  0.7989
  138TCq2    O6 2111   3.525   2.084   9.184 -0.0356 -0.1861 -0.2071
  138TCq2    H2 2112   3.692   2.351   9.423  0.3193 -1.7659 -0.5527
  138TCq2    H3 2113   3.366   2.095   9.348  0.1058 -0.1092 -1.5188
  138TCq2    H4 2114   3.372   2.332   9.698  0.9610  2.4714  0.1269
  139TMC2    C1 2115   3.741   1.539  13.478  0.3849  0.0919  0.2573
  139TMC2    C2 2116   3.877   1.551  13.464 -0.2162  0.6542 -0.1427
  139TMC2    C3 2117   3.939   1.630  13.550 -0.6353 -0.4863  0.4388
  139TMC2    C4 2118   3.664   1.622  13.558  0.1563 -0.8423 -0.1631
  139TMC2    C5 2119   3.743   1.711  13.629 -0.9627  1.2086 -0.1378
  139TMC2    C6 2120   3.878   1.712  13.639  0.8547 -0.4873 -0.1504
  139TMC2     C 2121   3.694   1.413  13.417 -0.6148 -0.1216 -0.7099
  139TMC2     O 2122   3.767   1.367  13.328  0.1167 -0.5197 -0.3173
  139TMC2     H 2123   3.934   1.481  13.405  0.6389 -1.9952  3.8617
  139TMC2    H1 2124   3.556   1.619  13.550 -0.0844  2.2997  1.7222
  139TMC2    H2 2125   3.932   1.789  13.691 -0.3248  1.4892 -1.8528
  139TMC2    C7 2126   3.665   1.807  13.709 -0.0550  0.5469 -0.3322
  139TMC2    C8 2127   4.087   1.631  13.563 -0.1678 -0.1390 -0.0770
  139TMC2    O1 2128   3.541   1.803  13.696 -0.0689  0.6481 -0.4208
  139TMC2    O2 2129   4.147   1.664  13.661  0.0955  0.3473  0.0325
  139TMC2    O5 2130   4.131   1.665  13.443 -0.0712 -0.1103  0.5234
  139TMC2    H5 2131   4.061   1.657  13.374 -1.5969 -0.3717  2.0903
  140MPD2     C 2132   3.386   1.223  13.483  0.4295  0.8233  0.2937
  140MPD2    C1 2133   3.512   1.244  13.431 -0.4006 -0.7368  0.2799
  140MPD2    C2 2134   3.576   1.147  13.358  0.2268  0.5127 -0.0110
  140MPD2    C3 2135   3.520   1.020  13.339 -0.3445  0.6204 -0.0989
  140MPD2    C4 2136   3.398   1.000  13.400 -0.0420  0.7275 -0.6716
  140MPD2    C5 2137   3.331   1.101  13.464  0.0054 -0.2768 -0.8785
  140MPD2     H 2138   3.674   1.148  13.313  0.5251  0.3762  0.6440
  140MPD2    H1 2139   3.352   0.901  13.398 -0.2096  0.8280 -2.3177
  140MPD2    H2 2140   3.327   1.291  13.544 -1.1241 -0.5212  0.2978
  140MPD2    H3 2141   3.229   1.079  13.494  0.1524  0.5759  0.2033
  140MPD2     N 2142   3.597   0.929  13.274 -0.6882  0.3639 -0.2603
  140MPD2    H5 2143   3.689   0.955  13.239 -0.8404  1.3190  0.0656
  140MPD2    N1 2144   3.569   1.375  13.453 -0.3609 -0.6718  0.7055
  140MPD2    H7 2145   3.515   1.444  13.506 -0.5496 -1.3113  1.3516
  141TCq2    C1 2146   4.148   2.750  14.369  0.2502  0.6291 -0.2911
  141TCq2    O2 2147   4.131   2.769  14.252  0.6599  0.1550  0.2306
  141TCq2    C2 2148   4.182   2.858  14.462  0.0367  0.0464  1.1392
  141TCq2    C3 2149   4.236   2.832  14.585  0.1600  0.6032  0.1597
  141TCq2    C4 2150   4.295   2.940  14.642 -0.4982  0.7630 -0.4755
  141TCq2    C5 2151   4.262   3.068  14.607  0.1461  0.0624 -0.2180
  141TCq2    C6 2152   4.183   3.093  14.494 -0.0306 -0.3002 -0.9670
  141TCq2    C7 2153   4.160   2.980  14.409 -0.0523 -0.3680  0.0437
  141TCq2    C8 2154   4.179   3.216  14.422  0.0144 -0.0407  0.5852
  141TCq2    O4 2155   4.141   3.218  14.303  0.1277  0.4462 -0.2070
  141TCq2    C9 2156   4.383   2.922  14.756 -0.0672  0.3388  0.0661
  141TCq2    O5 2157   4.414   3.030  14.819  0.0018 -0.1534  0.2965
  141TCq2    O6 2158   4.410   2.802  14.794  0.4030 -0.5756 -0.6571
  141TCq2    H2 2159   4.267   2.738  14.628 -0.1465  0.5358  0.2324
  141TCq2    H3 2160   4.299   3.150  14.668 -1.7372  0.2548  0.6620
  141TCq2    H4 2161   4.126   2.987  14.307  3.0422  1.9685 -0.8138
  142MPD2     C 2162   1.739   0.483  10.018 -0.0816 -0.8847  0.2847
  142MPD2    C1 2163   1.627   0.436   9.953  0.2581  0.4889 -0.0905
  142MPD2    C2 2164   1.594   0.477   9.825  0.6654  0.0336 -0.0824
  142MPD2    C3 2165   1.669   0.573   9.760  0.0957  0.1146  0.0329
  142MPD2    C4 2166   1.777   0.626   9.829 -0.0088 -0.1108  0.4613
  142MPD2    C5 2167   1.808   0.578   9.957 -0.3271  0.7517 -0.8083
  142MPD2     H 2168   1.507   0.445   9.769  1.8539 -0.1282 -1.8396
  142MPD2    H1 2169   1.835   0.711   9.795  0.5189 -1.1105 -1.1478
  142MPD2    H2 2170   1.775   0.453  10.116 -1.0614 -0.1670  0.8559
  142MPD2    H3 2171   1.903   0.613   9.998 -2.0143 -0.5551  4.1805
  142MPD2     N 2172   1.629   0.619   9.637  0.3090 -0.9311 -0.4905
  142MPD2    H5 2173   1.648   0.712   9.602 -1.7070 -1.4165 -2.8694
  142MPD2    N1 2174   1.552   0.330  10.013  0.1678 -1.0180 -0.0767
  142MPD2    H7 2175   1.583   0.296  10.103  0.2063  1.2510  0.7674
  143TCq2    C1 2176   1.584   0.527   9.542  0.6045 -0.0243  0.5939
  143TCq2    O2 2177   1.577   0.401   9.545  0.4051 -0.2837 -0.6912
  143TCq2    C2 2178   1.547   0.599   9.423 -0.4824 -0.3576 -0.0743
  143TCq2    C3 2179   1.591   0.730   9.408 -0.8053 -0.1217  0.5404
  143TCq2    C4 2180   1.558   0.791   9.294  0.3446  0.6483  0.0923
  143TCq2    C5 2181   1.482   0.720   9.200 -0.4441 -0.6294  0.3665
  143TCq2    C6 2182   1.443   0.587   9.228 -0.5861  0.9312 -0.3894
  143TCq2    C7 2183   1.466   0.521   9.342  0.2444  0.0835  0.1365
  143TCq2    C8 2184   1.368   0.511   9.125  0.5806  0.5068  0.1081
  143TCq2    O4 2185   1.316   0.584   9.041 -0.4334 -0.3039 -0.5343
  143TCq2    C9 2186   1.606   0.921   9.262 -0.5918 -0.2246 -0.1192
  143TCq2    O5 2187   1.590   0.954   9.146 -0.1411  0.0199 -0.3336
  143TCq2    O6 2188   1.682   0.975   9.344 -0.4318 -0.1488  0.3687
  143TCq2    H2 2189   1.649   0.788   9.479 -0.6467 -0.7937  0.9525
  143TCq2    H3 2190   1.463   0.766   9.104 -1.1860 -1.5971  0.0553
  143TCq2    H4 2191   1.429   0.423   9.371 -1.6665  0.2878 -1.5754
  144MPD2     C 2192   4.202   0.589   0.971  0.2813 -0.4486  0.1121
  144MPD2    C1 2193   4.187   0.467   0.912  0.0175 -0.1637 -0.0436
  144MPD2    C2 2194   4.303   0.402   0.865 -0.7474 -0.2380  0.4760
  144MPD2    C3 2195   4.427   0.455   0.886  0.0913  0.2347  0.1093
  144MPD2    C4 2196   4.438   0.575   0.952 -0.2856 -1.1648  0.5227
  144MPD2    C5 2197   4.327   0.644   0.989 -0.0391  0.9466 -0.2062
  144MPD2     H 2198   4.304   0.304   0.819 -0.8766  0.3760 -0.8593
  144MPD2    H1 2199   4.531   0.626   0.972 -0.3868 -0.4930 -0.7648
  144MPD2    H2 2200   4.117   0.656   0.980  2.8243  2.6783  1.0278
  144MPD2    H3 2201   4.335   0.742   1.032 -1.0189  0.3564  1.3222
  144MPD2     N 2202   4.553   0.394   0.868 -0.2678  0.7872  0.1375
  144MPD2    H5 2203   4.633   0.435   0.915  0.2190  2.3843 -2.0787
  144MPD2    N1 2204   4.061   0.414   0.885  0.1111 -0.1623 -0.2506
  144MPD2    H7 2205   4.046   0.329   0.831  0.6270  0.6326 -1.6309
  145TCq2    C1 2206   4.567   0.293   0.778 -0.1914  0.3072 -0.8695
  145TCq2    O2 2207   4.482   0.247   0.701  0.6084  0.4443  0.1606
  145TCq2    C2 2208   4.688   0.218   0.797 -0.4467 -0.0802 -0.5888
  145TCq2    C3 2209   4.710   0.132   0.700  0.0392 -0.2130 -0.8297
  145TCq2    C4 2210   0.105   0.071   0.695 -0.4791  0.1420 -0.5548
  145TCq2    C5 2211   0.200   0.097   0.786  0.0506  0.6385  1.0039
  145TCq2    C6 2212   0.169   0.189   0.879 -0.7921  0.7417 -0.3640
  145TCq2    C7 2213   0.052   0.253   0.890 -0.0107  0.0313 -0.0575
  145TCq2    C8 2214   0.262   0.200   0.990 -0.1008  0.0943 -0.3246
  145TCq2    O4 2215   0.336   0.109   1.004  0.1508 -0.3552 -0.1073
  145TCq2    C9 2216   0.131   4.692   0.594  0.5019  0.1874 -0.3146
  145TCq2    O5 2217   0.031   4.639   0.536 -0.9043 -0.4694 -0.6025
  145TCq2    O6 2218   0.249   4.650   0.593  0.2687 -0.0999  0.2279
  145TCq2    H2 2219   4.639   0.102   0.623 -1.0489 -1.2417  0.5858
  145TCq2    H3 2220   0.287   0.034   0.799  0.7536  1.4583  0.3036
  145TCq2    H4 2221   0.028   0.311   0.979  0.7491  0.0696  0.1282
  146TMC2    C1 2222   0.826   3.916  12.529  0.1804  0.4950  0.4771
  146TMC2    C2 2223   0.716   3.963  12.470 -0.0682  0.3375 -0.1445
  146TMC2    C3 2224   0.688   3.948  12.339  0.2856 -0.1035  0.0174
  146TMC2    C4 2225   0.910   3.832  12.456  0.5890  0.6115 -0.2550
  146TMC2    C5 2226   0.874   3.809  12.320 -0.8052 -0.0213 -0.1670
  146TMC2    C6 2227   0.767   3.870  12.270  0.7543 -0.3602  0.0832
  146TMC2     C 2228   0.872   3.978  12.649 -0.1587  0.7223 -0.0381
  146TMC2     O 2229   0.833   4.093  12.665 -0.0927 -0.0899 -0.5758
  146TMC2     H 2230   0.641   4.008  12.534  0.2068  1.3974 -0.5662
  146TMC2    H1 2231   1.010   3.810  12.491  0.7544  3.5558  1.1200
  146TMC2    H2 2232   0.746   3.859  12.164  0.3484 -0.3462  0.1652
  146TMC2    C7 2233   0.982   3.806  12.226  0.2884  0.3744 -0.3307
  146TMC2    C8 2234   0.547   3.944  12.320  0.2527 -0.0197 -0.4399
  146TMC2    O1 2235   0.973   3.879  12.127  0.2640  0.0843  1.1389
  146TMC2    O2 2236   0.470   4.019  12.378  0.5227  0.7855 -0.1643
  146TMC2    O5 2237   0.520   3.832  12.253 -0.5699  0.4292  0.5448
  146TMC2    H5 2238   0.598   3.773  12.244 -0.9664 -0.0826  0.4516
  147MPD2     C 2239   1.430   3.617  12.060  0.1780 -0.1007  0.4946
  147MPD2    C1 2240   1.413   3.573  12.192 -0.0607  0.3515 -0.7904
  147MPD2    C2 2241   1.287   3.590  12.251 -0.9561  0.7782 -0.1459
  147MPD2    C3 2242   1.195   3.675  12.185  0.1357 -0.3276  0.7042
  147MPD2    C4 2243   1.218   3.726  12.055 -0.0844 -0.1373  0.3804
  147MPD2    C5 2244   1.333   3.685  11.997  0.2560  0.2432  0.3880
  147MPD2     H 2245   1.261   3.558  12.352 -0.9001 -1.6753 -0.8984
  147MPD2    H1 2246   1.154   3.799  12.006  0.3872 -0.2685 -0.4214
  147MPD2    H2 2247   1.528   3.607  12.016 -0.5155 -0.1558 -1.0347
  147MPD2    H3 2248   1.365   3.723  11.901 -0.7057  2.3076  0.8896
  147MPD2     N 2249   1.082   3.719  12.262 -0.0882  0.0136 -0.0730
  147MPD2    H5 2250   1.064   3.662  12.343  1.8176  1.4391  1.3475
  147MPD2    N1 2251   1.518   3.506  12.264  0.2331  0.2275 -0.0691
  147MPD2    H7 2252   1.598   3.474  12.212 -0.1915 -1.4254  0.2956
  148MPD2     C 2253   1.334   2.669  10.161  0.1325 -0.2875  0.2399
  148MPD2    C1 2254   1.396   2.559  10.107  0.4024 -0.2103  0.0157
  148MPD2    C2 2255   1.307   2.448  10.087  1.2012 -0.4567 -0.6211
  148MPD2    C3 2256   1.169   2.452  10.120 -1.1281 -0.4573 -0.1607
  148MPD2    C4 2257   1.115   2.574  10.163  0.0415 -0.5951  0.7170
  148MPD2    C5 2258   1.200   2.673  10.191 -0.6564  0.3910 -0.2154
  148MPD2     H 2259   1.348   2.357  10.046  1.6312 -1.4703  2.0866
  148MPD2    H1 2260   1.007   2.580  10.178 -0.1821 -0.4866 -0.9578
  148MPD2    H2 2261   1.385   2.761  10.186 -1.8399  0.5068  1.4168
  148MPD2    H3 2262   1.153   2.757  10.241 -2.5163 -1.0795  0.4565
  148MPD2     N 2263   1.080   2.345  10.108 -0.1318 -0.8044  0.8886
  148MPD2    H5 2264   0.981   2.368  10.100  0.2599  0.4045 -0.5852
  148MPD2    N1 2265   1.532   2.550  10.066 -0.0086 -0.6772  0.0808
  148MPD2    H7 2266   1.558   2.482   9.995  1.8314 -0.0536  0.1513
  149TCq2    C1 2267   1.628   2.644  10.106  0.2629 -0.6247 -0.4715
  149TCq2    O2 2268   1.614   2.741  10.182  0.5589 -0.1293  0.3634
  149TCq2    C2 2269   1.763   2.589  10.092  0.0942 -0.1969  0.3182
  149TCq2    C3 2270   1.854   2.630  10.186  0.3843 -0.1691 -0.1351
  149TCq2    C4 2271   1.960   2.563  10.225 -0.6580  0.6669 -0.4880
  149TCq2    C5 2272   1.969   2.440  10.185 -0.1442 -0.0933 -0.6214
  149TCq2    C6 2273   1.885   2.392  10.090  0.0630  0.4300  0.4762
  149TCq2    C7 2274   1.785   2.468  10.042  0.2751  0.0671 -0.1962
  149TCq2    C8 2275   1.863   2.249  10.072 -0.1835 -0.4704  0.5266
  149TCq2    O4 2276   1.789   2.222   9.977 -0.2552  0.3076 -0.2462
  149TCq2    C9 2277   2.043   2.595  10.346  0.6001 -0.7258 -0.2505
  149TCq2    O5 2278   2.047   2.718  10.381  0.0665  0.2787 -0.1020
  149TCq2    O6 2279   2.088   2.498  10.415  0.3681 -0.0854  0.4636
  149TCq2    H2 2280   1.840   2.728  10.231 -2.3129  0.4887 -2.3580
  149TCq2    H3 2281   2.051   2.378  10.219  1.2457  1.8358 -0.4335
  149TCq2    H4 2282   1.713   2.434   9.969  0.8002 -2.1756  0.3247
  150MPD2     C 2283   2.914   1.653  11.936 -0.2496  0.1442  0.0706
  150MPD2    C1 2284   2.950   1.744  11.836 -0.2048 -0.6253  0.2577
  150MPD2    C2 2285   3.053   1.837  11.853  0.0069  0.3195  0.0973
  150MPD2    C3 2286   3.123   1.846  11.973 -0.4515  0.8125  0.8057
  150MPD2    C4 2287   3.091   1.751  12.070 -0.1464 -0.4257 -0.8655
  150MPD2    C5 2288   2.992   1.651  12.047  0.3162 -0.2609 -0.9821
  150MPD2     H 2289   3.060   1.908  11.771  1.2063 -3.4900 -3.0664
  150MPD2    H1 2290   3.147   1.737  12.161 -2.4121 -0.3462  0.5397
  150MPD2    H2 2291   2.822   1.596  11.930 -0.4464  0.4502  0.1539
  150MPD2    H3 2292   2.972   1.582  12.128  1.7140 -0.5384 -0.8726
  150MPD2     N 2293   3.210   1.952  11.993 -0.2360 -0.3397 -0.2286
  150MPD2    H5 2294   3.233   2.015  11.917 -0.9514  0.9139  0.5800
  150MPD2    N1 2295   2.861   1.747  11.731 -0.0427 -0.2643 -0.0648
  150MPD2    H7 2296   2.772   1.699  11.744  0.2161 -0.8929 -0.5764
  151TCq2    C1 2297   3.290   1.969  12.103  0.3915 -1.4047 -0.3377
  151TCq2    O2 2298   3.340   1.887  12.178  0.3021  0.2400 -0.1862
  151TCq2    C2 2299   3.349   2.101  12.119 -1.0138  0.4133 -0.4977
  151TCq2    C3 2300   3.320   2.202  12.033  0.1950  0.2683  0.0946
  151TCq2    C4 2301   3.398   2.311  12.030  0.0030  0.0624 -0.4717
  151TCq2    C5 2302   3.494   2.335  12.120  0.2618 -0.3157 -0.3121
  151TCq2    C6 2303   3.524   2.234  12.202  0.2797  0.4329  0.1175
  151TCq2    C7 2304   3.450   2.116  12.214  0.4540 -0.7508  0.2396
  151TCq2    C8 2305   3.650   2.263  12.271  0.3198 -0.2300  0.2591
  151TCq2    O4 2306   3.682   2.378  12.300  0.6863 -0.0386 -0.2550
  151TCq2    C9 2307   3.358   2.408  11.936 -1.0965  0.7363  0.2606
  151TCq2    O5 2308   3.408   2.523  11.945  0.2999  0.3690  0.0177
  151TCq2    O6 2309   3.315   2.355  11.829 -0.1541  0.3352 -0.1593
  151TCq2    H2 2310   3.235   2.191  11.966  1.8320 -2.1789 -1.5524
  151TCq2    H3 2311   3.553   2.425  12.110  0.9452 -0.6572  0.6078
  151TCq2    H4 2312   3.475   2.043  12.290  0.9533 -1.0207 -0.1812
  152MPD2     C 2313   2.556   1.540  12.228  0.1108  0.5625  0.2081
  152MPD2    C1 2314   2.582   1.664  12.278  0.8287  0.1091 -0.7698
  152MPD2    C2 2315   2.472   1.756  12.275  0.1826 -0.0455  0.6945
  152MPD2    C3 2316   2.348   1.728  12.215 -0.1538  0.0140 -0.2910
  152MPD2    C4 2317   2.336   1.604  12.169  0.9061 -0.1958  0.2385
  152MPD2    C5 2318   2.434   1.510  12.180 -0.0385 -0.8920  0.4479
  152MPD2     H 2319   2.486   1.859  12.307 -1.0935  0.0579  0.9169
  152MPD2    H1 2320   2.242   1.564  12.134  1.1530  0.1674 -0.8516
  152MPD2    H2 2321   2.625   1.457  12.237  1.1766  1.5356  1.0833
  152MPD2    H3 2322   2.405   1.409  12.154  2.0451 -0.1936 -4.4585
  152MPD2     N 2323   2.251   1.831  12.198 -0.0054  0.2512 -0.2891
  152MPD2    H5 2324   2.271   1.919  12.244 -1.0800  0.1589  0.3476
  152MPD2    N1 2325   2.707   1.684  12.344 -0.2665  0.2346 -0.2615
  152MPD2    H7 2326   2.770   1.606  12.355  2.0972  2.0445 -0.7702
  153TCq2    C1 2327   2.763   1.805  12.385 -0.0832 -0.0925 -0.0847
  153TCq2    O2 2328   2.717   1.916  12.359 -0.2201  0.1542 -0.0941
  153TCq2    C2 2329   2.903   1.791  12.431 -0.3861 -0.1524  0.3105
  153TCq2    C3 2330   2.972   1.669  12.431 -0.1525 -0.5705  0.3918
  153TCq2    C4 2331   3.108   1.662  12.440 -0.7379  0.5570  0.2172
  153TCq2    C5 2332   3.183   1.776  12.455 -0.3639  0.2133  0.3440
  153TCq2    C6 2333   3.114   1.891  12.452 -0.7799 -0.1575  0.2397
  153TCq2    C7 2334   2.980   1.908  12.437  0.3096 -0.3315 -0.0219
  153TCq2    C8 2335   3.191   2.017  12.473  0.3747  0.0993  0.1145
  153TCq2    O4 2336   3.135   2.124  12.453 -0.3467 -0.4445 -0.3312
  153TCq2    C9 2337   3.166   1.531  12.429  0.1054  0.3029  0.1517
  153TCq2    O5 2338   3.093   1.431  12.409 -0.1114 -0.4758  0.3597
  153TCq2    O6 2339   3.291   1.526  12.433 -0.4599  0.1437  0.3357
  153TCq2    H2 2340   2.921   1.574  12.437 -3.0643  0.9362 -0.7380
  153TCq2    H3 2341   3.289   1.758  12.456 -0.6762 -1.6102  1.2280
  153TCq2    H4 2342   2.938   2.008  12.435  1.2384  0.0773  1.1185
  154MPD2     C 2343   1.147   1.958  17.259 -0.3027 -0.5092  0.7739
  154MPD2    C1 2344   1.045   1.870  17.229 -0.3611 -0.3369 -1.0673
  154MPD2    C2 2345   0.925   1.879  17.296 -0.4078 -1.0884 -0.2028
  154MPD2    C3 2346   0.900   1.982  17.386 -1.7081 -0.2561 -0.1174
  154MPD2    C4 2347   1.010   2.062  17.426 -0.4319 -0.1377  0.3336
  154MPD2    C5 2348   1.136   2.044  17.363  0.2985  0.5578 -0.0132
  154MPD2     H 2349   0.843   1.813  17.272 -1.8615  0.7778 -0.4054
  154MPD2    H1 2350   1.007   2.123  17.515  0.1337  0.6836 -0.2118
  154MPD2    H2 2351   1.232   1.967  17.192 -2.1663  0.2564 -1.4794
  154MPD2    H3 2352   1.222   2.108  17.383  0.9259 -0.2430 -0.1722
  154MPD2     N 2353   0.769   2.004  17.436 -0.7186  1.2509 -0.8723
  154MPD2    H5 2354   0.694   1.943  17.405 -1.1389  1.7894 -0.9213
  154MPD2    N1 2355   1.070   1.769  17.135 -0.1392 -0.3469 -0.7118
  154MPD2    H7 2356   1.142   1.792  17.068  0.2512 -1.0926 -0.5442
  155TCq2    C1 2357   0.997   1.656  17.126 -0.6854 -0.2776 -0.0424
  155TCq2    O2 2358   0.892   1.609  17.174 -0.0562 -0.1678 -0.4533
  155TCq2    C2 2359   1.059   1.575  17.025  0.2466 -0.0392 -0.0844
  155TCq2    C3 2360   1.132   1.631  16.924  0.5380  0.5602  0.5048
  155TCq2    C4 2361   1.228   1.559  16.856 -0.2434 -0.5384  0.9290
  155TCq2    C5 2362   1.255   1.437  16.898 -0.6078 -0.1755  1.3779
  155TCq2    C6 2363   1.193   1.379  17.005 -0.1439  0.2443  0.2127
  155TCq2    C7 2364   1.091   1.449  17.067 -0.1924 -0.5729 -0.9952
  155TCq2    C8 2365   1.259   1.265  17.053 -0.5652  0.2842 -0.0458
  155TCq2    O4 2366   1.345   1.214  16.985  0.0215  0.5869 -0.6862
  155TCq2    C9 2367   1.313   1.625  16.747  0.4421  0.0360  0.0919
  155TCq2    O5 2368   1.344   1.746  16.767  0.4666 -0.2037  0.1204
  155TCq2    O6 2369   1.337   1.555  16.646 -0.7510  0.2495 -0.0830
  155TCq2    H2 2370   1.112   1.731  16.887 -1.2483 -0.5084 -1.3663
  155TCq2    H3 2371   1.345   1.390  16.861 -1.5229  0.2044 -1.2895
  155TCq2    H4 2372   1.031   1.408  17.148  1.4250 -0.7652  0.0820
  156MPD2     C 2373   3.687   3.701  12.005  0.0860 -0.5586  0.2927
  156MPD2    C1 2374   3.612   3.766  11.915  0.4875  0.2554  1.0197
  156MPD2    C2 2375   3.503   3.832  11.967 -0.2091  0.5464 -0.7829
  156MPD2    C3 2376   3.468   3.826  12.100 -0.2286  0.5139  0.7028
  156MPD2    C4 2377   3.551   3.771  12.192  0.3378 -0.8622 -0.4454
  156MPD2    C5 2378   3.660   3.697  12.139  0.4259 -0.6070 -0.5491
  156MPD2     H 2379   3.435   3.897  11.913  0.6713 -0.4519 -3.1176
  156MPD2    H1 2380   3.534   3.760  12.299 -0.5694 -1.4329 -0.6404
  156MPD2    H2 2381   3.774   3.647  11.970  0.6998  1.1012 -0.6942
  156MPD2    H3 2382   3.711   3.636  12.213 -1.6327 -1.9692 -0.2421
  156MPD2     N 2383   3.349   3.890  12.132 -0.6223  0.1394 -0.5012
  156MPD2    H5 2384   3.303   3.936  12.055 -1.9685  1.4171  1.0851
  156MPD2    N1 2385   3.644   3.760  11.776 -0.0785  0.6312  0.0344
  156MPD2    H7 2386   3.713   3.694  11.745 -1.5871 -1.1478  0.4692
  157TCq2    C1 2387   3.573   3.836  11.682  0.2235 -0.7181 -0.2077
  157TCq2    O2 2388   3.493   3.928  11.700 -0.3480 -0.5922 -0.0798
  157TCq2    C2 2389   3.582   3.795  11.546  0.0576 -0.1613  0.0094
  157TCq2    C3 2390   3.593   3.663  11.524 -0.5477 -0.2033  0.1613
  157TCq2    C4 2391   3.526   3.619  11.412  0.9129  0.0990 -0.0369
  157TCq2    C5 2392   3.470   3.704  11.325 -0.1952 -0.3970  1.0417
  157TCq2    C6 2393   3.473   3.840  11.339 -1.1430  0.1389  0.1743
  157TCq2    C7 2394   3.528   3.887  11.458 -0.1716  0.4986 -0.5125
  157TCq2    C8 2395   3.371   3.927  11.292  0.0667 -0.1236  0.1942
  157TCq2    O4 2396   3.394   4.046  11.283 -0.0060 -0.4294  0.3180
  157TCq2    C9 2397   3.507   3.472  11.392 -0.9425 -0.1661 -0.2000
  157TCq2    O5 2398   3.582   3.393  11.451  0.0598  0.1605  0.1811
  157TCq2    O6 2399   3.415   3.439  11.315  0.3239  0.5483  0.5351
  157TCq2    H2 2400   3.644   3.601  11.597  0.0938  0.9268  0.6739
  157TCq2    H3 2401   3.415   3.658  11.244  0.7321 -2.1284  1.3972
  157TCq2    H4 2402   3.513   3.991  11.485 -0.5039 -0.5241  3.2259
  158TMC2    C1 2403   2.955   3.261  13.421  0.2336 -0.0233 -0.2579
  158TMC2    C2 2404   2.882   3.381  13.395  0.3951 -0.0969  0.4519
  158TMC2    C3 2405   2.755   3.383  13.434  0.0765 -1.4009 -0.3132
  158TMC2    C4 2406   2.903   3.152  13.487 -0.5557  0.1175  1.1086
  158TMC2    C5 2407   2.769   3.164  13.525 -0.1025 -0.3873 -0.0002
  158TMC2    C6 2408   2.699   3.275  13.501  0.3948  0.3140 -0.1824
  158TMC2     C 2409   3.094   3.272  13.413  0.1929  0.6437 -0.3441
  158TMC2     O 2410   3.145   3.346  13.331 -0.0997 -0.0184  0.0134
  158TMC2     H 2411   2.936   3.459  13.342 -1.0692  0.8568  0.3551
  158TMC2    H1 2412   2.951   3.056  13.469 -0.7338  0.3469 -0.6493
  158TMC2    H2 2413   2.591   3.272  13.511  0.3788 -0.2362 -0.5538
  158TMC2    C7 2414   2.687   3.051  13.548  0.1469 -0.0309 -0.1831
  158TMC2    C8 2415   2.652   3.470  13.378  0.2653 -0.0406 -0.8073
  158TMC2    O1 2416   2.572   3.061  13.506 -0.3413  0.3755 -0.7447
  158TMC2    O2 2417   2.531   3.448  13.379 -0.3148  0.0873 -0.5029
  158TMC2    O5 2418   2.700   3.587  13.322 -0.7131 -0.3173 -0.0337
  158TMC2    H5 2419   2.796   3.604  13.333 -0.8342 -1.5067  2.8065
  159MPD2     C 2420   3.491   3.349  13.722 -0.3502  0.0902  0.0882
  159MPD2    C1 2421   3.396   3.285  13.794  0.3049 -0.4372 -0.2264
  159MPD2    C2 2422   3.276   3.244  13.732  0.2346  0.1989 -0.0677
  159MPD2    C3 2423   3.261   3.263  13.595  0.2070 -0.2368  0.0885
  159MPD2    C4 2424   3.360   3.330  13.523  0.3341  0.1917  0.0433
  159MPD2    C5 2425   3.470   3.374  13.590  0.4449  0.2381  0.1230
  159MPD2     H 2426   3.197   3.192  13.784 -1.2749  1.2575 -1.3121
  159MPD2    H1 2427   3.346   3.362  13.420 -0.3641  2.0733  0.7113
  159MPD2    H2 2428   3.585   3.379  13.767 -0.3008  2.3553 -1.5174
  159MPD2    H3 2429   3.539   3.440  13.538  0.0631 -1.5819 -2.6944
  159MPD2     N 2430   3.138   3.223  13.535  0.4189  0.2566 -0.0297
  159MPD2    H5 2431   3.065   3.179  13.590  0.0301  0.4325 -0.4105
  159MPD2    N1 2432   3.419   3.255  13.933  0.1901  0.0669 -0.1112
  159MPD2    H7 2433   3.504   3.293  13.974 -0.1445  0.1150  0.5457
  160TMC2    C1 2434   3.085   1.451   0.915 -0.2977  0.4449 -0.7105
  160TMC2    C2 2435   3.103   1.578   0.966  0.2696  0.4748 -0.5441
  160TMC2    C3 2436   3.229   1.633   0.943  0.3310  0.5160  0.5177
  160TMC2    C4 2437   3.184   1.375   0.859 -0.8692 -0.4732  0.0756
  160TMC2    C5 2438   3.300   1.435   0.836 -0.0927  0.1389 -0.4496
  160TMC2    C6 2439   3.331   1.561   0.889 -0.5655 -0.2180  0.0113
  160TMC2     C 2440   2.973   1.374   0.961  0.5419  0.2917  0.0723
  160TMC2     O 2441   2.983   1.251   0.966 -0.0094  0.2258  0.0717
  160TMC2     H 2442   3.020   1.641   0.998  0.7837  1.6169 -1.4373
  160TMC2    H1 2443   3.167   1.278   0.814 -2.7441 -0.4022  0.6390
  160TMC2    H2 2444   3.434   1.590   0.900 -0.2286 -1.7367  0.8151
  160TMC2    C7 2445   3.403   1.341   0.812  0.4213 -0.7102  0.1992
  160TMC2    C8 2446   3.234   1.777   0.974 -0.0912 -1.2590 -0.8318
  160TMC2    O1 2447   3.380   1.223   0.840  0.3627 -0.0682  0.0147
  160TMC2    O2 2448   3.164   1.835   1.058 -0.1410  0.8399 -0.1642
  160TMC2    O5 2449   3.314   1.836   0.884 -0.6254 -0.8889  0.2533
  160TMC2    H5 2450   3.344   1.769   0.820  0.3789 -2.1639  2.0629
  161MPD2     C 2451   2.702   1.262   1.039  0.6040 -0.5211  0.3612
  161MPD2    C1 2452   2.735   1.394   1.044  0.1110 -0.5993  0.1004
  161MPD2    C2 2453   2.639   1.485   1.088  0.1119 -0.2517 -0.0876
  161MPD2    C3 2454   2.509   1.452   1.104  0.5672  0.4311  0.5808
  161MPD2    C4 2455   2.467   1.322   1.074  0.0999 -0.1383 -0.2497
  161MPD2    C5 2456   2.568   1.229   1.041 -0.0872  0.3721 -0.5355
  161MPD2     H 2457   2.675   1.585   1.110 -0.9307  0.5299 -1.9143
  161MPD2    H1 2458   2.366   1.285   1.082  0.7538 -1.7376  0.6877
  161MPD2    H2 2459   2.768   1.186   0.999 -2.9498 -2.6232 -1.5994
  161MPD2    H3 2460   2.551   1.124   1.022  0.3116  0.2518 -0.2159
  161MPD2     N 2461   2.412   1.551   1.136  0.0930  0.3203  0.1890
  161MPD2    H5 2462   2.323   1.515   1.170 -0.6876  2.0472 -0.0406
  161MPD2    N1 2463   2.863   1.446   1.001  0.1459  0.2187  0.1835
  161MPD2    H7 2464   2.866   1.548   0.994  0.8408  0.2160  0.4611
  162TMC2    C1 2465   1.314   3.791   1.046 -0.4719  0.8530 -0.2352
  162TMC2    C2 2466   1.277   3.919   1.058 -0.2383  0.7423 -0.8663
  162TMC2    C3 2467   1.171   3.942   1.140 -0.3715  0.2959  0.0400
  162TMC2    C4 2468   1.238   3.686   1.096  0.8368 -0.0313 -0.4464
  162TMC2    C5 2469   1.140   3.718   1.186  0.1347  1.0025  0.0979
  162TMC2    C6 2470   1.106   3.850   1.209 -0.3071  0.4668  0.6241
  162TMC2     C 2471   1.439   3.752   0.978  0.4122  0.4487 -0.1167
  162TMC2     O 2472   1.460   3.634   0.961  0.1604 -0.0792 -0.0036
  162TMC2     H 2473   1.320   3.999   0.999  1.8719  1.9583  2.3562
  162TMC2    H1 2474   1.279   3.586   1.099  0.5863 -0.0704  2.0287
  162TMC2    H2 2475   1.039   3.879   1.289  0.8575 -0.1710  1.8321
  162TMC2    C7 2476   1.076   3.620   1.277 -0.3054  0.0641  0.4385
  162TMC2    C8 2477   1.119   4.084   1.138 -0.4149  0.7516  0.0795
  162TMC2    O1 2478   0.987   3.674   1.342  0.4177 -0.1872  0.5764
  162TMC2    O2 2479   1.188   4.184   1.126 -0.0248 -0.3198  0.7125
  162TMC2    O5 2480   0.985   4.090   1.158 -0.1637 -0.3057 -0.3980
  162TMC2    H5 2481   0.936   4.016   1.116 -1.6331  0.4382  0.0234
  163MPD2     C 2482   1.798   3.846   0.632 -0.1860 -0.2221 -0.1852
  163MPD2    C1 2483   1.783   3.733   0.710  0.3750 -0.6074  0.0869
  163MPD2    C2 2484   1.686   3.734   0.809 -0.1473  0.4399  0.2559
  163MPD2    C3 2485   1.609   3.850   0.828  0.1047 -0.0188 -0.7478
  163MPD2    C4 2486   1.636   3.959   0.756 -0.1652 -0.4460  0.0606
  163MPD2    C5 2487   1.724   3.953   0.650  0.7702 -0.8208  0.3344
  163MPD2     H 2488   1.671   3.649   0.876 -0.1561  0.4186  0.2269
  163MPD2    H1 2489   1.585   4.053   0.769 -1.0050 -0.8142 -0.5053
  163MPD2    H2 2490   1.865   3.849   0.547 -0.9988 -0.4643 -0.8323
  163MPD2    H3 2491   1.751   4.043   0.595 -0.8035 -1.2614 -1.1820
  163MPD2     N 2492   1.504   3.863   0.922  0.3052  0.1238 -0.0023
  163MPD2    H5 2493   1.487   3.958   0.951  2.0500  0.9526 -1.7141
  163MPD2    N1 2494   1.858   3.613   0.672 -0.2865 -0.6671 -0.2203
  163MPD2    H7 2495   1.914   3.620   0.588  0.3817  3.2267  0.5471
  164TCq2    C1 2496   1.910   1.831  10.862 -0.5420  0.1577 -0.1825
  164TCq2    O2 2497   1.843   1.738  10.898  0.0063  0.6190 -0.0093
  164TCq2    C2 2498   1.888   1.968  10.910  0.7264 -0.5565 -0.4500
  164TCq2    C3 2499   1.980   2.066  10.880 -0.8242 -0.0956  0.0347
  164TCq2    C4 2500   1.949   2.193  10.920 -0.3743  0.6317  0.0495
  164TCq2    C5 2501   1.829   2.214  10.994  0.8281  0.3867  0.2590
  164TCq2    C6 2502   1.742   2.119  11.012 -0.2860 -0.2584  0.0379
  164TCq2    C7 2503   1.768   1.991  10.975  0.1634 -0.1345 -0.2640
  164TCq2    C8 2504   1.610   2.153  11.063 -0.4790  0.0991  0.4630
  164TCq2    O4 2505   1.589   2.274  11.063 -0.2504 -0.2194  0.4206
  164TCq2    C9 2506   2.042   2.299  10.885 -0.3518  0.6474  0.5327
  164TCq2    O5 2507   2.071   2.382  10.976  0.3277  0.6198 -0.3777
  164TCq2    O6 2508   2.112   2.283  10.782 -0.3880  0.0216 -0.1871
  164TCq2    H2 2509   2.075   2.045  10.833 -0.1097 -0.1646  1.5107
  164TCq2    H3 2510   1.804   2.317  11.015 -0.1448  0.2433 -0.1944
  164TCq2    H4 2511   1.691   1.914  10.980 -1.7005  1.6296 -1.5877
  165MPD2     C 2512   2.573   4.139   2.567  0.0779  0.4393  0.1924
  165MPD2    C1 2513   2.614   4.090   2.443 -0.0361  0.2195  0.0725
  165MPD2    C2 2514   2.744   4.067   2.418  1.1146 -0.4710 -0.0109
  165MPD2    C3 2515   2.839   4.093   2.515  0.0601  0.2239 -0.3151
  165MPD2    C4 2516   2.796   4.132   2.638 -0.0408  0.0121 -0.3722
  165MPD2    C5 2517   2.667   4.150   2.664  0.1165  0.0278 -0.2944
  165MPD2     H 2518   2.778   4.035   2.320 -1.6998  2.9134 -2.0975
  165MPD2    H1 2519   2.872   4.162   2.709  0.5065 -1.2595 -0.4238
  165MPD2    H2 2520   2.471   4.168   2.593  0.2773  0.1615  1.3116
  165MPD2    H3 2521   2.635   4.192   2.758 -0.1717  0.7898 -0.7317
  165MPD2     N 2522   2.976   4.092   2.489  0.5003 -0.1190  0.1859
  165MPD2    H5 2523   3.042   4.115   2.563  1.8968 -1.6859 -0.5898
  165MPD2    N1 2524   2.509   4.082   2.347  0.5682  0.2796  0.4059
  165MPD2    H7 2525   2.416   4.091   2.387  0.6110  1.4980  0.2159
  166TCq2    C1 2526   3.032   4.050   2.378  0.8666 -0.0537  0.7108
  166TCq2    O2 2527   2.993   4.000   2.271 -0.4443 -0.2772  0.3266
  166TCq2    C2 2528   3.169   4.090   2.352  1.0031 -0.5018  0.3645
  166TCq2    C3 2529   3.250   4.114   2.460  0.6557 -0.4257  0.9526
  166TCq2    C4 2530   3.365   4.184   2.447  0.5377 -0.6906  0.2429
  166TCq2    C5 2531   3.401   4.235   2.326 -0.0789  0.2685 -0.3821
  166TCq2    C6 2532   3.312   4.227   2.224  0.0366 -0.1906  0.1024
  166TCq2    C7 2533   3.200   4.147   2.233 -0.0709  0.0525 -0.6012
  166TCq2    C8 2534   3.319   4.320   2.111  0.3369 -0.2915 -0.4403
  166TCq2    O4 2535   3.426   4.380   2.113  0.2688 -0.0606  0.2864
  166TCq2    C9 2536   3.445   4.213   2.564 -0.4748  0.8383 -0.2007
  166TCq2    O5 2537   3.379   4.222   2.674 -0.5882 -0.8131  0.4955
  166TCq2    O6 2538   3.571   4.238   2.542 -0.5249 -0.4540  0.5418
  166TCq2    H2 2539   3.222   4.074   2.557  0.0818 -1.0589  0.5318
  166TCq2    H3 2540   3.496   4.287   2.320  0.4460 -0.6148  0.2375
  166TCq2    H4 2541   3.141   4.116   2.148  1.1632  1.8424 -2.1238
  167TMC2    C1 2542   1.595   2.476  12.592 -0.2653 -0.1893  0.0652
  167TMC2    C2 2543   1.643   2.541  12.709  0.2557  0.2734 -0.2542
  167TMC2    C3 2544   1.647   2.470  12.825  0.2565 -0.3258  0.2487
  167TMC2    C4 2545   1.544   2.349  12.597  0.0629  0.1549 -0.9888
  167TMC2    C5 2546   1.534   2.288  12.728  0.2129  0.1156 -0.3738
  167TMC2    C6 2547   1.600   2.344  12.838  0.8711 -0.0764  0.1016
  167TMC2     C 2548   1.600   2.543  12.461  0.4705 -0.4193  0.0875
  167TMC2     O 2549   1.588   2.661  12.471 -0.5328  0.0982  0.3035
  167TMC2     H 2550   1.696   2.635  12.700 -0.2369  0.4689 -1.0385
  167TMC2    H1 2551   1.486   2.310  12.514 -0.9300  1.4431 -0.9080
  167TMC2    H2 2552   1.600   2.298  12.935  2.0655  0.3941  0.3137
  167TMC2    C7 2553   1.497   2.151  12.744  0.0929  0.5331 -0.0673
  167TMC2    C8 2554   1.716   2.529  12.932 -0.7006 -0.1442  0.4185
  167TMC2    O1 2555   1.517   2.095  12.853  0.2970 -0.3652  0.3162
  167TMC2    O2 2556   1.672   2.519  13.045  0.3536  0.0180  0.2075
  167TMC2    O5 2557   1.843   2.559  12.890 -0.0107  0.3320 -0.2169
  167TMC2    H5 2558   1.861   2.548  12.794 -3.0554  1.7306 -0.9458
  168MPD2     C 2559   1.528   2.648  12.189  0.3264 -0.3688 -0.2301
  168MPD2    C1 2560   1.528   2.514  12.229 -0.5309 -0.8895  0.3691
  168MPD2    C2 2561   1.486   2.426  12.129 -0.4413 -0.2566 -1.0987
  168MPD2    C3 2562   1.444   2.460  12.002 -0.4192 -0.7955  0.4154
  168MPD2    C4 2563   1.443   2.594  11.964  0.0507 -0.2278  0.2555
  168MPD2    C5 2564   1.484   2.684  12.065  0.1786 -1.3798  0.3909
  168MPD2     H 2565   1.462   2.324  12.158  0.5589  0.0282  0.7204
  168MPD2    H1 2566   1.407   2.639  11.872 -0.0137 -2.0931 -0.6348
  168MPD2    H2 2567   1.558   2.735  12.247 -0.6007 -0.2306  0.0427
  168MPD2    H3 2568   1.475   2.792  12.052 -1.5157 -1.6865 -1.0568
  168MPD2     N 2569   1.394   2.364  11.912  0.2814 -0.1421 -0.3562
  168MPD2    H5 2570   1.343   2.403  11.834  0.1398 -1.6831 -1.0260
  168MPD2    N1 2571   1.563   2.462  12.351 -0.0219 -0.6533 -0.0305
  168MPD2    H7 2572   1.554   2.361  12.355 -1.2979 -0.5035  0.8520
  169MPD1     C 2573   0.875   0.735   9.927  0.3500 -0.1243 -0.1379
  169MPD1    C1 2574   0.753   0.798   9.958  0.3130 -0.5451  0.1141
  169MPD1    C2 2575   0.653   0.799   9.862 -0.0095  0.1044 -0.2257
  169MPD1    C3 2576   0.670   0.735   9.740  0.3812 -0.3835  0.6524
  169MPD1    C4 2577   0.788   0.680   9.707  0.7593 -0.5617  0.1569
  169MPD1    C5 2578   0.889   0.678   9.805  0.0172 -0.4425 -0.5300
  169MPD1     H 2579   0.561   0.851   9.887  0.4829 -0.0781  2.0205
  169MPD1    H1 2580   0.809   0.629   9.614  0.7971 -0.7676  0.2781
  169MPD1    H2 2581   0.950   0.742  10.004 -0.9709 -4.5817  1.5718
  169MPD1    H3 2582   0.980   0.625   9.778  2.6530  2.9805  1.6365
  169MPD1     N 2583   0.557   0.730   9.661  0.1479  0.1397  0.9414
  169MPD1    H5 2584   0.474   0.782   9.687  1.0663  0.9466  2.2773
  169MPD1    N1 2585   0.743   0.867  10.080  0.4720  0.0862  0.1609
  169MPD1    H6 2586   0.652   0.902  10.110  0.0084  0.3221 -1.4816
  169MPD1    H7 2587   0.781   0.813  10.157  0.7075  1.1318  0.7725
  170MPD1     C 2588   1.512   4.716  12.719 -0.7855 -0.1897 -0.3098
  170MPD1    C1 2589   1.597   0.094  12.695 -0.4933  0.4721 -0.8340
  170MPD1    C2 2590   1.670   0.146  12.799  0.7887  0.5422  0.5088
  170MPD1    C3 2591   1.671   0.086  12.922  0.3722 -0.5990 -0.3617
  170MPD1    C4 2592   1.593   4.706  12.943  0.0632  0.1720  0.2796
  170MPD1    C5 2593   1.510   4.660  12.847 -0.0499 -0.3419 -0.0435
  170MPD1     H 2594   1.730   0.234  12.780 -0.3384  1.5957  1.8316
  170MPD1    H1 2595   1.590   4.646  13.034  1.8649 -0.6850 -0.2283
  170MPD1    H2 2596   1.437   4.684  12.647 -0.2191  0.2119 -1.0746
  170MPD1    H3 2597   1.449   4.570  12.854  0.3117 -0.5672  0.2034
  170MPD1     N 2598   1.759   0.142  13.018 -0.7267 -0.5013  0.0937
  170MPD1    H5 2599   1.804   0.230  12.995  1.2330 -2.0285 -1.9375
  170MPD1    N1 2600   1.589   0.155  12.572  0.8662  0.3362 -0.1641
  170MPD1    H6 2601   1.656   0.228  12.550 -1.0564  1.7884 -1.1438
  170MPD1    H7 2602   1.580   0.089  12.495  3.8277  1.7973 -1.7513
  171MPD1     C 2603   1.203   1.520  14.708  0.5167 -1.1833 -0.6911
  171MPD1    C1 2604   1.102   1.609  14.735 -0.3643 -0.2406  0.1628
  171MPD1    C2 2605   0.990   1.552  14.794  0.5965 -0.1966 -0.0261
  171MPD1    C3 2606   0.977   1.420  14.840 -0.1307 -0.3978  0.4094
  171MPD1    C4 2607   1.090   1.338  14.815 -0.5132  0.2730  0.4620
  171MPD1    C5 2608   1.203   1.389  14.755  0.5511  0.1081 -0.0909
  171MPD1     H 2609   0.903   1.613  14.816  0.1669 -0.2381 -1.6592
  171MPD1    H1 2610   1.086   1.231  14.833 -1.2469  0.5565  1.9670
  171MPD1    H2 2611   1.292   1.549  14.654  0.6990  0.1479  0.3256
  171MPD1    H3 2612   1.282   1.320  14.727  1.6787  1.1499  0.5501
  171MPD1     N 2613   0.865   1.361  14.907 -0.0381 -0.5297 -0.6093
  171MPD1    H5 2614   0.858   1.261  14.922 -0.3377 -0.2714  0.9877
  171MPD1    N1 2615   1.101   1.736  14.673  0.1001 -0.1975  0.2320
  171MPD1    H6 2616   1.051   1.799  14.736 -0.0366  0.3134 -0.3884
  171MPD1    H7 2617   1.195   1.769  14.650 -0.6930  2.9601  1.4915
  172MPD1     C 2618   4.081   0.167  17.618  0.4368 -0.0892 -0.1177
  172MPD1    C1 2619   4.002   0.234  17.710 -0.2513  0.1747  0.3393
  172MPD1    C2 2620   4.058   0.320   0.092 -0.3618 -0.1360  0.0818
  172MPD1    C3 2621   4.196   0.332   0.102 -0.0532 -0.1202  0.3050
  172MPD1    C4 2622   4.272   0.249   0.015 -0.7319  0.4238  0.7650
  172MPD1    C5 2623   4.214   0.178  17.630 -0.2493 -0.1295  0.6165
  172MPD1     H 2624   3.997   0.373   0.164 -1.3574  0.8033 -1.4499
  172MPD1    H1 2625   4.380   0.248   0.021 -0.6163  1.3716 -1.4187
  172MPD1    H2 2626   4.025   0.106  17.548 -0.5509  0.0268  0.5715
  172MPD1    H3 2627   4.281   0.127  17.561  0.1208 -1.9825  2.3470
  172MPD1     N 2628   4.260   0.418   0.194 -0.0551  0.7229 -0.1839
  172MPD1    H5 2629   4.361   0.418   0.192 -0.0816 -0.4546 -1.1485
  172MPD1    N1 2630   3.866   0.242  17.680  0.2422 -0.2612  0.4558
  172MPD1    H6 2631   3.820   0.277   0.052  1.4778 -0.6054  1.2677
  172MPD1    H7 2632   3.827   0.155  17.646 -0.6667  0.3729 -0.1368
  173MPD1     C 2633   1.060   0.472  13.305  0.5757 -0.0639  0.4980
  173MPD1    C1 2634   0.966   0.487  13.394  0.1662  0.0020  1.3635
  173MPD1    C2 2635   0.992   0.457  13.530 -0.1448  0.1920 -0.0654
  173MPD1    C3 2636   1.112   0.398  13.580  0.8880 -0.5808  0.5620
  173MPD1    C4 2637   1.200   0.382  13.482 -0.1154 -0.0087 -0.5097
  173MPD1    C5 2638   1.178   0.418  13.350  0.4821 -0.2527 -0.1635
  173MPD1     H 2639   0.909   0.468  13.600 -1.2096  2.6796 -1.6958
  173MPD1    H1 2640   1.300   0.343  13.500 -0.0291 -0.0662 -1.0926
  173MPD1    H2 2641   1.041   0.507  13.205 -1.9851 -0.4010  0.8583
  173MPD1    H3 2642   1.258   0.407  13.278  0.5484  0.8877 -0.2712
  173MPD1     N 2643   1.123   0.364  13.715  0.0983 -0.3509 -0.4267
  173MPD1    H5 2644   1.044   0.380  13.776 -0.2095 -2.5168 -0.2486
  173MPD1    N1 2645   0.852   0.557  13.350  0.0632 -0.1394 -0.3186
  173MPD1    H6 2646   0.831   0.525  13.256  2.4671  4.2620 -2.3806
  173MPD1    H7 2647   0.767   0.552  13.405 -0.1580  0.8240 -0.5705
  174MPD1     C 2648   2.031   0.153  14.107 -0.4765 -1.3225  0.0762
  174MPD1    C1 2649   1.943   0.095  14.199 -0.2265  0.4135 -0.1697
  174MPD1    C2 2650   1.807   0.131  14.181  0.1275 -0.2609  0.0076
  174MPD1    C3 2651   1.768   0.204  14.075  0.5339 -0.1718 -0.0012
  174MPD1    C4 2652   1.850   0.243  13.973  0.8910 -0.4575 -0.0819
  174MPD1    C5 2653   1.987   0.222  14.000 -0.1363 -0.1352 -0.4221
  174MPD1     H 2654   1.735   0.089  14.251  0.7442  0.1626  0.8898
  174MPD1    H1 2655   1.814   0.283  13.879  1.4987  0.1318 -0.0640
  174MPD1    H2 2656   2.137   0.142  14.129 -0.7805 -3.1561  0.6414
  174MPD1    H3 2657   2.059   0.258  13.927 -0.9430  0.0287 -1.1277
  174MPD1     N 2658   1.634   0.235  14.049 -0.2805 -0.0092  0.9834
  174MPD1    H5 2659   1.614   0.299  13.974 -1.0833 -1.2056  0.1693
  174MPD1    N1 2660   1.988   0.067  14.330  0.5766 -0.4982 -0.3744
  174MPD1    H6 2661   2.086   0.040  14.328  0.6279 -0.3381 -0.0431
  174MPD1    H7 2662   1.932   4.719  14.368  1.4240 -1.0293 -0.1925
  175MPD1     C 2663   4.057   2.223  15.602  0.4361 -0.2736 -0.2965
  175MPD1    C1 2664   3.941   2.175  15.666 -0.4601 -0.7866 -0.2567
  175MPD1    C2 2665   3.947   2.054  15.734  0.1201  0.1160  1.3179
  175MPD1    C3 2666   4.070   1.988  15.752  0.5625 -1.0493  0.0272
  175MPD1    C4 2667   4.174   2.034  15.680  0.0204  0.6416 -0.1145
  175MPD1    C5 2668   4.169   2.148  15.610 -0.0169 -0.3596  0.3570
  175MPD1     H 2669   3.859   2.008  15.778 -0.4956 -0.8244 -0.8665
  175MPD1    H1 2670   4.271   1.987  15.684  0.3593  1.5842  3.0569
  175MPD1    H2 2671   4.053   2.310  15.538  0.6584  1.8820  2.6201
  175MPD1    H3 2672   4.264   2.180  15.567 -0.3932  0.6120  0.2442
  175MPD1     N 2673   4.095   1.880  15.831  0.0310 -0.1414  0.0368
  175MPD1    H5 2674   4.180   1.826  15.820  0.4313  0.2581  1.1677
  175MPD1    N1 2675   3.815   2.233  15.646  0.4318 -0.3753 -0.1046
  175MPD1    H6 2676   3.806   2.330  15.617  0.7837  0.0005  1.0338
  175MPD1    H7 2677   3.755   2.208  15.725  0.2030 -2.2902 -0.8823
  176MPD1     C 2678   1.736   3.324  16.188 -0.1102 -0.6553 -1.2297
  176MPD1    C1 2679   1.783   3.255  16.298 -0.1080 -0.6497  0.0029
  176MPD1    C2 2680   1.712   3.275  16.412  0.2757  0.0117 -0.6214
  176MPD1    C3 2681   1.587   3.333  16.414  0.1383  0.7040  0.5015
  176MPD1    C4 2682   1.535   3.395  16.303 -0.6594  0.6470  0.0429
  176MPD1    C5 2683   1.613   3.388  16.189  0.7040  0.7022  0.4020
  176MPD1     H 2684   1.744   3.233  16.507  0.4559  0.6438 -0.4058
  176MPD1    H1 2685   1.429   3.416  16.291 -1.1780 -2.2785 -0.4969
  176MPD1    H2 2686   1.786   3.310  16.092  0.9956  2.5733 -1.1261
  176MPD1    H3 2687   1.574   3.433  16.098  1.5175 -0.0815 -0.3288
  176MPD1     N 2688   1.521   3.333  16.540  0.3128 -0.7755 -0.1559
  176MPD1    H5 2689   1.568   3.288  16.618  1.2283 -0.8992 -0.7771
  176MPD1    N1 2690   1.905   3.193  16.298 -0.1685 -0.2149  0.1465
  176MPD1    H6 2691   1.922   3.130  16.377 -2.1378 -1.2493 -0.2538
  176MPD1    H7 2692   1.915   3.132  16.217  0.2270  0.5346 -0.3657
  177MPD1     C 2693   0.243   1.874  11.130 -0.0750  0.0997 -0.0125
  177MPD1    C1 2694   0.124   1.932  11.111  0.0057  0.2989 -0.5800
  177MPD1    C2 2695   0.103   1.999  10.996  0.0110  0.0619  0.3112
  177MPD1    C3 2696   0.196   2.004  10.895  0.0485 -0.3467  0.2093
  177MPD1    C4 2697   0.323   1.958  10.920 -0.4725  0.2113  0.3973
  177MPD1    C5 2698   0.341   1.887  11.043  0.1768  0.2965  0.1284
  177MPD1     H 2699   4.727   2.015  10.969 -0.7147 -0.5092  2.7492
  177MPD1    H1 2700   0.405   1.974  10.852 -1.2358  1.0553 -0.3378
  177MPD1    H2 2701   0.261   1.821  11.223 -0.4792 -1.2684 -0.7100
  177MPD1    H3 2702   0.431   1.833  11.071 -0.3679  0.2553  1.7752
  177MPD1     N 2703   0.155   2.055  10.769 -0.1529  0.2583 -0.5776
  177MPD1    H5 2704   0.066   2.103  10.773 -0.0047  0.4966 -0.1626
  177MPD1    N1 2705   0.013   1.888  11.185  0.4784  0.3478 -0.3371
  177MPD1    H6 2706   0.041   1.851  11.275 -1.1571  0.4650  0.2295
  177MPD1    H7 2707   4.672   1.958  11.211  1.1776  0.8105  0.2481
  178MPD1     C 2708   1.657   4.220   0.080 -1.0164 -0.4502 -0.0945
  178MPD1    C1 2709   1.643   4.099   0.017  0.4160  0.2922 -0.5164
  178MPD1    C2 2710   1.703   4.094  17.601  0.3340  0.3978  0.2303
  178MPD1    C3 2711   1.779   4.202  17.550  0.3383  0.4205  0.3955
  178MPD1    C4 2712   1.799   4.314  17.627 -0.7080  0.0870 -0.2186
  178MPD1    C5 2713   1.740   4.318   0.041  0.1966 -0.2876 -0.5788
  178MPD1     H 2714   1.682   4.009  17.538 -0.6751 -0.2158  1.3763
  178MPD1    H1 2715   1.866   4.393  17.595 -0.5143 -1.0355 -2.5430
  178MPD1    H2 2716   1.614   4.240   0.177  0.6438  0.1506  0.5273
  178MPD1    H3 2717   1.765   4.395   0.113 -0.1500 -0.3767 -0.3612
  178MPD1     N 2718   1.846   4.184  17.427  0.0279  0.2059  0.0462
  178MPD1    H5 2719   1.840   4.093  17.382  1.1238  0.1439  0.0224
  178MPD1    N1 2720   1.539   4.016   0.058  0.5260  0.3383 -0.0764
  178MPD1    H6 2721   1.536   4.010   0.159  0.5100 -1.3314 -0.1701
  178MPD1    H7 2722   1.537   3.923   0.017 -1.2871  0.2185  0.2700
  179MPD1     C 2723   1.551   2.700  15.191 -0.1925  0.3367 -0.1953
  179MPD1    C1 2724   1.640   2.594  15.204 -0.1013  1.0419 -0.9167
  179MPD1    C2 2725   1.593   2.468  15.223  0.8879  0.0076  0.3188
  179MPD1    C3 2726   1.453   2.441  15.247 -0.1771  0.3216  0.3995
  179MPD1    C4 2727   1.370   2.550  15.241 -0.0794  0.2088  0.1861
  179MPD1    C5 2728   1.417   2.677  15.219 -0.2591  0.7812 -0.0498
  179MPD1     H 2729   1.658   2.382  15.233  1.5997  0.4923 -0.2159
  179MPD1    H1 2730   1.264   2.538  15.259 -0.0742 -1.2963 -0.7820
  179MPD1    H2 2731   1.580   2.801  15.164 -1.2577  1.6178  3.5339
  179MPD1    H3 2732   1.352   2.764  15.227  0.8653  1.3650  2.7852
  179MPD1     N 2733   1.402   2.318  15.300 -0.3351 -0.3666 -0.1144
  179MPD1    H5 2734   1.304   2.323  15.326 -0.4722 -0.4524 -0.6034
  179MPD1    N1 2735   1.778   2.615  15.189  0.4151 -0.6133  0.0415
  179MPD1    H6 2736   1.812   2.709  15.168 -1.8854 -0.0499 -1.2216
  179MPD1    H7 2737   1.844   2.540  15.207 -0.0251 -0.9957  0.0477
  180MPD1     C 2738   0.691   3.865  14.731 -0.5482 -0.0929 -0.6081
  180MPD1    C1 2739   0.810   3.802  14.727 -0.7022 -1.2435  0.0405
  180MPD1    C2 2740   0.867   3.803  14.599 -0.0076 -0.0431 -0.3621
  180MPD1    C3 2741   0.816   3.876  14.493 -0.1540  0.4821  0.4160
  180MPD1    C4 2742   0.696   3.939  14.506 -0.0603  0.1396 -0.0784
  180MPD1    C5 2743   0.636   3.935  14.626 -0.3729 -0.1383  0.2988
  180MPD1     H 2744   0.960   3.755  14.571  0.4509  1.7922 -1.9456
  180MPD1    H1 2745   0.642   3.989  14.427 -1.0946 -0.6151  0.1558
  180MPD1    H2 2746   0.627   3.864  14.818  1.6078 -1.0095  0.9313
  180MPD1    H3 2747   0.533   3.971  14.630 -0.0659  0.6444  1.1247
  180MPD1     N 2748   0.890   3.870  14.375 -0.0053 -0.1910 -0.3499
  180MPD1    H5 2749   0.968   3.806  14.372  0.4604  0.4089 -1.0090
  180MPD1    N1 2750   0.869   3.712  14.825  0.4091  0.1699 -0.3717
  180MPD1    H6 2751   0.849   3.743  14.920  3.6241 -0.7485  0.6076
  180MPD1    H7 2752   0.967   3.696  14.807  1.2613  3.5627  1.2647
  181MPD1     C 2753   3.546   4.249   9.912  0.7916  0.0251  0.1579
  181MPD1    C1 2754   3.602   4.370   9.949 -0.2589  0.2858 -0.3002
  181MPD1    C2 2755   3.728   4.406   9.917  0.1438 -0.2808  0.1533
  181MPD1    C3 2756   3.812   4.309   9.867  0.3169 -0.2970  0.1695
  181MPD1    C4 2757   3.762   4.190   9.829  0.4022 -0.3969  0.4375
  181MPD1    C5 2758   3.629   4.161   9.850 -0.2224  0.1221  0.0900
  181MPD1     H 2759   3.753   4.507   9.945  2.3345 -0.3387 -1.6962
  181MPD1    H1 2760   3.828   4.111   9.794 -2.3668 -4.0594  3.3313
  181MPD1    H2 2761   3.441   4.222   9.915  0.5554  0.8026 -1.3167
  181MPD1    H3 2762   3.585   4.064   9.832 -1.4038  0.0409  3.5319
  181MPD1     N 2763   3.947   4.326   9.842  0.1490  0.4076  0.5109
  181MPD1    H5 2764   4.000   4.248   9.805 -1.1614  0.3354 -1.2730
  181MPD1    N1 2765   3.518   4.467  10.008  0.4830 -0.3234 -0.3524
  181MPD1    H6 2766   3.431   4.435  10.050  0.8096  1.0178  1.3577
  181MPD1    H7 2767   3.573   4.525  10.072  0.6972 -1.1816  0.2387
  182MPD1     C 2768   4.188   3.912   2.060  0.3443  0.4950  0.5578
  182MPD1    C1 2769   4.287   3.953   1.973  0.8173  0.3491 -0.7458
  182MPD1    C2 2770   4.241   4.007   1.848 -0.2737 -0.3240 -0.8382
  182MPD1    C3 2771   4.112   4.017   1.815 -0.7313  0.5445 -0.1446
  182MPD1    C4 2772   4.021   3.966   1.900  0.3524 -0.2820  0.1715
  182MPD1    C5 2773   4.061   3.912   2.019  0.0262  0.2549  0.0124
  182MPD1     H 2774   4.319   4.037   1.779 -0.4948  3.0034  0.3343
  182MPD1    H1 2775   3.915   3.974   1.882  0.5188  1.6113  0.0547
  182MPD1    H2 2776   4.217   3.878   2.159 -2.1401 -2.4711  0.2861
  182MPD1    H3 2777   3.986   3.872   2.087  1.1808 -3.2607 -0.7857
  182MPD1     N 2778   4.064   4.061   1.694 -0.0618 -0.0608  0.0270
  182MPD1    H5 2779   3.965   4.058   1.674  0.4090 -2.9007 -1.9274
  182MPD1    N1 2780   4.416   3.959   2.024 -0.2776  0.3612 -0.2135
  182MPD1    H6 2781   4.488   3.940   1.954  0.0565  0.9239 -0.0191
  182MPD1    H7 2782   4.424   3.892   2.101 -0.3874 -0.1215 -0.6164
  183MPD1     C 2783   0.339   0.633   9.923 -0.0983 -0.2190  1.1871
  183MPD1    C1 2784   0.386   0.503   9.936 -0.1417 -0.0030 -0.5143
  183MPD1    C2 2785   0.310   0.404   9.884 -0.6872  0.0668 -0.3987
  183MPD1    C3 2786   0.187   0.434   9.824  0.5894 -0.4108 -0.4340
  183MPD1    C4 2787   0.136   0.561   9.825 -1.1256 -0.1896  0.2103
  183MPD1    C5 2788   0.215   0.663   9.871 -0.3489 -1.4277 -0.2759
  183MPD1     H 2789   0.341   0.301   9.895  0.4643  0.3075 -1.3924
  183MPD1    H1 2790   0.034   0.586   9.798 -0.1701  1.4612 -1.9033
  183MPD1    H2 2791   0.406   0.712   9.956  0.4053 -0.2385  0.2225
  183MPD1    H3 2792   0.175   0.763   9.862  2.1510 -0.6334 -2.4032
  183MPD1     N 2793   0.123   0.324   9.773 -0.2021  0.2627  0.1151
  183MPD1    H5 2794   0.171   0.237   9.795 -0.4607 -0.3001 -1.5352
  183MPD1    N1 2795   0.511   0.464   9.983  0.0594  0.7023 -0.3017
  183MPD1    H6 2796   0.523   0.367  10.014  0.3724  0.2628 -1.7982
  183MPD1    H7 2797   0.552   0.529  10.050  0.5953  1.1164 -1.0306
  184MPD1     C 2798   3.481   1.496   9.479 -0.3743 -0.6633 -0.1495
  184MPD1    C1 2799   3.373   1.538   9.554 -0.4368 -1.0370  0.4857
  184MPD1    C2 2800   3.389   1.648   9.639 -0.4911 -0.3468 -0.0998
  184MPD1    C3 2801   3.514   1.707   9.652  0.1023 -0.4524 -0.2475
  184MPD1    C4 2802   3.623   1.660   9.580  0.4985 -0.0436 -1.1259
  184MPD1    C5 2803   3.602   1.561   9.490  0.7050  0.2269 -0.2188
  184MPD1     H 2804   3.299   1.679   9.691  0.1145  1.6928 -0.2743
  184MPD1    H1 2805   3.719   1.707   9.593 -0.7909  2.1329  0.4956
  184MPD1    H2 2806   3.472   1.428   9.396 -3.2770  1.8158 -1.8409
  184MPD1    H3 2807   3.679   1.533   9.419  2.8180  1.3599  1.6126
  184MPD1     N 2808   3.542   1.826   9.728 -0.1272  0.1788  0.3728
  184MPD1    H5 2809   3.626   1.880   9.708  0.0734 -0.4585 -0.5139
  184MPD1    N1 2810   3.238   1.498   9.526  0.2778 -0.2770 -0.0140
  184MPD1    H6 2811   3.168   1.532   9.592 -2.3457 -3.1510 -1.2892
  184MPD1    H7 2812   3.213   1.415   9.472 -0.3328  0.9687 -1.6428
  185MPD1     C 2813   2.952   2.472  10.273 -0.3873  0.2445 -0.0519
  185MPD1    C1 2814   3.061   2.542  10.235 -0.2272 -0.7690 -0.0218
  185MPD1    C2 2815   3.159   2.471  10.172  0.0861  0.6448  0.5256
  185MPD1    C3 2816   3.142   2.334  10.134  0.1698  0.0481  0.3628
  185MPD1    C4 2817   3.028   2.270  10.178  0.4250 -0.2375 -0.1731
  185MPD1    C5 2818   2.936   2.340  10.247 -0.1573  0.0983  0.0147
  185MPD1     H 2819   3.251   2.525  10.153  1.2323 -1.6287 -0.3346
  185MPD1    H1 2820   3.005   2.167  10.153 -2.5691  1.0810 -2.8083
  185MPD1    H2 2821   2.869   2.521  10.321 -1.6836 -1.0425 -0.9903
  185MPD1    H3 2822   2.843   2.291  10.275 -0.3359  0.0767 -0.6208
  185MPD1     N 2823   3.246   2.262  10.070 -0.3314 -0.3083  0.0250
  185MPD1    H5 2824   3.217   2.170  10.040 -1.5450 -0.1168  0.6209
  185MPD1    N1 2825   3.063   2.672  10.279  0.3822 -0.4113  0.2872
  185MPD1    H6 2826   3.116   2.732  10.217  0.8699 -0.4214  0.6938
  185MPD1    H7 2827   2.974   2.718  10.299  1.3537  1.2091  0.8764
  186MPD1     C 2828   1.989   2.713  15.515 -0.2844  0.4125 -0.2951
  186MPD1    C1 2829   2.083   2.637  15.585 -0.4669 -0.3722 -0.2341
  186MPD1    C2 2830   2.116   2.675  15.704  0.0597 -0.1392  0.3077
  186MPD1    C3 2831   2.044   2.769  15.773  0.4331  0.5195 -0.7061
  186MPD1    C4 2832   1.937   2.824  15.713 -0.4677 -0.7857  0.2273
  186MPD1    C5 2833   1.907   2.801  15.585  0.4167  0.4279  0.1161
  186MPD1     H 2834   2.197   2.621  15.753 -0.0845  1.1219  1.9279
  186MPD1    H1 2835   1.872   2.892  15.767 -0.8708  1.0063 -2.5291
  186MPD1    H2 2836   1.965   2.685  15.414 -0.3925  0.6059 -0.3245
  186MPD1    H3 2837   1.826   2.854  15.535  0.0030 -0.2618  0.0580
  186MPD1     N 2838   2.056   2.789  15.910 -0.4017 -0.4913 -0.2139
  186MPD1    H5 2839   1.998   2.862  15.949 -2.3504 -1.8086 -0.6416
  186MPD1    N1 2840   2.142   2.524  15.519  0.2941  0.2242  0.1119
  186MPD1    H6 2841   2.074   2.482  15.457  1.0385 -0.6042 -0.1288
  186MPD1    H7 2842   2.173   2.454  15.586 -0.6332  0.4891  0.8299
  187MPD1     C 2843   0.889   0.090   0.722  0.5765  0.3427 -0.3442
  187MPD1    C1 2844   0.785   0.059   0.636  0.2817  0.0602 -0.6577
  187MPD1    C2 2845   0.802   0.071   0.500 -0.0507 -0.1871  0.3240
  187MPD1    C3 2846   0.922   0.112   0.436  0.3830  0.2263 -0.5577
  187MPD1    C4 2847   1.020   0.164   0.520 -0.3647  0.0200  0.2083
  187MPD1    C5 2848   1.002   0.142   0.657  0.2199  0.7821  0.0848
  187MPD1     H 2849   0.725   0.034   0.433  0.2708  0.9348 -0.6645
  187MPD1    H1 2850   1.111   0.209   0.483  0.6115 -2.3952 -0.3303
  187MPD1    H2 2851   0.882   0.074   0.829  2.6128  1.4908 -0.0301
  187MPD1    H3 2852   1.082   0.182   0.718  0.6554 -1.2729  0.8649
  187MPD1     N 2853   0.958   0.111   0.295 -0.2160  0.7925  0.3022
  187MPD1    H5 2854   1.050   0.151   0.283 -0.1828  1.0480  1.4332
  187MPD1    N1 2855   0.673   4.717   0.692  0.2738 -0.4647  0.9164
  187MPD1    H6 2856   0.584   0.011   0.649  0.1583 -0.0011  1.3905
  187MPD1    H7 2857   0.655   0.010   0.790 -1.9317 -1.1666  0.6556
  188MPD1     C 2858   1.021   4.135   8.933 -0.3760  0.3773 -0.0980
  188MPD1    C1 2859   1.017   4.007   8.870  0.1071  0.6530  0.2203
  188MPD1    C2 2860   1.058   3.895   8.947 -0.5245 -0.1340 -0.0709
  188MPD1    C3 2861   1.089   3.912   9.079 -0.6114 -0.5514  0.0582
  188MPD1    C4 2862   1.081   4.029   9.141  0.6459  0.4986  0.1371
  188MPD1    C5 2863   1.048   4.143   9.069  0.1837  0.1624  0.2136
  188MPD1     H 2864   1.061   3.800   8.894  0.9164 -0.5700  0.7858
  188MPD1    H1 2865   1.104   4.045   9.246 -0.2643  0.0292  0.4064
  188MPD1    H2 2866   0.995   4.219   8.870 -1.9212 -0.1893 -0.2253
  188MPD1    H3 2867   1.055   4.232   9.130  0.8611 -0.1107  0.5361
  188MPD1     N 2868   1.120   3.806   9.166 -0.4605 -0.3341  0.0035
  188MPD1    H5 2869   1.126   3.835   9.263 -0.6778 -2.4642  0.6447
  188MPD1    N1 2870   1.010   4.001   8.731 -0.1342  0.2741 -0.1400
  188MPD1    H6 2871   0.953   4.078   8.696  2.6264  1.1710 -2.6663
  188MPD1    H7 2872   0.976   3.912   8.696  0.7537  0.2162 -0.8492
  189MPD1     C 2873   1.561   0.005   0.903  0.4096  0.6490  1.1338
  189MPD1    C1 2874   1.684   4.687   0.853 -0.3413 -0.2004 -0.7217
  189MPD1    C2 2875   1.725   4.713   0.723  0.0252  0.0168 -0.9256
  189MPD1    C3 2876   1.653   0.067   0.640  0.3309 -0.5896 -0.0636
  189MPD1    C4 2877   1.540   0.125   0.689  0.0382  0.5035 -0.8344
  189MPD1    C5 2878   1.494   0.093   0.814  0.0057 -0.0192  0.2145
  189MPD1     H 2879   1.811   4.661   0.683 -1.0051 -2.2094 -0.2486
  189MPD1    H1 2880   1.487   0.198   0.629  1.1013  1.1910 -0.9477
  189MPD1    H2 2881   1.525   4.704   1.001 -0.2197  0.1148  0.7458
  189MPD1    H3 2882   1.397   0.137   0.836  0.6536  1.6133 -0.1736
  189MPD1     N 2883   1.701   0.103   0.511 -0.9449 -0.0360 -0.6418
  189MPD1    H5 2884   1.792   0.064   0.486 -0.2870  1.5211 -0.6770
  189MPD1    N1 2885   1.739   4.575   0.917  0.3892  0.3691  0.3845
  189MPD1    H6 2886   1.839   4.560   0.917  0.2805 -0.3567  1.5690
  189MPD1    H7 2887   1.709   4.572   1.014  2.8016 -2.4771  1.0352
  190MPD1     C 2888   1.255   3.060  15.445  0.5820  0.3873 -0.3554
  190MPD1    C1 2889   1.297   3.153  15.355 -0.1848 -0.5184 -0.3523
  190MPD1    C2 2890   1.376   3.255  15.409  0.2513  0.1672  0.2665
  190MPD1    C3 2891   1.417   3.249  15.537  0.1974 -0.1686  0.5678
  190MPD1    C4 2892   1.376   3.148  15.627 -0.4463 -0.4119  0.1177
  190MPD1    C5 2893   1.294   3.057  15.572 -0.7632  0.3691  0.8074
  190MPD1     H 2894   1.410   3.340  15.350 -2.9516 -0.4333 -2.4155
  190MPD1    H1 2895   1.399   3.141  15.732  3.4257 -1.6307 -0.8100
  190MPD1    H2 2896   1.193   2.975  15.419 -0.3812  0.1630  2.6419
  190MPD1    H3 2897   1.269   2.968  15.630  1.9440 -0.4354  0.7408
  190MPD1     N 2898   1.488   3.360  15.590  0.0337 -0.4435 -0.0508
  190MPD1    H5 2899   1.505   3.427  15.516  1.4595 -2.0176 -1.1712
  190MPD1    N1 2900   1.256   3.151  15.225 -0.0367 -0.3126 -0.3323
  190MPD1    H6 2901   1.316   3.205  15.163 -0.9570  0.0953 -0.8655
  190MPD1    H7 2902   1.249   3.055  15.193 -0.6963 -1.1845  2.4360
  191MPD1     C 2903   1.400   4.534  12.360  0.1984 -0.0436  0.4427
  191MPD1    C1 2904   1.452   4.556  12.238 -0.4575  0.9310  0.3633
  191MPD1    C2 2905   1.434   4.683  12.184 -0.6591  0.1287  0.0827
  191MPD1    C3 2906   1.369   0.065  12.252 -0.5638 -0.1771 -0.3646
  191MPD1    C4 2907   1.330   0.034  12.375 -0.0360  0.2590  0.0654
  191MPD1    C5 2908   1.345   4.635  12.437 -0.0952  0.1734 -0.1055
  191MPD1     H 2909   1.483   4.701  12.089 -1.4435  0.2421 -0.2933
  191MPD1    H1 2910   1.288   0.109  12.441 -1.1154  0.3433 -0.7103
  191MPD1    H2 2911   1.403   4.438  12.411 -0.0695 -0.1843  0.1951
  191MPD1    H3 2912   1.297   4.617  12.533 -0.6762 -0.4786 -0.5157
  191MPD1     N 2913   1.350   0.183  12.181 -0.1413  0.9459 -0.0316
  191MPD1    H5 2914   1.355   0.176  12.079 -0.4477  0.7422 -0.0355
  191MPD1    N1 2915   1.505   4.444  12.169 -0.7224 -0.1867  0.2694
  191MPD1    H6 2916   1.579   4.486  12.113 -2.2492  0.3387 -1.3274
  191MPD1    H7 2917   1.547   4.383  12.240 -2.9799  0.1145  1.8624
  192MPD1     C 2918   0.834   0.922  12.451  0.6514  0.3482  0.4155
  192MPD1    C1 2919   0.926   0.982  12.369  0.1395 -0.7012 -0.3483
  192MPD1    C2 2920   1.000   0.907  12.279 -0.6403 -0.3656  0.8118
  192MPD1    C3 2921   0.979   0.772  12.278 -0.6730  0.4901 -0.7150
  192MPD1    C4 2922   0.882   0.717  12.356 -0.5262  0.0539 -0.8946
  192MPD1    C5 2923   0.804   0.793  12.438 -0.5580 -0.0798  0.7370
  192MPD1     H 2924   1.073   0.957  12.217 -1.6818  0.4702  0.2544
  192MPD1    H1 2925   0.861   0.611  12.347 -0.3301 -0.0190 -0.5184
  192MPD1    H2 2926   0.778   0.977  12.525 -2.0123 -0.9024 -0.6562
  192MPD1    H3 2927   0.717   0.757  12.491 -0.5860 -2.5094 -0.9958
  192MPD1     N 2928   1.047   0.683  12.188 -0.1090  0.2302 -0.2834
  192MPD1    H5 2929   1.023   0.586  12.203 -2.4167  0.8227 -0.1791
  192MPD1    N1 2930   0.960   1.119  12.391 -0.1981  0.2784  0.1138
  192MPD1    H6 2931   0.886   1.170  12.440 -0.5443  0.2414 -0.3661
  192MPD1    H7 2932   0.962   1.168  12.302 -1.2701 -1.9470 -1.1438
  193MPD1     C 2933   0.130   1.295  16.232 -0.3035 -0.5927  0.2932
  193MPD1    C1 2934   0.133   1.400  16.324 -0.1875 -0.0296  0.0640
  193MPD1    C2 2935   0.226   1.394  16.429  0.8959  0.4985 -0.1074
  193MPD1    C3 2936   0.308   1.287  16.445 -0.9446  0.2939  0.5923
  193MPD1    C4 2937   0.301   1.185  16.358 -0.0754  0.4833 -0.1380
  193MPD1    C5 2938   0.211   1.190  16.252 -1.2919 -0.9585 -0.0471
  193MPD1     H 2939   0.241   1.477  16.497 -0.8591  0.0338  0.8506
  193MPD1    H1 2940   0.360   1.095  16.367  2.5039  2.1930  0.2319
  193MPD1    H2 2941   0.062   1.288  16.148 -1.1130  0.7183  0.8355
  193MPD1    H3 2942   0.215   1.114  16.174 -2.4435  0.5222 -1.5496
  193MPD1     N 2943   0.399   1.266  16.556  0.1844  0.0616  0.5259
  193MPD1    H5 2944   0.475   1.201  16.541  1.2925  1.3961  0.3317
  193MPD1    N1 2945   0.057   1.520  16.308  0.1981  0.1574 -0.4824
  193MPD1    H6 2946   4.689   1.489  16.290 -0.3390  0.6437  1.5588
  193MPD1    H7 2947   0.044   1.569  16.396  0.5448  2.0803 -1.5087
  194MPD1     C 2948   3.573   2.718  15.894 -0.3358 -0.4005 -0.2553
  194MPD1    C1 2949   3.535   2.806  15.987 -0.0346 -0.1550  0.3836
  194MPD1    C2 2950   3.531   2.769  16.123  0.5373  0.0121 -0.2857
  194MPD1    C3 2951   3.529   2.632  16.162 -0.2195 -0.4985 -0.7233
  194MPD1    C4 2952   3.553   2.547  16.058  0.3464  0.1676  0.1803
  194MPD1    C5 2953   3.578   2.588  15.926 -0.3185  0.5632  0.4198
  194MPD1     H 2954   3.498   2.845  16.193 -2.5451 -1.2869 -0.3402
  194MPD1    H1 2955   3.548   2.441  16.078  2.0712  0.0146 -0.1944
  194MPD1    H2 2956   3.598   2.754  15.795 -0.8743 -0.7934 -0.5335
  194MPD1    H3 2957   3.609   2.518  15.849 -0.5955  0.8280  0.0634
  194MPD1     N 2958   3.520   2.587  16.293 -0.5465  0.6641  1.2167
  194MPD1    H5 2959   3.497   2.488  16.300  1.6242  0.1627  1.1595
  194MPD1    N1 2960   3.528   2.943  15.957 -0.0078  0.0251 -0.2014
  194MPD1    H6 2961   3.506   2.961  15.859  4.2798 -0.4779 -1.2660
  194MPD1    H7 2962   3.471   3.001  16.018 -1.4325  0.4010 -1.8952
  195MPD1     C 2963   0.752   4.416   0.288  0.6317  0.1532  0.5076
  195MPD1    C1 2964   0.679   4.411   0.167 -0.0710  0.1468  0.4167
  195MPD1    C2 2965   0.665   4.282   0.106  0.5776  0.1892 -0.1249
  195MPD1    C3 2966   0.714   4.167   0.169  0.1855 -0.0332  0.4889
  195MPD1    C4 2967   0.798   4.182   0.280 -0.0798  0.8668  1.2422
  195MPD1    C5 2968   0.811   4.304   0.344 -0.9365 -0.8551  0.3032
  195MPD1     H 2969   0.599   4.258   0.023  0.5747  1.9641 -0.6243
  195MPD1    H1 2970   0.841   4.093   0.323 -1.0993 -0.0341  0.4172
  195MPD1    H2 2971   0.765   4.510   0.340  0.8048  0.4311 -0.0287
  195MPD1    H3 2972   0.869   4.318   0.434 -0.9765  0.6211  0.1022
  195MPD1     N 2973   0.694   4.029   0.125  0.5169  0.2315  0.3274
  195MPD1    H5 2974   0.741   3.963   0.186  2.3919  2.5333  1.3467
  195MPD1    N1 2975   0.609   4.525   0.121  0.1426  0.5890  0.1567
  195MPD1    H6 2976   0.673   4.598   0.150 -0.9737  1.5343  0.2345
  195MPD1    H7 2977   0.591   4.518   0.022  1.4958  1.8307 -0.1712
  196MPD1     C 2978   4.712   3.139  17.499 -0.2433 -0.1793 -0.1152
  196MPD1    C1 2979   4.660   3.265  17.503  0.4605 -0.0033  0.1965
  196MPD1    C2 2980   4.682   3.337  17.622 -0.1916  0.1919  0.0352
  196MPD1    C3 2981   0.032   3.286   0.013 -0.2576  1.0128  0.2563
  196MPD1    C4 2982   0.093   3.164  17.709  0.1262  0.0993  0.5047
  196MPD1    C5 2983   0.067   3.092  17.598  0.1372 -0.4628 -0.0162
  196MPD1     H 2984   4.633   3.431  17.639  0.9574  0.9050 -0.5544
  196MPD1    H1 2985   0.152   3.120   0.077  2.9249  3.2866  0.1840
  196MPD1    H2 2986   4.711   3.072  17.414  0.6635 -0.8515  0.4162
  196MPD1    H3 2987   0.121   2.999  17.583  3.0901  1.1113  0.8761
  196MPD1     N 2988   0.059   3.358   0.132  0.0042  0.0940  0.4971
  196MPD1    H5 2989   0.118   3.310   0.200  0.4367  0.7784  0.5955
  196MPD1    N1 2990   4.567   3.301  17.404 -0.5757  0.0833  0.4658
  196MPD1    H6 2991   4.563   3.403  17.397  2.5525  0.1718 -0.0737
  196MPD1    H7 2992   4.583   3.265  17.310  1.6339 -0.6389  1.1075
  197MPD1     C 2993   3.814   1.827  17.449 -0.3202  0.1651  0.1877
  197MPD1    C1 2994   3.929   1.887  17.497  0.7678  0.1230 -0.3863
  197MPD1    C2 2995   3.982   1.992  17.419  0.1689 -0.2904  0.4458
  197MPD1    C3 2996   3.913   2.050  17.313 -0.2754  0.9313  0.2235
  197MPD1    C4 2997   3.793   1.991  17.273  0.4076 -0.4568  0.5084
  197MPD1    C5 2998   3.745   1.880  17.345 -0.5683  0.4065  0.8462
  197MPD1     H 2999   4.071   2.043  17.454  0.4632  0.5774 -1.5885
  197MPD1    H1 3000   3.738   2.024  17.185  0.0165 -1.6980  0.2986
  197MPD1    H2 3001   3.759   1.742  17.489  1.3950 -1.6473 -1.2360
  197MPD1    H3 3002   3.653   1.833  17.314  0.6739 -0.3127 -1.7790
  197MPD1     N 3003   3.967   2.146  17.222  0.4003 -0.0512 -0.5623
  197MPD1    H5 3004   3.914   2.184  17.144 -0.3631 -1.3426 -0.6794
  197MPD1    N1 3005   3.994   1.832  17.607  0.0739 -0.3203  0.1408
  197MPD1    H6 3006   4.056   1.903  17.644 -0.5268 -0.1996  0.9077
  197MPD1    H7 3007   3.936   1.781  17.673  0.0158 -0.1601  0.2143
  198MPD1     C 3008   0.913   0.267  15.453 -0.7790  0.4556  0.4415
  198MPD1    C1 3009   0.966   0.345  15.551 -0.5130 -0.7354 -0.6904
  198MPD1    C2 3010   1.104   0.349  15.562  0.4734  0.3071 -0.7325
  198MPD1    C3 3011   1.186   0.274  15.482 -0.0555 -0.0494  0.1881
  198MPD1    C4 3012   1.132   0.192  15.380 -0.4570 -0.0565 -0.0771
  198MPD1    C5 3013   0.993   0.193  15.367 -0.2880 -0.4766 -0.6715
  198MPD1     H 3014   1.148   0.419  15.632  1.5059 -0.2438 -0.8301
  198MPD1    H1 3015   1.186   0.120  15.319 -0.5383 -0.9223  0.8821
  198MPD1    H2 3016   0.806   0.257  15.450 -0.7208  0.3309 -1.0045
  198MPD1    H3 3017   0.951   0.130  15.290 -0.9965  1.3449 -1.8015
  198MPD1     N 3018   1.326   0.284  15.492 -0.2859  0.0485  0.2411
  198MPD1    H5 3019   1.356   0.351  15.562 -1.3453  0.3377  0.4149
  198MPD1    N1 3020   0.891   0.403  15.648 -0.4170  0.0408 -0.5136
  198MPD1    H6 3021   0.922   0.496  15.674  1.2896 -0.8580  0.6998
  198MPD1    H7 3022   0.792   0.405  15.625 -0.2455  2.0284 -1.1338
  199MPD1     C 3023   3.888   0.866  10.058  0.8736  0.5174  0.1191
  199MPD1    C1 3024   3.775   0.823   9.992  0.4674 -0.4799 -0.1872
  199MPD1    C2 3025   3.798   0.744   9.882 -0.1403  0.5707 -0.0868
  199MPD1    C3 3026   3.928   0.701   9.847 -0.2607  0.0112 -0.4721
  199MPD1    C4 3027   4.039   0.741   9.926 -0.1184  0.2200 -0.1955
  199MPD1    C5 3028   4.012   0.836  10.022 -0.2237  0.1497 -0.2117
  199MPD1     H 3029   3.710   0.709   9.829 -0.6411 -0.6889  1.5786
  199MPD1    H1 3030   4.139   0.713   9.895 -1.3663 -1.2494 -2.9345
  199MPD1    H2 3031   3.877   0.945  10.131 -1.1609 -0.3911  0.7859
  199MPD1    H3 3032   4.090   0.879  10.083  0.7438 -3.0670  0.8598
  199MPD1     N 3033   3.959   0.605   9.744  0.0575  0.4703 -0.3072
  199MPD1    H5 3034   4.058   0.583   9.740 -0.0163 -0.7371  4.3169
  199MPD1    N1 3035   3.657   0.891  10.013  0.1740 -0.1733  0.2394
  199MPD1    H6 3036   3.640   0.918  10.110  2.9356  2.0195  0.1154
  199MPD1    H7 3037   3.579   0.833   9.981 -0.2860  0.7602 -0.3246
  200MPD1     C 3038   2.470   1.336  14.998  0.2321 -0.8401  0.3958
  200MPD1    C1 3039   2.414   1.229  14.923  0.0088  0.5084 -0.3487
  200MPD1    C2 3040   2.500   1.162  14.833  0.0163  1.6363  0.0562
  200MPD1    C3 3041   2.631   1.195  14.819 -0.0623 -0.4241  0.4173
  200MPD1    C4 3042   2.689   1.291  14.902  0.4640 -0.0568 -0.6634
  200MPD1    C5 3043   2.606   1.363  14.984 -0.9993  0.0818  0.0827
  200MPD1     H 3044   2.449   1.093  14.767 -1.0216  1.7670  0.7169
  200MPD1    H1 3045   2.795   1.308  14.912  0.2643 -0.0787  1.4821
  200MPD1    H2 3046   2.406   1.401  15.057  0.1772 -1.1356  0.6628
  200MPD1    H3 3047   2.652   1.434  15.052  0.2260 -1.7484  1.1608
  200MPD1     N 3048   2.698   1.126  14.718  0.1130  0.4962  0.3191
  200MPD1    H5 3049   2.637   1.073  14.657 -0.5504  1.1724  0.3980
  200MPD1    N1 3050   2.276   1.200  14.928  0.0704 -0.0141  0.1266
  200MPD1    H6 3051   2.256   1.101  14.918  0.4287 -0.2710  1.7808
  200MPD1    H7 3052   2.237   1.220  15.020  2.0029 -2.1622  1.4331
  201MPD1     C 3053   4.587   4.173  12.423 -0.3227  0.2214  0.4626
  201MPD1    C1 3054   4.595   4.039  12.448 -0.6088  0.1833 -0.0364
  201MPD1    C2 3055   4.710   3.991  12.512 -0.4838  0.6101  0.0250
  201MPD1    C3 3056   0.078   4.076  12.555 -0.4038 -0.2456  0.5338
  201MPD1    C4 3057   0.071   4.215  12.542  0.3096  0.2845 -0.2351
  201MPD1    C5 3058   4.686   4.254  12.476  0.2782 -0.2792  0.6359
  201MPD1     H 3059   4.715   3.883  12.520 -0.2904  0.5587 -0.8366
  201MPD1    H1 3060   0.146   4.287  12.571  0.1530  0.9903 -1.5656
  201MPD1    H2 3061   4.503   4.224  12.378  1.0167 -0.4416 -2.8259
  201MPD1    H3 3062   4.676   4.360  12.453  2.7351 -0.1279  0.2850
  201MPD1     N 3063   0.194   4.017  12.617  0.0669 -0.1388 -0.1518
  201MPD1    H5 3064   0.197   3.915  12.614 -2.2064 -0.1972 -0.9292
  201MPD1    N1 3065   4.509   3.952  12.375  0.0733 -0.3214  0.0368
  201MPD1    H6 3066   4.417   3.988  12.351 -1.0001 -2.5938  0.6616
  201MPD1    H7 3067   4.497   3.866  12.428  0.4711  0.0605  0.7319
  202MPD1     C 3068   0.369   3.454   8.880 -0.6185  0.0813  0.1296
  202MPD1    C1 3069   0.306   3.572   8.909 -0.5952 -0.7958  0.2344
  202MPD1    C2 3070   0.332   3.635   9.030 -0.0126 -0.2461  0.6034
  202MPD1    C3 3071   0.401   3.567   9.130 -0.8910 -0.6470  0.1922
  202MPD1    C4 3072   0.462   3.448   9.103  0.5789  0.2178  0.5277
  202MPD1    C5 3073   0.446   3.395   8.979 -0.4716  0.5459  0.9918
  202MPD1     H 3074   0.285   3.732   9.043  1.1893  0.2329  1.4211
  202MPD1    H1 3075   0.517   3.391   9.177  2.4579  2.8302  1.1344
  202MPD1    H2 3076   0.380   3.417   8.779  1.2027 -1.2962  0.8211
  202MPD1    H3 3077   0.492   3.300   8.955  1.7362  1.5616  1.2595
  202MPD1     N 3078   0.426   3.629   9.257 -0.1186  0.0140  0.6616
  202MPD1    H5 3079   0.491   3.585   9.322 -0.6749  0.6761  1.6678
  202MPD1    N1 3080   0.268   3.642   8.793 -0.1004  0.2412  0.6522
  202MPD1    H6 3081   0.199   3.710   8.823 -1.0699  0.7378 -2.7915
  202MPD1    H7 3082   0.223   3.567   8.741  0.0196 -0.3799  1.4315
  203MPD1     C 3083   4.085   0.569  12.720 -0.1800  0.2190 -0.1584
  203MPD1    C1 3084   3.975   0.552  12.645  0.3150  0.5909  0.0174
  203MPD1    C2 3085   3.946   0.425  12.591  0.4424 -0.4063  0.1905
  203MPD1    C3 3086   4.038   0.321  12.603 -0.4369  0.2345  0.0164
  203MPD1    C4 3087   4.150   0.342  12.680 -0.0333 -0.1613 -0.3212
  203MPD1    C5 3088   4.170   0.464  12.737 -0.7959  0.3139 -0.5765
  203MPD1     H 3089   3.857   0.416  12.531 -0.0706 -1.6144  1.1405
  203MPD1    H1 3090   4.220   0.260  12.690  0.5765  0.7283  2.6066
  203MPD1    H2 3091   4.116   0.664  12.762  2.2682  0.0554 -1.5886
  203MPD1    H3 3092   4.258   0.478  12.800 -1.4995  4.1728 -0.4622
  203MPD1     N 3093   4.001   0.200  12.548  0.0558 -1.0180  0.5121
  203MPD1    H5 3094   3.908   0.194  12.508 -0.9055  0.5489  2.5362
  203MPD1    N1 3095   3.879   0.657  12.636  0.4436  0.1647  0.0836
  203MPD1    H6 3096   3.813   0.647  12.559  0.4310 -2.6508  0.4647
  203MPD1    H7 3097   3.916   0.751  12.627 -2.7516  1.5185  1.0420
  204MPD1     C 3098   2.393   1.272  17.598  0.0577  0.3569 -0.8450
  204MPD1    C1 3099   2.392   1.141  17.636 -0.1616 -0.3902 -0.4754
  204MPD1    C2 3100   2.430   1.053  17.529  0.2519  0.0242  0.3478
  204MPD1    C3 3101   2.454   1.089  17.397 -0.1449  0.3126  0.5156
  204MPD1    C4 3102   2.437   1.218  17.368  0.8195  0.5470 -0.9540
  204MPD1    C5 3103   2.404   1.305  17.467 -0.1366  0.8251  0.2026
  204MPD1     H 3104   2.440   0.948  17.555 -1.2883 -0.6801 -1.8748
  204MPD1    H1 3105   2.432   1.255  17.266  0.6916 -0.5035 -1.3289
  204MPD1    H2 3106   2.381   1.348  17.674  1.6765 -0.9308  0.7014
  204MPD1    H3 3107   2.409   1.409  17.438 -0.8192  0.8775  0.2692
  204MPD1     N 3108   2.502   0.993  17.302  0.4884 -0.5969 -0.5218
  204MPD1    H5 3109   2.520   0.899  17.335 -1.7094  0.1366  2.8614
  204MPD1    N1 3110   2.382   1.097   0.058 -0.0121  0.2709  0.0647
  204MPD1    H6 3111   2.311   1.150   0.109 -0.4737 -0.9460  0.6708
  204MPD1    H7 3112   2.350   1.001   0.068  0.5339  0.2385  1.4828
  205MPD1     C 3113   3.750   0.115  16.950 -0.1979  0.0547  0.0653
  205MPD1    C1 3114   3.757   0.025  17.056  0.3905 -0.2090 -0.2029
  205MPD1    C2 3115   3.633   4.727  17.115 -0.3600 -0.0738  0.0742
  205MPD1    C3 3116   3.510   0.062  17.075 -0.0467  0.3555 -0.1067
  205MPD1    C4 3117   3.515   0.156  16.967 -0.3151 -0.1928 -0.0564
  205MPD1    C5 3118   3.635   0.184  16.913 -0.6380  0.6375 -0.1560
  205MPD1     H 3119   3.641   4.651  17.192 -1.9727 -0.3337 -0.0050
  205MPD1    H1 3120   3.424   0.200  16.926 -0.9470 -1.1948  0.2723
  205MPD1    H2 3121   3.840   0.147  16.899 -0.5756 -0.0873 -0.6888
  205MPD1    H3 3122   3.633   0.233  16.816 -0.6894 -0.3642 -0.6565
  205MPD1     N 3123   3.388   0.036  17.133 -0.1423 -1.2734 -0.5023
  205MPD1    H5 3124   3.305   0.075  17.090 -0.1962 -0.2049  0.5657
  205MPD1    N1 3125   3.874   4.678  17.080 -0.2939 -0.4511 -0.6153
  205MPD1    H6 3126   3.958   0.001  17.054 -0.0883 -0.1031  0.6891
  205MPD1    H7 3127   3.890   4.648  17.176  0.3966  0.5950 -0.4098
  206MPD1     C 3128   3.584   3.332  16.519  0.6758 -0.7961  0.4202
  206MPD1    C1 3129   3.446   3.317  16.490  0.3434  0.7975  0.2482
  206MPD1    C2 3130   3.397   3.354  16.365 -0.0868 -0.0979  0.8933
  206MPD1    C3 3131   3.495   3.386  16.267  0.2071  0.0470 -0.3035
  206MPD1    C4 3132   3.621   3.402  16.302  0.8065  0.9616  0.3441
  206MPD1    C5 3133   3.669   3.387  16.428  0.1565 -0.1054 -0.6999
  206MPD1     H 3134   3.298   3.324  16.334  0.1308 -0.6676  0.7506
  206MPD1    H1 3135   3.697   3.432  16.231 -0.7640  0.2870 -1.6297
  206MPD1    H2 3136   3.634   3.310  16.613  1.8923  0.4115  0.0608
  206MPD1    H3 3137   3.774   3.407  16.440 -0.1768  0.4989  1.3075
  206MPD1     N 3138   3.463   3.399  16.129 -0.1902  0.1793  0.3420
  206MPD1    H5 3139   3.539   3.379  16.064  0.7421 -1.0921  1.8159
  206MPD1    N1 3140   3.373   3.226  16.561 -0.4263  0.0722 -0.0529
  206MPD1    H6 3141   3.406   3.217  16.657 -1.5792  2.1872  0.5386
  206MPD1    H7 3142   3.273   3.234  16.548  0.0227  3.1030 -1.5719
  207MPD1     C 3143   0.692   4.534   9.826 -0.1130 -0.6520  0.2312
  207MPD1    C1 3144   0.715   4.550   9.963 -0.6951  0.5591 -0.3483
  207MPD1    C2 3145   0.837   4.603  10.005 -0.6773  0.2251 -0.0240
  207MPD1    C3 3146   0.939   4.626   9.920 -0.1691 -0.0615  0.2958
  207MPD1    C4 3147   0.912   4.593   9.787 -0.7694  0.0976 -0.1312
  207MPD1    C5 3148   0.793   4.557   9.739 -0.2478 -0.3188 -0.4586
  207MPD1     H 3149   0.846   4.627  10.110 -0.3310 -1.4652  0.3283
  207MPD1    H1 3150   0.996   4.597   9.719  0.0908 -0.6024  0.8840
  207MPD1    H2 3151   0.599   4.498   9.783  0.6208 -1.7025 -0.4561
  207MPD1    H3 3152   0.782   4.535   9.633 -0.5164 -2.9605  0.1284
  207MPD1     N 3153   1.070   4.665   9.954  0.0252  0.5097  0.7119
  207MPD1    H5 3154   1.141   4.673   9.883  2.2673  0.9489  3.0337
  207MPD1    N1 3155   0.604   4.548  10.053  0.3353 -0.2614  0.3547
  207MPD1    H6 3156   0.534   4.476  10.036  1.0261 -0.3903 -1.9013
  207MPD1    H7 3157   0.640   4.540  10.148  0.3122  1.1694  0.4733
  208MPD1     C 3158   3.608   3.762  17.449  0.3031 -0.0862  0.2250
  208MPD1    C1 3159   3.513   3.783  17.544 -0.8296  0.4621  0.4589
  208MPD1    C2 3160   3.545   3.853  17.662 -0.2414  0.4017  0.0250
  208MPD1    C3 3161   3.679   3.881  17.694 -0.1770 -0.2456 -0.6694
  208MPD1    C4 3162   3.777   3.864  17.601 -1.0553  0.0448  0.3083
  208MPD1    C5 3163   3.736   3.804  17.478 -0.2729  0.3976  0.1086
  208MPD1     H 3164   3.471   3.880   0.025 -0.2373 -1.7853  0.8309
  208MPD1    H1 3165   3.883   3.881  17.614 -1.1773  0.9937  0.0846
  208MPD1    H2 3166   3.587   3.731  17.347 -1.8185  0.1936  0.5601
  208MPD1    H3 3167   3.813   3.800  17.402 -1.5931 -0.1344 -1.1930
  208MPD1     N 3168   3.700   3.949   0.108  0.2941  0.0659  0.3900
  208MPD1    H5 3169   3.615   3.971   0.161 -0.1923 -0.5013 -0.1592
  208MPD1    N1 3170   3.380   3.761  17.508  0.0323  0.0888  0.1945
  208MPD1    H6 3171   3.375   3.682  17.444  0.9600  0.4439 -0.3172
  208MPD1    H7 3172   3.323   3.758  17.593 -1.4324  2.5314 -0.6693
  209MPD1     C 3173   1.396   3.794  11.154  0.8352 -0.2413 -0.8698
  209MPD1    C1 3174   1.414   3.828  11.024 -0.2758  0.5865  0.1619
  209MPD1    C2 3175   1.456   3.957  10.985  0.3540  0.0174  0.4979
  209MPD1    C3 3176   1.493   4.050  11.085  0.5161 -0.1867  0.2421
  209MPD1    C4 3177   1.488   4.003  11.223 -0.0618 -0.5834  0.3402
  209MPD1    C5 3178   1.450   3.873  11.247  0.1985  0.3742  0.2361
  209MPD1     H 3179   1.454   3.993  10.883  3.1763 -1.1566  0.0259
  209MPD1    H1 3180   1.522   4.061  11.309 -2.3815  1.1729  0.0712
  209MPD1    H2 3181   1.357   3.698  11.184 -0.6750  0.9055  0.8634
  209MPD1    H3 3182   1.439   3.832  11.346 -1.4686  4.4323  1.7389
  209MPD1     N 3183   1.547   4.180  11.049 -0.5854  0.3115  0.2032
  209MPD1    H5 3184   1.559   4.209  10.953 -1.1464 -0.9955 -0.2655
  209MPD1    N1 3185   1.355   3.744  10.929  0.0815 -0.2058  0.2936
  209MPD1    H6 3186   1.370   3.646  10.951  1.7951  0.1947  0.9660
  209MPD1    H7 3187   1.381   3.762  10.832 -0.3230 -2.9621 -0.2977
  210MPD1     C 3188   2.063   0.433  11.217 -0.0303  0.0653  0.9441
  210MPD1    C1 3189   1.993   0.353  11.307 -0.2920  0.2197  0.3808
  210MPD1    C2 3190   1.954   0.229  11.263 -0.4247  0.3626  0.5933
  210MPD1    C3 3191   1.987   0.168  11.147  0.4703 -0.6211  0.2988
  210MPD1    C4 3192   2.060   0.247  11.061  0.3055  1.1485 -0.3800
  210MPD1    C5 3193   2.095   0.371  11.098  0.1189  0.2575 -0.7249
  210MPD1     H 3194   1.895   0.175  11.336  2.0049 -0.0663  2.2460
  210MPD1    H1 3195   2.090   0.204  10.967 -1.7887  0.3870 -0.7027
  210MPD1    H2 3196   2.112   0.523  11.251 -0.6222  0.5780  0.4361
  210MPD1    H3 3197   2.163   0.422  11.030 -0.2659  0.1146 -1.2134
  210MPD1     N 3198   1.933   0.041  11.104 -0.1533 -0.2746  0.2465
  210MPD1    H5 3199   1.977   0.004  11.020  1.1414 -2.6111  1.9513
  210MPD1    N1 3200   1.988   0.386  11.445 -0.2755 -0.5317  0.3993
  210MPD1    H6 3201   1.895   0.373  11.485 -0.5278 -2.5049 -0.8702
  210MPD1    H7 3202   2.016   0.483  11.459 -3.5889  0.5483 -0.4648
  211MPD1     C 3203   4.221   4.606  16.614  0.6080  0.3190  0.7073
  211MPD1    C1 3204   4.111   4.554  16.671  0.3099  1.2659 -0.2610
  211MPD1    C2 3205   3.990   4.623  16.671  0.4802 -0.9568  0.5434
  211MPD1    C3 3206   3.987   0.024  16.617  0.1783  1.0817 -0.3628
  211MPD1    C4 3207   4.102   0.085  16.575 -0.2953 -0.1012 -0.3569
  211MPD1    C5 3208   4.217   0.010  16.579 -0.0602 -0.2244  0.0041
  211MPD1     H 3209   3.893   4.584  16.698  0.3014 -0.2870  0.8599
  211MPD1    H1 3210   4.105   0.180  16.524 -0.5635  0.9361  1.5637
  211MPD1    H2 3211   4.316   4.554  16.606 -0.8669 -2.5165  1.6597
  211MPD1    H3 3212   4.310   0.054  16.546 -0.4941  1.1751  0.6508
  211MPD1     N 3213   3.860   0.082  16.601 -0.6674  0.2731 -0.2425
  211MPD1    H5 3214   3.778   0.026  16.621 -0.6236 -0.5415 -2.3109
  211MPD1    N1 3215   4.104   4.418  16.712 -0.2347 -0.0314  0.0741
  211MPD1    H6 3216   4.043   4.399  16.792  0.4534 -1.4908  0.2583
  211MPD1    H7 3217   4.192   4.408  16.761  0.5181  1.4406 -0.9842
  212MPD1     C 3218   3.091   3.719  16.543 -0.1437  0.5346  0.0682
  212MPD1    C1 3219   3.129   3.609  16.468  0.4282  0.2713 -0.0438
  212MPD1    C2 3220   3.097   3.483  16.520  0.5184  0.3595  0.4951
  212MPD1    C3 3221   3.023   3.464  16.638  0.0046 -0.8405  0.1937
  212MPD1    C4 3222   2.995   3.572  16.713  0.4770  0.3179  0.3521
  212MPD1    C5 3223   3.030   3.696  16.666  0.3135  0.0532  0.4433
  212MPD1     H 3224   3.126   3.398  16.459 -0.4831  0.6314 -0.3535
  212MPD1    H1 3225   2.950   3.556  16.811 -0.0051  1.3494  0.2963
  212MPD1    H2 3226   3.121   3.818  16.510  0.3653 -0.4331 -2.3648
  212MPD1    H3 3227   3.010   3.784  16.726  2.1276  0.1124  0.9536
  212MPD1     N 3228   2.982   3.340  16.691 -0.0964  0.0429 -0.0270
  212MPD1    H5 3229   2.918   3.351  16.770 -0.5077  0.5536 -0.4323
  212MPD1    N1 3230   3.225   3.639  16.367  0.1766 -0.5432 -0.4494
  212MPD1    H6 3231   3.198   3.730  16.330  0.5971  0.0313  0.6744
  212MPD1    H7 3232   3.225   3.569  16.292  2.4674  0.0516 -1.0037
  213MPD1     C 3233   0.608   3.641  15.479  0.2757 -0.5473  0.8311
  213MPD1    C1 3234   0.653   3.749  15.550  0.3799 -0.0853 -0.1934
  213MPD1    C2 3235   0.642   3.866  15.483  0.1676  0.2019  0.1226
  213MPD1    C3 3236   0.554   3.892  15.384 -0.6902  0.2050  0.0905
  213MPD1    C4 3237   0.488   3.779  15.329  0.6598  0.0090  0.0553
  213MPD1    C5 3238   0.512   3.656  15.384 -0.2194 -0.4309 -0.0457
  213MPD1     H 3239   0.709   3.942  15.521 -1.3051  1.5422  0.0272
  213MPD1    H1 3240   0.411   3.786  15.254  0.9323 -0.4840 -0.2619
  213MPD1    H2 3241   0.628   3.543  15.520 -3.2400 -0.6609  2.2153
  213MPD1    H3 3242   0.475   3.563  15.343 -2.5707  0.7076 -0.4734
  213MPD1     N 3243   0.549   4.018  15.331  0.1761 -0.5843 -0.0058
  213MPD1    H5 3244   0.596   4.091  15.382  0.0345 -0.6341  0.1994
  213MPD1    N1 3245   0.751   3.735  15.648 -0.5820  0.0162  0.1541
  213MPD1    H6 3246   0.746   3.805  15.722 -1.4279 -0.3561  0.4521
  213MPD1    H7 3247   0.748   3.644  15.694  0.4181 -0.1121 -0.0347
  214MPD1     C 3248   4.492   4.472  14.942 -0.3685 -0.3906 -0.4562
  214MPD1    C1 3249   4.596   4.525  14.878  0.3911  0.4277 -0.1526
  214MPD1    C2 3250   4.723   4.510  14.930 -0.8505  0.1642 -0.2357
  214MPD1    C3 3251   0.010   4.451  15.054  0.7025  0.1086 -0.7683
  214MPD1    C4 3252   4.629   4.398  15.119 -0.1057 -0.7587 -0.5784
  214MPD1    C5 3253   4.504   4.420  15.067  0.8161 -0.1655 -0.1310
  214MPD1     H 3254   0.079   4.555  14.878 -0.5336  1.0717  1.0665
  214MPD1    H1 3255   4.630   4.355  15.219  2.8779 -2.2096 -1.2140
  214MPD1    H2 3256   4.394   4.470  14.895  0.0372 -0.1023 -1.3120
  214MPD1    H3 3257   4.415   4.379  15.114  0.1022  1.0833 -0.4056
  214MPD1     N 3258   0.131   4.429  15.116  0.0607  1.1185 -0.3985
  214MPD1    H5 3259   0.131   4.377  15.203  0.3351 -0.6357 -1.4660
  214MPD1    N1 3260   4.578   4.601  14.760 -0.7332 -0.0729  0.1671
  214MPD1    H6 3261   4.532   4.691  14.776 -1.9366 -0.3947 -1.4989
  214MPD1    H7 3262   4.668   4.631  14.724  0.3738  0.3193  3.2121
  215MPD1     C 3263   1.308   4.070  10.396 -0.1592  0.3945 -1.1091
  215MPD1    C1 3264   1.282   4.194  10.337  0.3036 -0.3069  0.1287
  215MPD1    C2 3265   1.289   4.306  10.421  0.3133  0.0201 -0.0589
  215MPD1    C3 3266   1.316   4.289  10.548 -0.2220 -0.1718  0.3769
  215MPD1    C4 3267   1.343   4.161  10.603 -0.3411 -0.1077 -0.5540
  215MPD1    C5 3268   1.349   4.056  10.523 -0.4514 -0.0450  0.0336
  215MPD1     H 3269   1.276   4.405  10.378 -1.1825 -0.5854 -0.9992
  215MPD1    H1 3270   1.357   4.141  10.709 -1.4920  0.7633 -0.2397
  215MPD1    H2 3271   1.320   3.981  10.335  1.6329 -0.4954  0.5392
  215MPD1    H3 3272   1.382   3.961  10.561  0.8404  0.6528  0.6600
  215MPD1     N 3273   1.323   4.403  10.632 -0.1809 -0.2255 -0.4356
  215MPD1    H5 3274   1.308   4.495  10.591 -2.8358 -0.6525 -0.4097
  215MPD1    N1 3275   1.229   4.201  10.209  0.5480  0.3301  0.3415
  215MPD1    H6 3276   1.255   4.113  10.166  3.2025  1.6628 -0.7519
  215MPD1    H7 3277   1.267   4.279  10.157  1.2921 -0.5515 -0.4287
  216MPD1     C 3278   3.240   2.850  16.373 -0.1082  0.1469 -0.6420
  216MPD1    C1 3279   3.209   2.737  16.303 -0.2006 -0.6416 -0.0886
  216MPD1    C2 3280   3.173   2.616  16.367  0.6381  0.0209  0.1028
  216MPD1    C3 3281   3.170   2.616  16.502 -0.8440 -0.1221  0.0126
  216MPD1    C4 3282   3.202   2.735  16.572 -0.0859 -0.5144 -0.1874
  216MPD1    C5 3283   3.236   2.848  16.504 -0.3654 -0.8251 -0.4598
  216MPD1     H 3284   3.129   2.531  16.315 -0.3706  0.9671 -0.5969
  216MPD1    H1 3285   3.205   2.737  16.680  0.5207 -0.9767 -0.1989
  216MPD1    H2 3286   3.278   2.942  16.331 -0.5585 -0.5622 -2.5683
  216MPD1    H3 3287   3.255   2.941  16.557 -1.5802  1.2983 -3.7690
  216MPD1     N 3288   3.133   2.497  16.565  0.4527  0.0302 -0.1065
  216MPD1    H5 3289   3.105   2.416  16.511 -1.8451  1.3295 -0.8699
  216MPD1    N1 3290   3.194   2.738  16.167 -0.2042 -0.4498  0.4964
  216MPD1    H6 3291   3.287   2.742  16.126  0.0074 -1.3758  0.8983
  216MPD1    H7 3292   3.159   2.652  16.125  2.4834 -1.6435  0.6714
  217MPD1     C 3293   0.328   2.998   8.713 -0.2871 -0.2195  0.4956
  217MPD1    C1 3294   0.201   2.954   8.686 -0.2902  0.2903 -0.4555
  217MPD1    C2 3295   0.100   2.975   8.779 -0.4203 -0.2544 -0.6854
  217MPD1    C3 3296   0.126   3.038   8.898 -0.0011 -0.6247 -0.1215
  217MPD1    C4 3297   0.253   3.084   8.917  0.2466 -0.4507  0.3184
  217MPD1    C5 3298   0.350   3.074   8.825 -0.2468 -0.1438  0.1543
  217MPD1     H 3299   0.009   2.915   8.773  0.4671 -1.2444 -4.0726
  217MPD1    H1 3300   0.273   3.153   8.998  1.5574 -1.3198  0.7211
  217MPD1    H2 3301   0.406   2.990   8.638  0.7063  1.1417  1.3951
  217MPD1    H3 3302   0.438   3.137   8.827 -0.2349 -0.0713 -2.7456
  217MPD1     N 3303   0.032   3.068   8.998 -0.8266 -0.0756  0.1465
  217MPD1    H5 3304   0.076   3.110   9.079  2.5383 -2.0940 -0.6325
  217MPD1    N1 3305   0.171   2.884   8.569  0.1994  0.0543  0.8062
  217MPD1    H6 3306   0.098   2.917   8.507  2.2441 -0.2290 -1.7573
  217MPD1    H7 3307   0.250   2.888   8.504 -1.1060 -0.9448 -0.8303
  218MPD1     C 3308   0.156   0.144  12.430  0.1420 -1.0114 -0.9548
  218MPD1    C1 3309   0.210   0.026  12.476  0.6014  0.4007  0.5245
  218MPD1    C2 3310   0.347   0.033  12.505  0.2291  0.2122  0.1687
  218MPD1    C3 3311   0.427   0.141  12.519  0.0124 -0.4299  0.1798
  218MPD1    C4 3312   0.366   0.262  12.483 -0.4994 -0.2427  0.2158
  218MPD1    C5 3313   0.233   0.260  12.448  0.4219  0.2742  0.6417
  218MPD1     H 3314   0.394   4.671  12.543 -0.5820 -0.4370 -0.3444
  218MPD1    H1 3315   0.422   0.355  12.479  0.7137 -0.9350  1.0816
  218MPD1    H2 3316   0.055   0.160  12.393 -0.3188  0.8264  1.0796
  218MPD1    H3 3317   0.190   0.359  12.440 -0.5121 -0.0492  1.7147
  218MPD1     N 3318   0.561   0.124  12.550 -0.1620 -0.8316  0.9880
  218MPD1    H5 3319   0.592   0.030  12.572 -0.3409 -1.2025 -0.3559
  218MPD1    N1 3320   0.131   4.636  12.460  0.1158 -0.0318 -0.2896
  218MPD1    H6 3321   0.176   4.572  12.525 -1.2593 -0.3385  0.3626
  218MPD1    H7 3322   0.033   4.654  12.481  0.4293 -0.8747  1.9654
  219MPD1     C 3323   1.047   0.362  11.723  1.0981 -0.1654 -0.3297
  219MPD1    C1 3324   1.008   0.446  11.825  0.1763 -0.7756 -0.1909
  219MPD1    C2 3325   0.984   0.395  11.948  0.5182  0.1691  0.0929
  219MPD1    C3 3326   1.014   0.266  11.987  0.2439 -0.1068  0.1018
  219MPD1    C4 3327   1.055   0.187  11.888 -0.2675 -0.7532  0.0636
  219MPD1    C5 3328   1.075   0.234  11.761 -0.3364 -0.4583  0.1996
  219MPD1     H 3329   0.940   0.462  12.021 -0.9297 -0.3667 -0.2903
  219MPD1    H1 3330   1.066   0.080  11.902  0.0876 -1.0651 -2.5454
  219MPD1    H2 3331   1.073   0.391  11.622  0.6476  1.2263 -0.0467
  219MPD1    H3 3332   1.108   0.167  11.681 -1.8113  0.1963 -0.9462
  219MPD1     N 3333   0.986   0.210  12.115 -0.1673  0.1471 -0.0155
  219MPD1    H5 3334   0.993   0.109  12.120  1.4049  0.2912  0.5518
  219MPD1    N1 3335   0.959   0.572  11.797  0.3011  0.3312 -0.0232
  219MPD1    H6 3336   0.982   0.644  11.865 -1.6803  1.2314 -0.3093
  219MPD1    H7 3337   0.993   0.614  11.711 -1.5944 -0.4888 -1.1913
  220MPD1     C 3338   0.869   0.136   9.261 -0.0171 -0.3908 -0.0504
  220MPD1    C1 3339   0.761   0.175   9.332 -0.3692  0.0614 -0.5176
  220MPD1    C2 3340   0.769   0.197   9.464  0.3445 -0.3428  0.0017
  220MPD1    C3 3341   0.884   0.182   9.537  0.2549  1.0489 -0.3748
  220MPD1    C4 3342   0.996   0.137   9.461  0.4377  0.7867 -0.0141
  220MPD1    C5 3343   0.981   0.114   9.326 -0.2215  1.0020 -0.2402
  220MPD1     H 3344   0.682   0.228   9.520  0.5651 -1.0139  0.7179
  220MPD1    H1 3345   1.094   0.122   9.504  0.8827 -3.0531 -2.3690
  220MPD1    H2 3346   0.868   0.119   9.154  1.9454  0.8112 -0.2742
  220MPD1    H3 3347   1.065   0.084   9.265 -0.4490 -1.0208  0.4175
  220MPD1     N 3348   0.892   0.225   9.669 -1.2144 -0.4585 -0.1454
  220MPD1    H5 3349   0.818   0.287   9.699 -1.3971 -0.0253 -1.4963
  220MPD1    N1 3350   0.645   0.216   9.256  0.1299 -0.0065 -0.2703
  220MPD1    H6 3351   0.558   0.185   9.299  0.4930  0.2439  0.6332
  220MPD1    H7 3352   0.645   0.167   9.167 -1.0569 -0.3531 -0.0880
  221MPD1     C 3353   3.563   4.122  17.211  0.8460 -0.1678 -0.1966
  221MPD1    C1 3354   3.504   4.247  17.196  0.4667  0.7430  0.8282
  221MPD1    C2 3355   3.452   4.266  17.066  0.4822 -0.6327 -0.5686
  221MPD1    C3 3356   3.477   4.179  16.961  0.1064  0.5322  0.6164
  221MPD1    C4 3357   3.540   4.063  16.996 -0.3155  0.7566 -0.2693
  221MPD1    C5 3358   3.582   4.033  17.119  0.0189  0.9353 -0.7202
  221MPD1     H 3359   3.398   4.356  17.040 -0.8123 -0.5779  2.3070
  221MPD1    H1 3360   3.545   3.985  16.921 -0.0220  0.5712 -0.0540
  221MPD1    H2 3361   3.602   4.088  17.306 -0.7491  1.6868  1.1397
  221MPD1    H3 3362   3.618   3.933  17.143 -0.9194  0.9651  0.7396
  221MPD1     N 3363   3.424   4.192  16.834  0.9449  0.3279  0.0263
  221MPD1    H5 3364   3.474   4.131  16.770  4.8058  2.3729  1.0657
  221MPD1    N1 3365   3.494   4.348  17.294  0.2867 -0.1151  0.2965
  221MPD1    H6 3366   3.473   4.441  17.258  2.5951 -0.0854 -0.9739
  221MPD1    H7 3367   3.571   4.358  17.361  1.1601  0.6894 -0.8226
  222MPD1     C 3368   3.640   2.978   0.599  0.5263  0.0662  0.1615
  222MPD1    C1 3369   3.521   2.934   0.659 -0.1830 -0.0129 -0.7541
  222MPD1    C2 3370   3.405   2.926   0.577  0.3307  0.9668 -0.2119
  222MPD1    C3 3371   3.415   2.963   0.443 -0.1603 -0.1025  0.3768
  222MPD1    C4 3372   3.533   3.012   0.390  0.1079  0.0860  0.5602
  222MPD1    C5 3373   3.642   3.024   0.471  0.1338  0.1410  0.1385
  222MPD1     H 3374   3.310   2.898   0.620  0.3322  0.8587 -0.2777
  222MPD1    H1 3375   3.549   3.037   0.286 -0.8894 -0.2363  0.3290
  222MPD1    H2 3376   3.736   2.998   0.644 -0.4376  1.4817  1.5768
  222MPD1    H3 3377   3.733   3.074   0.439  0.4395  0.7557  1.9654
  222MPD1     N 3378   3.304   2.969   0.358  0.4282  0.5162 -0.0289
  222MPD1    H5 3379   3.316   3.020   0.271  2.0103 -0.1333 -0.1841
  222MPD1    N1 3380   3.522   2.873   0.783  0.1315  0.2041  0.6300
  222MPD1    H6 3381   3.616   2.880   0.823 -0.5442  2.0001  1.9361
  222MPD1    H7 3382   3.510   2.774   0.766 -0.1369  0.2998  0.2628
  223MPD1     C 3383   2.678   2.531  17.321  0.5650 -0.0511  0.0564
  223MPD1    C1 3384   2.700   2.661  17.297  0.0871 -0.1652 -0.1042
  223MPD1    C2 3385   2.803   2.723  17.371 -0.1748  0.4743  0.3508
  223MPD1    C3 3386   2.871   2.667  17.482 -0.1829 -0.1352 -0.4045
  223MPD1    C4 3387   2.833   2.540  17.511 -0.5723  0.2767 -0.1332
  223MPD1    C5 3388   2.742   2.474  17.429 -1.0042  0.5200 -0.7146
  223MPD1     H 3389   2.818   2.827  17.347  2.4891  0.1969  0.8982
  223MPD1    H1 3390   2.871   2.484  17.595  1.9002  0.5071 -1.1058
  223MPD1    H2 3391   2.624   2.466  17.253 -1.0626  0.8011  0.5246
  223MPD1    H3 3392   2.703   2.376  17.454  1.4504 -1.0098 -2.9584
  223MPD1     N 3393   2.945   2.751  17.570  0.0155 -0.1837 -0.5054
  223MPD1    H5 3394   2.963   2.846  17.536  0.1666  0.0609  0.2600
  223MPD1    N1 3395   2.652   2.714  17.176  0.4479 -0.1604  0.4104
  223MPD1    H6 3396   2.559   2.677  17.158  1.4109 -2.1272 -0.5303
  223MPD1    H7 3397   2.658   2.815  17.165 -1.7888 -0.0409  0.2485
  224MPD1     C 3398   4.490   3.387   8.719  0.0482  0.3833  0.3092
  224MPD1    C1 3399   4.614   3.332   8.746  0.4146 -0.3446  0.8599
  224MPD1    C2 3400   4.685   3.368   8.864 -0.5676  0.5021  0.0918
  224MPD1    C3 3401   4.620   3.461   8.940  0.2808 -0.0252 -0.9683
  224MPD1    C4 3402   4.503   3.524   8.905  0.2330  0.7623 -0.1903
  224MPD1    C5 3403   4.429   3.486   8.800 -0.8058 -0.1133  0.2435
  224MPD1     H 3404   0.043   3.316   8.906 -1.6830 -1.6981 -0.3261
  224MPD1    H1 3405   4.467   3.602   8.971  0.7000  0.5969  0.2561
  224MPD1    H2 3406   4.431   3.359   8.632  0.1071 -2.0288  1.0481
  224MPD1    H3 3407   4.341   3.536   8.764  1.5977  3.2733 -0.9237
  224MPD1     N 3408   4.677   3.517   9.057  0.8494 -0.1506 -0.0129
  224MPD1    H5 3409   4.639   3.606   9.089 -0.2065 -0.8191  0.5484
  224MPD1    N1 3410   4.673   3.248   8.653 -0.4272  0.2286  0.6785
  224MPD1    H6 3411   0.011   3.181   8.693  0.5471  0.9492  0.3051
  224MPD1    H7 3412   4.598   3.199   8.605  1.3291 -0.9834 -0.8291
  225MPD1     C 3413   0.689   1.231  12.632 -0.4923 -0.3080 -1.1417
  225MPD1    C1 3414   0.614   1.116  12.647 -0.5650  0.4316  0.6305
  225MPD1    C2 3415   0.536   1.072  12.536  0.4778  0.3589 -0.7623
  225MPD1    C3 3416   0.545   1.139  12.409 -0.0246  0.3077 -0.4551
  225MPD1    C4 3417   0.629   1.248  12.399  0.1495 -0.9264  0.4820
  225MPD1    C5 3418   0.700   1.290  12.514  0.7189  0.6680  0.9078
  225MPD1     H 3419   0.491   0.974  12.546  1.7856 -0.1075  0.5821
  225MPD1    H1 3420   0.630   1.308  12.308 -0.7643 -0.2776  0.8902
  225MPD1    H2 3421   0.759   1.265  12.708 -0.4667 -0.8950 -0.9020
  225MPD1    H3 3422   0.755   1.383  12.509  2.0508 -0.1728  0.0017
  225MPD1     N 3423   0.479   1.089  12.293  0.5985 -0.0215 -0.2033
  225MPD1    H5 3424   0.494   1.134  12.203 -0.1046  0.5177 -0.0476
  225MPD1    N1 3425   0.623   1.044  12.770  0.0553  0.3789 -0.9616
  225MPD1    H6 3426   0.687   0.965  12.769  0.3457  0.6024  0.1191
  225MPD1    H7 3427   0.527   1.012  12.785  0.9150 -1.3059  0.8757
  226MPD1     C 3428   2.855   4.226   9.436  0.2174 -0.8597 -0.2498
  226MPD1    C1 3429   2.920   4.241   9.318  0.8179  0.2053  0.7563
  226MPD1    C2 3430   3.051   4.280   9.317 -0.6255 -1.2941  0.0073
  226MPD1    C3 3431   3.108   4.301   9.437  0.2237  1.0670 -0.2199
  226MPD1    C4 3432   3.048   4.270   9.554  0.3880 -0.0913  0.4804
  226MPD1    C5 3433   2.917   4.234   9.558 -0.5544  1.0069 -0.5406
  226MPD1     H 3434   3.105   4.285   9.223  0.2601 -1.6338  0.4926
  226MPD1    H1 3435   3.094   4.267   9.652  2.8734 -0.4571 -0.7032
  226MPD1    H2 3436   2.752   4.191   9.436  0.2948 -1.0695 -1.1746
  226MPD1    H3 3437   2.871   4.208   9.652  0.1139  2.2079  0.1087
  226MPD1     N 3438   3.247   4.340   9.444 -0.2558 -0.4508  0.2387
  226MPD1    H5 3439   3.297   4.331   9.356 -0.8840  1.6596 -0.3234
  226MPD1    N1 3440   2.852   4.224   9.195 -0.0145 -0.4065 -0.4751
  226MPD1    H6 3441   2.787   4.146   9.195  0.8273 -1.1140  0.5025
  226MPD1    H7 3442   2.916   4.208   9.117  0.8460 -0.8366  0.3137
  227MPD1     C 3443   3.758   3.685   9.648 -0.2010  0.9422 -0.3480
  227MPD1    C1 3444   3.646   3.740   9.704  0.2367  0.2746  0.0688
  227MPD1    C2 3445   3.594   3.858   9.653 -0.6085 -0.1503  0.0768
  227MPD1    C3 3446   3.682   3.939   9.581 -0.0334  0.4270 -0.2668
  227MPD1    C4 3447   3.801   3.886   9.535 -0.4546  0.5800  0.3035
  227MPD1    C5 3448   3.842   3.762   9.573  0.9232 -1.1655 -0.3705
  227MPD1     H 3449   3.505   3.894   9.703  0.5108  3.7417 -0.7380
  227MPD1    H1 3450   3.861   3.945   9.466 -0.9123 -0.3738 -0.9142
  227MPD1    H2 3451   3.773   3.582   9.679  1.5713  0.3545 -3.1467
  227MPD1    H3 3452   3.923   3.716   9.516  1.7716  0.1341 -0.2020
  227MPD1     N 3453   3.645   4.071   9.539 -0.3454  0.1546  0.3087
  227MPD1    H5 3454   3.546   4.096   9.544 -0.5103 -0.2504 -0.9726
  227MPD1    N1 3455   3.564   3.666   9.791  0.0067 -0.0464  0.2325
  227MPD1    H6 3456   3.622   3.627   9.865  0.1490 -0.5762 -0.1653
  227MPD1    H7 3457   3.501   3.727   9.843 -2.1434 -1.1661 -1.0415
  228MPD1     C 3458   2.266   3.397  11.919 -0.0153 -0.4866  0.5904
  228MPD1    C1 3459   2.137   3.444  11.881  0.0111  0.2301  0.1603
  228MPD1    C2 3460   2.033   3.410  11.966  0.4954  0.1209 -0.1898
  228MPD1    C3 3461   2.058   3.335  12.088  0.6397 -0.3136 -0.0503
  228MPD1    C4 3462   2.188   3.289  12.114 -0.9846 -0.2082 -0.0866
  228MPD1    C5 3463   2.287   3.323  12.035  0.3660  0.3121 -0.6764
  228MPD1     H 3464   1.932   3.435  11.935  0.8439  0.6283 -0.9229
  228MPD1    H1 3465   2.209   3.234  12.205 -2.1430 -0.3409  0.1093
  228MPD1    H2 3466   2.352   3.419  11.856 -2.0453  0.1475 -1.9826
  228MPD1    H3 3467   2.391   3.308  12.062 -0.7824 -1.6553  2.7250
  228MPD1     N 3468   1.951   3.309  12.178 -0.2184  0.7541 -0.2022
  228MPD1    H5 3469   1.861   3.341  12.143 -1.4249 -0.2682  1.9528
  228MPD1    N1 3470   2.115   3.485  11.748 -0.0416 -0.3677  0.0361
  228MPD1    H6 3471   2.031   3.540  11.733  0.5876  0.5885  0.0375
  228MPD1    H7 3472   2.201   3.527  11.712  0.2043 -0.7207  0.2096
  229MPD1     C 3473   1.502   2.354  14.722  0.2362 -0.0821  0.2785
  229MPD1    C1 3474   1.549   2.391  14.841 -0.0735 -0.4191  0.4791
  229MPD1    C2 3475   1.644   2.313  14.908  0.3566  0.0845 -0.0555
  229MPD1    C3 3476   1.688   2.193  14.844 -0.9871  0.1734 -0.2137
  229MPD1    C4 3477   1.639   2.160  14.718 -0.5988  0.5204  0.0834
  229MPD1    C5 3478   1.538   2.235  14.662 -0.5239  0.8420 -0.7642
  229MPD1     H 3479   1.677   2.332  15.009 -1.9886  0.4267  0.6492
  229MPD1    H1 3480   1.658   2.063  14.674  1.5761  0.0081  2.1380
  229MPD1    H2 3481   1.422   2.413  14.679  1.8597  0.7741 -1.5652
  229MPD1    H3 3482   1.482   2.200  14.576  0.0743 -4.2627  0.9235
  229MPD1     N 3483   1.769   2.092  14.907 -0.4809  0.3094 -0.5325
  229MPD1    H5 3484   1.781   2.009  14.851 -0.1650  0.4268 -0.6369
  229MPD1    N1 3485   1.482   2.491  14.913 -0.1419  0.2940  0.0688
  229MPD1    H6 3486   1.439   2.559  14.852 -0.4942  0.1664  0.1758
  229MPD1    H7 3487   1.521   2.530  14.999 -0.0858 -0.1783  0.2596
  230MPD1     C 3488   2.616   1.850  15.559  0.2278 -0.4413 -0.6247
  230MPD1    C1 3489   2.539   1.734  15.554 -0.2221 -0.6381  0.1266
  230MPD1    C2 3490   2.415   1.737  15.491  0.3131  0.3596  0.4721
  230MPD1    C3 3491   2.362   1.855  15.440  0.0884  0.3426  0.1627
  230MPD1    C4 3492   2.443   1.971  15.449  0.4047 -0.6224 -0.8489
  230MPD1    C5 3493   2.570   1.964  15.500 -0.9386  0.2055  0.9268
  230MPD1     H 3494   2.349   1.651  15.486  1.3733 -0.3610 -1.1869
  230MPD1    H1 3495   2.422   2.073  15.419 -0.5090 -0.4671  0.3051
  230MPD1    H2 3496   2.702   1.859  15.624  0.5716 -3.1877 -0.7029
  230MPD1    H3 3497   2.633   2.051  15.513 -2.3964  1.7262 -2.1602
  230MPD1     N 3498   2.239   1.852  15.367 -0.5695  0.1928  0.6804
  230MPD1    H5 3499   2.192   1.763  15.355 -2.2735  1.1639  0.1514
  230MPD1    N1 3500   2.584   1.620  15.629  0.0791 -0.2622 -0.4439
  230MPD1    H6 3501   2.537   1.538  15.590 -1.4476 -0.6997  2.2791
  230MPD1    H7 3502   2.685   1.614  15.629  0.2105  1.8341  2.2426
  231MPD1     C 3503   0.584   0.157  15.326  0.1660 -0.1248 -0.5241
  231MPD1    C1 3504   0.475   0.078  15.316  0.0532  1.0307  0.0988
  231MPD1    C2 3505   0.425   0.055  15.189 -0.0903  0.4781 -0.2834
  231MPD1    C3 3506   0.472   0.127  15.082  0.2994 -0.2542 -0.1827
  231MPD1    C4 3507   0.574   0.219  15.090  0.2365  0.7577 -0.1610
  231MPD1    C5 3508   0.640   0.215  15.214 -0.4531  0.3270 -0.6181
  231MPD1     H 3509   0.335   4.723  15.182 -0.9686  1.8060 -0.2376
  231MPD1    H1 3510   0.626   0.273  15.011  0.5987 -0.4198 -0.7324
  231MPD1    H2 3511   0.629   0.182  15.422 -0.0683  2.8134 -1.1740
  231MPD1    H3 3512   0.730   0.276  15.219 -0.2218 -0.1444  0.8452
  231MPD1     N 3513   0.402   0.111  14.960  0.6340  0.0631  0.2356
  231MPD1    H5 3514   0.319   0.053  14.956  1.3765 -0.9296 -0.5876
  231MPD1    N1 3515   0.429   0.001  15.423 -0.0412 -0.4613 -0.0911
  231MPD1    H6 3516   0.329   4.718  15.410 -0.2043  4.0015 -2.2431
  231MPD1    H7 3517   0.456   0.044  15.511 -0.9818 -0.2495  0.0849
  232MPD1     C 3518   2.349   1.629   0.181 -0.6421 -0.2861  0.2876
  232MPD1    C1 3519   2.330   1.601   0.046  0.5181  0.6231 -0.5591
  232MPD1    C2 3520   2.203   1.550   0.017  0.6817 -0.0106  0.0741
  232MPD1    C3 3521   2.102   1.540   0.119 -0.0495  0.6761  0.3371
  232MPD1    C4 3522   2.134   1.566   0.250 -0.3506 -0.8515 -0.2019
  232MPD1    C5 3523   2.260   1.606   0.282 -0.3513 -0.1848  0.1417
  232MPD1     H 3524   2.169   1.544  17.626 -1.6726  1.9594  0.7553
  232MPD1    H1 3525   2.062   1.572   0.330 -0.6764  0.7663 -0.5995
  232MPD1    H2 3526   2.451   1.643   0.213 -0.0343  1.8340 -2.5865
  232MPD1    H3 3527   2.279   1.641   0.383 -1.1311  0.9079 -0.0784
  232MPD1     N 3528   1.979   1.503   0.071  0.4599  0.2460 -0.1791
  232MPD1    H5 3529   1.965   1.480  17.685 -0.9537  0.3127  0.0078
  232MPD1    N1 3530   2.435   1.612  17.670 -0.0197  0.2632 -0.2125
  232MPD1    H6 3531   2.510   1.673  17.701 -1.0784  0.6994  1.5207
  232MPD1    H7 3532   2.410   1.621  17.572 -1.9227  2.2015  0.4321
  233MPD1     C 3533   2.346   4.533   1.891 -0.5878 -0.1725 -0.0154
  233MPD1    C1 3534   2.375   4.545   1.754  0.3079  0.0914 -0.6363
  233MPD1    C2 3535   2.476   4.465   1.700 -0.0523  0.4259 -0.0131
  233MPD1    C3 3536   2.559   4.396   1.791 -0.3969  0.0586 -0.2102
  233MPD1    C4 3537   2.531   4.382   1.926  0.3264  0.2176 -0.1459
  233MPD1    C5 3538   2.421   4.445   1.971  0.3989  0.0899  0.3658
  233MPD1     H 3539   2.522   4.475   1.602 -0.6630 -0.1235 -0.3536
  233MPD1    H1 3540   2.595   4.322   1.990 -0.0906 -0.5944 -0.4997
  233MPD1    H2 3541   2.265   4.583   1.943  0.5093  0.4622  1.0955
  233MPD1    H3 3542   2.397   4.421   2.074  0.2272  0.7756  0.4860
  233MPD1     N 3543   2.678   4.326   1.755 -0.4135  0.4416  0.2749
  233MPD1    H5 3544   2.720   4.266   1.824 -0.4490  1.9742  1.6312
  233MPD1    N1 3545   2.273   4.617   1.678  0.7316  0.6754 -0.3211
  233MPD1    H6 3546   2.323   4.671   1.608 -0.4891  1.9312 -0.2023
  233MPD1    H7 3547   2.242   4.691   1.740  0.9187 -0.4627  1.1255
  234MPD1     C 3548   0.274   2.360  10.789  0.5930  0.0974  0.0893
  234MPD1    C1 3549   0.339   2.350  10.668 -0.3346  0.2925  0.4042
  234MPD1    C2 3550   0.306   2.438  10.568 -0.3163  0.5856 -0.0922
  234MPD1    C3 3551   0.208   2.529  10.583 -0.5586  0.0460 -0.2645
  234MPD1    C4 3552   0.138   2.532  10.700  0.7883  0.0678 -0.2175
  234MPD1    C5 3553   0.170   2.445  10.801  0.3834  0.8011 -0.5345
  234MPD1     H 3554   0.349   2.417  10.471  0.8321  2.3503  0.0320
  234MPD1    H1 3555   0.062   2.608  10.718 -1.0673 -1.3194 -2.2328
  234MPD1    H2 3556   0.305   2.300  10.874 -2.2789  0.1357  1.1800
  234MPD1    H3 3557   0.114   2.455  10.893 -2.2561 -0.0363 -2.0115
  234MPD1     N 3558   0.198   2.626  10.477  0.9321 -0.2659 -0.3085
  234MPD1    H5 3559   0.254   2.618  10.393 -0.7402  1.8896 -1.6279
  234MPD1    N1 3560   0.459   2.279  10.660  0.4082  0.0836 -0.3221
  234MPD1    H6 3561   0.450   2.188  10.705 -0.7242  1.1024  1.4795
  234MPD1    H7 3562   0.488   2.264  10.564 -2.9791 -0.5084 -1.2378
  235MPD1     C 3563   1.539   1.219   9.956  0.3493 -0.3634 -0.7248
  235MPD1    C1 3564   1.515   1.319   9.869 -0.7848  0.3798 -0.3406
  235MPD1    C2 3565   1.413   1.313   9.782  0.3238 -0.7637 -0.1798
  235MPD1    C3 3566   1.315   1.218   9.794  0.1890 -0.1484  0.3296
  235MPD1    C4 3567   1.335   1.117   9.889 -0.2088 -1.1077 -0.1594
  235MPD1    C5 3568   1.448   1.119   9.963  0.1903 -0.4913 -0.3048
  235MPD1     H 3569   1.402   1.392   9.709  0.4665 -0.4076  0.1865
  235MPD1    H1 3570   1.262   1.038   9.896 -0.9584 -0.1341  3.2455
  235MPD1    H2 3571   1.632   1.209  10.010  1.1196 -0.1790 -2.0105
  235MPD1    H3 3572   1.471   1.025  10.012  2.5884 -0.9887 -2.3834
  235MPD1     N 3573   1.205   1.214   9.703 -0.1995 -0.5158 -0.5962
  235MPD1    H5 3574   1.200   1.296   9.643 -0.1063 -1.2269 -1.5763
  235MPD1    N1 3575   1.621   1.408   9.840 -0.1174 -0.2641  0.0798
  235MPD1    H6 3576   1.584   1.498   9.809 -0.2900  0.0401  1.1373
  235MPD1    H7 3577   1.666   1.430   9.929 -0.6226  0.0808  0.2516
  236MPD1     C 3578   0.361   2.295   9.643 -0.5777 -0.6914 -0.6859
  236MPD1    C1 3579   0.350   2.168   9.701 -0.3359  0.0266 -0.5567
  236MPD1    C2 3580   0.435   2.136   9.807 -0.2548 -0.3942  0.2038
  236MPD1    C3 3581   0.531   2.225   9.842  0.1908  0.3030 -0.2070
  236MPD1    C4 3582   0.536   2.358   9.789 -0.7444  0.1502 -0.0807
  236MPD1    C5 3583   0.440   2.390   9.690  0.2871  0.6785 -0.3740
  236MPD1     H 3584   0.424   2.037   9.850 -0.6962 -1.4685 -2.4054
  236MPD1    H1 3585   0.612   2.428   9.823 -1.1083  1.2847 -1.6271
  236MPD1    H2 3586   0.304   2.307   9.552 -1.2857  0.5866 -0.0725
  236MPD1    H3 3587   0.439   2.479   9.628 -2.3942  0.9362  0.0409
  236MPD1     N 3588   0.639   2.195   9.931  0.1471 -0.0787 -0.0000
  236MPD1    H5 3589   0.693   2.275   9.962 -1.1682  0.6998  0.2716
  236MPD1    N1 3590   0.245   2.077   9.654  0.6180 -0.4622  0.3634
  236MPD1    H6 3591   0.228   1.991   9.705 -0.8775 -0.0744  0.5182
  236MPD1    H7 3592   0.232   2.061   9.554  1.0685 -2.2489  0.5928
  237MPD1     C 3593   0.493   1.429  14.775  0.0760  0.2929  1.3576
  237MPD1    C1 3594   0.405   1.450  14.878 -0.5819  0.0654 -0.0996
  237MPD1    C2 3595   0.338   1.343  14.931 -0.1675 -0.4879  0.7184
  237MPD1    C3 3596   0.351   1.212  14.888  0.7160  0.1302  0.4825
  237MPD1    C4 3597   0.437   1.189  14.780 -0.1073  0.0323  0.4357
  237MPD1    C5 3598   0.506   1.301  14.730  0.3098 -0.2144 -0.1498
  237MPD1     H 3599   0.272   1.368  15.013 -0.7568 -1.5992  0.5843
  237MPD1    H1 3600   0.449   1.085  14.752 -0.8060  0.2005 -0.4866
  237MPD1    H2 3601   0.557   1.507  14.735  0.1822 -0.6055 -0.2130
  237MPD1    H3 3602   0.582   1.282  14.655  0.3233  0.8557 -0.4021
  237MPD1     N 3603   0.279   1.105  14.945 -0.7134 -0.1364 -0.5846
  237MPD1    H5 3604   0.280   1.013  14.902 -1.9057  0.7589 -2.5499
  237MPD1    N1 3605   0.368   1.575  14.924 -0.6601  0.8475  0.1802
  237MPD1    H6 3606   0.343   1.568  15.023  1.9588 -1.8544  0.6709
  237MPD1    H7 3607   0.450   1.635  14.920  0.2458 -0.4300 -0.3099
  238MPD1     C 3608   1.621   4.491  15.918 -0.1991  0.6672 -0.1077
  238MPD1    C1 3609   1.699   4.394  15.852 -0.1096  0.2466  0.5629
  238MPD1    C2 3610   1.672   4.368  15.719  1.0581  0.5812 -0.0774
  238MPD1    C3 3611   1.567   4.427  15.652 -0.1669  0.5608  0.1994
  238MPD1    C4 3612   1.490   4.518  15.718 -0.4216 -0.3590 -0.0277
  238MPD1    C5 3613   1.518   4.553  15.846  0.3186  0.2608  0.5014
  238MPD1     H 3614   1.738   4.300  15.666 -0.8523 -0.5167 -1.0165
  238MPD1    H1 3615   1.398   4.554  15.675 -0.7711 -1.2704 -0.0470
  238MPD1    H2 3616   1.630   4.513  16.024 -1.3692 -0.1182  0.1626
  238MPD1    H3 3617   1.453   4.625  15.894  0.1489  0.3394  0.1496
  238MPD1     N 3618   1.531   4.397  15.516  0.9283 -0.9786 -0.0064
  238MPD1    H5 3619   1.444   4.437  15.482  1.8624  0.4351 -0.7299
  238MPD1    N1 3620   1.814   4.335  15.923  0.1532  0.5781  0.2620
  238MPD1    H6 3621   1.819   4.234  15.907  0.3482  0.4536  1.1135
  238MPD1    H7 3622   1.805   4.353  16.022 -0.7606  0.5900  0.1790
  239MPD1     C 3623   2.147   0.093  14.957 -0.1064  0.1170 -0.5695
  239MPD1    C1 3624   2.279   0.100  14.905 -0.2027 -0.1857  0.2745
  239MPD1    C2 3625   2.287   0.145  14.774 -0.4403  0.2312 -0.5571
  239MPD1    C3 3626   2.167   0.173  14.703  0.2811  0.2482 -0.3357
  239MPD1    C4 3627   2.044   0.150  14.761  0.2792 -0.7313 -0.5080
  239MPD1    C5 3628   2.035   0.106  14.889 -0.2592 -0.9785 -0.0972
  239MPD1     H 3629   2.385   0.169  14.734  0.4615  0.2639  1.6678
  239MPD1    H1 3630   1.955   0.177  14.706  0.4935  0.1761 -0.4006
  239MPD1    H2 3631   2.132   0.047  15.054  0.6505  0.5133 -0.2644
  239MPD1    H3 3632   1.939   0.102  14.939  0.0283  0.0991  0.5360
  239MPD1     N 3633   2.159   0.230  14.569 -0.4255 -0.3033 -0.3172
  239MPD1    H5 3634   2.066   0.241  14.531 -0.6212  0.4323  0.3760
  239MPD1    N1 3635   2.394   0.087  14.993  0.6442 -0.2229 -0.4208
  239MPD1    H6 3636   2.384   0.012  15.061  0.8297 -0.9894 -1.2435
  239MPD1    H7 3637   2.476   0.063  14.937 -0.2810 -1.7304 -1.1274
  240MPD1     C 3638   1.518   4.443  13.193  0.1931 -0.0046  0.4593
  240MPD1    C1 3639   1.424   4.522  13.252  1.2048  0.1824  0.6798
  240MPD1    C2 3640   1.439   4.554  13.390  0.4015 -0.6481  0.1802
  240MPD1    C3 3641   1.551   4.515  13.462 -0.3904 -0.0760  0.0314
  240MPD1    C4 3642   1.645   4.434  13.399  0.4633  0.1737  0.3941
  240MPD1    C5 3643   1.634   4.418  13.261 -0.6336  0.4020  0.4061
  240MPD1     H 3644   1.373   4.617  13.449  1.3311 -1.5873  2.2292
  240MPD1    H1 3645   1.733   4.400  13.452 -0.3598  0.7231  2.0929
  240MPD1    H2 3646   1.508   4.399  13.094  1.9220 -2.8627  1.5750
  240MPD1    H3 3647   1.693   4.335  13.223 -0.1827 -0.2613  2.5421
  240MPD1     N 3648   1.557   4.554  13.600  0.0422 -0.5065  0.5844
  240MPD1    H5 3649   1.482   4.615  13.629 -3.0668 -4.7478  1.3607
  240MPD1    N1 3650   1.301   4.539  13.194  0.5660 -0.1638  0.1967
  240MPD1    H6 3651   1.312   4.535  13.093  0.6403 -1.0424  0.2382
  240MPD1    H7 3652   1.267   4.632  13.217  0.2747 -0.1258 -0.3901
  241MPD1     C 3653   2.028   4.530  14.604  0.0764 -0.1080  0.5184
  241MPD1    C1 3654   2.080   4.470  14.489  0.9337 -0.1343 -0.3397
  241MPD1    C2 3655   1.998   4.469  14.373  0.5215 -0.3886 -0.0475
  241MPD1    C3 3656   1.861   4.508  14.380  0.7104 -0.3266  0.8961
  241MPD1    C4 3657   1.814   4.570  14.495  0.0903  0.7265 -0.1582
  241MPD1    C5 3658   1.899   4.570  14.605  0.0102 -0.2202  0.2969
  241MPD1     H 3659   2.034   4.420  14.284  2.4110  0.9907 -0.0484
  241MPD1    H1 3660   1.716   4.615  14.502  0.6238  1.7773  0.5790
  241MPD1    H2 3661   2.085   4.526  14.696 -0.4934  2.6122  0.9743
  241MPD1    H3 3662   1.859   4.621  14.692  0.1537  1.2117 -0.4767
  241MPD1     N 3663   1.770   4.509  14.271 -0.3258  0.8713  0.2207
  241MPD1    H5 3664   1.680   4.555  14.280  0.9584  3.0615  2.0306
  241MPD1    N1 3665   2.218   4.449  14.486  0.0094  0.1384  0.0678
  241MPD1    H6 3666   2.249   4.396  14.405  1.2002 -0.2268  0.7776
  241MPD1    H7 3667   2.265   4.413  14.568 -1.7801  0.8016  1.3852
  242MPD1     C 3668   2.074   3.156  15.364 -0.1059  0.2549  0.6816
  242MPD1    C1 3669   1.994   3.189  15.255 -0.3254  0.2451 -0.4522
  242MPD1    C2 3670   1.966   3.098  15.164  0.7675  0.2357  0.4908
  242MPD1    C3 3671   2.010   2.967  15.180 -0.1547 -0.0622  0.0508
  242MPD1    C4 3672   2.086   2.937  15.287  1.1861 -0.2061  0.7840
  242MPD1    C5 3673   2.115   3.030  15.387  0.2871 -0.5541  0.1935
  242MPD1     H 3674   1.906   3.139  15.083  0.8177 -0.9908 -0.1691
  242MPD1    H1 3675   2.125   2.836  15.294  1.2893 -0.2795 -1.0583
  242MPD1    H2 3676   2.122   3.235  15.421  0.3457  0.8370 -0.4978
  242MPD1    H3 3677   2.191   3.007  15.460 -0.4477 -0.2983  1.0406
  242MPD1     N 3678   1.985   2.865  15.081 -0.0578 -0.3023  0.2083
  242MPD1    H5 3679   2.035   2.779  15.098 -0.9196 -0.8678 -0.0932
  242MPD1    N1 3680   1.959   3.322  15.237 -0.3834 -0.7689  0.0069
  242MPD1    H6 3681   1.959   3.369  15.327 -0.3287 -1.2766  0.2676
  242MPD1    H7 3682   1.864   3.328  15.203  0.1705 -0.4502 -1.5000
  243MPD1     C 3683   2.921   0.839  17.213 -0.7175  0.0751  0.5536
  243MPD1    C1 3684   2.888   0.950  17.285  0.0030 -0.2034 -0.0106
  243MPD1    C2 3685   2.915   1.073  17.225  0.1310 -0.6285  0.4420
  243MPD1    C3 3686   2.975   1.080  17.103 -0.3151  0.3111 -1.2981
  243MPD1    C4 3687   3.015   0.960  17.038  0.5448 -0.2336 -0.0940
  243MPD1    C5 3688   2.981   0.842  17.094 -0.0143 -0.2185 -0.4322
  243MPD1     H 3689   2.871   1.162  17.267 -0.2239  0.8500 -3.0516
  243MPD1    H1 3690   3.070   0.949  16.945 -1.9346  1.9935 -1.8176
  243MPD1    H2 3691   2.894   0.741  17.251 -1.0292  1.1179  3.0149
  243MPD1    H3 3692   3.005   0.755  17.035 -1.7485 -0.0927 -1.3154
  243MPD1     N 3693   2.996   1.206  17.043 -0.0263 -0.2285  0.7762
  243MPD1    H5 3694   2.932   1.280  17.068  1.6116  0.9130  1.5767
  243MPD1    N1 3695   2.813   0.949  17.404  0.4854 -0.0080  0.7313
  243MPD1    H6 3696   2.836   0.866  17.457 -0.2990 -1.1952 -0.7895
  243MPD1    H7 3697   2.838   1.031  17.458  0.0789  0.6865 -0.1231
  244MPD1     C 3698   2.692   1.921  17.329  0.0919 -0.5398  0.0725
  244MPD1    C1 3699   2.716   1.787  17.359 -0.4347 -0.4699  0.6844
  244MPD1    C2 3700   2.754   1.706  17.253  0.3538 -0.3623 -0.6350
  244MPD1    C3 3701   2.787   1.746  17.128  0.2042 -0.2392 -0.2982
  244MPD1    C4 3702   2.777   1.881  17.110  1.0201 -0.5132  0.4488
  244MPD1    C5 3703   2.730   1.968  17.203 -0.0155 -0.9465  0.1484
  244MPD1     H 3704   2.753   1.599  17.270  1.4570 -0.2241  0.2456
  244MPD1    H1 3705   2.808   1.927  17.016  1.2974 -2.2346 -0.2933
  244MPD1    H2 3706   2.651   1.994  17.397 -1.6027 -1.5128  0.0998
  244MPD1    H3 3707   2.724   2.075  17.186  0.0550 -1.1014 -0.8555
  244MPD1     N 3708   2.825   1.651  17.030  0.4683  0.1675  0.5698
  244MPD1    H5 3709   2.813   1.551  17.046  1.2304 -0.0197 -0.0403
  244MPD1    N1 3710   2.664   1.734  17.481 -0.5332  0.1982 -0.4443
  244MPD1    H6 3711   2.712   1.653  17.519 -1.0787  0.1419  0.1392
  244MPD1    H7 3712   2.666   1.806  17.552 -0.8192  0.0101 -0.2442
  245MPD1     C 3713   4.620   2.070  13.011  0.4089 -0.2446  0.4733
  245MPD1    C1 3714   4.687   2.176  12.949  0.5305  0.4415  0.1036
  245MPD1    C2 3715   0.009   2.279  13.021 -0.2370  0.3693 -0.6958
  245MPD1    C3 3716   4.727   2.280  13.164  0.1116  0.3337 -0.6826
  245MPD1    C4 3717   4.660   2.178  13.223 -1.2377 -0.6982  0.0165
  245MPD1    C5 3718   4.602   2.076  13.151  0.4892 -0.1101 -0.0088
  245MPD1     H 3719   0.067   2.351  12.964  1.5027  1.0044  1.8342
  245MPD1    H1 3720   4.653   2.178  13.331  0.8497  0.2517  0.1608
  245MPD1    H2 3721   4.592   1.973  12.970  1.1735 -0.0483 -0.5094
  245MPD1    H3 3722   4.560   1.989  13.200 -1.1906  0.5043 -0.3478
  245MPD1     N 3723   0.053   2.379  13.240  0.0522  0.0957  0.0912
  245MPD1    H5 3724   0.093   2.453  13.184  0.4824  1.7592  2.5900
  245MPD1    N1 3725   4.693   2.166  12.812  0.2035  0.4113 -0.4825
  245MPD1    H6 3726   4.719   2.250  12.760  2.0152 -0.3701 -0.8473
  245MPD1    H7 3727   4.602   2.143  12.772  0.0894  0.7731 -0.4328
  246MPD1     C 3728   0.621   4.185   9.208  0.2777  0.1427  0.1053
  246MPD1    C1 3729   0.529   4.111   9.134 -0.3788  0.9172  0.3424
  246MPD1    C2 3730   0.560   3.990   9.086  0.3505 -0.4711  0.3128
  246MPD1    C3 3731   0.662   3.913   9.136 -0.6746  0.1734  0.6353
  246MPD1    C4 3732   0.743   3.976   9.232 -0.1014  0.5807  0.1529
  246MPD1    C5 3733   0.729   4.110   9.257 -0.3149 -0.5328  0.0282
  246MPD1     H 3734   0.502   3.954   9.002  0.2085 -1.1694  0.7079
  246MPD1    H1 3735   0.834   3.931   9.272  0.2942  2.3818  1.2967
  246MPD1    H2 3736   0.606   4.290   9.233  0.9485  0.3497 -0.3605
  246MPD1    H3 3737   0.798   4.167   9.319 -0.7664 -0.6660  0.6562
  246MPD1     N 3738   0.680   3.777   9.088  0.2100 -0.0471 -0.2112
  246MPD1    H5 3739   0.618   3.742   9.016 -1.2305 -0.2680  1.1238
  246MPD1    N1 3740   0.424   4.184   9.073 -0.0770  0.0919  0.0454
  246MPD1    H6 3741   0.342   4.123   9.066 -0.2832  0.4631 -0.7715
  246MPD1    H7 3742   0.394   4.261   9.133  0.9407 -1.1119  2.1071
  247MPD1     C 3743   4.162   2.673  16.844 -0.3788 -0.1215  0.1933
  247MPD1    C1 3744   4.275   2.674  16.770 -0.7508  0.5196  0.8283
  247MPD1    C2 3745   4.261   2.647  16.637  0.7254  0.5222 -0.0919
  247MPD1    C3 3746   4.145   2.584  16.585  0.4485 -0.4509  0.3983
  247MPD1    C4 3747   4.041   2.557  16.669  0.0019 -0.1591 -0.1605
  247MPD1    C5 3748   4.049   2.608  16.792 -0.1445 -0.2003 -0.5219
  247MPD1     H 3749   4.348   2.646  16.574  0.7315 -0.2952 -0.0684
  247MPD1    H1 3750   3.948   2.506  16.649  0.5428 -1.4970  0.6940
  247MPD1    H2 3751   4.173   2.701  16.948  0.3148 -0.0240  0.0941
  247MPD1    H3 3752   3.963   2.597  16.858 -0.8907 -0.3587 -1.5211
  247MPD1     N 3753   4.129   2.550  16.446  0.0697  0.5375  0.1745
  247MPD1    H5 3754   4.049   2.491  16.424  0.5408 -0.7350  1.8559
  247MPD1    N1 3755   4.391   2.737  16.818 -0.1651 -0.1140 -0.5696
  247MPD1    H6 3756   4.414   2.720  16.916 -1.4662  0.1216 -0.2187
  247MPD1    H7 3757   4.471   2.705  16.765 -0.8499 -3.0245  0.1395
  248MPD1     C 3758   1.298   0.908  17.418  0.0901 -0.6890 -0.1632
  248MPD1    C1 3759   1.221   1.011  17.467  0.9343  0.0230 -0.1453
  248MPD1    C2 3760   1.190   1.116  17.386 -0.7262  0.7015  0.0264
  248MPD1    C3 3761   1.246   1.124  17.261 -0.2407 -0.3856  0.5909
  248MPD1    C4 3762   1.327   1.020  17.214 -0.7005 -0.4320 -0.5847
  248MPD1    C5 3763   1.347   0.912  17.292  0.6539  0.2082 -0.0199
  248MPD1     H 3764   1.113   1.184  17.419  0.0646  1.2498  0.7471
  248MPD1    H1 3765   1.373   1.014  17.116 -0.7021  2.2048 -0.7487
  248MPD1    H2 3766   1.314   0.826  17.487 -5.8001 -4.2801 -3.0091
  248MPD1    H3 3767   1.404   0.830  17.249 -1.7150 -1.2186 -0.4389
  248MPD1     N 3768   1.217   1.239  17.179  0.2830  0.6765  0.1395
  248MPD1    H5 3769   1.150   1.298  17.226 -1.1452 -0.9402  0.1325
  248MPD1    N1 3770   1.146   0.999  17.593  0.2103 -0.3837 -0.3758
  248MPD1    H6 3771   1.200   0.957  17.668 -2.1026  0.4380  1.7591
  248MPD1    H7 3772   1.111   1.093  17.614 -1.0948 -0.8122 -0.6420
  249MPD1     C 3773   1.666   4.458   9.853 -0.2666  0.0728 -0.0698
  249MPD1    C1 3774   1.666   4.500   9.726 -0.2365  0.1241  0.4666
  249MPD1    C2 3775   1.707   4.631   9.703  0.5686 -0.3106  0.6464
  249MPD1    C3 3776   1.773   4.706   9.794 -0.0905 -0.0573 -0.0587
  249MPD1    C4 3777   1.784   4.651   9.918 -0.1538 -0.4993  0.3735
  249MPD1    C5 3778   1.736   4.530   9.948  0.5426 -0.1843 -0.0702
  249MPD1     H 3779   1.694   4.670   9.603  1.2279  2.3238  1.6082
  249MPD1    H1 3780   1.837   4.697  10.001 -2.0385  2.7258 -0.1916
  249MPD1    H2 3781   1.636   4.355   9.871  1.1013  0.1077  2.4988
  249MPD1    H3 3782   1.737   4.490  10.048 -1.4347 -1.8784 -0.7176
  249MPD1     N 3783   1.844   0.093   9.746 -0.0761  0.0611 -0.4130
  249MPD1    H5 3784   1.826   0.105   9.647 -0.9523 -0.3089 -0.3021
  249MPD1    N1 3785   1.587   4.425   9.630 -0.2216  0.0972  0.3462
  249MPD1    H6 3786   1.620   4.453   9.538  1.6923  2.0003  1.5979
  249MPD1    H7 3787   1.593   4.324   9.636  1.6574  0.0249 -2.8067
  250MPD2     C 3788   2.867   0.935  12.354  0.3211  0.0197  0.6933
  250MPD2    C1 3789   2.983   0.867  12.377  0.6221 -0.0533  0.3128
  250MPD2    C2 3790   3.004   0.749  12.317  0.3852 -0.4957 -0.0737
  250MPD2    C3 3791   2.908   0.693  12.233 -0.3343  0.7049 -0.0466
  250MPD2    C4 3792   2.792   0.764  12.223  0.1406 -1.0848  0.1198
  250MPD2    C5 3793   2.769   0.876  12.282  0.0880 -0.7078 -0.2522
  250MPD2     H 3794   3.098   0.698  12.335  2.4734  4.0419  1.8970
  250MPD2    H1 3795   2.707   0.727  12.168  0.1590  0.6392 -1.0765
  250MPD2    H2 3796   2.842   1.027  12.405  1.4124  0.2726  0.7833
  250MPD2    H3 3797   2.678   0.934  12.267 -0.9188 -2.1884  0.0983
  250MPD2     N 3798   2.921   0.574  12.156 -0.2708  0.0171 -0.3722
  250MPD2    H5 3799   2.835   0.541  12.113 -0.5212 -2.3589  1.9235
  250MPD2    N1 3800   3.079   0.943  12.447  0.5034  0.2674  0.0996
  250MPD2    H7 3801   3.053   1.037  12.476 -0.5956  0.3386 -1.0839
  251TMC3    C1 3802   3.299   1.020  12.507 -0.6142 -1.0027 -0.4498
  251TMC3    C2 3803   3.244   1.084  12.613 -0.8419 -0.3939  0.0962
  251TMC3    C3 3804   3.333   1.168  12.675 -0.6000 -0.1737 -0.2925
  251TMC3    C4 3805   3.426   1.034  12.461 -0.0292 -0.5175 -0.8152
  251TMC3    C5 3806   3.516   1.110  12.533 -0.6337 -0.4038 -0.3239
  251TMC3    C6 3807   3.469   1.177  12.643 -0.6435  1.0734 -0.0394
  251TMC3     C 3808   3.211   0.908  12.454  0.1191 -0.2142  0.0723
  251TMC3     O 3809   3.269   0.810  12.408 -0.2532  0.3107  0.6182
  251TMC3     H 3810   3.145   1.071  12.654  0.0638 -0.4336  2.2867
  251TMC3    H1 3811   3.457   0.970  12.379  2.7242  1.3821 -1.2656
  251TMC3    H2 3812   3.539   1.239  12.698  0.8797 -0.0860 -0.6643
  251TMC3    C7 3813   3.640   1.038  12.554 -0.4568  0.4535  0.1531
  251TMC3    C8 3814   3.275   1.245  12.785  0.1547 -0.0561 -0.5028
  251TMC3    O1 3815   3.646   0.920  12.520  0.2439  0.0558 -0.5939
  251TMC3    O2 3816   3.151   1.245  12.786  0.2880 -0.1976  0.4506
  252TMC3    C1 3817   0.415   0.683   9.495  0.2848  0.1032 -0.4287
  252TMC3    C2 3818   0.339   0.804   9.509 -0.8586 -0.4575 -0.0566
  252TMC3    C3 3819   0.207   0.794   9.487 -0.2621  0.0219 -0.0528
  252TMC3    C4 3820   0.355   0.569   9.455 -0.0036  0.1076 -0.4925
  252TMC3    C5 3821   0.224   0.571   9.419 -0.5800  0.2478  0.0747
  252TMC3    C6 3822   0.154   0.686   9.425  0.2633 -0.3146  0.8548
  252TMC3     C 3823   0.542   0.656   9.554  0.0955 -0.1529  0.1728
  252TMC3     O 3824   0.610   0.562   9.516 -0.4208  0.2411 -0.0731
  252TMC3     H 3825   0.387   0.899   9.525 -2.1597  0.0774  0.7028
  252TMC3    H1 3826   0.407   0.475   9.463 -0.0065  0.0718 -0.9305
  252TMC3    H2 3827   0.054   0.687   9.382  0.5378  0.4773  0.2111
  252TMC3    C7 3828   0.170   0.463   9.345  0.4349 -0.6996 -0.7404
  252TMC3    C8 3829   0.130   0.916   9.468  0.1784  0.6863  0.0125
  252TMC3    O1 3830   0.246   0.391   9.288 -0.0944  0.3235  0.2312
  252TMC3    O2 3831   0.039   0.912   9.381 -0.5478  0.3128 -0.0022
  253MPD2     C 3832   4.443   1.502  15.975 -0.0833 -0.1045  0.5393
  253MPD2    C1 3833   4.385   1.407  15.897 -0.1064 -0.7002 -0.5792
  253MPD2    C2 3834   4.402   1.272  15.925  0.6261 -0.2357  0.4767
  253MPD2    C3 3835   4.477   1.231  16.029 -0.0558 -0.3096 -0.1202
  253MPD2    C4 3836   4.513   1.325  16.120  0.0964 -0.7630  0.4181
  253MPD2    C5 3837   4.508   1.461  16.088 -0.2067  0.4293  0.1056
  253MPD2     H 3838   4.351   1.202  15.859 -1.2564  1.6891 -0.1202
  253MPD2    H1 3839   4.565   1.303  16.213  0.0161  0.3266  0.7276
  253MPD2    H2 3840   4.447   1.607  15.950  0.1510 -0.0648  0.7402
  253MPD2    H3 3841   4.564   1.533  16.147 -0.1446  0.6532 -0.2236
  253MPD2     N 3842   4.506   1.097  16.060  0.5644 -0.3223 -0.1568
  253MPD2    H5 3843   4.533   1.074  16.155  1.9629  1.9627 -0.0153
  253MPD2    N1 3844   4.301   1.443  15.791 -0.3885  0.4231  0.9079
  253MPD2    H7 3845   4.259   1.364  15.743  5.2396 -2.0780  0.0105
  254TMC3    C1 3846   4.476   0.863  16.061  0.3823  0.6600  0.1568
  254TMC3    C2 3847   4.366   0.786  16.033 -0.1036 -0.8606  0.6979
  254TMC3    C3 3848   4.339   0.684  16.119  0.6180 -0.0797 -0.9564
  254TMC3    C4 3849   4.568   0.832  16.156  0.6681 -0.1417 -0.1351
  254TMC3    C5 3850   4.545   0.717  16.232  0.4749 -0.6206  1.0371
  254TMC3    C6 3851   4.425   0.647  16.219  0.2419  0.1400  0.2276
  254TMC3     C 3852   4.474   0.989  15.985 -0.6282  0.1934 -0.4458
  254TMC3     O 3853   4.427   0.980  15.870 -0.4142 -0.0459  0.5272
  254TMC3     H 3854   4.294   0.831  15.966  2.9047  0.5136 -1.6559
  254TMC3    H1 3855   4.664   0.881  16.145 -0.3470  2.5088  2.7782
  254TMC3    H2 3856   4.397   0.554  16.266 -0.0706 -0.4149 -1.0722
  254TMC3    C7 3857   4.622   0.690  16.356 -0.2578  0.1383 -0.0207
  254TMC3    C8 3858   4.201   0.651  16.142  0.8465  0.2454  0.1772
  254TMC3    O1 3859   4.588   0.605  16.435 -0.2933 -0.6023  0.3826
  254TMC3    O2 3860   4.162   0.628  16.257 -0.2272  0.1047  0.1375
  255MPD2     C 3861   3.121   3.056  10.376  0.0156 -0.6971 -0.0337
  255MPD2    C1 3862   3.157   3.149  10.276  0.2336 -0.5335 -0.3858
  255MPD2    C2 3863   3.268   3.126  10.206  0.3971 -0.0157 -0.0101
  255MPD2    C3 3864   3.352   3.024  10.234  0.2007  0.3373 -0.1272
  255MPD2    C4 3865   3.318   2.938  10.338 -0.6900  0.3802  0.1218
  255MPD2    C5 3866   3.199   2.952  10.407  0.3579  0.1309  0.0854
  255MPD2     H 3867   3.301   3.195  10.129 -2.6523  0.6313 -0.7704
  255MPD2    H1 3868   3.375   2.848  10.357 -0.7313  0.0090 -1.5120
  255MPD2    H2 3869   3.028   3.066  10.430  0.4838 -0.2893  0.6938
  255MPD2    H3 3870   3.167   2.886  10.486 -1.9453 -0.0686 -1.0145
  255MPD2     N 3871   3.470   3.022  10.160 -0.5424 -0.2903  0.4990
  255MPD2    H5 3872   3.493   3.103  10.104 -0.5304 -3.9632 -4.7959
  255MPD2    N1 3873   3.061   3.255  10.254  0.0902  1.0562 -0.2776
  255MPD2    H7 3874   2.984   3.242  10.319 -0.9028  0.8698 -1.4889
  256TMC3    C1 3875   2.933   3.392  10.114 -0.1923  0.1500  0.6683
  256TMC3    C2 3876   2.934   3.487  10.012 -0.1233 -0.0585 -0.0135
  256TMC3    C3 3877   2.817   3.520   9.954 -0.1326  0.1602  0.3788
  256TMC3    C4 3878   2.822   3.315  10.129  0.3888  0.0046 -0.7821
  256TMC3    C5 3879   2.706   3.354  10.063  0.2046 -0.4015  0.4979
  256TMC3    C6 3880   2.700   3.466   9.989 -0.0777  0.0663 -0.2379
  256TMC3     C 3881   3.066   3.341  10.150  0.2230  0.0122  0.3130
  256TMC3     O 3882   3.160   3.367  10.076 -0.4227 -0.0798  0.0935
  256TMC3     H 3883   3.027   3.532   9.980 -1.0182  2.0729  0.4081
  256TMC3    H1 3884   2.815   3.231  10.197  1.6109  1.5108  1.2172
  256TMC3    H2 3885   2.604   3.502   9.954 -1.8135 -3.6162  0.7447
  256TMC3    C7 3886   2.590   3.269  10.062 -0.2301 -0.3806  0.0300
  256TMC3    C8 3887   2.808   3.612   9.840 -0.6278  0.0175  0.5992
  256TMC3    O1 3888   2.593   3.190  10.158  0.6371  0.1704  0.3917
  256TMC3    O2 3889   2.698   3.658   9.820 -0.2787 -0.2873 -0.6126
  257MPD2     C 3890   2.238   0.790  12.853 -0.1556  0.3251  0.1363
  257MPD2    C1 3891   2.230   0.664  12.789  0.5137 -0.0976  0.1571
  257MPD2    C2 3892   2.204   0.550  12.865 -0.7331 -0.2216  0.2401
  257MPD2    C3 3893   2.189   0.556  12.999  0.7568  0.1640 -0.1105
  257MPD2    C4 3894   2.195   0.682  13.056 -0.0614 -0.4812 -0.2283
  257MPD2    C5 3895   2.216   0.795  12.985 -0.4993 -0.3877  0.2899
  257MPD2     H 3896   2.186   0.455  12.815 -1.7204  0.8121 -1.3683
  257MPD2    H1 3897   2.177   0.686  13.163 -1.7901  1.2682 -0.5861
  257MPD2    H2 3898   2.251   0.889  12.809  0.8324  0.5912  1.0325
  257MPD2    H3 3899   2.211   0.887  13.041 -1.2760 -0.5871  0.5494
  257MPD2     N 3900   2.148   0.440  13.064 -1.1691  0.1537  0.8206
  257MPD2    H5 3901   2.134   0.361  13.002  0.9330  0.9680 -0.7029
  257MPD2    N1 3902   2.251   0.665  12.650  0.0707  0.4728  0.5322
  257MPD2    H7 3903   2.286   0.753  12.613 -1.5739  0.5906 -0.7481
  258TMC3    C1 3904   2.068   0.299  13.240 -0.5990 -0.3966 -0.0666
  258TMC3    C2 3905   1.973   0.239  13.160 -0.2134  0.3716 -0.5739
  258TMC3    C3 3906   1.904   0.141  13.208  0.2418  0.5125 -0.5071
  258TMC3    C4 3907   2.097   0.257  13.372 -0.5394  0.2051 -0.5815
  258TMC3    C5 3908   2.012   0.162  13.416  0.7310  0.5165 -0.1306
  258TMC3    C6 3909   1.924   0.093  13.334  0.2988  0.1085 -0.1289
  258TMC3     C 3910   2.142   0.415  13.195  0.0422  0.3912  0.3319
  258TMC3     O 3911   2.188   0.477  13.288  0.1434  0.3464  0.2499
  258TMC3     H 3912   1.961   0.274  13.059  1.5448  2.0131 -0.2177
  258TMC3    H1 3913   2.180   0.303  13.424  0.2440  0.6352 -2.2231
  258TMC3    H2 3914   1.856   0.019  13.375  1.9257  0.3590  2.9724
  258TMC3    C7 3915   2.008   0.103  13.548 -0.0083  0.3857  0.2140
  258TMC3    C8 3916   1.803   0.070  13.125 -0.0824 -0.3778 -0.3008
  258TMC3    O1 3917   1.903   0.046  13.589  0.3746  0.1963 -0.5844
  258TMC3    O2 3918   1.783   4.682  13.155  0.1271 -0.6848  0.6976
  259MPD2     C 3919   1.169   2.809   0.623  0.2117  0.2667 -0.7423
  259MPD2    C1 3920   1.126   2.678   0.594 -1.0877  0.7999  0.5658
  259MPD2    C2 3921   1.198   2.608   0.502  0.6103 -0.0265 -0.5938
  259MPD2    C3 3922   1.292   2.667   0.417 -0.6424 -0.1109  0.3739
  259MPD2    C4 3923   1.318   2.799   0.433 -0.1835  0.2980  0.3457
  259MPD2    C5 3924   1.265   2.862   0.540 -0.3996 -0.3580 -0.1796
  259MPD2     H 3925   1.171   2.503   0.499 -0.8749  0.2809  2.3885
  259MPD2    H1 3926   1.371   2.863   0.363 -0.7913  1.6153  1.1114
  259MPD2    H2 3927   1.119   2.880   0.687 -1.1116 -0.2724 -1.1683
  259MPD2    H3 3928   1.303   2.961   0.565 -0.5420 -0.7363  1.5487
  259MPD2     N 3929   1.354   2.588   0.326  0.9488  0.1940 -0.4145
  259MPD2    H5 3930   1.333   2.488   0.329  0.4507  0.3435  0.8507
  259MPD2    N1 3931   1.030   2.625   0.689 -0.2363  0.0258 -0.4323
  259MPD2    H7 3932   1.004   2.684   0.767  0.5194 -1.4089  0.9203
  260TMC3    C1 3933   1.520   2.526   0.182 -0.4897  0.2577 -0.0044
  260TMC3    C2 3934   1.516   2.518   0.047 -0.1446 -0.0935  0.0194
  260TMC3    C3 3935   1.596   2.421  17.701  0.0514  0.1132 -0.2760
  260TMC3    C4 3936   1.599   2.444   0.263 -0.1791  0.7722  0.3564
  260TMC3    C5 3937   1.656   2.334   0.207  0.3366 -0.5503 -0.0318
  260TMC3    C6 3938   1.675   2.338   0.070 -0.3289  0.1251  0.5642
  260TMC3     C 3939   1.448   2.633   0.239 -0.1925 -0.1012 -0.6482
  260TMC3     O 3940   1.486   2.743   0.202 -0.0967  0.1952  0.0930
  260TMC3     H 3941   1.444   2.573  17.698 -0.6205 -0.0529  0.6219
  260TMC3    H1 3942   1.586   2.455   0.370 -2.4275 -2.7373  0.4486
  260TMC3    H2 3943   1.739   2.267   0.018 -1.0888 -1.2414  1.5136
  260TMC3    C7 3944   1.580   2.212   0.224 -0.1281 -0.9401  0.8931
  260TMC3    C8 3945   1.544   2.360  17.577  0.4485 -0.3019  0.0240
  260TMC3    O1 3946   1.592   2.126   0.137  0.1721 -0.0443 -0.5132
  260TMC3    O2 3947   1.510   2.436  17.487 -0.3059 -0.6250  0.4937
  261MPD2     C 3948   2.842   0.169  11.494 -0.1759 -0.4359 -0.3536
  261MPD2    C1 3949   2.879   0.292  11.544  0.0451 -0.4837 -0.0489
  261MPD2    C2 3950   2.864   0.402  11.464  0.2402  0.0637  0.0511
  261MPD2    C3 3951   2.838   0.389  11.328 -0.2066 -0.7747 -0.3753
  261MPD2    C4 3952   2.804   0.262  11.286  0.3903 -0.0902 -0.2542
  261MPD2    C5 3953   2.809   0.147  11.363 -0.3525  0.2109  0.6524
  261MPD2     H 3954   2.883   0.503  11.499  1.1078  0.4880 -1.6734
  261MPD2    H1 3955   2.782   0.255  11.180 -2.1062 -4.1092  0.5516
  261MPD2    H2 3956   2.847   0.075  11.549  0.5855 -0.2785 -0.1656
  261MPD2    H3 3957   2.788   0.047  11.327  0.3370 -0.7582  2.9542
  261MPD2     N 3958   2.833   0.502  11.249  0.5029 -0.3280  0.3631
  261MPD2    H5 3959   2.855   0.593  11.290 -0.2186  0.1256 -0.2677
  261MPD2    N1 3960   2.917   0.305  11.679 -0.1547  1.3038  0.0890
  261MPD2    H7 3961   2.913   0.396  11.724 -3.3145 -0.0010  2.4460
  262TMC3    C1 3962   2.812   0.636  11.067 -0.4055  0.2584  0.5219
  262TMC3    C2 3963   2.770   0.732  11.153 -0.7487 -0.3789 -0.6920
  262TMC3    C3 3964   2.754   0.857  11.102  0.1042 -0.3049 -0.6778
  262TMC3    C4 3965   2.849   0.647  10.941  0.8300 -0.0404  0.0781
  262TMC3    C5 3966   2.858   0.776  10.901 -0.2617 -0.0256 -0.3538
  262TMC3    C6 3967   2.806   0.878  10.975  0.0464  0.0774 -0.5049
  262TMC3     C 3968   2.817   0.503  11.114  0.8554  0.6159 -0.0267
  262TMC3     O 3969   2.829   0.414  11.031  0.0594  0.3111 -0.4204
  262TMC3     H 3970   2.730   0.714  11.252  0.7071 -0.6609 -0.1513
  262TMC3    H1 3971   2.896   0.568  10.883 -1.8194 -1.0089 -0.7567
  262TMC3    H2 3972   2.801   0.971  10.919  0.1353 -0.6368 -1.7108
  262TMC3    C7 3973   2.981   0.804  10.827 -0.2839  0.6602 -0.1269
  262TMC3    C8 3974   2.696   0.970  11.170  0.3455 -0.5539  0.5810
  262TMC3    O1 3975   3.024   0.722  10.742  0.3217  0.0242  0.2156
  262TMC3    O2 3976   2.696   1.077  11.109  0.8218 -0.5445 -0.2302
  263MPD2     C 3977   3.441   4.627  11.179 -0.0499  0.0461  0.0172
  263MPD2    C1 3978   3.565   4.676  11.155  0.2147 -0.1183  0.5848
  263MPD2    C2 3979   3.603   4.696  11.023  0.0306 -0.1415 -0.3818
  263MPD2    C3 3980   3.508   4.684  10.916 -0.0967 -0.0922  0.3213
  263MPD2    C4 3981   3.380   4.640  10.943 -0.9459 -0.7042  0.1877
  263MPD2    C5 3982   3.354   4.604  11.076 -0.2657  0.8086 -0.1339
  263MPD2     H 3983   3.701   0.008  10.998 -0.3133  1.5371  0.9655
  263MPD2    H1 3984   3.300   4.615  10.874 -0.1070  1.1582 -1.4556
  263MPD2    H2 3985   3.414   4.592  11.278 -3.3648  0.9254 -0.5958
  263MPD2    H3 3986   3.255   4.570  11.106 -0.7847  3.2290  0.9217
  263MPD2     N 3987   3.548   4.725  10.786  0.7151  0.0428  0.3421
  263MPD2    H5 3988   3.647   0.012  10.771  0.7466  0.0383  0.5575
  263MPD2    N1 3989   3.655   4.664  11.257 -0.7957  0.4165  0.3564
  263MPD2    H7 3990   3.617   4.644  11.349  0.9822  1.5393  1.3324
  264TMC3    C1 3991   3.545   0.079  10.564 -0.2042 -0.5466 -0.2782
  264TMC3    C2 3992   3.496   0.199  10.520 -0.4971 -0.0900 -0.3795
  264TMC3    C3 3993   3.575   0.269  10.433  0.2867  0.2214 -0.0253
  264TMC3    C4 3994   3.672   0.036  10.539  0.2569  0.3069 -0.1470
  264TMC3    C5 3995   3.742   0.098  10.441  0.1057  0.0784  0.6335
  264TMC3    C6 3996   3.697   0.215  10.400  0.1428 -0.0197 -0.3024
  264TMC3     C 3997   3.471   0.027  10.676 -0.1074  0.1620  0.1436
  264TMC3     O 3998   3.354   0.062  10.682  0.2545 -0.2892 -0.3119
  264TMC3     H 3999   3.395   0.231  10.539 -0.2250  0.5821 -0.0653
  264TMC3    H1 4000   3.702   4.667  10.577 -0.7396  0.4677  1.0468
  264TMC3    H2 4001   3.755   0.270  10.327 -0.5385  0.9255 -0.1401
  264TMC3    C7 4002   3.883   0.091  10.468 -0.4768  0.2695  0.1125
  264TMC3    C8 4003   3.595   0.406  10.482  0.5388  0.4297  0.0630
  264TMC3    O1 4004   3.940   4.712  10.449  0.0838 -0.5792 -0.5822
  264TMC3    O2 4005   3.714   0.438  10.492  0.0461 -0.4938  0.1640
  265MPD2     C 4006   0.543   0.741  14.974 -0.3723  0.1812 -0.3436
  265MPD2    C1 4007   0.656   0.819  14.961  0.4581 -0.1833 -0.5861
  265MPD2    C2 4008   0.774   0.760  14.919 -0.5335 -0.3474 -0.1495
  265MPD2    C3 4009   0.772   0.628  14.873 -0.8007 -0.7250 -0.1715
  265MPD2    C4 4010   0.655   0.558  14.881  0.1319 -0.1357 -1.0508
  265MPD2    C5 4011   0.545   0.613  14.932 -0.4935 -0.1039  1.3379
  265MPD2     H 4012   0.865   0.819  14.922 -1.4407  0.9068  2.4961
  265MPD2    H1 4013   0.647   0.456  14.846 -0.7529 -0.6469  0.6583
  265MPD2    H2 4014   0.447   0.786  14.996  0.0079  1.1199 -0.5604
  265MPD2    H3 4015   0.457   0.550  14.931 -0.0118 -0.7598  0.3246
  265MPD2     N 4016   0.885   0.555  14.839  0.0340  0.0169 -0.4723
  265MPD2    H5 4017   0.860   0.459  14.819 -2.0782  0.9034 -2.2403
  265MPD2    N1 4018   0.658   0.952  15.010  0.3362  0.0470 -0.4602
  265MPD2    H7 4019   0.747   1.001  15.003 -0.1252  1.1140  1.1855
  266TMC3    C1 4020   0.587   1.142  15.130  0.4989 -0.5968 -0.3666
  266TMC3    C2 4021   0.526   1.204  15.232  0.3466  0.2110 -0.0466
  266TMC3    C3 4022   0.538   1.337  15.244 -0.5620  0.3563  0.6692
  266TMC3    C4 4023   0.659   1.218  15.040 -0.6064  0.0432  0.4187
  266TMC3    C5 4024   0.675   1.351  15.060  0.1141 -0.3192 -0.3708
  266TMC3    C6 4025   0.604   1.420  15.155 -0.4953  0.2915 -1.1352
  266TMC3     C 4026   0.558   0.999  15.091  0.3200  0.4735  0.1359
  266TMC3     O 4027   0.465   0.944  15.149 -0.0756  0.9611  0.5497
  266TMC3     H 4028   0.468   1.153  15.309 -1.5567  0.8032 -1.0853
  266TMC3    H1 4029   0.706   1.179  14.950  0.8299 -1.6979  1.9257
  266TMC3    H2 4030   0.620   1.526  15.171  1.7301  0.2676 -3.1668
  266TMC3    C7 4031   0.764   1.434  14.971  0.5256 -0.0497 -0.1548
  266TMC3    C8 4032   0.443   1.408  15.336  0.3357  0.0654  0.9273
  266TMC3    O1 4033   0.755   1.555  14.980  0.0419 -0.7568  0.4171
  266TMC3    O2 4034   0.398   1.511  15.289  0.0517  0.1959  0.3305
  267MPD2     C 4035   3.279   1.785  17.404  0.0516  0.2655 -0.1062
  267MPD2    C1 4036   3.327   1.910  17.373  0.6514  0.0792  0.0492
  267MPD2    C2 4037   3.284   1.971  17.249  0.2158 -0.5717 -0.1164
  267MPD2    C3 4038   3.196   1.910  17.163 -0.5506 -0.0056 -0.8190
  267MPD2    C4 4039   3.147   1.785  17.203  0.7980  0.3300  0.0812
  267MPD2    C5 4040   3.186   1.727  17.320  0.0166  0.1498  0.5436
  267MPD2     H 4041   3.322   2.071  17.232 -1.6471  0.5386  2.2213
  267MPD2    H1 4042   3.080   1.724  17.143  1.7726 -1.1716  0.5042
  267MPD2    H2 4043   3.303   1.728  17.493 -3.1121 -0.7578  0.0793
  267MPD2    H3 4044   3.168   1.622  17.337  3.2207 -0.8277 -1.9021
  267MPD2     N 4045   3.158   1.972  17.041 -0.5055 -0.7045  0.2753
  267MPD2    H5 4046   3.113   1.915  16.971 -1.0601  0.8292 -0.6153
  267MPD2    N1 4047   3.409   1.988  17.452  0.1996 -0.2145  0.6863
  267MPD2    H7 4048   3.431   2.077  17.409 -0.3127  0.2115  1.3041
  268TMC3    C1 4049   3.578   2.030  17.611  0.4467 -0.0506  0.2762
  268TMC3    C2 4050   3.606   2.149  17.553 -0.2049 -0.1288 -0.9131
  268TMC3    C3 4051   3.718   2.216  17.593 -0.1735  0.6084 -0.0090
  268TMC3    C4 4052   3.644   1.982   0.010 -0.5871  0.3560 -0.3738
  268TMC3    C5 4053   3.753   2.055   0.054 -0.2157 -0.0866 -0.0583
  268TMC3    C6 4054   3.794   2.170  17.699  0.0729 -0.4528  0.5959
  268TMC3     C 4055   3.487   1.934  17.552  0.8368 -0.2112  0.0112
  268TMC3     O 4056   3.476   1.825  17.600 -0.0093 -0.2537 -0.3004
  268TMC3     H 4057   3.569   2.180  17.456 -0.8980  1.1207 -0.2415
  268TMC3    H1 4058   3.631   1.883   0.051  2.9959  0.1801  0.3546
  268TMC3    H2 4059   3.892   2.212   0.009 -2.1493  3.9156  2.1278
  268TMC3    C7 4060   3.833   2.007   0.160 -0.5055 -0.4898 -0.8382
  268TMC3    C8 4061   3.770   2.336  17.518 -0.5894  0.3144 -0.3379
  268TMC3    O1 4062   3.845   1.886   0.176 -0.2569  0.8599 -0.6202
  268TMC3    O2 4063   3.856   2.400  17.576 -0.3569  0.3992 -0.9810
  269MPD2     C 4064   3.522   1.443  15.870 -0.1427  0.3874 -0.0726
  269MPD2    C1 4065   3.441   1.427  15.759  0.5917 -0.0091 -0.1717
  269MPD2    C2 4066   3.437   1.527  15.669  0.5093 -0.0885  0.1501
  269MPD2    C3 4067   3.509   1.643  15.687  0.2107 -0.3095  0.6257
  269MPD2    C4 4068   3.612   1.646  15.779  0.5477 -0.0086 -0.2293
  269MPD2    C5 4069   3.601   1.554  15.877 -0.2734 -0.4171 -0.0807
  269MPD2     H 4070   3.356   1.529  15.598 -0.0887 -2.9544  0.7570
  269MPD2    H1 4071   3.677   1.727  15.812 -1.2918  0.4403  2.2210
  269MPD2    H2 4072   3.537   1.377  15.955  0.9630  1.7399  0.7972
  269MPD2    H3 4073   3.664   1.571  15.964 -1.2733  0.8994  0.3835
  269MPD2     N 4074   3.483   1.757  15.610  0.0724 -0.2934 -0.4734
  269MPD2    H5 4075   3.392   1.761  15.566 -0.6693  0.9059  1.1902
  269MPD2    N1 4076   3.376   1.299  15.750  0.3947  0.2983 -0.2994
  269MPD2    H7 4077   3.395   1.227  15.818 -1.2737  3.1672  3.1940
  270TMC3    C1 4078   3.218   1.137  15.678  0.0570 -0.4302  0.4502
  270TMC3    C2 4079   3.108   1.102  15.597  0.2860  0.0888 -0.1563
  270TMC3    C3 4080   3.089   0.972  15.564 -0.2921  0.9926 -0.1644
  270TMC3    C4 4081   3.305   1.050  15.730  0.4448  0.0997 -0.2392
  270TMC3    C5 4082   3.264   0.923  15.711  0.9233  0.8637 -0.8755
  270TMC3    C6 4083   3.166   0.878  15.629  0.5884  0.5895  0.8240
  270TMC3     C 4084   3.269   1.275  15.666 -0.5960  0.0336  0.4905
  270TMC3     O 4085   3.210   1.347  15.587  0.7160  0.0405  0.8834
  270TMC3     H 4086   3.033   1.173  15.564 -1.2997 -0.5003  2.2313
  270TMC3    H1 4087   3.389   1.072  15.794 -1.3125  0.3234  1.9920
  270TMC3    H2 4088   3.144   0.773  15.613  0.8033  0.8349 -1.0770
  270TMC3    C7 4089   3.357   0.824  15.764  0.0485  0.6353  0.1968
  270TMC3    C8 4090   3.016   0.933  15.439 -0.3079 -0.1797 -0.3216
  270TMC3    O1 4091   3.475   0.854  15.766 -0.7276 -0.3838  0.1671
  270TMC3    O2 4092   2.942   1.016  15.388 -0.2169  0.0504  0.2220
  271MPD2     C 4093   2.594   0.742  13.851 -0.0372 -0.0563 -0.9443
  271MPD2    C1 4094   2.503   0.691  13.941  0.9630 -0.3905  0.0502
  271MPD2    C2 4095   2.368   0.703  13.916  0.0804 -0.1406  0.6054
  271MPD2    C3 4096   2.319   0.769  13.806  0.1246  0.5679 -0.2226
  271MPD2    C4 4097   2.412   0.837  13.724  0.3534  0.4207  0.2619
  271MPD2    C5 4098   2.550   0.819  13.740 -0.4828  0.2988 -0.5828
  271MPD2     H 4099   2.294   0.667  13.986  0.9190 -0.7520  1.1891
  271MPD2    H1 4100   2.374   0.895  13.640 -0.5246 -1.6708 -0.7835
  271MPD2    H2 4101   2.700   0.730  13.871 -0.2380  0.3826  0.3811
  271MPD2    H3 4102   2.610   0.872  13.667  1.8976 -1.8596 -0.1571
  271MPD2     N 4103   2.182   0.774  13.777  0.0374  0.0813 -0.5087
  271MPD2    H5 4104   2.147   0.854  13.725  0.9240  0.8391  0.0604
  271MPD2    N1 4105   2.547   0.619  14.055  0.2958  0.8790  0.3354
  271MPD2    H7 4106   2.471   0.591  14.116  1.7289 -4.6362 -0.3928
  272TMC3    C1 4107   2.696   0.496  14.199 -0.1501  0.7172  1.2420
  272TMC3    C2 4108   2.811   0.423  14.222 -0.0778 -0.2557  0.4602
  272TMC3    C3 4109   2.847   0.387  14.353  0.2482  0.6139  0.5155
  272TMC3    C4 4110   2.628   0.548  14.300  0.0002 -0.2055  0.6080
  272TMC3    C5 4111   2.664   0.510  14.432 -0.1654  0.4186  0.2812
  272TMC3    C6 4112   2.776   0.431  14.458 -0.4847  0.4393 -0.6396
  272TMC3     C 4113   2.675   0.563  14.068  0.1633  0.0016 -0.3409
  272TMC3     O 4114   2.771   0.555  13.997 -0.7303  0.1430  0.1465
  272TMC3     H 4115   2.867   0.390  14.135 -0.2133  1.0665 -0.1317
  272TMC3    H1 4116   2.553   0.625  14.289  0.0034 -0.2725  0.1405
  272TMC3    H2 4117   2.792   0.400  14.561  0.4497 -0.8523 -1.1649
  272TMC3    C7 4118   2.596   0.583  14.535 -0.4714  0.4788  0.3457
  272TMC3    C8 4119   2.975   0.311  14.369 -0.6202  0.1198  0.2224
  272TMC3    O1 4120   2.480   0.610  14.518  0.1769 -0.6758 -0.1928
  272TMC3    O2 4121   3.037   0.300  14.265 -0.1927 -0.0764 -0.2035
  273MPD2     C 4122   3.967   3.196  11.804 -0.3996 -0.2860 -0.2119
  273MPD2    C1 4123   4.090   3.263  11.796  0.3051  0.1624 -0.1320
  273MPD2    C2 4124   4.125   3.336  11.681 -0.1042  0.2501 -0.2561
  273MPD2    C3 4125   4.041   3.342  11.573  0.3746 -0.2538 -0.3627
  273MPD2    C4 4126   3.927   3.266  11.578 -0.2640  0.0365 -0.5146
  273MPD2    C5 4127   3.889   3.195  11.688 -0.1619 -0.1030  1.1167
  273MPD2     H 4128   4.215   3.395  11.668 -1.3791  2.0829 -0.7409
  273MPD2    H1 4129   3.860   3.273  11.493  0.7341  0.3719 -1.2666
  273MPD2    H2 4130   3.944   3.144  11.897  2.8531 -0.7890  0.2963
  273MPD2    H3 4131   3.790   3.151  11.696 -0.7677  0.9577 -0.4322
  273MPD2     N 4132   4.066   3.410  11.452  0.0862  0.4494  0.3328
  273MPD2    H5 4133   3.995   3.398  11.381  3.4338  1.1376 -3.1632
  273MPD2    N1 4134   4.168   3.251  11.915 -0.4920  0.3296 -0.0012
  273MPD2    H7 4135   4.127   3.211  11.998  0.0510  0.4246  0.3107
  274TMC3    C1 4136   4.173   3.561  11.296  0.0248  0.4460 -0.4576
  274TMC3    C2 4137   4.120   3.499  11.187  0.3303  0.3660 -0.2296
  274TMC3    C3 4138   4.143   3.547  11.063  0.4499  0.4046 -0.4603
  274TMC3    C4 4139   4.239   3.681  11.287 -0.2600  0.7257 -0.2523
  274TMC3    C5 4140   4.255   3.732  11.160 -0.0654 -0.4086  0.0898
  274TMC3    C6 4141   4.211   3.662  11.049 -0.0385 -0.0305  1.0624
  274TMC3     C 4142   4.172   3.505  11.427  0.0652  0.3531  1.2004
  274TMC3     O 4143   4.258   3.536  11.507  0.5492 -0.3992 -0.0913
  274TMC3     H 4144   4.074   3.402  11.202 -1.3644  1.4325  1.4337
  274TMC3    H1 4145   4.269   3.736  11.375 -0.6549  0.2448  0.1766
  274TMC3    H2 4146   4.250   3.694  10.953  0.4162  0.2878  1.3571
  274TMC3    C7 4147   4.336   3.854  11.144 -0.0050 -0.6677  0.0162
  274TMC3    C8 4148   4.046   3.508  10.959 -0.0773 -0.0965 -0.0341
  274TMC3    O1 4149   4.438   3.844  11.082 -0.0740  0.1140 -0.3797
  274TMC3    O2 4150   3.946   3.440  10.992  0.2722  0.1497 -0.2736
  275MPD2     C 4151   4.087   1.446  14.590 -0.1584 -0.2675  0.1318
  275MPD2    C1 4152   4.024   1.562  14.550  0.7310 -0.2354 -0.1081
  275MPD2    C2 4153   3.897   1.562  14.498 -0.2703  0.2208 -0.2905
  275MPD2    C3 4154   3.825   1.439  14.465 -0.5837  0.2518 -0.1950
  275MPD2    C4 4155   3.892   1.324  14.506  0.3413 -0.7208  0.5847
  275MPD2    C5 4156   4.021   1.327  14.573 -0.4314 -0.0523 -0.1706
  275MPD2     H 4157   3.849   1.652  14.462 -0.7528 -0.4004 -1.2034
  275MPD2    H1 4158   3.841   1.230  14.490 -1.0465  0.4298 -1.7710
  275MPD2    H2 4159   4.186   1.440  14.632  0.9794 -0.1708 -2.5249
  275MPD2    H3 4160   4.056   1.232  14.612 -0.8356  0.0542  0.4495
  275MPD2     N 4161   3.703   1.427  14.395  0.4457  0.4311 -0.0864
  275MPD2    H5 4162   3.667   1.333  14.384 -2.6636  1.7414 -1.0222
  275MPD2    N1 4163   4.067   1.692  14.581  0.1118  0.0893 -0.1934
  275MPD2    H7 4164   4.006   1.767  14.552 -1.2616 -0.8001  0.3726
  276TMC3    C1 4165   4.209   1.859  14.671 -0.0752  0.0885 -0.1038
  276TMC3    C2 4166   4.098   1.944  14.683  0.3737  0.5847 -0.0365
  276TMC3    C3 4167   4.112   2.051  14.768  0.2961 -0.2077  0.4745
  276TMC3    C4 4168   4.329   1.894  14.723  0.0944 -0.3129  0.1144
  276TMC3    C5 4169   4.336   2.000  14.804  0.2229  0.6336 -0.1623
  276TMC3    C6 4170   4.234   2.087  14.826  0.3789  0.6068  0.2015
  276TMC3     C 4171   4.190   1.721  14.637  0.5905 -0.4838  0.0561
  276TMC3     O 4172   4.285   1.646  14.661  0.6289  0.6127  0.3087
  276TMC3     H 4173   3.994   1.922  14.662  0.7891 -0.3173 -1.1945
  276TMC3    H1 4174   4.423   1.840  14.718  0.7999  1.0384 -1.7281
  276TMC3    H2 4175   4.236   2.154  14.912 -0.6082  0.4055  0.3799
  276TMC3    C7 4176   4.452   2.034  14.893  0.2709 -0.1987 -0.5184
  276TMC3    C8 4177   3.991   2.075  14.845 -0.3884  0.9219 -0.1236
  276TMC3    O1 4178   4.436   2.115  14.984 -0.4327  0.1624 -0.0084
  276TMC3    O2 4179   3.889   2.119  14.793 -0.5702 -0.4578 -0.0243
  277MPD2     C 4180   1.338   0.192  12.977 -0.2147  0.0058  0.1013
  277MPD2    C1 4181   1.202   0.206  12.951  0.4035  0.2839 -0.2946
  277MPD2    C2 4182   1.115   0.178  13.058 -0.5130 -0.4145 -0.1391
  277MPD2    C3 4183   1.154   0.138  13.180 -0.7026 -0.1927 -0.1712
  277MPD2    C4 4184   1.288   0.126  13.205 -0.5380 -0.2725 -0.6745
  277MPD2    C5 4185   1.374   0.154  13.104 -0.4526 -0.5246  0.0364
  277MPD2     H 4186   1.012   0.205  13.039 -0.2415 -1.7744 -3.4257
  277MPD2    H1 4187   1.318   0.088  13.302  0.8697  1.2385 -0.5216
  277MPD2    H2 4188   1.422   0.214  12.912 -0.9851 -2.2645 -1.6426
  277MPD2    H3 4189   1.479   0.137  13.126  0.3253 -0.1426 -3.3216
  277MPD2     N 4190   1.056   0.113  13.276  0.2842  0.5517 -0.0540
  277MPD2    H5 4191   0.959   0.127  13.248  0.0258 -0.0983  0.5150
  277MPD2    N1 4192   1.165   0.273  12.834 -0.6912 -0.1210  0.0480
  277MPD2    H7 4193   1.244   0.311  12.783 -0.9255  0.3071  0.0018
  278TMC3    C1 4194   0.950   0.063  13.477  1.2211  0.0449 -0.1990
  278TMC3    C2 4195   0.920   4.666  13.528  0.2414 -0.0363  0.4007
  278TMC3    C3 4196   0.796   4.616  13.488 -0.2265 -0.7956  0.2203
  278TMC3    C4 4197   0.850   0.136  13.411  0.1839 -0.0425  0.5617
  278TMC3    C5 4198   0.722   0.091  13.403 -0.3416  0.0482  0.0961
  278TMC3    C6 4199   0.691   4.695  13.441 -0.3594 -0.1693  0.3836
  278TMC3     C 4200   1.075   0.085  13.410 -0.6922  0.0965 -0.6381
  278TMC3     O 4201   1.179   0.049  13.466  0.5082 -0.8489  0.1024
  278TMC3     H 4202   0.999   4.606  13.572  0.2642  1.0914  1.9125
  278TMC3    H1 4203   0.870   0.234  13.371  0.3554 -0.2491  0.1399
  278TMC3    H2 4204   0.594   4.649  13.433 -1.4608  2.0443  1.1691
  278TMC3    C7 4205   0.621   0.185  13.352  0.3469 -0.8759 -0.2985
  278TMC3    C8 4206   0.793   4.473  13.486  0.6315  0.4017 -0.1022
  278TMC3    O1 4207   0.654   0.302  13.355 -0.0105  0.0492 -0.4978
  278TMC3    O2 4208   0.880   4.401  13.530 -0.5298  0.0757  0.1123
  279MPD2     C 4209   0.044   0.259   0.346  0.0964  0.1367 -0.2985
  279MPD2    C1 4210   0.047   0.401   0.370  0.0116 -0.5145  0.1796
  279MPD2    C2 4211   0.168   0.459   0.373 -0.6959 -0.4211  0.0949
  279MPD2    C3 4212   0.287   0.389   0.346  0.5390 -0.6266  0.4980
  279MPD2    C4 4213   0.283   0.257   0.308 -0.1402  0.2187  0.0911
  279MPD2    C5 4214   0.161   0.190   0.319 -0.2776 -0.2429 -0.1449
  279MPD2     H 4215   0.177   0.564   0.398  1.1098 -0.6112  0.2575
  279MPD2    H1 4216   0.366   0.202   0.265 -0.0557 -0.0169  0.5562
  279MPD2    H2 4217   4.678   0.209   0.369 -0.9159  1.8144 -0.7068
  279MPD2    H3 4218   0.156   0.085   0.290  1.9093  0.0855 -1.6455
  279MPD2     N 4219   0.409   0.452   0.351  0.7357 -0.1920 -0.3766
  279MPD2    H5 4220   0.489   0.404   0.312 -0.2822 -1.9592 -0.3322
  279MPD2    N1 4221   4.653   0.473   0.409 -0.0924  0.0767  0.3804
  279MPD2    H7 4222   4.569   0.417   0.397 -0.8784  1.2314  0.5392
  280TMC3    C1 4223   4.493   0.648   0.407 -0.2826 -0.1640  0.6115
  280TMC3    C2 4224   4.411   0.549   0.366 -0.0195 -0.0914  0.4725
  280TMC3    C3 4225   4.283   0.590   0.344  0.3074 -0.5620 -0.4429
  280TMC3    C4 4226   4.455   0.777   0.419  0.4507  0.2895 -0.5175
  280TMC3    C5 4227   4.328   0.816   0.398  0.2620  0.6408  0.2242
  280TMC3    C6 4228   4.237   0.723   0.357 -0.3463  0.0854 -0.5026
  280TMC3     C 4229   4.633   0.611   0.414 -0.6159 -0.1843  0.1326
  280TMC3     O 4230   4.707   0.703   0.396  0.3018 -0.0278  0.1103
  280TMC3     H 4231   4.424   0.442   0.363  0.2384 -0.0173 -1.1118
  280TMC3    H1 4232   4.536   0.843   0.449 -0.1534  2.3347 -3.4224
  280TMC3    H2 4233   4.131   0.743   0.350 -0.6000 -2.4249 -3.9622
  280TMC3    C7 4234   4.302   0.960   0.387  0.7833 -0.0727  0.1622
  280TMC3    C8 4235   4.190   0.503   0.278  0.1065  0.3630  0.0690
  280TMC3    O1 4236   4.405   1.031   0.374 -0.0722  0.0293  0.1035
  280TMC3    O2 4237   4.075   0.540   0.278 -0.0224  0.0611  0.9015
  281TMC3    C1 4238   3.670   0.717  13.201  0.2308  1.1967  0.7777
  281TMC3    C2 4239   3.804   0.741  13.198 -0.6504  0.7137 -1.0554
  281TMC3    C3 4240   3.879   0.681  13.098 -0.3013  0.9322  0.4344
  281TMC3    C4 4241   3.615   0.610  13.137 -0.7663 -0.0079 -0.7001
  281TMC3    C5 4242   3.700   0.545  13.052  0.4652  0.1591  0.0578
  281TMC3    C6 4243   3.828   0.581  13.025  0.2145  0.5869 -0.2258
  281TMC3     C 4244   3.561   0.803  13.250 -0.5607 -0.0895 -0.6602
  281TMC3     O 4245   3.448   0.754  13.255 -0.0111  0.2664 -0.0222
  281TMC3     H 4246   3.846   0.823  13.255  2.5252 -0.6160 -1.4529
  281TMC3    H1 4247   3.512   0.577  13.146 -1.4391  2.2563 -0.1024
  281TMC3    H2 4248   3.884   0.534  12.945 -0.3132 -3.1492  1.5716
  281TMC3    C7 4249   3.647   0.442  12.967  0.4312 -0.2437 -0.4792
  281TMC3    C8 4250   3.965   0.767  13.029  0.2476  0.5179  0.3627
  281TMC3    O1 4251   3.707   0.409  12.867 -0.1177 -0.6473  0.3488
  281TMC3    O2 4252   4.038   0.830  13.103 -0.4825  0.2029 -0.0105
  282MPD2     C 4253   1.082   2.399  15.053  0.2352 -0.0112 -0.2687
  282MPD2    C1 4254   0.949   2.424  15.100 -0.0814 -0.2009  0.1712
  282MPD2    C2 4255   0.850   2.438  15.007  0.1333  0.2700  0.0753
  282MPD2    C3 4256   0.878   2.453  14.872  0.4894 -0.8096  0.7101
  282MPD2    C4 4257   1.003   2.427  14.826  1.1184  0.6716  0.0444
  282MPD2    C5 4258   1.107   2.400  14.915  0.3746 -0.3026 -0.3045
  282MPD2     H 4259   0.748   2.449  15.040  0.0033 -0.6078 -0.0423
  282MPD2    H1 4260   1.032   2.402  14.725  0.5752  0.8721 -0.1604
  282MPD2    H2 4261   1.172   2.387  15.113  0.0002 -3.7763 -0.6581
  282MPD2    H3 4262   1.202   2.361  14.880  1.8325  2.2803  0.7683
  282MPD2     N 4263   0.764   2.475  14.788 -0.2150 -0.0109  0.8498
  282MPD2    H5 4264   0.679   2.483  14.843 -1.1204  0.2654 -0.5736
  282MPD2    N1 4265   0.914   2.423  15.237  0.2131 -0.7395 -0.5672
  282MPD2    H7 4266   0.824   2.462  15.266  0.0161 -1.0118 -0.8099
  283TMC3    C1 4267   0.922   2.420  15.465  0.0964 -0.1513  0.2185
  283TMC3    C2 4268   0.997   2.506  15.539  0.2622 -0.1565  0.1321
  283TMC3    C3 4269   0.952   2.520  15.671  0.4977 -0.7639 -0.4531
  283TMC3    C4 4270   0.821   2.340  15.510 -0.0257 -0.7368  0.8373
  283TMC3    C5 4271   0.797   2.342  15.648 -0.1323  0.0881 -0.3627
  283TMC3    C6 4272   0.851   2.441  15.726  0.0864  0.4507  0.2136
  283TMC3     C 4273   0.990   2.383  15.340 -0.7120  0.7072  0.7511
  283TMC3     O 4274   1.110   2.372  15.349  0.5347 -0.3805 -0.2801
  283TMC3     H 4275   1.086   2.551  15.495  1.1962 -1.2371  0.9148
  283TMC3    H1 4276   0.768   2.283  15.435 -1.1807  1.9216 -0.4050
  283TMC3    H2 4277   0.844   2.439  15.834 -0.4764 -1.9518  0.1416
  283TMC3    C7 4278   0.689   2.274  15.712  0.2091  0.3325  0.8669
  283TMC3    C8 4279   0.964   2.648  15.742 -0.2855 -0.0288 -0.2524
  283TMC3    O1 4280   0.674   2.287  15.833 -0.9547  0.1284 -0.7066
  283TMC3    O2 4281   0.941   2.647  15.858 -0.4363  0.4572  0.0653
  284MPD2     C 4282   3.412   1.578  11.830 -0.2085 -0.3309  0.1045
  284MPD2    C1 4283   3.517   1.510  11.770  0.2379 -0.3124  0.0979
  284MPD2    C2 4284   3.570   1.400  11.836  0.1549 -0.2342 -0.1022
  284MPD2    C3 4285   3.510   1.340  11.946 -0.2046 -0.7873  0.4361
  284MPD2    C4 4286   3.403   1.407  12.002  0.3591  0.4656  0.8440
  284MPD2    C5 4287   3.354   1.526  11.939  0.1681 -0.1372  0.6435
  284MPD2     H 4288   3.655   1.350  11.792 -0.6043 -1.3230 -0.3492
  284MPD2    H1 4289   3.342   1.381  12.087 -1.0804  1.9585  0.2846
  284MPD2    H2 4290   3.371   1.669  11.788  1.4823 -0.2005 -1.2632
  284MPD2    H3 4291   3.280   1.588  11.987 -0.9267 -1.0209  0.0969
  284MPD2     N 4292   3.586   1.238  12.002  0.1203 -0.0987 -0.3911
  284MPD2    H5 4293   3.664   1.208  11.945  0.3768 -0.8747  0.3614
  284MPD2    N1 4294   3.589   1.558  11.660  0.4165 -0.2029 -0.4593
  284MPD2    H7 4295   3.659   1.495  11.621 -0.6521 -0.4828 -1.9346
  285TMC3    C1 4296   3.697   1.694  11.516 -0.2525 -0.3768 -0.7740
  285TMC3    C2 4297   3.756   1.575  11.467  0.2737  0.2941  0.3788
  285TMC3    C3 4298   3.890   1.572  11.439 -0.0251  0.7445  0.0241
  285TMC3    C4 4299   3.778   1.804  11.526  0.1244 -0.3626  0.1566
  285TMC3    C5 4300   3.909   1.798  11.503  0.2517  0.0814  0.5266
  285TMC3    C6 4301   3.970   1.685  11.450  0.4252  0.2713  0.5085
  285TMC3     C 4302   3.591   1.682  11.606 -0.5623  0.8137  0.5143
  285TMC3     O 4303   3.529   1.776  11.644 -0.0240  0.3223 -0.0719
  285TMC3     H 4304   3.707   1.480  11.453 -2.4032  1.9621 -1.5113
  285TMC3    H1 4305   3.744   1.882  11.592  0.6950 -0.6999  0.8444
  285TMC3    H2 4306   4.075   1.699  11.426 -0.7500  3.1761 -2.9205
  285TMC3    C7 4307   3.997   1.908  11.526 -0.1845  0.9243  0.3897
  285TMC3    C8 4308   3.936   1.448  11.380 -0.3335 -0.5969 -0.2839
  285TMC3    O1 4309   3.949   2.017  11.515  0.1721  0.3001 -0.5389
  285TMC3    O2 4310   3.863   1.378  11.309 -0.7627 -0.4551 -0.0186
  286MPD2     C 4311   4.144   4.535   1.705  0.1479  0.9973  0.4342
  286MPD2    C1 4312   4.092   4.577   1.579 -0.8457 -0.2307  0.5433
  286MPD2    C2 4313   4.172   4.543   1.468 -0.0124 -0.1409  0.5398
  286MPD2    C3 4314   4.296   4.466   1.482  0.5414  0.0656 -1.0318
  286MPD2    C4 4315   4.339   4.434   1.608 -0.1096  0.4831 -0.0240
  286MPD2    C5 4316   4.267   4.470   1.715  0.9821  0.6130 -0.4818
  286MPD2     H 4317   4.142   4.571   1.368 -1.6846 -3.3216  0.1632
  286MPD2    H1 4318   4.430   4.379   1.631 -1.8099 -2.5528 -0.7190
  286MPD2    H2 4319   4.096   4.558   1.800 -1.9837 -1.0194 -0.1329
  286MPD2    H3 4320   4.316   4.437   1.806 -0.8015  1.0852  0.6456
  286MPD2     N 4321   4.381   4.420   1.379 -0.0369 -0.3278 -0.2032
  286MPD2    H5 4322   4.460   4.372   1.420  1.5684 -0.7030 -3.7592
  286MPD2    N1 4323   3.980   4.660   1.559  0.3016  0.3995 -0.2969
  286MPD2    H7 4324   3.961   4.691   1.465  1.6032  0.2677 -0.6036
  287TMC3    C1 4325   4.460   4.346   1.166 -0.1863  0.1460  0.2522
  287TMC3    C2 4326   4.427   4.319   1.044 -0.3887 -0.2620  0.7623
  287TMC3    C3 4327   4.522   4.253   0.972  0.0916  0.3077 -0.0807
  287TMC3    C4 4328   4.581   4.308   1.229  0.5337  0.2370 -1.0307
  287TMC3    C5 4329   4.668   4.240   1.148 -0.2213  0.2319 -0.1549
  287TMC3    C6 4330   4.647   4.213   1.013 -0.4928 -0.0350 -0.8771
  287TMC3     C 4331   4.360   4.420   1.243 -0.5337  0.4843 -0.2121
  287TMC3     O 4332   4.271   4.476   1.181  0.0707 -0.1987 -0.9701
  287TMC3     H 4333   4.347   4.374   0.995 -2.3600 -2.0168  2.0047
  287TMC3    H1 4334   4.606   4.322   1.334  0.5347 -0.3169 -0.9586
  287TMC3    H2 4335   4.719   4.179   0.940  3.1384  2.7822  1.3941
  287TMC3    C7 4336   0.053   4.180   1.210  0.4772  0.5961 -0.4240
  287TMC3    C8 4337   4.486   4.208   0.841 -0.4323 -0.1439  0.3006
  287TMC3    O1 4338   0.048   4.169   1.333 -0.0023  0.5360  0.0757
  287TMC3    O2 4339   4.539   4.104   0.805  0.3059  0.1455 -0.7506
  288TMC3    C1 4340   1.410   0.286  14.090  0.7712 -0.3443 -0.3958
  288TMC3    C2 4341   1.317   0.321  14.179  0.6925 -0.5325  0.2239
  288TMC3    C3 4342   1.195   0.367  14.129 -0.0906 -0.1036 -0.1103
  288TMC3    C4 4343   1.373   0.266  13.965  0.3075 -0.9732  0.2571
  288TMC3    C5 4344   1.245   0.291  13.918  0.5216  0.1641 -0.5561
  288TMC3    C6 4345   1.151   0.345  14.003 -0.1206  0.1807  0.1921
  288TMC3     C 4346   1.533   0.233  14.147 -0.0137 -0.0779  1.2346
  288TMC3     O 4347   1.536   0.197  14.263  0.2184  0.9212  0.0477
  288TMC3     H 4348   1.343   0.335  14.284  0.0828 -1.6902  0.5240
  288TMC3    H1 4349   1.448   0.234  13.894 -0.2820 -1.1365 -0.2933
  288TMC3    H2 4350   1.054   0.373  13.962  0.1966 -0.5666 -1.0256
  288TMC3    C7 4351   1.244   0.328  13.774 -0.1045 -0.8696 -0.1707
  288TMC3    C8 4352   1.120   0.450  14.222 -0.0993 -0.1555  0.3647
  288TMC3    O1 4353   1.351   0.311  13.719  0.0143 -0.0612  0.8594
  288TMC3    O2 4354   1.188   0.511  14.302  1.0513 -0.0365  0.3970
  289MPD2     C 4355   1.146   4.489  14.316  0.1929 -0.2105 -0.2675
  289MPD2    C1 4356   1.164   4.513  14.184 -0.8933  0.0924  0.1534
  289MPD2    C2 4357   1.068   4.472  14.092  0.6075  0.4311 -0.3713
  289MPD2    C3 4358   0.958   4.402  14.134 -0.9375 -0.2879  0.2610
  289MPD2    C4 4359   0.940   4.391  14.266 -0.7757  0.4614  0.0884
  289MPD2    C5 4360   1.031   4.434  14.358 -0.4440  0.4421  0.5292
  289MPD2     H 4361   1.081   4.485  13.986  1.7279 -2.6901 -0.6262
  289MPD2    H1 4362   0.849   4.345  14.303 -1.9098  1.8535 -0.9796
  289MPD2    H2 4363   1.220   4.506  14.394  0.2880 -1.2447 -0.1386
  289MPD2    H3 4364   1.014   4.405  14.461  0.1993  0.1031  0.5415
  289MPD2     N 4365   0.846   4.356  14.054  0.0994  0.0767  0.4547
  289MPD2    H5 4366   0.772   4.305  14.101  0.0992  0.2493  0.6404
  289MPD2    N1 4367   1.296   4.554  14.147 -0.7997 -0.2151 -0.0734
  289MPD2    H7 4368   1.368   4.525  14.213 -1.1536  0.3222  0.5496
  290TMC3    C1 4369   0.705   4.325  13.867 -0.6385  0.2506 -0.1334
  290TMC3    C2 4370   0.638   4.404  13.777 -0.3154  0.4656 -0.3731
  290TMC3    C3 4371   0.511   4.364  13.739 -1.0746  0.7040 -0.0376
  290TMC3    C4 4372   0.651   4.210  13.916 -0.1117  0.5472  0.5309
  290TMC3    C5 4373   0.530   4.164  13.867  0.3301 -0.4193 -0.2856
  290TMC3    C6 4374   0.452   4.247  13.790 -0.4373  0.4551  0.0043
  290TMC3     C 4375   0.837   4.378  13.918  0.6112  0.3074 -0.1340
  290TMC3     O 4376   0.893   4.469  13.849 -0.8211 -0.7868  0.1209
  290TMC3     H 4377   0.690   4.491  13.740 -0.2718  1.1231  1.2182
  290TMC3    H1 4378   0.710   4.145  13.980 -1.0047 -0.9724 -0.1867
  290TMC3    H2 4379   0.350   4.222  13.764 -0.8370  3.0645 -1.0003
  290TMC3    C7 4380   0.470   4.054  13.948  0.0359  0.1686 -0.9230
  290TMC3    C8 4381   0.420   4.467  13.706  0.1375  0.2115  0.1735
  290TMC3    O1 4382   0.362   4.089  13.995  0.1149 -0.0028 -0.5360
  290TMC3    O2 4383   0.320   4.437  13.646 -0.6742  0.5524 -0.3113
  291MPD2     C 4384   0.708   3.392   0.654 -0.0155  0.3738  0.1349
  291MPD2    C1 4385   0.662   3.328   0.536  0.1710 -0.5213  0.4912
  291MPD2    C2 4386   0.697   3.385   0.415 -0.6551 -0.0194  0.6915
  291MPD2    C3 4387   0.769   3.502   0.403 -0.1219 -0.0400  0.0637
  291MPD2    C4 4388   0.807   3.560   0.527 -0.0704 -0.5578 -0.0764
  291MPD2    C5 4389   0.782   3.507   0.650  0.2829 -1.1742  0.2236
  291MPD2     H 4390   0.653   3.344   0.324  0.5342  1.8933 -0.7456
  291MPD2    H1 4391   0.871   3.646   0.544 -0.5643 -0.4563  1.2870
  291MPD2    H2 4392   0.674   3.348   0.748  2.7068 -0.9602  0.4956
  291MPD2    H3 4393   0.804   3.547   0.748  2.7637 -0.5378 -0.5979
  291MPD2     N 4394   0.784   3.581   0.287  0.3713  0.2855  0.3451
  291MPD2    H5 4395   0.823   3.673   0.300 -1.4599  1.0110  0.6721
  291MPD2    N1 4396   0.580   3.211   0.530  0.0248  0.4322  0.2463
  291MPD2    H7 4397   0.568   3.185   0.433 -1.2965  0.0490  0.5052
  292TMC3    C1 4398   0.470   3.007   0.609 -0.2630  0.2527 -0.0157
  292TMC3    C2 4399   0.423   2.929   0.713 -0.2996 -0.1118  0.4899
  292TMC3    C3 4400   0.308   2.860   0.694 -0.7646 -0.0807  0.7111
  292TMC3    C4 4401   0.400   3.008   0.493  0.5224 -0.4517 -0.5038
  292TMC3    C5 4402   0.270   2.962   0.486  0.3215  0.5767 -0.0971
  292TMC3    C6 4403   0.222   2.886   0.591 -0.7311  0.0886  0.3645
  292TMC3     C 4404   0.547   3.127   0.638 -0.1726  0.0820 -0.4966
  292TMC3     O 4405   0.590   3.146   0.751  0.2654 -0.0637 -0.0886
  292TMC3     H 4406   0.483   2.925   0.803  0.7046 -1.2138 -0.2233
  292TMC3    H1 4407   0.437   3.069   0.412  1.6650 -0.5419 -0.0542
  292TMC3    H2 4408   0.133   2.827   0.573 -0.8391  0.8368 -1.5647
  292TMC3    C7 4409   0.185   2.997   0.381  0.2407  0.4762 -0.1503
  292TMC3    C8 4410   0.257   2.782   0.808  0.2071  0.2162 -0.1624
  292TMC3    O1 4411   0.227   3.009   0.267  0.5391 -0.0883  0.3207
  292TMC3    O2 4412   0.323   2.787   0.912  0.3110 -0.2054 -0.4253
  293MPD2     C 4413   2.508   0.348  12.418 -0.1751  0.5205 -0.3613
  293MPD2    C1 4414   2.431   0.286  12.516  0.1496 -0.2274 -0.6730
  293MPD2    C2 4415   2.461   0.316  12.650 -0.0883 -0.8160 -0.0783
  293MPD2    C3 4416   2.553   0.409  12.683  0.6185 -0.5409  0.2881
  293MPD2    C4 4417   2.632   0.464  12.584  0.4910  0.0152  0.3043
  293MPD2    C5 4418   2.609   0.422  12.452  0.0912 -0.0578 -0.0570
  293MPD2     H 4419   2.411   0.260  12.728 -1.9823  1.7198  0.5343
  293MPD2    H1 4420   2.709   0.539  12.599  0.1065  0.4071  0.3463
  293MPD2    H2 4421   2.493   0.323  12.313 -1.1536  0.2247 -0.1511
  293MPD2    H3 4422   2.655   0.480  12.372  0.6030  0.4899  0.6308
  293MPD2     N 4423   2.553   0.454  12.815 -0.2478 -0.2276 -0.8270
  293MPD2    H5 4424   2.494   0.401  12.879  0.2840 -0.2717 -0.3760
  293MPD2    N1 4425   2.330   0.183  12.479  0.0223  0.2399 -0.7211
  293MPD2    H7 4426   2.324   0.170  12.379 -0.1981 -0.9158 -0.5536
  294TMC3    C1 4427   2.138   0.047  12.499  0.3816  0.4267 -0.0780
  294TMC3    C2 4428   2.058   4.694  12.577 -0.8976 -0.2567 -0.7202
  294TMC3    C3 4429   1.929   4.685  12.542  0.0044 -0.0798  0.6358
  294TMC3    C4 4430   2.085   0.115  12.389 -0.2881  0.1391 -0.6331
  294TMC3    C5 4431   1.951   0.102  12.367 -0.0312 -0.5605 -0.1480
  294TMC3    C6 4432   1.867   0.021  12.445 -0.2713  0.0138  0.8753
  294TMC3     C 4433   2.252   0.114  12.569  0.3080  0.1890 -0.4227
  294TMC3     O 4434   2.275   0.081  12.686  0.2729  0.0729 -0.1618
  294TMC3     H 4435   2.090   4.648  12.670 -2.8792  0.9797  0.5834
  294TMC3    H1 4436   2.143   0.184  12.329 -0.3335  0.0949 -0.7274
  294TMC3    H2 4437   1.761   0.007  12.428 -0.3207  1.2170  0.2069
  294TMC3    C7 4438   1.888   0.118  12.233 -1.1949 -0.0628  0.2933
  294TMC3    C8 4439   1.863   4.573  12.591 -0.5779  0.4778  0.1947
  294TMC3    O1 4440   1.770   0.092  12.230  0.2671 -0.0182  0.0228
  294TMC3    O2 4441   1.875   4.540  12.707 -0.4637 -0.0682  0.0150
  295MPD2     C 4442   3.471   3.974   0.573 -0.5318 -0.2786 -0.5232
  295MPD2    C1 4443   3.337   4.008   0.560  0.3166 -0.1644  0.3384
  295MPD2    C2 4444   3.269   4.043   0.678  0.5072  0.4107 -0.8410
  295MPD2    C3 4445   3.313   3.990   0.803  0.0954 -0.3311 -0.3193
  295MPD2    C4 4446   3.441   3.936   0.807  0.4755 -0.6439 -0.0858
  295MPD2    C5 4447   3.524   3.941   0.696 -0.6604  0.2252  0.2939
  295MPD2     H 4448   3.171   4.087   0.664 -0.4607 -1.1503  1.2423
  295MPD2    H1 4449   3.480   3.893   0.898 -0.5767 -2.8278 -0.6567
  295MPD2    H2 4450   3.531   3.963   0.484 -3.4124  1.8086 -2.7074
  295MPD2    H3 4451   3.623   3.898   0.712 -0.7301  0.2103  0.7006
  295MPD2     N 4452   3.241   3.992   0.922 -0.0364  0.6018 -0.3000
  295MPD2    H5 4453   3.281   3.931   0.993  0.0638  1.7131  0.6098
  295MPD2    N1 4454   3.276   4.034   0.432 -0.2389  0.2450 -0.4535
  295MPD2    H7 4455   3.178   4.063   0.435  0.7453  3.4518  0.5089
  296TMC3    C1 4456   3.034   3.972   1.037 -0.3880  0.3953  0.1042
  296TMC3    C2 4457   2.927   4.046   1.076 -0.3382  0.2146  0.3486
  296TMC3    C3 4458   2.820   3.989   1.139 -0.8611  0.4561 -0.2623
  296TMC3    C4 4459   3.042   3.837   1.054  0.0279 -0.3298 -0.2216
  296TMC3    C5 4460   2.942   3.794   1.139  0.8056 -0.3115  0.8222
  296TMC3    C6 4461   2.828   3.859   1.175 -0.4185  0.4199 -0.0412
  296TMC3     C 4462   3.112   4.035   0.929  0.9860 -0.1119 -0.5480
  296TMC3     O 4463   3.048   4.101   0.851  0.6166 -0.4994  0.4387
  296TMC3     H 4464   2.917   4.145   1.034  0.1708 -0.2860 -0.9643
  296TMC3    H1 4465   3.132   3.776   1.044  1.0885  0.8888  2.0217
  296TMC3    H2 4466   2.739   3.802   1.198  0.0630 -0.7155 -0.9850
  296TMC3    C7 4467   2.930   3.649   1.143  0.2642  1.5391 -0.0166
  296TMC3    C8 4468   2.712   4.083   1.183  0.2138  0.1574  0.5527
  296TMC3    O1 4469   2.995   3.582   1.065  0.0064 -0.0059  0.3415
  296TMC3    O2 4470   2.721   4.191   1.134  0.0616  0.4421 -0.3119
  297MPD2     C 4471   4.523   1.926  16.361 -1.0025 -0.0839  0.2047
  297MPD2    C1 4472   4.530   1.873  16.233  0.0120  0.3281  0.0387
  297MPD2    C2 4473   4.648   1.891  16.160  0.8248  0.1004  0.8302
  297MPD2    C3 4474   0.021   1.966  16.216  0.1999 -0.3610 -0.9356
  297MPD2    C4 4475   0.009   2.033  16.338 -0.0875 -0.3071  0.0988
  297MPD2    C5 4476   4.624   2.004  16.411 -0.3393 -0.3685 -0.9792
  297MPD2     H 4477   4.651   1.861  16.055  0.9388  0.4783  0.7260
  297MPD2    H1 4478   0.092   2.093  16.373 -1.2791  1.2059  0.3351
  297MPD2    H2 4479   4.436   1.916  16.426  0.4567 -1.3650  1.9463
  297MPD2    H3 4480   4.620   2.054  16.507  0.4218 -0.8610 -0.6839
  297MPD2     N 4481   0.146   1.988  16.151 -0.0651  0.3168 -0.0302
  297MPD2    H5 4482   0.204   2.066  16.181  0.2855 -0.9466  2.5118
  297MPD2    N1 4483   4.428   1.794  16.177 -0.3027  0.3282  0.1131
  297MPD2    H7 4484   4.419   1.796  16.075  0.7490  0.4209  0.0238
  298TMC3    C1 4485   4.219   1.689  16.167  1.0834  0.0638  0.9473
  298TMC3    C2 4486   4.186   1.755  16.053 -0.1690  0.2624 -0.3195
  298TMC3    C3 4487   4.062   1.725  16.003 -0.0002 -0.0661 -0.2183
  298TMC3    C4 4488   4.143   1.597  16.224  0.0627 -0.7241  0.0872
  298TMC3    C5 4489   4.025   1.564  16.171  0.2987 -0.3391  0.5767
  298TMC3    C6 4490   3.975   1.636  16.059 -0.0123  0.1159 -0.1783
  298TMC3     C 4491   4.329   1.738  16.254  0.6124 -0.7654  0.2240
  298TMC3     O 4492   4.329   1.719  16.375  0.1182  0.2969  0.4041
  298TMC3     H 4493   4.245   1.842  16.026 -0.4555  1.2969  2.3860
  298TMC3    H1 4494   4.154   1.554  16.323 -1.1864 -2.1923 -0.4108
  298TMC3    H2 4495   3.881   1.608  16.013  0.4195 -1.7285  0.0309
  298TMC3    C7 4496   3.928   1.483  16.240 -0.0453  0.5976 -0.9651
  298TMC3    C8 4497   4.005   1.822  15.919  0.5175  0.3840 -0.2686
  298TMC3    O1 4498   3.812   1.508  16.209 -0.3985  0.3909  0.3856
  298TMC3    O2 4499   3.887   1.810  15.908 -0.3753  0.5037  0.3050
  299MPD2     C 4500   0.908   0.371  10.770  0.6437 -0.1221  0.4772
  299MPD2    C1 4501   0.915   0.424  10.634 -0.0805  0.0645  0.7911
  299MPD2    C2 4502   0.808   0.421  10.548  0.2720 -0.3815 -0.0738
  299MPD2    C3 4503   0.686   0.373  10.598  0.4643 -0.3025 -0.2536
  299MPD2    C4 4504   0.680   0.323  10.727 -0.4150 -0.2214 -0.2461
  299MPD2    C5 4505   0.785   0.324  10.811  0.0836  0.5726  0.0005
  299MPD2     H 4506   0.812   0.448  10.443  2.0086  1.5037  0.4665
  299MPD2    H1 4507   0.596   0.275  10.776  0.6269  1.5994  3.3177
  299MPD2    H2 4508   0.991   0.365  10.839  0.9813  2.7621  0.3249
  299MPD2    H3 4509   0.774   0.296  10.915 -2.0659 -0.6035 -0.5387
  299MPD2     N 4510   0.568   0.377  10.525 -0.2734  0.4227 -0.3456
  299MPD2    H5 4511   0.483   0.348  10.572 -0.7810  1.4584 -0.6178
  299MPD2    N1 4512   1.037   0.489  10.603 -0.2742 -0.0582 -0.3351
  299MPD2    H7 4513   1.106   0.503  10.676  2.6378 -0.7020 -2.9298
  300TMC3    C1 4514   0.414   0.429  10.373  0.6826  0.1788  0.0497
  300TMC3    C2 4515   0.367   0.530  10.291 -0.5414 -0.3155  0.2389
  300TMC3    C3 4516   0.236   0.560  10.301 -0.1464  0.0716  1.1185
  300TMC3    C4 4517   0.331   0.365  10.466  0.0816 -0.0600  0.2329
  300TMC3    C5 4518   0.200   0.400  10.480 -0.2206 -0.2630  0.3965
  300TMC3    C6 4519   0.154   0.490  10.388 -0.2237 -0.1374  0.4765
  300TMC3     C 4520   0.552   0.428  10.400  0.5490 -0.0185 -0.0263
  300TMC3     O 4521   0.625   0.497  10.324  0.5010 -0.0871  0.2178
  300TMC3     H 4522   0.436   0.574  10.220 -1.7819 -0.1398 -0.8757
  300TMC3    H1 4523   0.359   0.275  10.520 -0.3821 -0.1173  0.3743
  300TMC3    H2 4524   0.054   0.526  10.412 -1.1157 -0.8086 -2.2169
  300TMC3    C7 4525   0.123   0.350  10.592 -0.0189  0.5221 -0.4164
  300TMC3    C8 4526   0.200   0.689  10.256 -0.4078 -0.2180 -0.1635
  300TMC3    O1 4527   0.178   0.274  10.670 -0.0120 -0.2922  0.0230
  300TMC3    O2 4528   0.294   0.766  10.234 -0.2769  0.6357 -0.0811
  301MPD2     C 4529   2.399   2.431   1.669 -0.1780  0.1487 -0.1334
  301MPD2    C1 4530   2.293   2.442   1.569 -0.3904  0.4653  0.7924
  301MPD2    C2 4531   2.261   2.334   1.488  0.3595  0.0491  0.0186
  301MPD2    C3 4532   2.336   2.217   1.500 -0.6822  0.3924  0.3462
  301MPD2    C4 4533   2.445   2.211   1.586  0.1767 -0.9029 -0.0451
  301MPD2    C5 4534   2.473   2.314   1.670  0.0359 -0.0528 -0.2731
  301MPD2     H 4535   2.167   2.345   1.435  0.0445  1.6447  0.8994
  301MPD2    H1 4536   2.504   2.120   1.589  0.2625 -0.8441  0.0336
  301MPD2    H2 4537   2.411   2.500   1.751  0.2081  0.1779 -0.2149
  301MPD2    H3 4538   2.561   2.313   1.734  1.6432  2.8505 -2.4128
  301MPD2     N 4539   2.319   2.101   1.421  0.6567  0.3894 -0.3970
  301MPD2    H5 4540   2.374   2.020   1.448 -1.6374 -1.0149  0.0690
  301MPD2    N1 4541   2.207   2.554   1.565  0.3696 -0.4304  0.0977
  301MPD2    H7 4542   2.109   2.546   1.541  0.6433 -1.2413 -0.7360
  302TMC3    C1 4543   2.215   1.967   1.259 -0.8242 -0.1641  0.3265
  302TMC3    C2 4544   2.326   1.880   1.256  0.6700  0.4736  0.3011
  302TMC3    C3 4545   2.306   1.759   1.192  0.6553 -1.1048 -0.3036
  302TMC3    C4 4546   2.099   1.935   1.189 -0.0230 -0.1155  0.6683
  302TMC3    C5 4547   2.091   1.815   1.124 -0.4390 -0.0963 -0.0006
  302TMC3    C6 4548   2.190   1.720   1.129  0.4836  0.3961 -0.3468
  302TMC3     C 4549   2.221   2.093   1.323 -0.2370 -0.1266 -1.1230
  302TMC3     O 4550   2.141   2.173   1.276  0.5739  0.4863 -0.1343
  302TMC3     H 4551   2.409   1.913   1.318  0.8703  1.0645 -0.2884
  302TMC3    H1 4552   2.025   2.012   1.173  0.6829  0.3374 -0.4142
  302TMC3    H2 4553   2.187   1.639   1.057 -0.5832 -1.6780  2.0765
  302TMC3    C7 4554   1.988   1.793   1.023 -0.3406  0.1411 -0.0692
  302TMC3    C8 4555   2.427   1.685   1.166  0.2872  0.0477 -0.6608
  302TMC3    O1 4556   2.026   1.738   0.923  0.0560  0.0813  0.2517
  302TMC3    O2 4557   2.529   1.750   1.181  0.0503  0.4073  0.2776
  303MPD2     C 4558   3.169   4.245  10.209  0.6028 -0.1910 -0.7404
  303MPD2    C1 4559   3.073   4.351  10.226  0.2727 -0.1900 -0.9221
  303MPD2    C2 4560   3.048   4.430  10.116 -0.2588 -0.4322 -0.8443
  303MPD2    C3 4561   3.127   4.417  10.004  0.4866  0.0558 -0.9754
  303MPD2    C4 4562   3.223   4.324   9.991  0.2636  0.3631  0.3717
  303MPD2    C5 4563   3.243   4.235  10.097  0.6594  0.5383  0.2780
  303MPD2     H 4564   2.975   4.510  10.120 -1.3276 -1.4076 -1.0700
  303MPD2    H1 4565   3.278   4.311   9.899  0.5079  0.3574  0.5198
  303MPD2    H2 4566   3.184   4.171  10.286  0.2886  0.6604  0.1437
  303MPD2    H3 4567   3.301   4.144  10.083 -1.9185 -1.1264  0.4815
  303MPD2     N 4568   3.116   4.489   9.884 -0.6383 -0.1201 -0.2011
  303MPD2    H5 4569   3.178   4.460   9.809  3.7098  0.9052  2.9996
  303MPD2    N1 4570   3.004   4.360  10.347 -0.1302 -0.1552 -0.2203
  303MPD2    H7 4571   3.037   4.298  10.420 -0.0240 -1.5341 -1.4275
  304TMC3    C1 4572   2.845   4.421  10.505  0.1732  0.4067 -0.6455
  304TMC3    C2 4573   2.786   4.533  10.560  0.4308  0.8353 -0.2562
  304TMC3    C3 4574   2.678   4.517  10.647 -0.0031 -0.1834  0.4122
  304TMC3    C4 4575   2.797   4.294  10.531  0.8377 -0.0768  0.3551
  304TMC3    C5 4576   2.690   4.277  10.620  0.3448 -0.7787  0.0418
  304TMC3    C6 4577   2.645   4.388  10.687  0.7615  0.0556  0.0505
  304TMC3     C 4578   2.898   4.440  10.373 -0.3039 -0.3708  1.0170
  304TMC3     O 4579   2.849   4.534  10.310  0.2422 -0.1203  0.4920
  304TMC3     H 4580   2.826   4.627  10.525 -3.8919  1.9225 -2.2778
  304TMC3    H1 4581   2.828   4.213  10.466 -1.2587 -0.6153  0.0266
  304TMC3    H2 4582   2.559   4.383  10.753  1.2891  2.3063  0.8976
  304TMC3    C7 4583   2.596   4.173  10.570  0.8737  0.6375 -0.3139
  304TMC3    C8 4584   2.559   4.583  10.596 -0.0579  0.2826  0.2624
  304TMC3    O1 4585   2.603   4.150  10.448 -0.4170  0.3348 -0.6768
  304TMC3    O2 4586   2.451   4.551  10.647  0.1870 -0.4286  0.2114
  305MPD2     C 4587   0.734   2.254  13.822  0.2901 -0.8518  0.1988
  305MPD2    C1 4588   0.839   2.299  13.740 -0.3678 -0.7294  0.2775
  305MPD2    C2 4589   0.837   2.262  13.607  0.6900  0.0230  0.1793
  305MPD2    C3 4590   0.724   2.202  13.554 -0.0499  0.3677 -0.5173
  305MPD2    C4 4591   0.620   2.159  13.636 -0.0322 -0.2132  0.0232
  305MPD2    C5 4592   0.624   2.189  13.770  0.3073 -0.2427  0.3014
  305MPD2     H 4593   0.919   2.296  13.545  1.7109 -2.3002  0.2876
  305MPD2    H1 4594   0.533   2.117  13.588  1.4658 -1.9140 -1.2029
  305MPD2    H2 4595   0.726   2.276  13.928  0.2451  0.3501 -0.0553
  305MPD2    H3 4596   0.541   2.163  13.834 -0.1192  2.5225  0.8788
  305MPD2     N 4597   0.709   2.184  13.413  0.2513  0.4005  0.2786
  305MPD2    H5 4598   0.629   2.132  13.378  1.1407  0.2265 -1.4991
  305MPD2    N1 4599   0.936   2.377  13.804  0.3042  0.4957 -0.7994
  305MPD2    H7 4600   0.920   2.409  13.899 -1.6061 -0.6122 -0.7418
  306TMC3    C1 4601   1.141   2.474  13.829 -0.5014 -0.1223  0.5931
  306TMC3    C2 4602   1.278   2.442  13.791 -0.3044  0.2675  0.7173
  306TMC3    C3 4603   1.366   2.404  13.883 -0.1097  0.3142 -0.4263
  306TMC3    C4 4604   1.101   2.485  13.959  0.2574  0.0584 -0.1961
  306TMC3    C5 4605   1.207   2.469  14.049 -1.1498  0.6053 -0.3376
  306TMC3    C6 4606   1.331   2.419  14.014  0.0988  0.3575 -0.5610
  306TMC3     C 4607   1.054   2.402  13.742 -0.3532  0.5409 -0.2797
  306TMC3     O 4608   1.111   2.346  13.646  0.3943  0.5861 -0.1307
  306TMC3     H 4609   1.304   2.442  13.686 -1.5323 -4.8529  0.4025
  306TMC3    H1 4610   1.002   2.519  13.986  0.4945  1.2691 -0.8338
  306TMC3    H2 4611   1.398   2.380  14.089  0.2464 -0.3278 -1.0591
  306TMC3    C7 4612   1.184   2.515  14.181 -0.2697 -0.0783  0.0963
  306TMC3    C8 4613   1.427   2.276  13.860 -0.5206  0.7282 -0.0612
  306TMC3    O1 4614   1.067   2.533  14.211 -0.1043 -0.1515 -0.0796
  306TMC3    O2 4615   1.517   2.238  13.934 -0.2948 -0.2362 -0.1761
  307MPD2     C 4616   3.726   4.685   0.505  0.1223  0.1869 -0.3522
  307MPD2    C1 4617   3.620   4.668   0.422  0.1510  0.3805  0.3236
  307MPD2    C2 4618   3.498   4.683   0.477 -0.2299  0.3336 -0.4998
  307MPD2    C3 4619   3.482   4.719   0.611  0.2527  0.1039  0.4186
  307MPD2    C4 4620   3.596   0.006   0.689 -0.1162  0.6190  0.0608
  307MPD2    C5 4621   3.713   4.705   0.636  0.2235 -0.4221  0.0954
  307MPD2     H 4622   3.408   4.674   0.417 -0.5855  0.7460 -0.0224
  307MPD2    H1 4623   3.599   0.038   0.792 -1.8899  0.4153  0.1874
  307MPD2    H2 4624   3.828   4.688   0.469 -0.4885  1.0622 -2.0079
  307MPD2    H3 4625   3.801   0.001   0.695 -0.7045  2.4911  0.3175
  307MPD2     N 4626   3.356   0.009   0.667 -0.6562  0.8314 -0.3702
  307MPD2    H5 4627   3.279   4.723   0.603 -2.3923  2.2303  1.4225
  307MPD2    N1 4628   3.632   4.642   0.289 -0.9336  1.1436 -0.1657
  307MPD2    H7 4629   3.550   4.622   0.233 -1.5025 -0.6578  1.3139
  308TMC3    C1 4630   2.967   0.033   0.766 -0.4194  0.3474  0.8563
  308TMC3    C2 4631   2.925   0.148   0.821 -0.6814 -0.1993  0.3338
  308TMC3    C3 4632   3.009   0.244   0.864 -0.4147 -0.2649  0.3161
  308TMC3    C4 4633   3.098   0.005   0.768 -0.1783 -0.2448 -0.3990
  308TMC3    C5 4634   3.182   0.098   0.802  0.1219 -0.1462 -0.0537
  308TMC3    C6 4635   3.145   0.220   0.853  0.2357  0.1831  0.1363
  308TMC3     C 4636   2.917   0.009   0.631  1.5582 -0.5691 -0.2301
  308TMC3     O 4637   2.998   4.697   0.552  0.4130  0.3767 -0.2605
  308TMC3     H 4638   2.819   0.158   0.842  0.1330  0.0685  4.2251
  308TMC3    H1 4639   3.140   4.639   0.733 -0.0982  0.4649 -2.2331
  308TMC3    H2 4640   3.221   0.290   0.888  1.1460 -0.1944 -1.0979
  308TMC3    C7 4641   3.331   0.070   0.787  0.5782  0.0003 -0.1565
  308TMC3    C8 4642   2.986   0.385   0.830  0.1425 -0.0789  0.1849
  308TMC3    O1 4643   3.405   0.141   0.854  0.2789  0.0628 -0.0447
  308TMC3    O2 4644   2.999   0.476   0.915 -0.1454  0.1791  0.5134
  309MPD2     C 4645   2.324   0.633  16.876 -0.0020  0.3536 -0.1468
  309MPD2    C1 4646   2.337   0.760  16.822 -0.0742 -0.7190  0.0198
  309MPD2    C2 4647   2.299   0.871  16.885  0.9513 -1.2820 -0.0921
  309MPD2    C3 4648   2.240   0.864  17.011  0.0141 -0.2730 -0.3473
  309MPD2    C4 4649   2.229   0.736  17.065  0.9066  0.4099 -0.2002
  309MPD2    C5 4650   2.278   0.627  17.005  0.4670  0.3875 -0.1733
  309MPD2     H 4651   2.316   0.968  16.840  0.6779 -1.2290 -0.0789
  309MPD2    H1 4652   2.203   0.715  17.168  0.3488 -4.6382 -1.3514
  309MPD2    H2 4653   2.344   0.538  16.826 -0.1175 -1.5414  3.3732
  309MPD2    H3 4654   2.275   0.528  17.050  0.2731 -0.0094 -1.0579
  309MPD2     N 4655   2.185   0.976  17.086  0.1707  0.5072 -0.4101
  309MPD2    H5 4656   2.118   0.953  17.159 -0.7946  1.5075 -0.9765
  309MPD2    N1 4657   2.401   0.780  16.696 -0.2390 -0.0527 -0.7590
  309MPD2    H7 4658   2.412   0.873  16.656 -0.1289  0.7603  1.1592
  310TMC3    C1 4659   2.523   0.733  16.511  0.0105 -0.0155 -0.0254
  310TMC3    C2 4660   2.472   0.843  16.447  0.1757  0.2811 -0.0717
  310TMC3    C3 4661   2.555   0.908  16.358 -0.0495  0.1856  1.0536
  310TMC3    C4 4662   2.641   0.675  16.477 -0.1504  0.3208 -0.2724
  310TMC3    C5 4663   2.723   0.744  16.394  0.0078  0.2471  0.1031
  310TMC3    C6 4664   2.682   0.864  16.346  0.5684 -0.3677 -0.0255
  310TMC3     C 4665   2.474   0.685  16.636  0.1400 -0.6412 -0.0589
  310TMC3     O 4666   2.518   0.576  16.685 -0.5343  0.7715 -0.3019
  310TMC3     H 4667   2.373   0.886  16.458  0.2546  0.9076 -1.8000
  310TMC3    H1 4668   2.685   0.600  16.542 -1.7517 -1.6405 -1.4862
  310TMC3    H2 4669   2.755   0.932  16.302  0.6550 -0.6231 -0.2783
  310TMC3    C7 4670   2.861   0.699  16.383  0.4644 -0.1088 -0.0787
  310TMC3    C8 4671   2.505   1.036  16.303 -0.0400 -0.4070  0.7400
  310TMC3    O1 4672   2.883   0.594  16.444 -0.1110  0.2880 -0.0194
  310TMC3    O2 4673   2.416   1.092  16.367  0.1970  0.5899  0.6934
  311MPD2     C 4674   4.713   1.617  12.673 -0.1535  0.2183 -0.4643
  311MPD2    C1 4675   4.704   1.744  12.720  0.3316  0.4314  0.1082
  311MPD2    C2 4676   4.579   1.794  12.754 -0.8456  0.3448 -0.1499
  311MPD2    C3 4677   4.466   1.720  12.755 -0.1122  0.0892  0.1857
  311MPD2    C4 4678   4.471   1.588  12.700  0.2294 -0.0449 -0.3572
  311MPD2    C5 4679   4.594   1.542  12.658  0.1677  0.1651 -0.9146
  311MPD2     H 4680   4.568   1.895  12.791  1.6156  0.3734  0.5172
  311MPD2    H1 4681   4.383   1.527  12.682 -0.8143  1.0853  0.8396
  311MPD2    H2 4682   0.081   1.567  12.660 -1.1423 -1.9471  0.5215
  311MPD2    H3 4683   4.603   1.447  12.607 -2.7903 -0.6638  0.0873
  311MPD2     N 4684   4.345   1.786  12.796  0.5897  0.0856 -0.5828
  311MPD2    H5 4685   4.355   1.882  12.826 -0.5079 -0.5549  1.8233
  311MPD2    N1 4686   0.089   1.824  12.737  0.6063 -0.4844 -0.5248
  311MPD2    H7 4687   0.069   1.916  12.775  1.0129 -0.0048 -1.4731
  312TMC3    C1 4688   4.117   1.824  12.837 -0.0888 -0.2546  0.1144
  312TMC3    C2 4689   4.020   1.851  12.750  0.0119  0.6252  0.4272
  312TMC3    C3 4690   3.949   1.969  12.763  0.0733  0.3508  0.5937
  312TMC3    C4 4691   4.154   1.907  12.944  0.1871  0.0047 -0.8902
  312TMC3    C5 4692   4.086   2.027  12.959  0.1373  0.3361  0.9366
  312TMC3    C6 4693   3.988   2.050  12.864 -0.2339 -0.4934  0.2604
  312TMC3     C 4694   4.220   1.735  12.781  0.1437 -0.0496 -0.0184
  312TMC3     O 4695   4.180   1.637  12.722  0.4729 -0.2583  0.2324
  312TMC3     H 4696   3.983   1.772  12.687 -0.8099  2.3748 -1.2893
  312TMC3    H1 4697   4.245   1.887  12.999 -0.7265  0.9514  0.9273
  312TMC3    H2 4698   3.945   2.149  12.876 -0.2067 -0.2279 -1.8040
  312TMC3    C7 4699   4.164   2.140  13.002 -0.1125 -0.6137  0.2176
  312TMC3    C8 4700   3.813   1.969  12.720 -0.5570  0.2205  0.2559
  312TMC3    O1 4701   4.220   2.210  12.917  0.2387  0.1832 -0.7129
  312TMC3    O2 4702   3.775   1.866  12.669  0.5827  0.3244  0.1379
  313MPD2     C 4703   4.130   1.195  10.849  0.2118  0.2018  0.3105
  313MPD2    C1 4704   4.007   1.195  10.780 -0.3612 -0.6522 -0.0027
  313MPD2    C2 4705   3.971   1.093  10.691 -0.8916 -0.1308 -0.4669
  313MPD2    C3 4706   4.064   0.999  10.656 -0.3502  0.3148  0.3897
  313MPD2    C4 4707   4.176   0.997  10.729 -0.2047  0.9274  0.1391
  313MPD2    C5 4708   4.217   1.091  10.824 -0.0589  0.0454 -0.0335
  313MPD2     H 4709   3.870   1.098  10.652  0.0632  0.1902 -2.9087
  313MPD2    H1 4710   4.251   0.920  10.717 -0.3390  1.0315 -1.2827
  313MPD2    H2 4711   4.179   1.274  10.903  2.0592  0.2985 -1.5172
  313MPD2    H3 4712   4.306   1.084  10.885 -0.5191 -0.7839  0.5469
  313MPD2     N 4713   4.035   0.907  10.553 -0.5949 -0.1913 -0.2767
  313MPD2    H5 4714   3.946   0.932  10.512 -0.2841 -0.3178 -1.0319
  313MPD2    N1 4715   3.919   1.299  10.799  0.0638 -0.0719  0.0388
  313MPD2    H7 4716   3.825   1.295  10.759 -1.1432  2.0436  2.6305
  314TMC3    C1 4717   3.843   1.511  10.875  0.3953  0.0932  0.3162
  314TMC3    C2 4718   3.830   1.584  10.987  0.1876 -0.1889 -0.5317
  314TMC3    C3 4719   3.827   1.722  10.981 -0.9581  0.0389 -0.5161
  314TMC3    C4 4720   3.849   1.569  10.751 -0.4723  0.1357 -1.1948
  314TMC3    C5 4721   3.835   1.705  10.746 -0.3239  0.2124 -0.1296
  314TMC3    C6 4722   3.815   1.781  10.860 -0.4676  0.3783  0.0281
  314TMC3     C 4723   3.940   1.406  10.885  0.2056  0.3401 -0.4414
  314TMC3     O 4724   4.028   1.440  10.966  0.0180  0.2027  0.0543
  314TMC3     H 4725   3.841   1.538  11.085 -0.9289 -1.6980 -1.1127
  314TMC3    H1 4726   3.842   1.515  10.658  1.0838  0.2663 -1.3835
  314TMC3    H2 4727   3.803   1.888  10.851 -0.7323  0.4496  1.2785
  314TMC3    C7 4728   3.831   1.766  10.614  0.3728  0.5850  0.4388
  314TMC3    C8 4729   3.926   1.790  11.063 -0.0919 -0.6933  0.7786
  314TMC3    O1 4730   3.754   1.858  10.591  0.0455  0.2604  0.6159
  314TMC3    O2 4731   3.913   1.913  11.060  0.1573  0.3477 -0.9538
  315MPD2     C 4732   3.270   0.741   0.784  0.4886 -0.4644 -0.1653
  315MPD2    C1 4733   3.393   0.743   0.728  0.4296  0.1264 -0.2672
  315MPD2    C2 4734   3.432   0.850   0.648 -0.0339  0.3806  0.5466
  315MPD2    C3 4735   3.346   0.950   0.619 -0.2085 -0.1706 -0.3480
  315MPD2    C4 4736   3.224   0.946   0.677  0.0188 -0.2322 -0.5728
  315MPD2    C5 4737   3.189   0.846   0.765  0.8412  0.0244 -0.1048
  315MPD2     H 4738   3.528   0.850   0.598  0.0725 -0.7553  0.7377
  315MPD2    H1 4739   3.150   1.025   0.670 -0.1218 -0.3292 -0.2083
  315MPD2    H2 4740   3.226   0.661   0.843  0.2711 -0.1793  0.0606
  315MPD2    H3 4741   3.094   0.847   0.818  0.6289 -1.0727 -0.4634
  315MPD2     N 4742   3.390   1.049   0.529 -0.1911  0.1186  0.1727
  315MPD2    H5 4743   3.475   1.030   0.477 -0.4562 -1.0599  0.1810
  315MPD2    N1 4744   3.490   0.643   0.751  0.3865 -0.3226  0.1603
  315MPD2    H7 4745   3.582   0.647   0.709  1.1975 -1.7293  1.8476
  316TMC3    C1 4746   3.364   1.240   0.386 -0.1021 -0.3298 -0.4238
  316TMC3    C2 4747   3.501   1.252   0.379  0.2212  0.2037 -0.5492
  316TMC3    C3 4748   3.541   1.304   0.257 -0.5344 -0.0196  0.0835
  316TMC3    C4 4749   3.272   1.272   0.288 -0.9313  0.1490 -0.2674
  316TMC3    C5 4750   3.328   1.317   0.171  0.2760  0.5030 -0.1837
  316TMC3    C6 4751   3.458   1.342   0.157 -0.4549 -0.7799  0.4215
  316TMC3     C 4752   3.312   1.165   0.498  0.3719  0.1305  0.3467
  316TMC3     O 4753   3.204   1.201   0.537  0.5730  0.2706 -0.0589
  316TMC3     H 4754   3.569   1.244   0.463 -2.0273 -0.6810  1.1782
  316TMC3    H1 4755   3.168   1.245   0.296 -0.8281 -0.2369 -0.2113
  316TMC3    H2 4756   3.500   1.363   0.059 -0.9831 -0.0536  0.3489
  316TMC3    C7 4757   3.276   1.234   0.063  0.1324 -0.1589 -0.4947
  316TMC3    C8 4758   3.677   1.345   0.254 -0.0890  0.0719 -0.4974
  316TMC3    O1 4759   3.204   1.144   0.102 -0.3772 -0.3860 -0.0678
  316TMC3    O2 4760   3.699   1.456   0.207  0.0286 -0.4537 -0.9373
  317MPD2     C 4761   0.960   4.052  12.924  0.0724  0.0639 -0.3082
  317MPD2    C1 4762   0.992   3.931  12.865 -0.0037 -0.8018  0.3605
  317MPD2    C2 4763   1.078   3.843  12.927  0.3922 -0.1103 -0.0761
  317MPD2    C3 4764   1.129   3.876  13.051 -0.1928  0.1801  0.1372
  317MPD2    C4 4765   1.081   3.990  13.112  0.7994  0.6640  0.4555
  317MPD2    C5 4766   1.001   4.085  13.047  0.5017 -0.0847  0.1943
  317MPD2     H 4767   1.101   3.746  12.884 -1.0568 -0.5946  0.2541
  317MPD2    H1 4768   1.127   4.025  13.204  1.3305 -1.8782  1.1550
  317MPD2    H2 4769   0.912   4.134  12.871 -0.7168 -2.6222 -3.8017
  317MPD2    H3 4770   0.979   4.183  13.087  1.8369 -0.4540  1.8333
  317MPD2     N 4771   1.221   3.785  13.108 -0.7871 -0.1411  0.1024
  317MPD2    H5 4772   1.249   3.715  13.039  0.7664 -0.9349  1.5470
  317MPD2    N1 4773   0.949   3.895  12.731 -0.0367 -0.3847  0.5932
  317MPD2    H7 4774   0.958   3.799  12.700 -0.7255  0.2840 -1.6457
  318TMC3    C1 4775   1.372   3.702  13.267 -0.0586 -0.2068 -0.7560
  318TMC3    C2 4776   1.401   3.593  13.193 -0.6129 -0.0374 -0.9264
  318TMC3    C3 4777   1.508   3.514  13.225 -0.3303 -0.8072 -0.5865
  318TMC3    C4 4778   1.454   3.738  13.370  0.4745  0.2421  0.2759
  318TMC3    C5 4779   1.572   3.670  13.381  0.7063  0.0423 -0.3429
  318TMC3    C6 4780   1.601   3.555  13.314 -0.0536 -0.2687  0.1629
  318TMC3     C 4781   1.263   3.788  13.240 -0.7253 -0.7165 -1.4734
  318TMC3     O 4782   1.252   3.876  13.320  0.9872  0.1891  0.3737
  318TMC3     H 4783   1.331   3.559  13.117 -0.4461  1.0498 -1.5731
  318TMC3    H1 4784   1.440   3.823  13.436 -0.5216  0.9540 -0.8700
  318TMC3    H2 4785   1.693   3.500  13.329  1.0412  1.5989  0.3288
  318TMC3    C7 4786   1.648   3.714  13.503  0.2632  0.3128  0.0151
  318TMC3    C8 4787   1.507   3.376  13.193 -0.0121  0.2426 -0.9759
  318TMC3    O1 4788   1.588   3.764  13.595  0.5674  0.4993 -0.0799
  318TMC3    O2 4789   1.618   3.323  13.195  0.4054 -0.1053 -0.1394
  319MPD2     C 4790   2.173   0.547  16.150 -0.1645  0.2353 -0.4410
  319MPD2    C1 4791   2.098   0.582  16.261  0.1992  0.1082 -0.6701
  319MPD2    C2 4792   1.964   0.600  16.259  0.1002 -0.2590  0.0459
  319MPD2    C3 4793   1.898   0.580  16.133  0.3163 -0.1273 -0.7544
  319MPD2    C4 4794   1.978   0.553  16.023  0.1334  0.0669 -0.5265
  319MPD2    C5 4795   2.113   0.528  16.032 -0.9444 -0.8845  0.4874
  319MPD2     H 4796   1.908   0.638  16.343 -0.0783  0.3138 -0.3293
  319MPD2    H1 4797   1.927   0.541  15.928 -1.1511 -1.1744  0.3300
  319MPD2    H2 4798   2.281   0.542  16.152 -0.1463  1.3055  1.6294
  319MPD2    H3 4799   2.163   0.506  15.938 -0.0861 -0.1306  0.7731
  319MPD2     N 4800   1.758   0.573  16.113  0.6846  0.0896 -0.2172
  319MPD2    H5 4801   1.718   0.578  16.019  0.7646  2.0133 -0.1586
  319MPD2    N1 4802   2.144   0.572  16.395  0.1570  0.5913 -0.8180
  319MPD2    H7 4803   2.082   0.599  16.470  0.4278 -1.7073  0.2278
  320TMC3    C1 4804   1.533   0.527  16.180 -0.0584  0.0136 -0.3181
  320TMC3    C2 4805   1.478   0.594  16.076  0.0535  1.2152  0.2374
  320TMC3    C3 4806   1.343   0.564  16.056  0.3302  0.3603  0.4116
  320TMC3    C4 4807   1.482   0.415  16.239  0.4096  0.2464 -0.0021
  320TMC3    C5 4808   1.368   0.369  16.182 -0.5474  0.5263 -0.0293
  320TMC3    C6 4809   1.287   0.442  16.102 -0.3454  0.4755  0.1521
  320TMC3     C 4810   1.672   0.561  16.222  0.4069 -0.1379  0.0947
  320TMC3     O 4811   1.704   0.526  16.337 -0.1357 -0.1607  1.0780
  320TMC3     H 4812   1.533   0.684  16.051  0.1815  0.7683 -1.0765
  320TMC3    H1 4813   1.538   0.357  16.312 -1.9907 -1.4044  0.5535
  320TMC3    H2 4814   1.198   0.392  16.069  1.2878 -1.8525 -0.7142
  320TMC3    C7 4815   1.354   0.225  16.170  0.2956  0.6571  0.2418
  320TMC3    C8 4816   1.288   0.626  15.937  0.2503 -0.4825  0.3943
  320TMC3    O1 4817   1.275   0.178  16.085 -0.0748 -0.3502  0.0775
  320TMC3    O2 4818   1.361   0.708  15.882 -0.1956 -0.0877 -0.3452
  321TMC3    C1 4819   2.248   0.467  16.572  0.0574  0.4058 -0.2736
  321TMC3    C2 4820   2.306   0.347  16.595 -0.0734  0.5241  0.2928
  321TMC3    C3 4821   2.230   0.261  16.667  0.1446 -0.4166 -0.2891
  321TMC3    C4 4822   2.129   0.508  16.626  0.1782  0.4803 -0.8486
  321TMC3    C5 4823   2.061   0.417  16.705 -0.7780  0.7461  0.1679
  321TMC3    C6 4824   2.105   0.292  16.714  0.0582 -0.3827  0.0108
  321TMC3     C 4825   2.257   0.501  16.432 -0.0404 -0.1784  0.4290
  321TMC3     O 4826   2.354   0.460  16.370  0.2485  0.5133  0.2175
  321TMC3     H 4827   2.402   0.323  16.552  0.0264 -0.6307  1.1458
  321TMC3    H1 4828   2.095   0.611  16.631  0.4576  0.5482 -0.3772
  321TMC3    H2 4829   2.034   0.213  16.740  2.1170 -1.4639  2.3366
  321TMC3    C7 4830   2.029   0.474  16.837  0.4913  0.0643  0.2681
  321TMC3    C8 4831   2.294   0.185  16.773 -0.4558  1.2507 -0.3554
  321TMC3    O1 4832   1.975   0.582  16.847 -0.1632 -0.5999  0.4822
  321TMC3    O2 4833   2.218   0.153  16.864 -0.5762  0.2847 -0.3194
  322MPD2     C 4834   1.020   1.580  12.837  0.4703  0.1937  0.6259
  322MPD2    C1 4835   0.975   1.551  12.960  0.0366 -0.2351 -0.5831
  322MPD2    C2 4836   0.965   1.413  12.993 -1.4642  0.0862  0.4001
  322MPD2    C3 4837   0.996   1.313  12.896 -0.3286  0.0755 -0.4694
  322MPD2    C4 4838   1.028   1.355  12.766 -0.2035  0.6074 -0.0589
  322MPD2    C5 4839   1.038   1.484  12.743  0.1207  0.5987  0.7362
  322MPD2     H 4840   0.941   1.378  13.092  0.3910  0.2045  0.8787
  322MPD2    H1 4841   1.065   1.299  12.681  3.1378  0.3841  1.5496
  322MPD2    H2 4842   1.023   1.683  12.803 -1.9300  0.9246  2.6610
  322MPD2    H3 4843   1.070   1.519  12.646  1.0701 -1.6803  0.2181
  322MPD2     N 4844   0.986   1.182  12.935 -0.3170 -0.8041  0.3241
  322MPD2    H5 4845   0.955   1.153  13.027 -5.7654 -0.4561 -1.3905
  322MPD2    N1 4846   0.957   1.656  13.050  0.4018  0.3505  0.1204
  322MPD2    H7 4847   0.981   1.745  13.009  1.3111  0.8562  1.7231
  323TMC3    C1 4848   0.889   1.776  13.249  0.1143 -0.3936  0.8738
  323TMC3    C2 4849   0.966   1.877  13.198 -0.0187  0.3804 -0.2157
  323TMC3    C3 4850   1.011   1.972  13.283  0.5223  0.3223  0.3947
  323TMC3    C4 4851   0.856   1.768  13.381 -0.2027  0.3543  0.7683
  323TMC3    C5 4852   0.895   1.872  13.459 -0.5586  0.3025  0.5820
  323TMC3    C6 4853   0.971   1.981  13.412 -0.1473 -0.4878 -0.1678
  323TMC3     C 4854   0.898   1.652  13.178  0.1508  0.1732  0.1639
  323TMC3     O 4855   0.845   1.552  13.222  0.5444 -0.1692 -0.2469
  323TMC3     H 4856   0.998   1.889  13.096  0.7364 -3.5126 -0.4595
  323TMC3    H1 4857   0.815   1.676  13.422  1.9645 -0.9405  0.0195
  323TMC3    H2 4858   1.024   2.053  13.474 -0.8102 -0.5852  0.5185
  323TMC3    C7 4859   0.901   1.834  13.599  0.3058  0.1904  0.1748
  323TMC3    C8 4860   1.119   2.047  13.234 -0.1632 -0.4537 -0.2115
  323TMC3    O1 4861   0.849   1.728  13.636 -0.4951  0.0626  0.2676
  323TMC3    O2 4862   1.191   1.991  13.154 -0.0671 -0.2458 -0.1436
  324MPD2     C 4863   2.733   3.197  14.339 -0.1649 -0.1867  0.7348
  324MPD2    C1 4864   2.691   3.254  14.458 -0.2773  0.1064 -1.0830
  324MPD2    C2 4865   2.561   3.273  14.477 -0.0681 -0.3437 -0.3961
  324MPD2    C3 4866   2.468   3.247  14.374 -0.3189 -0.2695 -0.5940
  324MPD2    C4 4867   2.509   3.184  14.265 -0.0075 -0.0460  0.5047
  324MPD2    C5 4868   2.643   3.161  14.243  0.3782  0.4684  0.3175
  324MPD2     H 4869   2.524   3.326  14.565 -0.0561 -1.2806  0.1701
  324MPD2    H1 4870   2.435   3.164  14.189 -0.3155  0.4722  0.6667
  324MPD2    H2 4871   2.834   3.176  14.306 -1.4942 -1.1335 -2.6973
  324MPD2    H3 4872   2.678   3.115  14.152  1.2746  0.5339  0.6262
  324MPD2     N 4873   2.330   3.277  14.374 -0.0789 -0.4450 -0.1577
  324MPD2    H5 4874   2.283   3.235  14.294  0.2217  0.0342 -0.5858
  324MPD2    N1 4875   2.779   3.262  14.578 -0.2441  0.1311  0.0481
  324MPD2    H7 4876   2.728   3.296  14.658 -2.2484 -1.7585 -0.4374
  325TMC3    C1 4877   2.112   3.343  14.461 -0.4711 -0.7728  0.0914
  325TMC3    C2 4878   2.065   3.261  14.366 -0.2914  0.6375 -0.5033
  325TMC3    C3 4879   1.936   3.282  14.324  0.0607 -0.3531  0.3829
  325TMC3    C4 4880   2.036   3.435  14.523 -0.9679 -0.0842  0.7650
  325TMC3    C5 4881   1.910   3.456  14.474  0.4339  0.4108  0.0961
  325TMC3    C6 4882   1.857   3.386  14.369 -0.0335  0.5807  0.1381
  325TMC3     C 4883   2.258   3.348  14.473  0.3069  1.0024 -0.1083
  325TMC3     O 4884   2.311   3.421  14.554 -0.0893 -0.7997  0.0118
  325TMC3     H 4885   2.117   3.169  14.341 -1.5811 -0.0842 -0.4985
  325TMC3    H1 4886   2.076   3.479  14.613  0.8291  1.0582 -0.5834
  325TMC3    H2 4887   1.758   3.410  14.332  0.0110 -0.5020 -0.6911
  325TMC3    C7 4888   1.836   3.573  14.529  1.1603 -0.3023 -0.1904
  325TMC3    C8 4889   1.893   3.188  14.224  0.6278 -1.3818 -0.8973
  325TMC3    O1 4890   1.876   3.612  14.641  0.1108 -0.2711 -0.5717
  325TMC3    O2 4891   1.967   3.095  14.196 -0.1356  0.3311  0.2452
  326MPD2     C 4892   3.343   3.851  10.889 -0.3819 -0.5315 -0.1173
  326MPD2    C1 4893   3.443   3.770  10.834  0.2022 -0.1154  0.1219
  326MPD2    C2 4894   3.574   3.805  10.852  0.3852  1.2989  0.6854
  326MPD2    C3 4895   3.608   3.924  10.912  0.0082 -0.2285 -0.0181
  326MPD2    C4 4896   3.504   4.004  10.970  0.6440 -0.4886 -0.0302
  326MPD2    C5 4897   3.374   3.970  10.952  0.2253  0.5148  0.2511
  326MPD2     H 4898   3.652   3.752  10.797 -0.4687  1.2932 -0.5303
  326MPD2    H1 4899   3.516   4.100  11.021  0.4583 -0.6450  0.3103
  326MPD2    H2 4900   3.239   3.829  10.869 -0.9590  0.7111  1.5650
  326MPD2    H3 4901   3.289   4.034  10.975  0.3718  1.1357 -0.9785
  326MPD2     N 4902   3.740   3.968  10.927  0.4570  0.4740  0.0053
  326MPD2    H5 4903   3.749   4.066  10.950  1.9218  0.4017 -0.3101
  326MPD2    N1 4904   3.417   3.668  10.740  0.2636  0.2773  0.4495
  326MPD2    H7 4905   3.502   3.627  10.703 -0.2905 -1.1396  0.7670
  327TMC3    C1 4906   3.317   3.520  10.589 -0.1767  0.1264  0.1608
  327TMC3    C2 4907   3.274   3.544  10.460 -0.3656  0.0878  0.2064
  327TMC3    C3 4908   3.334   3.475  10.360  0.2691  0.5019  0.2816
  327TMC3    C4 4909   3.424   3.442  10.612  0.0304  0.3905  0.3681
  327TMC3    C5 4910   3.476   3.362  10.516 -0.7366  0.1084 -0.3993
  327TMC3    C6 4911   3.419   3.375  10.390 -0.4506  0.2064 -0.5924
  327TMC3     C 4912   3.294   3.624  10.689 -0.1896 -0.5905 -0.0778
  327TMC3     O 4913   3.186   3.676  10.686  0.5442  0.4072 -0.7545
  327TMC3     H 4914   3.219   3.636  10.448  0.6132  0.4513 -1.4117
  327TMC3    H1 4915   3.453   3.417  10.713 -0.3143  1.5406  0.7610
  327TMC3    H2 4916   3.446   3.295  10.321  0.2635 -0.1650  0.1126
  327TMC3    C7 4917   3.617   3.358  10.497 -0.2946 -0.1404 -1.0376
  327TMC3    C8 4918   3.389   3.556  10.258  0.1191 -0.8331 -0.4500
  327TMC3    O1 4919   3.656   3.313  10.392 -0.2161  0.8840 -0.5141
  327TMC3    O2 4920   3.354   3.673  10.248 -0.2491  0.0582  0.2486
  328MPD2     C 4921   1.528   3.723  17.263 -0.0819  0.1128 -0.1418
  328MPD2    C1 4922   1.484   3.734  17.139  0.3315  0.6581 -0.0320
  328MPD2    C2 4923   1.456   3.854  17.081 -0.9443  0.0038 -0.1875
  328MPD2    C3 4924   1.461   3.966  17.166  0.0047  0.6811 -0.2223
  328MPD2    C4 4925   1.497   3.949  17.294 -0.0923 -1.0820  0.1793
  328MPD2    C5 4926   1.530   3.828  17.346  0.1156 -0.4646  0.3745
  328MPD2     H 4927   1.433   3.867  16.976 -0.3652 -0.6280 -0.3908
  328MPD2    H1 4928   1.509   4.041  17.350 -2.3422 -0.1020 -0.9326
  328MPD2    H2 4929   1.541   3.622  17.302  5.2583  0.6942 -0.3568
  328MPD2    H3 4930   1.570   3.814  17.446 -2.8256  1.0001  1.7634
  328MPD2     N 4931   1.430   4.093  17.120  0.9545 -0.4344  0.6681
  328MPD2    H5 4932   1.453   4.172  17.180  1.3110  0.3557 -0.4974
  328MPD2    N1 4933   1.471   3.606  17.071  0.1983  0.2010 -0.3322
  328MPD2    H7 4934   1.466   3.519  17.123 -0.2223  1.5299  1.8769
  329TMC3    C1 4935   1.403   3.470  16.903 -0.3515  0.2480  0.3318
  329TMC3    C2 4936   1.267   3.469  16.940 -0.1479 -0.0201 -0.0405
  329TMC3    C3 4937   1.176   3.436  16.845 -0.5216  0.0496  0.0842
  329TMC3    C4 4938   1.442   3.431  16.776 -0.3637 -0.4715  0.5090
  329TMC3    C5 4939   1.344   3.398  16.687 -0.2800  0.0672 -0.2432
  329TMC3    C6 4940   1.211   3.408  16.715  0.0675  0.4984  0.1538
  329TMC3     C 4941   1.465   3.593  16.934 -0.6019  0.9432 -0.0927
  329TMC3     O 4942   1.473   3.674  16.844 -0.0801  0.0418  0.1397
  329TMC3     H 4943   1.233   3.516  17.032  0.4580  0.5214 -0.0973
  329TMC3    H1 4944   1.541   3.466  16.751 -1.2331 -0.2294 -2.5190
  329TMC3    H2 4945   1.135   3.388  16.640  0.3807  1.4347 -0.4254
  329TMC3    C7 4946   1.385   3.362  16.548  0.2826  0.1821  0.1031
  329TMC3    C8 4947   1.035   3.459  16.860 -0.3590 -0.3881 -1.0313
  329TMC3    O1 4948   1.303   3.415  16.476 -0.1936  0.5408  0.4788
  329TMC3    O2 4949   0.964   3.454  16.756 -0.5239  0.3254  0.1135
  330TMC3    C1 4950   0.012   2.215  10.415 -0.1516 -0.2201  0.9465
  330TMC3    C2 4951   0.059   2.155  10.299  0.4003 -0.7760  0.1998
  330TMC3    C3 4952   0.165   2.069  10.311  0.6053  0.6664  0.3858
  330TMC3    C4 4953   0.066   2.182  10.538  0.1348 -0.1356  0.3191
  330TMC3    C5 4954   0.177   2.101  10.541 -0.1592  0.2835 -0.2933
  330TMC3    C6 4955   0.230   2.042  10.424 -0.3520 -0.2294 -0.2784
  330TMC3     C 4956   4.659   2.333  10.407  0.2180 -0.4454  0.5319
  330TMC3     O 4957   4.614   2.378  10.511  0.1236 -0.6434  0.4957
  330TMC3     H 4958   0.026   2.182  10.200  0.6068  1.3792  0.7300
  330TMC3    H1 4959   0.035   2.225  10.633 -1.9241 -0.6595 -0.1110
  330TMC3    H2 4960   0.285   1.949  10.433  1.4658  0.7720 -1.0557
  330TMC3    C7 4961   0.228   2.037  10.658 -0.4003  0.1980 -0.0016
  330TMC3    C8 4962   0.182   1.971  10.202  0.5053 -0.4886  0.2200
  330TMC3    O1 4963   0.341   1.997  10.655  0.3393  0.2777  0.3913
  330TMC3    O2 4964   0.281   1.901  10.217 -0.2597 -0.0248  0.3580
  331MPD2     C 4965   2.172   2.219  12.844  0.3991 -0.3460 -0.1335
  331MPD2    C1 4966   2.277   2.227  12.752 -1.0961  0.1928 -1.0713
  331MPD2    C2 4967   2.255   2.210  12.614 -0.3098 -0.3267  1.2775
  331MPD2    C3 4968   2.123   2.204  12.570  0.6996 -0.2461  0.3110
  331MPD2    C4 4969   2.020   2.209  12.659 -0.6254  0.1781  0.5473
  331MPD2    C5 4970   2.047   2.206  12.791 -1.1494  0.6698  1.0740
  331MPD2     H 4971   2.331   2.200  12.538  0.2133  3.8260  1.2448
  331MPD2    H1 4972   1.916   2.209  12.631 -0.7732  0.5247  1.0948
  331MPD2    H2 4973   2.183   2.242  12.949  0.5265  1.3929 -0.5289
  331MPD2    H3 4974   1.955   2.214  12.848 -1.0614  2.4247  0.9728
  331MPD2     N 4975   2.112   2.193  12.429  0.0622  0.1653  0.6678
  331MPD2    H5 4976   2.199   2.185  12.377  0.6502  1.0383  1.5101
  331MPD2    N1 4977   2.398   2.271  12.805 -0.1432  0.6911 -0.2090
  331MPD2    H7 4978   2.412   2.237  12.900 -1.5512  0.7956  0.0472
  332TMC3    C1 4979   2.004   2.139  12.235  0.4562 -0.0211  0.1384
  332TMC3    C2 4980   1.956   2.195  12.117 -0.1015 -0.2119  1.0304
  332TMC3    C3 4981   1.960   2.112  12.007  0.0967  0.2245  0.4246
  332TMC3    C4 4982   2.061   2.013  12.242 -0.2753 -0.0650 -0.1432
  332TMC3    C5 4983   2.062   1.945  12.122  0.5719 -0.3216  0.2989
  332TMC3    C6 4984   2.000   1.985  12.009  0.3386  0.3753  0.3904
  332TMC3     C 4985   1.997   2.206  12.364  0.0817 -0.2553 -0.9792
  332TMC3     O 4986   1.893   2.261  12.396 -0.0561  0.4599 -0.2425
  332TMC3     H 4987   1.926   2.299  12.107  0.7711  0.0144  0.7367
  332TMC3    H1 4988   2.103   1.979  12.336  2.0801  1.8115 -0.5167
  332TMC3    H2 4989   2.033   1.950  11.911  0.1932 -0.6212  0.7030
  332TMC3    C7 4990   2.148   1.823  12.108  0.3009  0.1248 -0.5071
  332TMC3    C8 4991   2.038   2.171  11.900 -0.1927 -0.3140  0.1580
  332TMC3    O1 4992   2.146   1.757  12.009  0.6316  0.5157  0.5760
  332TMC3    O2 4993   2.145   2.231  11.926  0.1525  0.1487 -0.1944
  333MPD2     C 4994   2.264   1.922  10.963 -0.3340  0.1546  0.5912
  333MPD2    C1 4995   2.357   1.831  10.902 -0.3557 -0.0361  0.6184
  333MPD2    C2 4996   2.377   1.702  10.944  0.4868 -0.1477 -0.0594
  333MPD2    C3 4997   2.302   1.661  11.049  0.0220  0.2542  0.2443
  333MPD2    C4 4998   2.207   1.743  11.110  0.2054 -0.6535 -0.0715
  333MPD2    C5 4999   2.184   1.864  11.059 -0.0465  0.3681 -0.0242
  333MPD2     H 5000   2.440   1.629  10.894 -0.2939 -2.3495  2.2011
  333MPD2    H1 5001   2.134   1.710  11.184  1.4686  0.5575  1.7120
  333MPD2    H2 5002   2.252   2.025  10.932  0.2999  0.2723  0.7439
  333MPD2    H3 5003   2.107   1.925  11.104 -0.4423 -0.3355  0.2366
  333MPD2     N 5004   2.305   1.522  11.089 -0.1984 -0.4385 -0.1817
  333MPD2    H5 5005   2.357   1.456  11.032 -4.3317 -1.6995 -2.4960
  333MPD2    N1 5006   2.439   1.883  10.799 -0.2892 -0.2063 -0.3916
  333MPD2    H7 5007   2.423   1.980  10.775  0.1892 -0.0952 -0.2578
  334TMC3    C1 5008   2.596   1.912  10.636  0.0674 -0.2361  0.0998
  334TMC3    C2 5009   2.650   1.881  10.516  0.2845 -0.1980 -0.0123
  334TMC3    C3 5010   2.725   1.978  10.447  0.2405 -0.3590  0.2859
  334TMC3    C4 5011   2.611   2.043  10.684  0.2887 -1.1434 -0.2875
  334TMC3    C5 5012   2.676   2.135  10.611 -0.5833 -0.4941 -0.4359
  334TMC3    C6 5013   2.739   2.107  10.497  1.3404 -0.5097 -0.8120
  334TMC3     C 5014   2.520   1.816  10.721 -0.1277 -0.4189  0.4805
  334TMC3     O 5015   2.536   1.700  10.683 -0.4812  0.0139 -0.0820
  334TMC3     H 5016   2.634   1.781  10.478  0.3055 -0.2907  0.2230
  334TMC3    H1 5017   2.566   2.072  10.779 -1.9268 -1.9840 -1.0852
  334TMC3    H2 5018   2.801   2.184  10.453 -0.6926  0.4569 -2.0040
  334TMC3    C7 5019   2.695   2.265  10.671  0.3103  1.2345 -0.8429
  334TMC3    C8 5020   2.821   1.931  10.351  0.4478  0.1002 -0.1377
  334TMC3    O1 5021   2.667   2.271  10.792 -0.7760 -0.2164 -0.0134
  334TMC3    O2 5022   2.791   1.841  10.274  0.2886 -0.5643  0.0139
  335TMC3    C1 5023   1.923   4.235  17.215 -0.9111 -0.0777 -0.4599
  335TMC3    C2 5024   1.843   4.134  17.164 -0.5499  0.2577  0.5079
  335TMC3    C3 5025   1.894   4.067  17.052  0.5311  0.2620 -0.6942
  335TMC3    C4 5026   2.043   4.265  17.160 -0.4661 -0.0188 -0.1852
  335TMC3    C5 5027   2.101   4.182  17.067 -0.5376  0.2686  0.9102
  335TMC3    C6 5028   2.019   4.089  17.008  0.2935 -0.2770  0.1703
  335TMC3     C 5029   1.908   4.278  17.353  0.6555  0.1338  0.1622
  335TMC3     O 5030   1.979   4.367  17.389 -0.1538  0.2566 -0.1763
  335TMC3     H 5031   1.744   4.123  17.206 -0.9371  1.9370  0.0441
  335TMC3    H1 5032   2.091   4.355  17.195  1.2855  0.0063 -2.7214
  335TMC3    H2 5033   2.070   4.011  16.951 -0.0421 -0.4804  0.1468
  335TMC3    C7 5034   2.230   4.137  17.099 -0.3379  0.4259  0.4465
  335TMC3    C8 5035   1.844   3.929  17.059  0.0117 -0.3715  0.2275
  335TMC3    O1 5036   2.282   4.050  17.032  0.8581 -0.1483 -0.1299
  335TMC3    O2 5037   1.810   3.890  17.172  0.2021 -0.1319  0.1880
  336MPD2     C 5038   1.531   1.969  15.930 -0.1576  0.2770  0.7065
  336MPD2    C1 5039   1.510   1.873  15.834 -0.0590 -0.2307  1.5835
  336MPD2    C2 5040   1.510   1.743  15.863  0.0226 -0.0886 -0.1131
  336MPD2    C3 5041   1.537   1.703  15.997 -0.4101 -0.5793  0.3571
  336MPD2    C4 5042   1.567   1.796  16.088  0.0464  0.5758 -0.2712
  336MPD2    C5 5043   1.557   1.931  16.056  0.6847  0.1870  0.4393
  336MPD2     H 5044   1.490   1.671  15.785  0.7969 -0.1971 -0.2105
  336MPD2    H1 5045   1.603   1.760  16.184 -3.0796 -1.8626 -0.0256
  336MPD2    H2 5046   1.525   2.077  15.920 -0.6744  0.4049  2.3010
  336MPD2    H3 5047   1.591   2.011  16.122  0.0387 -0.2275  1.2849
  336MPD2     N 5048   1.534   1.562  16.041 -0.1426 -0.1498  0.1777
  336MPD2    H5 5049   1.536   1.546  16.141  0.1315  0.5005  0.2766
  336MPD2    N1 5050   1.451   1.914  15.716  0.3724 -0.4025  0.4645
  336MPD2    H7 5051   1.443   2.014  15.701  1.2506 -0.2326  1.1658
  337TMC3    C1 5052   1.343   1.916  15.507  0.5083  0.1321 -0.1184
  337TMC3    C2 5053   1.230   1.887  15.441 -0.0902  0.2481 -0.1837
  337TMC3    C3 5054   1.191   1.981  15.340 -0.2864 -0.4410  0.0319
  337TMC3    C4 5055   1.435   2.015  15.468  0.1690  0.0378  0.1730
  337TMC3    C5 5056   1.390   2.102  15.370 -0.1625  0.8530  0.1952
  337TMC3    C6 5057   1.269   2.090  15.306  0.1100 -0.1773 -0.2034
  337TMC3     C 5058   1.376   1.837  15.623  0.7303 -0.3004  0.2957
  337TMC3     O 5059   1.332   1.726  15.632  0.0168  0.0845  0.3234
  337TMC3     H 5060   1.162   1.809  15.474 -0.7047  1.1582  0.6700
  337TMC3    H1 5061   1.532   2.026  15.513 -0.4589 -0.3320  1.6080
  337TMC3    H2 5062   1.240   2.155  15.225  1.8708  2.0066  0.9321
  337TMC3    C7 5063   1.481   2.208  15.328  0.3688 -0.5551  0.1389
  337TMC3    C8 5064   1.065   1.953  15.276 -0.0850 -0.2955  0.5234
  337TMC3    O1 5065   1.606   2.200  15.349 -0.0644 -0.2174  0.0116
  337TMC3    O2 5066   0.985   1.888  15.342 -0.2108 -0.4588  0.5186
  338MPD2     C 5067   1.790   0.391   0.686  0.1732 -0.5395  0.1405
  338MPD2    C1 5068   1.835   0.515   0.638  0.2592 -0.0785  0.4310
  338MPD2    C2 5069   1.774   0.627   0.684  0.2050  0.5818  0.8185
  338MPD2    C3 5070   1.676   0.625   0.776  0.3944  0.5577 -0.8365
  338MPD2    C4 5071   1.633   0.500   0.827  0.3948 -0.3888 -0.3428
  338MPD2    C5 5072   1.695   0.385   0.784  0.4406 -0.6099  0.3383
  338MPD2     H 5073   1.821   0.721   0.659 -1.7379  1.4745  0.5324
  338MPD2    H1 5074   1.556   0.489   0.901  0.2898  1.9255 -0.1051
  338MPD2    H2 5075   1.836   0.300   0.646 -0.4519 -1.1121  0.7369
  338MPD2    H3 5076   1.663   0.288   0.821 -0.6435 -0.0699  0.8326
  338MPD2     N 5077   1.611   0.746   0.812 -0.0459 -0.3668  0.4097
  338MPD2    H5 5078   1.662   0.831   0.787 -1.5720  0.2083 -0.7470
  338MPD2    N1 5079   1.935   0.533   0.546  0.3580 -0.2552 -0.1374
  338MPD2    H7 5080   1.955   0.631   0.529 -0.2972 -0.3542 -1.4785
  339TMC3    C1 5081   1.448   0.901   0.903  0.2954 -0.5559  0.9503
  339TMC3    C2 5082   1.350   0.920   1.001 -0.0853 -0.0162 -0.0708
  339TMC3    C3 5083   1.234   0.983   0.955  0.5154  0.0836  0.6929
  339TMC3    C4 5084   1.441   0.970   0.788  0.0170  1.0355 -0.9784
  339TMC3    C5 5085   1.333   1.045   0.755 -0.0672 -0.0327  0.0718
  339TMC3    C6 5086   1.229   1.050   0.838  0.3876 -0.0729 -1.1278
  339TMC3     C 5087   1.509   0.767   0.901 -0.9030  0.0508  0.1549
  339TMC3     O 5088   1.440   0.681   0.958 -0.2851  0.0532  0.7725
  339TMC3     H 5089   1.361   0.881   1.101 -2.1391  1.5866  0.8018
  339TMC3    H1 5090   1.520   0.951   0.716  1.1479  1.5429  0.1376
  339TMC3    H2 5091   1.138   1.105   0.819 -0.1722 -0.7527 -0.3763
  339TMC3    C7 5092   1.347   1.129   0.634 -0.3511 -0.0347  0.0989
  339TMC3    C8 5093   1.117   0.911   0.986 -0.7424  0.3614 -0.3803
  339TMC3    O1 5094   1.443   1.102   0.562 -0.0924  0.0999 -0.3951
  339TMC3    O2 5095   1.015   0.944   0.928 -0.4601  0.0138  0.2862
  340MPD2     C 5096   2.249   2.961   9.831 -0.2473  0.4248  0.8697
  340MPD2    C1 5097   2.345   2.937   9.923 -0.2863 -0.3960 -0.1903
  340MPD2    C2 5098   2.428   3.039   9.961 -0.9868 -0.1631 -0.2667
  340MPD2    C3 5099   2.410   3.176   9.926  0.2329 -0.3358 -0.3960
  340MPD2    C4 5100   2.307   3.196   9.838  0.0819 -0.2736  0.3346
  340MPD2    C5 5101   2.224   3.092   9.793  0.1291 -0.1380  0.1304
  340MPD2     H 5102   2.511   3.015  10.026 -1.4635 -1.4955 -0.1502
  340MPD2    H1 5103   2.284   3.296   9.802 -1.0980  0.1491  2.2366
  340MPD2    H2 5104   2.190   2.882   9.787 -1.6339  1.1549  1.4400
  340MPD2    H3 5105   2.136   3.104   9.730 -0.9840  2.4529  2.1828
  340MPD2     N 5106   2.489   3.282   9.972 -0.3358 -0.2785  0.4633
  340MPD2    H5 5107   2.480   3.365   9.915 -2.3734 -0.8798 -0.0910
  340MPD2    N1 5108   2.368   2.798   9.966 -0.2333 -0.0929  0.3876
  340MPD2    H7 5109   2.304   2.728   9.930  0.1275  0.4392 -1.2744
  341TMC3    C1 5110   2.481   2.602  10.029  0.4364 -0.3298  0.5219
  341TMC3    C2 5111   2.368   2.522  10.011 -0.3326  0.4344 -0.1136
  341TMC3    C3 5112   2.394   2.400   9.967  0.3940 -0.5234  0.7583
  341TMC3    C4 5113   2.611   2.559  10.018 -0.4760  0.4733  0.7400
  341TMC3    C5 5114   2.628   2.421   9.987 -0.1725  0.7596 -0.4603
  341TMC3    C6 5115   2.517   2.347   9.949  0.4930 -0.3878 -0.1381
  341TMC3     C 5116   2.471   2.750  10.040 -0.0309 -0.3464  0.1588
  341TMC3     O 5117   2.553   2.802  10.113 -0.3286 -0.1821 -0.0802
  341TMC3     H 5118   2.273   2.554  10.052 -1.3536  1.4766 -3.2831
  341TMC3    H1 5119   2.700   2.619  10.033 -0.5902  0.6960  0.5260
  341TMC3    H2 5120   2.532   2.255   9.893 -1.3988 -0.5477 -0.3987
  341TMC3    C7 5121   2.762   2.381   9.933 -0.7424 -0.6358  0.4793
  341TMC3    C8 5122   2.281   2.313   9.938 -0.0502 -0.1565 -0.2896
  341TMC3    O1 5123   2.824   2.462   9.869 -0.1202  0.2166 -0.2931
  341TMC3    O2 5124   2.170   2.357   9.957 -0.2653 -0.3455 -0.4255
  342MPD2     C 5125   4.284   1.974   0.054 -0.2860  0.0878 -0.2642
  342MPD2    C1 5126   4.368   1.975  17.653  0.3891  0.6545  0.2207
  342MPD2    C2 5127   4.395   2.098  17.593  0.3781 -0.2614 -0.0215
  342MPD2    C3 5128   4.353   2.217  17.654  0.2286 -0.5747 -0.0751
  342MPD2    C4 5129   4.264   2.211   0.042 -0.0752  0.5167  0.3287
  342MPD2    C5 5130   4.230   2.094   0.094 -0.4295  0.2178  0.3003
  342MPD2     H 5131   4.451   2.096  17.500  1.2667 -1.4535  0.5383
  342MPD2    H1 5132   4.211   2.295   0.085  0.6881  0.4574  1.3745
  342MPD2    H2 5133   4.267   1.881   0.106  0.5951  1.2104  2.0276
  342MPD2    H3 5134   4.156   2.104   0.173 -2.2494  0.4387 -1.4435
  342MPD2     N 5135   4.406   2.345  17.605 -0.5262 -0.4023  0.3732
  342MPD2    H5 5136   4.374   2.428  17.654 -0.7307 -1.3354  1.8217
  342MPD2    N1 5137   4.420   1.862  17.588  0.2840 -0.4580 -0.2440
  342MPD2    H7 5138   4.473   1.885  17.505  0.2667 -0.6297 -0.3019
  343TMC3    C1 5139   4.471   1.628  17.548  0.5019  0.4326 -0.0820
  343TMC3    C2 5140   4.604   1.648  17.521 -0.2738 -0.3048  0.2656
  343TMC3    C3 5141   4.684   1.535  17.506  0.0050 -0.3378 -0.4278
  343TMC3    C4 5142   4.413   1.503  17.556  0.7454 -0.0620  0.4670
  343TMC3    C5 5143   4.494   1.392  17.545 -0.0177 -0.3514  0.6047
  343TMC3    C6 5144   4.634   1.410  17.530 -0.0046  0.5475  0.1382
  343TMC3     C 5145   4.410   1.732  17.632  0.1484  0.7241 -0.9240
  343TMC3     O 5146   4.354   1.690   0.021 -0.1913 -0.4770 -0.1160
  343TMC3     H 5147   4.660   1.741  17.528  2.0340 -1.6495 -0.3602
  343TMC3    H1 5148   4.307   1.496  17.578  0.6888 -0.3155  0.0967
  343TMC3    H2 5149   4.697   1.322  17.530  0.2546  0.7361 -0.7886
  343TMC3    C7 5150   4.436   1.269  17.587  0.7342 -0.7161 -0.3335
  343TMC3    C8 5151   0.099   1.556  17.500 -0.4637 -0.0067  0.2361
  343TMC3    O1 5152   4.312   1.257  17.578  0.0317 -0.5200 -0.2826
  343TMC3    O2 5153   0.141   1.671  17.503  0.4849 -0.5292 -0.3559
  344MPD2     C 5154   1.256   1.273  10.583  0.3175 -0.2223 -0.3965
  344MPD2    C1 5155   1.241   1.204  10.464 -0.2984  0.0891  0.2978
  344MPD2    C2 5156   1.234   1.281  10.345 -0.1375  0.2875 -0.3682
  344MPD2    C3 5157   1.290   1.408  10.351  0.2188 -0.0768 -0.2926
  344MPD2    C4 5158   1.305   1.473  10.472 -0.6469  0.2344  0.2844
  344MPD2    C5 5159   1.286   1.406  10.582  0.0205  0.2845 -0.2278
  344MPD2     H 5160   1.225   1.226  10.252  2.7910 -1.0654  0.1285
  344MPD2    H1 5161   1.334   1.578  10.480  0.4476 -0.0331 -0.1502
  344MPD2    H2 5162   1.255   1.226  10.680  1.5776  0.3991 -0.0714
  344MPD2    H3 5163   1.293   1.462  10.675 -1.3246  0.0193  0.0435
  344MPD2     N 5164   1.308   1.488  10.242 -1.3436  0.2140  0.1873
  344MPD2    H5 5165   1.334   1.586  10.248  1.1506 -0.2637 -2.2056
  344MPD2    N1 5166   1.234   1.061  10.469 -0.0949 -0.0341  0.0090
  344MPD2    H7 5167   1.224   1.011  10.381 -0.0422  1.5510 -0.9009
  345TMC3    C1 5168   1.308   1.563  10.018 -0.0833  0.0477 -0.8559
  345TMC3    C2 5169   1.437   1.606  10.035 -0.0598  1.2073  0.0913
  345TMC3    C3 5170   1.472   1.707   9.949 -0.6478 -0.2135 -0.4445
  345TMC3    C4 5171   1.212   1.636   9.937  0.2664  0.2223 -0.3145
  345TMC3    C5 5172   1.256   1.737   9.856  0.1593  0.0409  0.2346
  345TMC3    C6 5173   1.387   1.767   9.865 -0.0800  0.1187 -0.6335
  345TMC3     C 5174   1.256   1.469  10.121 -0.5492 -0.4243  0.8033
  345TMC3     O 5175   1.152   1.409  10.094 -0.1369  0.3290 -0.3247
  345TMC3     H 5176   1.504   1.551  10.100 -1.0730  1.1932  1.1160
  345TMC3    H1 5177   1.106   1.639   9.960  0.5627 -0.9251  1.2209
  345TMC3    H2 5178   1.420   1.857   9.814  0.9382  1.6293  2.7370
  345TMC3    C7 5179   1.183   1.861   9.876 -0.2367  0.1421  0.5666
  345TMC3    C8 5180   1.573   1.809   9.984 -0.2286 -0.1356  0.9961
  345TMC3    O1 5181   1.243   1.958   9.927 -0.5346  0.3750 -0.8165
  345TMC3    O2 5182   1.534   1.926   9.971 -0.3490  0.5110  0.2647
  346MPD2     C 5183   1.254   3.465  13.494  0.0975 -0.0742  0.9703
  346MPD2    C1 5184   1.348   3.498  13.592  0.5530 -0.3998  0.2174
  346MPD2    C2 5185   1.319   3.604  13.678  1.3058 -0.2948 -0.6786
  346MPD2    C3 5186   1.199   3.670  13.686 -0.9079 -0.8421 -0.5784
  346MPD2    C4 5187   1.099   3.623  13.601  0.2458  0.5260 -1.1762
  346MPD2    C5 5188   1.130   3.521  13.515  0.1814  0.2283 -0.2726
  346MPD2     H 5189   1.396   3.633  13.749  1.0767  0.8987 -0.9225
  346MPD2    H1 5190   1.000   3.668  13.605  0.3047  0.3368  2.5223
  346MPD2    H2 5191   1.263   3.400  13.409  2.1104  0.2499  0.9310
  346MPD2    H3 5192   1.047   3.491  13.452  0.7853  0.3891 -1.1377
  346MPD2     N 5193   1.176   3.762  13.789 -0.0999  0.2321 -0.0697
  346MPD2    H5 5194   1.261   3.793  13.836 -0.8647  0.0011  1.4529
  346MPD2    N1 5195   1.477   3.437  13.602  0.0237 -0.1222 -0.4243
  346MPD2    H7 5196   1.552   3.480  13.656 -0.6607  1.5970 -0.8185
  347TMC3    C1 5197   1.073   3.886  13.964 -0.5483 -0.6702 -0.1259
  347TMC3    C2 5198   1.197   3.916  14.007  0.3036  0.2778 -0.5577
  347TMC3    C3 5199   1.212   3.941  14.144 -0.2562  0.2243 -0.1194
  347TMC3    C4 5200   0.960   3.901  14.045 -0.4728  0.4110 -0.5216
  347TMC3    C5 5201   0.980   3.925  14.175  0.2741 -0.0712 -0.0669
  347TMC3    C6 5202   1.107   3.946  14.227 -0.1354  0.1371  0.0737
  347TMC3     C 5203   1.060   3.818  13.837  1.1603 -0.2934  0.2015
  347TMC3     O 5204   0.944   3.789  13.805 -0.3720 -0.4278  0.1005
  347TMC3     H 5205   1.289   3.920  13.950  1.5800  1.3495  1.5754
  347TMC3    H1 5206   0.857   3.881  14.017 -0.6499  0.5781  0.0087
  347TMC3    H2 5207   1.127   3.951  14.333 -0.1741  1.2206  0.0330
  347TMC3    C7 5208   0.864   3.939  14.261 -0.2699 -0.1559  0.8928
  347TMC3    C8 5209   1.335   3.890  14.203  0.2806  0.6619  0.2938
  347TMC3    O1 5210   0.776   4.022  14.230 -0.3171 -0.2376 -0.4759
  347TMC3    O2 5211   1.389   3.808  14.132  0.3970 -0.0498 -0.2588
  348MPD2     C 5212   4.568   2.607  12.303  0.0982  0.6002  0.3966
  348MPD2    C1 5213   4.650   2.651  12.199  0.6551  0.1808  0.2662
  348MPD2    C2 5214   4.605   2.717  12.087 -0.0112  0.1014  0.5160
  348MPD2    C3 5215   4.472   2.746  12.086  0.7099  0.0990  0.2212
  348MPD2    C4 5216   4.384   2.693  12.184  0.2993 -0.8246  0.5804
  348MPD2    C5 5217   4.433   2.625  12.287  0.4179  0.1489 -0.2070
  348MPD2     H 5218   4.665   2.752  12.004 -1.7233 -0.5824 -1.0261
  348MPD2    H1 5219   4.280   2.722  12.178 -0.0476 -2.2089 -0.1671
  348MPD2    H2 5220   4.608   2.552  12.387  1.4107 -2.0082 -1.9362
  348MPD2    H3 5221   4.362   2.589  12.361 -1.8738  1.5939 -1.6749
  348MPD2     N 5222   4.433   2.821  11.972  0.3229 -0.2149  0.3652
  348MPD2    H5 5223   4.502   2.873  11.920 -0.3051  1.4958  1.2233
  348MPD2    N1 5224   0.056   2.619  12.200 -0.7315 -0.7083  0.5137
  348MPD2    H7 5225   0.107   2.651  12.119 -1.4066  3.4270  1.7354
  349TMC3    C1 5226   0.265   2.516  12.241  0.8233  0.6355  0.5989
  349TMC3    C2 5227   0.295   2.384  12.266 -0.0403  0.2852  0.2951
  349TMC3    C3 5228   0.351   2.302  12.174 -0.3826  0.2677 -0.1404
  349TMC3    C4 5229   0.294   2.571  12.124  0.6602  0.3801  0.5687
  349TMC3    C5 5230   0.329   2.484  12.022 -0.3508 -0.5139  0.2154
  349TMC3    C6 5231   0.365   2.348  12.048 -0.2345  0.1550 -0.0166
  349TMC3     C 5232   0.134   2.549  12.294  0.4776  0.4877  0.3816
  349TMC3     O 5233   0.089   2.492  12.390 -0.0621  0.0252  0.2364
  349TMC3     H 5234   0.270   2.343  12.363 -1.2429  4.8887  1.9068
  349TMC3    H1 5235   0.260   2.672  12.100 -0.8944  0.1213  1.6498
  349TMC3    H2 5236   0.386   2.279  11.967  1.9423 -0.0721  0.7464
  349TMC3    C7 5237   0.289   2.519  11.887 -0.3405 -0.6181 -0.1329
  349TMC3    C8 5238   0.367   2.164  12.206 -0.4046  0.5080  0.1357
  349TMC3    O1 5239   0.238   2.433  11.818 -0.3511 -0.3901 -0.8979
  349TMC3    O2 5240   0.290   2.123  12.292 -0.3727 -0.1119  0.2083
  350MPD2     C 5241   4.557   0.167   9.990 -0.7265 -0.6881  0.3278
  350MPD2    C1 5242   4.431   0.114  10.018 -0.8552  0.1336 -0.3781
  350MPD2    C2 5243   4.325   0.201  10.047  0.5129 -0.7178  0.0522
  350MPD2    C3 5244   4.352   0.333  10.061 -0.1217 -0.9043 -0.3015
  350MPD2    C4 5245   4.479   0.384  10.040  0.2236 -0.4459 -0.1174
  350MPD2    C5 5246   4.579   0.300  10.001  0.3861 -0.6923  0.3956
  350MPD2     H 5247   4.225   0.160  10.060  0.6293 -0.3604  2.0878
  350MPD2    H1 5248   4.510   0.487  10.057 -1.6248  0.1120 -0.1521
  350MPD2    H2 5249   4.647   0.115   9.960  1.6954  2.9982  1.1914
  350MPD2    H3 5250   4.681   0.327   9.975 -0.2890  0.3271 -1.1517
  350MPD2     N 5251   4.246   0.410  10.120 -0.2097  0.3045  0.0491
  350MPD2    H5 5252   4.167   0.359  10.157  1.6808 -1.0246  2.2457
  350MPD2    N1 5253   4.390   4.710  10.011  0.3302 -0.2447  1.1307
  350MPD2    H7 5254   4.297   4.684  10.042 -0.7918  1.2735 -0.9804
  351TMC3    C1 5255   4.391   4.497   9.904  0.3566 -0.1196 -0.2871
  351TMC3    C2 5256   4.436   4.424   9.800 -0.4396 -0.5334 -0.4512
  351TMC3    C3 5257   4.341   4.349   9.731  0.1573  0.3338  0.0655
  351TMC3    C4 5258   4.255   4.493   9.938  0.5282 -0.4432  0.5287
  351TMC3    C5 5259   4.168   4.421   9.859 -0.7453  0.2131  0.6867
  351TMC3    C6 5260   4.212   4.342   9.754  0.2412 -0.2991  0.5509
  351TMC3     C 5261   4.465   4.616   9.946  0.3368 -0.4703  0.1481
  351TMC3     O 5262   4.570   4.630   9.886 -0.2119  0.0558  0.4427
  351TMC3     H 5263   4.535   4.425   9.757 -0.1325  0.5425  0.2986
  351TMC3    H1 5264   4.212   4.546  10.023 -1.2522  0.9928 -1.2666
  351TMC3    H2 5265   4.141   4.297   9.686  1.4703  1.4687 -1.8718
  351TMC3    C7 5266   4.025   4.434   9.893 -0.5435  0.3515 -0.2075
  351TMC3    C8 5267   4.401   4.249   9.647 -0.2593 -0.9252  0.2882
  351TMC3    O1 5268   3.989   4.531   9.956  0.3664  0.2698  0.1062
  351TMC3    O2 5269   4.518   4.226   9.667  0.4134 -0.2025 -0.2673
  352MPD2     C 5270   2.414   3.252   1.022 -0.4619  0.1275 -0.0411
  352MPD2    C1 5271   2.310   3.310   1.086 -0.2410  0.4463 -0.0895
  352MPD2    C2 5272   2.262   3.249   1.202 -0.0646  0.2643 -0.0346
  352MPD2    C3 5273   2.308   3.123   1.239  0.6614 -0.4417  0.5681
  352MPD2    C4 5274   2.419   3.070   1.175  0.2047  0.2183  0.4882
  352MPD2    C5 5275   2.465   3.128   1.062  0.4155 -0.8163 -0.1084
  352MPD2     H 5276   2.187   3.298   1.264 -0.9645  1.2036 -1.8800
  352MPD2    H1 5277   2.462   2.973   1.199 -1.6783 -1.1569 -1.7198
  352MPD2    H2 5278   2.462   3.289   0.932  0.1697 -0.5957 -0.0013
  352MPD2    H3 5279   2.552   3.087   1.013  1.8150  0.6921  1.1055
  352MPD2     N 5280   2.238   3.045   1.337 -0.1227 -0.7344 -0.2416
  352MPD2    H5 5281   2.285   2.960   1.368  0.1220 -0.5627 -0.1365
  352MPD2    N1 5282   2.268   3.437   1.039  0.4016 -0.0185 -0.1562
  352MPD2    H7 5283   2.295   3.464   0.944  0.3859  1.0321  0.1433
  353TMC3    C1 5284   2.089   2.969   1.508 -0.4520 -0.1577  0.1456
  353TMC3    C2 5285   2.192   2.891   1.555  0.0058 -0.4525 -0.6435
  353TMC3    C3 5286   2.150   2.774   1.614 -0.6816 -0.1509  0.3950
  353TMC3    C4 5287   1.958   2.943   1.527 -0.5515  0.4494  0.1239
  353TMC3    C5 5288   1.933   2.822   1.594 -0.1353  0.5578  0.9134
  353TMC3    C6 5289   2.027   2.729   1.625  0.2743 -0.3644 -0.4913
  353TMC3     C 5290   2.115   3.065   1.400 -0.3451  0.4376  0.1025
  353TMC3     O 5291   2.022   3.134   1.356 -0.1550  0.1960  0.0087
  353TMC3     H 5292   2.296   2.922   1.557 -0.4939  1.1714 -0.3758
  353TMC3    H1 5293   1.878   3.008   1.491  0.2533 -0.4713 -3.2791
  353TMC3    H2 5294   2.006   2.643   1.687  1.6539 -0.6113 -0.3675
  353TMC3    C7 5295   1.801   2.768   1.567 -0.4015  0.5237  0.0792
  353TMC3    C8 5296   2.257   2.677   1.611  0.2851 -0.2364 -0.7269
  353TMC3    O1 5297   1.740   2.821   1.476 -0.6011 -0.6859 -0.4875
  353TMC3    O2 5298   2.372   2.707   1.651 -0.4468  0.2375 -0.0722
  354TMC3    C1 5299   3.766   3.694  13.102 -0.6172 -0.0423  0.6616
  354TMC3    C2 5300   3.709   3.797  13.038  0.3891 -0.1029  0.5183
  354TMC3    C3 5301   3.775   3.845  12.923  0.3950  0.1094  0.0274
  354TMC3    C4 5302   3.859   3.614  13.044  0.2713 -0.5863  0.5057
  354TMC3    C5 5303   3.914   3.660  12.925 -0.4732  0.3510 -0.0171
  354TMC3    C6 5304   3.875   3.776  12.858  0.3565  0.0987 -0.2679
  354TMC3     C 5305   3.753   3.689  13.248 -0.3097 -0.1066 -0.5289
  354TMC3     O 5306   3.695   3.785  13.291 -1.0327 -0.3841  0.0729
  354TMC3     H 5307   3.618   3.832  13.084  0.0168 -1.6582  0.9757
  354TMC3    H1 5308   3.925   3.548  13.099 -1.3018 -2.9916 -0.4861
  354TMC3    H2 5309   3.916   3.823  12.770 -1.0370  0.7829 -0.5570
  354TMC3    C7 5310   4.046   3.613  12.892  0.0501 -0.8198 -0.3576
  354TMC3    C8 5311   3.736   3.976  12.867  0.5010 -0.3920 -0.5590
  354TMC3    O1 5312   4.077   3.500  12.931  0.5316  0.0084 -0.1437
  354TMC3    O2 5313   3.802   4.029  12.781 -0.7531 -0.2266 -0.0167
  355MPD2     C 5314   3.768   0.301  11.724  0.5167  0.0049  0.8332
  355MPD2    C1 5315   3.793   0.268  11.594 -0.2909  0.0155  0.3266
  355MPD2    C2 5316   3.915   0.208  11.561 -0.7365 -0.0736 -0.5835
  355MPD2    C3 5317   4.008   0.189  11.661 -0.0754  0.5312  0.6017
  355MPD2    C4 5318   3.975   0.204  11.795 -0.1513 -0.3062 -0.1294
  355MPD2    C5 5319   3.857   0.264  11.821  0.6265  0.1688  0.1171
  355MPD2     H 5320   3.926   0.167  11.462  0.6711 -0.3586 -0.3114
  355MPD2    H1 5321   4.035   0.166  11.877 -2.1181  0.3857  1.6386
  355MPD2    H2 5322   3.673   0.351  11.739  0.7825  0.3074  1.5178
  355MPD2    H3 5323   3.821   0.284  11.921  0.9222 -0.2327  0.3002
  355MPD2     N 5324   4.135   0.133  11.615 -0.6135  0.4146  0.7326
  355MPD2    H5 5325   4.198   0.108  11.691  0.0606 -0.9883 -0.2804
  355MPD2    N1 5326   3.698   0.298  11.491  0.5649  0.6180 -0.4520
  355MPD2    H7 5327   3.605   0.308  11.530  0.7476  3.7621 -0.8029
  356TMC3    C1 5328   4.334   0.115  11.493  0.0257 -0.2936  0.7796
  356TMC3    C2 5329   4.397   0.182  11.392  0.1227 -0.8163  0.0984
  356TMC3    C3 5330   4.523   0.237  11.410 -0.5467 -0.7323  0.1906
  356TMC3    C4 5331   4.396   0.105  11.615  0.0414  0.3424 -0.3901
  356TMC3    C5 5332   4.520   0.166  11.632  0.1280  0.2790  0.1230
  356TMC3    C6 5333   4.575   0.248  11.536 -0.4526 -0.7254 -0.0251
  356TMC3     C 5334   4.193   0.138  11.491  0.1013 -0.7853  0.0974
  356TMC3     O 5335   4.144   0.172  11.382  0.1771  0.1044 -0.1481
  356TMC3     H 5336   4.340   0.196  11.301  0.3479 -1.0858 -0.0845
  356TMC3    H1 5337   4.371   0.030  11.689 -0.3489  1.9824  1.1408
  356TMC3    H2 5338   4.665   0.306  11.552 -0.9587  0.1516 -0.3498
  356TMC3    C7 5339   4.561   0.193  11.770 -0.3592  0.4087  0.0639
  356TMC3    C8 5340   4.573   0.298  11.292 -0.0408  0.4781 -0.6326
  356TMC3    O1 5341   4.519   0.105  11.848 -0.4081  0.3717 -0.2035
  356TMC3    O2 5342   4.533   0.246  11.188  0.4793 -0.7838  0.1741
  357MPD2     C 5343   3.581   4.630   1.304 -0.5805 -0.0233  0.8094
  357MPD2    C1 5344   3.596   4.508   1.365 -0.3514 -0.8325  0.3497
  357MPD2    C2 5345   3.488   4.444   1.427 -0.6166  0.2738 -0.3513
  357MPD2    C3 5346   3.366   4.506   1.431 -0.4153 -0.0373  0.6768
  357MPD2    C4 5347   3.358   4.635   1.386 -0.8944 -0.2251  1.1031
  357MPD2    C5 5348   3.464   4.698   1.325 -0.2841 -0.2642 -0.5354
  357MPD2     H 5349   3.497   4.350   1.480  0.9438 -0.0614 -1.2281
  357MPD2    H1 5350   3.269   4.696   1.395 -1.1253 -0.4441  0.2446
  357MPD2    H2 5351   3.661   4.677   1.249 -0.8699 -0.0480  0.3644
  357MPD2    H3 5352   3.460   0.074   1.292  0.3261 -0.1881 -0.3773
  357MPD2     N 5353   3.246   4.442   1.481  0.5297  0.2474  0.5178
  357MPD2    H5 5354   3.161   4.492   1.457 -0.4922 -1.1402  1.2874
  357MPD2    N1 5355   3.726   4.452   1.362  0.1940 -0.1729  0.1216
  357MPD2    H7 5356   3.804   4.498   1.316 -0.1208  0.2170 -0.0150
  358TMC3    C1 5357   3.898   4.299   1.400 -0.2275 -0.4016  0.5061
  358TMC3    C2 5358   3.938   4.280   1.270  0.3402  0.8225  0.0726
  358TMC3    C3 5359   4.053   4.206   1.249 -0.2649  0.2660 -0.3780
  358TMC3    C4 5360   3.960   4.234   1.504  0.4167  0.3334  0.1035
  358TMC3    C5 5361   4.069   4.157   1.475  0.7886  0.7432  0.1901
  358TMC3    C6 5362   4.133   4.153   1.349 -0.2641 -0.8780  0.0313
  358TMC3     C 5363   3.760   4.334   1.432 -0.4060  0.1657 -0.2193
  358TMC3     O 5364   3.700   4.290   1.531  0.4963 -0.0419  0.1129
  358TMC3     H 5365   3.881   4.332   1.194  0.0585  1.2573  0.5824
  358TMC3    H1 5366   3.915   4.238   1.603 -1.1281 -0.8850 -0.5453
  358TMC3    H2 5367   4.230   4.108   1.331 -0.8685 -1.4509 -1.8173
  358TMC3    C7 5368   4.147   4.115   1.594  0.0468 -0.3636  0.1975
  358TMC3    C8 5369   4.081   4.183   1.111  0.4102  0.7237 -0.3516
  358TMC3    O1 5370   4.271   4.120   1.580 -0.0037  0.3385  0.2058
  358TMC3    O2 5371   4.026   4.258   1.028 -0.3510  0.0418  0.2600
  359MPD2     C 5372   4.200   2.863  12.535  0.5936 -0.1496 -0.0825
  359MPD2    C1 5373   4.150   2.957  12.446 -0.5654 -0.1960 -0.7781
  359MPD2    C2 5374   4.020   2.994  12.461 -0.1053  0.0008  0.1486
  359MPD2    C3 5375   3.938   2.934  12.545  0.0777 -0.5108  0.6048
  359MPD2    C4 5376   3.989   2.842  12.636  0.1474  0.4312  0.0251
  359MPD2    C5 5377   4.122   2.802  12.628 -0.4706  0.2978  0.3478
  359MPD2     H 5378   3.980   3.064  12.389  0.5618 -0.9027 -1.0940
  359MPD2    H1 5379   3.920   2.787  12.699 -0.7572  0.8225 -0.6171
  359MPD2    H2 5380   4.302   2.827  12.535  0.0292 -1.7154 -3.2965
  359MPD2    H3 5381   4.164   2.730  12.697 -0.9049 -0.4774 -0.2064
  359MPD2     N 5382   3.801   2.969  12.573  0.3461  0.7480  0.0924
  359MPD2    H5 5383   3.759   2.926  12.655 -2.4565  3.0829 -0.1238
  359MPD2    N1 5384   4.226   3.028  12.346  0.1176 -0.2680 -0.0563
  359MPD2    H7 5385   4.172   3.094  12.291 -1.9453 -2.5979 -0.8190
  360TMC3    C1 5386   4.406   3.105  12.216  0.3623  0.2097 -0.5827
  360TMC3    C2 5387   4.532   3.153  12.232 -0.1452 -0.6545 -0.1179
  360TMC3    C3 5388   4.574   3.265  12.165  0.4924  0.5317 -0.2195
  360TMC3    C4 5389   4.325   3.150  12.118  0.1171  0.0267  0.0406
  360TMC3    C5 5390   4.368   3.255  12.042  0.2881 -0.2367 -0.4807
  360TMC3    C6 5391   4.489   3.317  12.068  0.9386  0.0355  0.0953
  360TMC3     C 5392   4.360   3.019  12.322 -0.6804 -0.1004  0.5083
  360TMC3     O 5393   4.446   2.955  12.380 -0.0694 -0.4383 -0.3383
  360TMC3     H 5394   4.594   3.126  12.317 -1.7932 -0.8090  1.0267
  360TMC3    H1 5395   4.235   3.092  12.098 -0.7361  0.8959  1.3247
  360TMC3    H2 5396   4.518   3.402  12.007 -1.6670  0.0707 -1.0799
  360TMC3    C7 5397   4.297   3.300  11.924 -0.6953 -0.3260  0.0242
  360TMC3    C8 5398   4.715   3.275  12.142  0.0228 -0.7691  0.1295
  360TMC3    O1 5399   4.356   3.364  11.839  0.2017  0.0594 -0.6726
  360TMC3    O2 5400   0.055   3.174  12.152  0.3607  0.0088 -0.2266
  361MPD2     C 5401   1.527   2.955  16.650  0.0818 -0.2130  0.9261
  361MPD2    C1 5402   1.473   2.936  16.772 -0.0152  0.3480  0.5000
  361MPD2    C2 5403   1.533   2.846  16.861  0.2783 -0.1721  0.2275
  361MPD2    C3 5404   1.638   2.764  16.823  0.5535 -0.5581  0.2594
  361MPD2    C4 5405   1.679   2.775  16.694  0.0610 -0.3155 -0.5974
  361MPD2    C5 5406   1.618   2.860  16.608  0.1472 -0.1953  0.2366
  361MPD2     H 5407   1.485   2.830  16.957  1.3458  2.4847  1.2269
  361MPD2    H1 5408   1.747   2.700  16.656 -0.4881 -0.4155 -1.3889
  361MPD2    H2 5409   1.476   3.018  16.577  0.2432 -1.8010 -0.5790
  361MPD2    H3 5410   1.655   2.865  16.507  0.2612  0.4100  0.3090
  361MPD2     N 5411   1.698   2.674  16.908 -0.3872 -0.4596  0.3069
  361MPD2    H5 5412   1.756   2.601  16.869 -1.0300 -1.3874  1.0709
  361MPD2    N1 5413   1.358   3.000  16.821  0.0184  0.3759 -0.4843
  361MPD2    H7 5414   1.336   2.977  16.917  2.8499 -4.1088 -0.9024
  362TMC3    C1 5415   1.160   3.117  16.824  0.2646  1.2847 -0.1545
  362TMC3    C2 5416   1.185   3.116  16.960 -0.5200  0.6939  0.2739
  362TMC3    C3 5417   1.077   3.114  17.048 -0.4740 -0.0511  0.1805
  362TMC3    C4 5418   1.035   3.109  16.771  0.8527  0.3692  0.4763
  362TMC3    C5 5419   0.934   3.109  16.856  0.4696  0.0876  0.0093
  362TMC3    C6 5420   0.950   3.109  16.991  0.5035  0.1177 -0.0749
  362TMC3     C 5421   1.269   3.066  16.740  0.4448  0.2707 -0.3305
  362TMC3     O 5422   1.275   3.082  16.619  0.2508 -0.1416 -0.2420
  362TMC3     H 5423   1.286   3.129  16.999 -0.9256  0.8380  1.2923
  362TMC3    H1 5424   1.014   3.098  16.665  4.3460 -2.9961  0.1329
  362TMC3    H2 5425   0.859   3.107  17.050  0.6192  0.1803  0.1053
  362TMC3    C7 5426   0.801   3.126  16.808  0.3954  0.0886 -0.1668
  362TMC3    C8 5427   1.106   3.167  17.177  0.1058  0.4256 -0.4590
  362TMC3    O1 5428   0.709   3.086  16.877 -0.4020 -0.0998 -0.0274
  362TMC3    O2 5429   1.215   3.221  17.193 -0.0356 -0.6256  0.5744
  363TMC3    C1 5430   4.677   0.182   9.678 -1.1627 -0.2707  0.5072
  363TMC3    C2 5431   0.036   0.080   9.648 -0.0628 -0.3117 -0.5512
  363TMC3    C3 5432   4.711   4.688   9.598 -0.5679  0.4940 -0.2543
  363TMC3    C4 5433   4.542   0.160   9.666  0.4503  0.1728 -0.6048
  363TMC3    C5 5434   4.494   0.035   9.617 -0.0753  0.0557 -0.4617
  363TMC3    C6 5435   4.577   4.668   9.577 -0.0316 -0.1766 -0.3421
  363TMC3     C 5436   0.001   0.322   9.712 -0.8493  0.4337 -0.0077
  363TMC3     O 5437   4.660   0.418   9.675  0.1529 -0.6750  0.2785
  363TMC3     H 5438   0.140   0.091   9.675  0.2358 -0.4697 -1.6467
  363TMC3    H1 5439   4.484   0.241   9.708  0.2251  0.2958 -1.1514
  363TMC3    H2 5440   4.544   4.573   9.536 -0.6912 -2.0632  4.5759
  363TMC3    C7 5441   4.347   0.007   9.608  0.3009 -0.3098 -0.5736
  363TMC3    C8 5442   0.072   4.581   9.557 -0.3125 -0.2022  0.4685
  363TMC3    O1 5443   4.315   4.630   9.549 -0.3046 -0.0514 -0.1035
  363TMC3    O2 5444   0.027   4.470   9.540  0.1202  0.1877  0.1699
  364MPD2     C 5445   3.845   3.711  10.027  0.1190  0.1289  0.7486
  364MPD2    C1 5446   3.747   3.791  10.096 -0.0950 -0.0501  0.6810
  364MPD2    C2 5447   3.633   3.723  10.148 -0.2004 -0.0312 -0.7387
  364MPD2    C3 5448   3.617   3.588  10.143 -0.6692 -0.3943  0.4926
  364MPD2    C4 5449   3.721   3.512  10.086  0.6023  0.7855 -0.7900
  364MPD2    C5 5450   3.827   3.573  10.025  0.2290  0.2572  0.5479
  364MPD2     H 5451   3.570   3.778  10.217 -1.2136 -1.8279 -0.2237
  364MPD2    H1 5452   3.725   3.404  10.082 -1.4170  0.7296 -1.6376
  364MPD2    H2 5453   3.932   3.753   9.978  1.0744 -1.5579  0.9701
  364MPD2    H3 5454   3.915   3.525   9.985 -0.4525 -0.0044 -0.6374
  364MPD2     N 5455   3.508   3.511  10.206 -0.2484 -0.2000  0.1459
  364MPD2    H5 5456   3.532   3.415  10.228 -0.3972  0.1526  1.8435
  364MPD2    N1 5457   3.775   3.931  10.119 -0.3935  0.0926  0.3053
  364MPD2    H7 5458   3.861   3.969  10.082 -0.0059 -0.0022  1.1193
  365TMC3    C1 5459   3.748   4.149  10.213 -0.5369 -0.5709  0.0003
  365TMC3    C2 5460   3.881   4.170  10.195  0.5421 -0.9716  0.0615
  365TMC3    C3 5461   3.935   4.290  10.223 -0.1693 -0.4153 -0.3127
  365TMC3    C4 5462   3.658   4.241  10.245 -0.3279  0.0645 -0.2597
  365TMC3    C5 5463   3.717   4.365  10.272 -0.0666  0.0214 -0.5246
  365TMC3    C6 5464   3.855   4.396  10.262  0.1088  0.0335 -0.3713
  365TMC3     C 5465   3.694   4.014  10.191  0.2862 -0.4666  0.2405
  365TMC3     O 5466   3.578   3.999  10.230 -0.5425 -0.1584  0.0251
  365TMC3     H 5467   3.950   4.086  10.188  2.6293  0.7564 -0.2141
  365TMC3    H1 5468   3.552   4.231  10.228  0.4272 -1.0098 -4.2751
  365TMC3    H2 5469   3.887   4.498  10.279  1.8907 -0.8458  1.5643
  365TMC3    C7 5470   3.634   4.488  10.278  0.3449 -0.1256 -0.3308
  365TMC3    C8 5471   4.073   4.316  10.229  0.3247 -0.6670  0.0531
  365TMC3    O1 5472   3.669   4.581  10.213  0.2644 -0.4289  0.9478
  365TMC3    O2 5473   4.105   4.422  10.277  0.4683  0.1256 -0.0299
  366MPD2     C 5474   0.959   1.211  15.231  0.0454 -0.2058 -0.0367
  366MPD2    C1 5475   1.077   1.234  15.162  0.2751 -0.7617  0.1788
  366MPD2    C2 5476   1.142   1.121  15.120 -0.2383 -0.3604 -0.4234
  366MPD2    C3 5477   1.096   0.996  15.141 -0.0281  0.0372  0.1311
  366MPD2    C4 5478   0.976   0.979  15.196 -0.4120 -0.4938  0.1555
  366MPD2    C5 5479   0.910   1.088  15.240  0.4018 -0.0207 -0.1736
  366MPD2     H 5480   1.243   1.118  15.080  0.5400  2.3404  1.3230
  366MPD2    H1 5481   0.934   0.880  15.209 -1.5403  0.1055  1.1830
  366MPD2    H2 5482   0.893   1.282  15.279  3.2544  1.9954  1.1310
  366MPD2    H3 5483   0.822   1.073  15.302 -0.5358  0.4673 -1.3930
  366MPD2     N 5484   1.182   0.891  15.111 -0.2829  0.0218 -0.1284
  366MPD2    H5 5485   1.278   0.912  15.084 -1.0266  1.2483 -1.8356
  366MPD2    N1 5486   1.140   1.360  15.154 -0.5395 -0.2379  0.2549
  366MPD2    H7 5487   1.216   1.381  15.090 -0.7213  2.1914  0.8061
  367TMC3    C1 5488   1.198   1.584  15.191  0.5088 -0.6663 -0.1571
  367TMC3    C2 5489   1.318   1.556  15.260 -0.0318 -0.7941 -0.1472
  367TMC3    C3 5490   1.438   1.612  15.222 -0.1194 -0.0366 -0.3038
  367TMC3    C4 5491   1.193   1.668  15.090  0.1981  0.7210  0.0894
  367TMC3    C5 5492   1.308   1.724  15.061  0.2733 -0.1615  0.6538
  367TMC3    C6 5493   1.428   1.707  15.125  0.2113  0.5507  0.1247
  367TMC3     C 5494   1.097   1.481  15.215 -0.4858 -0.2500 -0.6307
  367TMC3     O 5495   0.997   1.505  15.277  0.1232  0.1306  0.0880
  367TMC3     H 5496   1.319   1.499  15.352  1.2973  1.5609  1.2813
  367TMC3    H1 5497   1.100   1.690  15.038  0.1199 -1.6439 -0.7494
  367TMC3    H2 5498   1.518   1.754  15.086 -0.3343  0.0674 -1.7225
  367TMC3    C7 5499   1.305   1.811  14.949 -0.5213 -0.0511  0.5485
  367TMC3    C8 5500   1.538   1.622  15.326  0.7701  0.2230 -0.8822
  367TMC3    O1 5501   1.210   1.883  14.938  0.7274 -0.7087 -0.4238
  367TMC3    O2 5502   1.543   1.529  15.406  0.0133  0.5482  0.6836
  368MPD2     C 5503   3.228   2.101  13.295 -0.4483 -0.3922  0.1811
  368MPD2    C1 5504   3.226   2.220  13.370 -0.8309  0.8571  0.2244
  368MPD2    C2 5505   3.341   2.262  13.425  0.4510  0.0454 -0.4687
  368MPD2    C3 5506   3.458   2.185  13.409 -1.3043 -0.5391  0.1232
  368MPD2    C4 5507   3.455   2.069  13.337  0.3788  0.8029  0.5868
  368MPD2    C5 5508   3.337   2.024  13.273  0.0718 -0.3351 -1.0642
  368MPD2     H 5509   3.341   2.351  13.487 -0.0704  0.5346 -1.1740
  368MPD2    H1 5510   3.546   2.011  13.327  0.7462  1.8948 -2.2135
  368MPD2    H2 5511   3.139   2.070  13.241  0.5168 -2.2470 -0.3146
  368MPD2    H3 5512   3.351   1.940  13.207  1.1346  0.1658 -1.4858
  368MPD2     N 5513   3.581   2.243  13.453 -0.1918  0.8308 -0.7352
  368MPD2    H5 5514   3.660   2.181  13.439  0.5925  1.7956 -0.5927
  368MPD2    N1 5515   3.108   2.297  13.366 -0.3488  1.4202 -0.7942
  368MPD2    H7 5516   3.034   2.264  13.304 -0.5585 -1.2808  0.9100
  369TMC3    C1 5517   2.972   2.499  13.366 -0.2134 -0.0227  0.7085
  369TMC3    C2 5518   2.980   2.637  13.345 -0.1036  0.4726  0.9653
  369TMC3    C3 5519   2.872   2.693  13.288 -0.2307 -0.0759  0.4864
  369TMC3    C4 5520   2.863   2.429  13.323  0.0977  0.2775  0.0541
  369TMC3    C5 5521   2.760   2.496  13.262 -0.0907 -0.2159 -0.1439
  369TMC3    C6 5522   2.762   2.631  13.253  0.1902  0.6477  0.1670
  369TMC3     C 5523   3.091   2.422  13.418 -0.2920 -0.6386 -0.4010
  369TMC3     O 5524   3.173   2.493  13.475  0.4811 -0.1872  0.6263
  369TMC3     H 5525   3.064   2.700  13.372  0.9809  0.2129 -1.7814
  369TMC3    H1 5526   2.857   2.324  13.349 -1.2701  0.2625 -0.3382
  369TMC3    H2 5527   2.690   2.680  13.189  0.5354 -1.1094 -1.5915
  369TMC3    C7 5528   2.634   2.423  13.252 -1.0482 -0.2947 -0.7428
  369TMC3    C8 5529   2.883   2.829  13.244  0.5369 -0.0345  0.0192
  369TMC3    O1 5530   2.611   2.323  13.315  0.2426  0.1431 -0.5364
  369TMC3    O2 5531   2.997   2.870  13.232 -0.4430  0.3008  0.2558
  370TMC3    C1 5532   2.296   3.690  16.403  1.1874 -0.1896 -0.3357
  370TMC3    C2 5533   2.219   3.630  16.500 -0.1953  0.3190 -0.0218
  370TMC3    C3 5534   2.136   3.522  16.467  0.0737  0.2438 -0.3110
  370TMC3    C4 5535   2.273   3.658  16.271  0.2238 -0.0834 -0.1229
  370TMC3    C5 5536   2.187   3.551  16.242 -0.4857  1.2063 -0.0141
  370TMC3    C6 5537   2.120   3.473  16.341  0.1277 -0.3532  0.7593
  370TMC3     C 5538   2.432   3.727  16.427  0.4895 -0.2592 -0.2401
  370TMC3     O 5539   2.461   3.708  16.542  0.3099  0.5349  0.5394
  370TMC3     H 5540   2.238   3.665  16.601 -1.7126  1.3696 -0.1185
  370TMC3    H1 5541   2.345   3.676  16.192 -1.3615 -0.2094 -1.5957
  370TMC3    H2 5542   2.054   3.391  16.316 -1.2234  0.2368  2.3583
  370TMC3    C7 5543   2.219   3.483  16.117 -0.3621  0.5495 -0.0442
  370TMC3    C8 5544   2.135   3.418  16.562  0.6988  0.2024 -0.3961
  370TMC3    O1 5545   2.340   3.486  16.089 -0.7544  0.0235 -0.0711
  370TMC3    O2 5546   2.108   3.307  16.522  0.5266 -0.1768  0.3710
  371TMC3    C1 5547   3.539   1.970  15.523  0.1200  0.1230  0.2878
  371TMC3    C2 5548   3.408   2.010  15.532 -0.4246  0.3988 -0.1762
  371TMC3    C3 5549   3.381   2.134  15.481  0.2568 -0.6194 -0.2035
  371TMC3    C4 5550   3.635   2.043  15.463 -0.5782  0.5586 -1.1465
  371TMC3    C5 5551   3.602   2.159  15.403 -0.5613  0.2723  0.1790
  371TMC3    C6 5552   3.479   2.210  15.422  0.6121  0.1273  0.1353
  371TMC3     C 5553   3.584   1.849  15.586  0.8285 -0.1777  0.5453
  371TMC3     O 5554   3.703   1.825  15.576  0.1784  0.4355  0.4149
  371TMC3     H 5555   3.335   1.950  15.586 -1.4175  0.3917 -1.5264
  371TMC3    H1 5556   3.740   2.016  15.473 -0.1929  1.8593 -1.5577
  371TMC3    H2 5557   3.448   2.303  15.377  3.0145  0.3188 -1.1628
  371TMC3    C7 5558   3.699   2.236  15.330  0.8214 -0.9391  0.3712
  371TMC3    C8 5559   3.241   2.166  15.460  0.3478  0.0491 -0.0090
  371TMC3    O1 5560   3.666   2.348  15.299 -0.9002  0.4850 -0.0097
  371TMC3    O2 5561   3.166   2.069  15.465  0.2794 -0.0676 -0.5634
  372MPD2     C 5562   2.597   2.768  13.541 -0.1028 -0.4924 -1.1552
  372MPD2    C1 5563   2.712   2.814  13.598 -0.2463  0.0975  0.1180
  372MPD2    C2 5564   2.802   2.717  13.645  0.0157  0.0198  0.3473
  372MPD2    C3 5565   2.767   2.583  13.653  0.3790 -0.0515 -0.5901
  372MPD2    C4 5566   2.640   2.538  13.606  0.0165 -0.4308 -0.5616
  372MPD2    C5 5567   2.559   2.636  13.549  0.4539  0.0121 -0.0909
  372MPD2     H 5568   2.895   2.746  13.691 -0.6536  0.1993  1.6089
  372MPD2    H1 5569   2.598   2.438  13.603 -3.1885  0.8837  1.6434
  372MPD2    H2 5570   2.531   2.841  13.494  0.5501  0.1478 -1.0839
  372MPD2    H3 5571   2.467   2.612  13.498  1.5315 -0.4912 -1.8185
  372MPD2     N 5572   2.863   2.500  13.713 -0.4097  0.2074 -0.0411
  372MPD2    H5 5573   2.940   2.550  13.757 -1.1093  1.1112  0.1513
  372MPD2    N1 5574   2.758   2.944  13.606  0.8028  0.1214  0.6381
  372MPD2    H7 5575   2.856   2.950  13.633  1.2516 -0.5332 -0.7867
  373TMC3    C1 5576   2.947   2.325  13.828 -0.1109 -0.0327  0.6257
  373TMC3    C2 5577   2.952   2.410  13.938 -0.6460 -0.3630 -0.2558
  373TMC3    C3 5578   3.070   2.419  14.003 -1.0169  0.8382  0.5188
  373TMC3    C4 5579   3.051   2.266  13.778  0.2346 -0.5875  0.2514
  373TMC3    C5 5580   3.171   2.291  13.835 -0.2752  0.0586 -0.3268
  373TMC3    C6 5581   3.181   2.357  13.955  0.2304  0.1172  0.3323
  373TMC3     C 5582   2.843   2.365  13.733  0.5710  0.1236  1.0945
  373TMC3     O 5583   2.782   2.289  13.660 -0.0603  0.3071  0.0568
  373TMC3     H 5584   2.863   2.463  13.968 -0.3294  0.4727 -0.8154
  373TMC3    H1 5585   3.037   2.213  13.685  1.3613  0.1947 -0.3667
  373TMC3    H2 5586   3.271   2.367  14.014 -0.4721 -1.7752  1.7363
  373TMC3    C7 5587   3.287   2.215  13.800 -0.3561  0.0367  0.0962
  373TMC3    C8 5588   3.087   2.523  14.111 -0.6174  0.7728 -0.8285
  373TMC3    O1 5589   3.261   2.098  13.760 -0.1593  0.0201  0.9905
  373TMC3    O2 5590   3.196   2.535  14.167  0.3301 -0.0915  0.1934
  374TMC3    C1 5591   3.508   2.002   9.885 -0.2399 -0.7401  0.2876
  374TMC3    C2 5592   3.639   2.026   9.884  0.0515 -0.5488  0.2760
  374TMC3    C3 5593   3.685   2.151   9.928  0.1715  0.2962 -0.2665
  374TMC3    C4 5594   3.412   2.092   9.933  0.0198  0.0197  0.1893
  374TMC3    C5 5595   3.462   2.209   9.986  0.2050  0.3441 -0.0468
  374TMC3    C6 5596   3.597   2.241   9.982 -0.1741  0.1894 -0.0616
  374TMC3     C 5597   3.459   1.878   9.824  0.7329  0.0075 -0.4971
  374TMC3     O 5598   3.350   1.835   9.862  0.1705  0.1293 -0.4028
  374TMC3     H 5599   3.704   1.940   9.880  1.1626  0.1954  2.5996
  374TMC3    H1 5600   3.308   2.085   9.903 -0.1617 -1.0681  1.0867
  374TMC3    H2 5601   3.620   2.344  10.007 -0.6280  0.5771 -1.2497
  374TMC3    C7 5602   3.370   2.306  10.038  0.1020 -0.2256  0.4652
  374TMC3    C8 5603   3.827   2.157   9.964 -0.3973 -0.5171  0.1521
  374TMC3    O1 5604   3.409   2.422  10.049  0.3616 -0.4629  0.1236
  374TMC3    O2 5605   3.893   2.056   9.935  0.7470  0.2625 -0.0675
  375MPD2     C 5606   3.474   3.554  17.218  0.0517  0.1008  0.1427
  375MPD2    C1 5607   3.447   3.655  17.127 -0.1324  0.4385 -0.4604
  375MPD2    C2 5608   3.550   3.697  17.039 -0.1720 -0.1427  0.2146
  375MPD2    C3 5609   3.674   3.642  17.048  0.2815  0.5507  0.4917
  375MPD2    C4 5610   3.703   3.537  17.138  0.3032 -0.6636  0.0423
  375MPD2    C5 5611   3.604   3.499  17.222  0.1760 -0.4930  0.5755
  375MPD2     H 5612   3.521   3.781  16.977  0.6278 -0.1139 -0.1164
  375MPD2    H1 5613   3.799   3.487  17.139 -0.1787 -1.6066 -0.9647
  375MPD2    H2 5614   3.406   3.530  17.299  1.1737  1.0814  1.3672
  375MPD2    H3 5615   3.616   3.424  17.299  0.6153 -0.2502  0.7464
  375MPD2     N 5616   3.783   3.670  16.959 -0.5661 -0.2410  0.0378
  375MPD2    H5 5617   3.859   3.603  16.964 -0.1427  0.3470  1.4032
  375MPD2    N1 5618   3.325   3.712  17.107 -0.3456  0.6731  0.2204
  375MPD2    H7 5619   3.321   3.778  17.030 -1.8711 -2.1504 -2.1221
  376TMC3    C1 5620   3.881   3.732  16.759  0.1864  0.7062  0.0555
  376TMC3    C2 5621   4.005   3.719  16.803 -0.6172 -0.3175 -0.6202
  376TMC3    C3 5622   4.108   3.709  16.709 -0.1912  0.0431 -0.4579
  376TMC3    C4 5623   3.847   3.733  16.621  0.1057  0.0318  0.3910
  376TMC3    C5 5624   3.950   3.719  16.530 -0.0749 -0.4321 -0.0265
  376TMC3    C6 5625   4.087   3.712  16.570  0.0804  0.0709 -0.2702
  376TMC3     C 5626   3.769   3.744  16.844  0.1471  0.0847 -0.2735
  376TMC3     O 5627   3.670   3.800  16.795  0.2418  0.0453  0.3853
  376TMC3     H 5628   4.019   3.712  16.910  0.3972  2.5723 -0.5544
  376TMC3    H1 5629   3.743   3.723  16.592 -0.2627 -0.1458  1.7432
  376TMC3    H2 5630   4.168   3.725  16.499 -0.3089  1.6425 -0.4393
  376TMC3    C7 5631   3.924   3.736  16.390  0.2969 -0.2532 -0.4495
  376TMC3    C8 5632   4.237   3.690  16.771  0.2384 -0.1567 -0.1404
  376TMC3    O1 5633   3.815   3.780  16.357  0.0754  0.1534 -0.0927
  376TMC3    O2 5634   4.251   3.637  16.881 -0.3786 -0.0603  0.3840
  377MPD2     C 5635   1.469   3.170  12.030 -0.1306  0.2792  0.3931
  377MPD2    C1 5636   1.555   3.117  12.125 -0.7909  0.5899 -0.1040
  377MPD2    C2 5637   1.516   3.108  12.262  0.3560 -0.2408  0.2560
  377MPD2    C3 5638   1.394   3.159  12.303 -0.0380 -0.1872  0.0438
  377MPD2    C4 5639   1.313   3.214  12.204 -0.2784 -0.0131 -0.8676
  377MPD2    C5 5640   1.350   3.223  12.071 -0.3590 -0.2430  0.7820
  377MPD2     H 5641   1.575   3.062  12.340 -1.2833 -0.7913  1.1656
  377MPD2    H1 5642   1.220   3.269  12.217 -0.9446 -1.1441 -0.8583
  377MPD2    H2 5643   1.497   3.178  11.926  1.0196 -0.2484  0.6612
  377MPD2    H3 5644   1.286   3.283  12.008  2.3367  3.0410  1.1797
  377MPD2     N 5645   1.358   3.149  12.435 -0.0641 -0.0987  0.0169
  377MPD2    H5 5646   1.263   3.178  12.454 -1.1149 -3.1781 -0.4439
  377MPD2    N1 5647   1.672   3.062  12.086 -0.0911 -0.4997  0.0632
  377MPD2    H7 5648   1.687   3.057  11.986 -1.4391  0.7483 -0.2104
  378TMC3    C1 5649   2.013   2.912  11.888  0.0864 -0.1197  0.3716
  378TMC3    C2 5650   1.893   2.955  11.946 -0.4302 -0.2967  0.0777
  378TMC3    C3 5651   1.888   2.962  12.086  0.6582 -0.0433 -1.0043
  378TMC3    C4 5652   2.130   2.888  11.956  0.6178  0.0122  0.1827
  378TMC3    C5 5653   2.122   2.910  12.094  0.2087 -0.2229  0.5958
  378TMC3    C6 5654   1.998   2.934  12.157 -0.3041  0.6341  0.8083
  378TMC3     C 5655   2.003   2.886  11.742  0.3943 -0.2803  0.4740
  378TMC3     O 5656   1.896   2.838  11.703 -0.1500 -0.2344  0.1196
  378TMC3     H 5657   1.803   2.950  11.885 -1.0434 -0.5866  1.0145
  378TMC3    H1 5658   2.213   2.841  11.905 -0.1348  0.4175 -1.4178
  378TMC3    H2 5659   1.991   2.929  12.265 -1.2132 -0.2375  0.7025
  378TMC3    C7 5660   2.250   2.914  12.165  0.5324 -0.5337 -0.4395
  378TMC3    C8 5661   1.765   2.986  12.161  0.5708 -0.6402 -0.6504
  378TMC3    O1 5662   2.252   2.961  12.276  0.1047 -0.4319 -0.1946
  378TMC3    O2 5663   1.762   2.972  12.283 -0.3909 -0.1646 -0.0532
  379MPD2     C 5664   2.425   1.324  15.868 -0.3589  0.0714 -0.7587
  379MPD2    C1 5665   2.373   1.339  15.999  0.0329 -0.2134 -0.0352
  379MPD2    C2 5666   2.416   1.248  16.102  0.7588 -0.3993  0.1089
  379MPD2    C3 5667   2.502   1.140  16.076 -0.4363  0.0536 -0.5945
  379MPD2    C4 5668   2.542   1.124  15.942 -0.4364 -0.5171 -0.0765
  379MPD2    C5 5669   2.499   1.209  15.842  0.7384  1.2956 -0.7230
  379MPD2     H 5670   2.378   1.257  16.203 -0.8129  1.4550 -0.6444
  379MPD2    H1 5671   2.600   1.042  15.902 -0.0478 -0.3163  0.0734
  379MPD2    H2 5672   2.397   1.392  15.788 -1.5036 -0.6990 -1.0205
  379MPD2    H3 5673   2.518   1.184  15.738  0.4419 -1.2873 -0.1444
  379MPD2     N 5674   2.548   1.051  16.171  0.2319 -0.2106  0.0521
  379MPD2    H5 5675   2.613   0.981  16.139  0.5172 -0.0815  0.3466
  379MPD2    N1 5676   2.284   1.451  16.012 -0.5509 -0.3006 -0.3364
  379MPD2    H7 5677   2.262   1.508  15.932 -2.5112 -2.4632 -1.3227
  380TMC3    C1 5678   2.090   1.534  16.105 -0.1273  0.3230  0.2300
  380TMC3    C2 5679   1.987   1.436  16.119  1.0541 -0.2819  0.2043
  380TMC3    C3 5680   1.898   1.410  16.012  0.6479 -0.1067  0.5468
  380TMC3    C4 5681   2.097   1.599  15.989 -0.1703  0.0127 -0.7247
  380TMC3    C5 5682   1.999   1.584  15.891  0.3631 -0.3315  0.6687
  380TMC3    C6 5683   1.896   1.497  15.900 -0.2516  0.6014  0.1892
  380TMC3     C 5684   2.215   1.473  16.129 -0.5965  0.1375  0.0203
  380TMC3     O 5685   2.217   1.408  16.233  0.3170  0.6680  0.1879
  380TMC3     H 5686   1.973   1.382  16.212 -0.2755 -0.6387 -0.1968
  380TMC3    H1 5687   2.180   1.668  15.978  0.5051 -0.6322  0.4100
  380TMC3    H2 5688   1.858   1.454  15.808  4.4209 -1.0684 -0.9696
  380TMC3    C7 5689   1.999   1.688  15.789 -0.4719 -0.2758 -0.3324
  380TMC3    C8 5690   1.897   1.269  15.979 -0.6137  0.1375 -0.4554
  380TMC3    O1 5691   2.081   1.777  15.792 -0.3908 -0.1649  0.3310
  380TMC3    O2 5692   1.869   1.246  15.864  0.1727  0.3367 -0.2516
  381TMC3    C1 5693   2.140   2.782  16.126  0.3805 -0.1792 -0.3427
  381TMC3    C2 5694   2.168   2.919  16.124 -0.0860  0.6007 -0.8739
  381TMC3    C3 5695   2.191   2.974  16.247 -0.3357  0.2055 -0.5349
  381TMC3    C4 5696   2.124   2.714  16.239  0.3736 -0.8390 -0.3164
  381TMC3    C5 5697   2.150   2.775  16.359 -0.1481  0.2743  0.6841
  381TMC3    C6 5698   2.185   2.909  16.370 -1.0531  0.1080 -0.0301
  381TMC3     C 5699   2.132   2.714  15.999  0.3059 -0.5694  0.2286
  381TMC3     O 5700   2.139   2.591  16.003 -0.5316 -0.6944  0.3028
  381TMC3     H 5701   2.198   2.965  16.031 -0.0364 -1.5760 -1.9284
  381TMC3    H1 5702   2.100   2.609  16.232  0.9044 -1.0230  0.6020
  381TMC3    H2 5703   2.211   2.971  16.455  1.9831  2.1454 -2.4256
  381TMC3    C7 5704   2.145   2.699  16.484  0.3778 -0.7689  0.6442
  381TMC3    C8 5705   2.301   3.056  16.232 -0.3487  0.7882  0.2519
  381TMC3    O1 5706   2.183   2.585  16.484 -0.1376  0.2587  0.4110
  381TMC3    O2 5707   2.380   3.013  16.150  0.1841 -0.2555 -0.7026
  382MPD2     C 5708   1.705   0.418  17.452  0.4382 -0.1159  0.2620
  382MPD2    C1 5709   1.598   0.481  17.510  0.3864 -0.1421 -0.1658
  382MPD2    C2 5710   1.492   0.410  17.555 -0.6180 -0.3036 -0.7586
  382MPD2    C3 5711   1.473   0.273  17.528 -0.3924 -0.1039 -0.1335
  382MPD2    C4 5712   1.575   0.215  17.453  0.0510  0.2247 -0.2673
  382MPD2    C5 5713   1.688   0.284  17.417 -0.2855  0.2003 -0.6804
  382MPD2     H 5714   1.412   0.464  17.604  1.1422  0.2092  1.5954
  382MPD2    H1 5715   1.571   0.107  17.446 -0.6241  0.3167 -1.3478
  382MPD2    H2 5716   1.795   0.460  17.409 -0.6587 -0.1224 -2.0731
  382MPD2    H3 5717   1.770   0.227  17.376  0.0281  0.5914 -0.5937
  382MPD2     N 5718   1.363   0.196  17.565  0.1433 -0.4374 -0.1880
  382MPD2    H5 5719   1.363   0.103  17.525  2.5981 -0.8632  0.7719
  382MPD2    N1 5720   1.601   0.619  17.532 -0.5744 -0.0653 -0.1268
  382MPD2    H7 5721   1.512   0.655  17.565 -0.2125  0.8653 -0.1558
  383TMC3    C1 5722   1.159   0.120  17.678 -0.2841  0.1623  0.3122
  383TMC3    C2 5723   1.125   0.029  17.581 -0.1480 -0.5119  0.3783
  383TMC3    C3 5724   0.999   4.716  17.573  0.0228 -0.1645 -0.4512
  383TMC3    C4 5725   1.070   0.154   0.066 -0.1477  0.3633  0.5961
  383TMC3    C5 5726   0.951   0.089   0.056 -0.6887 -0.0052 -0.7615
  383TMC3    C6 5727   0.910   0.010  17.668  0.6304 -0.8105 -0.2279
  383TMC3     C 5728   1.261   0.224  17.650  0.3756 -0.1428 -0.2778
  383TMC3     O 5729   1.246   0.335  17.701  0.1094 -0.3783  0.2699
  383TMC3     H 5730   1.188   0.022  17.492  0.5205 -1.4943  0.9386
  383TMC3    H1 5731   1.095   0.240   0.128  1.6175  0.4487 -0.2174
  383TMC3    H2 5732   0.809   4.699  17.659 -1.4053  4.0262  2.2679
  383TMC3    C7 5733   0.879   0.068   0.183 -0.2705  0.4752 -0.5150
  383TMC3    C8 5734   0.964   4.619  17.472  0.5501 -0.5726 -0.7710
  383TMC3    O1 5735   0.770   0.006   0.179  0.2876 -0.2034  0.6699
  383TMC3    O2 5736   0.844   4.606  17.451 -0.4749  0.1643 -0.0574
  384MPD2     C 5737   2.960   1.200  11.324 -0.9480 -0.4731  0.0867
  384MPD2    C1 5738   3.039   1.182  11.438  0.2786 -0.8729 -0.0776
  384MPD2    C2 5739   3.132   1.078  11.442 -0.1562 -0.1695  0.0103
  384MPD2    C3 5740   3.156   0.994  11.335 -0.6099  0.4800 -0.4891
  384MPD2    C4 5741   3.083   1.015  11.223  0.5718  0.1238 -0.0773
  384MPD2    C5 5742   2.989   1.118  11.219  1.2133  0.1168  0.0292
  384MPD2     H 5743   3.195   1.070  11.530  1.0936  0.1521 -0.8543
  384MPD2    H1 5744   3.095   0.956  11.133  0.9760  0.1796 -0.0611
  384MPD2    H2 5745   2.876   1.268  11.329  1.2621  2.2953 -0.1957
  384MPD2    H3 5746   2.928   1.136  11.131  2.2694  1.6984 -0.3812
  384MPD2     N 5747   3.243   0.886  11.353 -0.7963 -0.1115  0.0498
  384MPD2    H5 5748   3.287   0.876  11.444  0.4993  0.7481 -0.4857
  384MPD2    N1 5749   3.023   1.260  11.560 -0.3545 -0.2305 -0.0883
  384MPD2    H7 5750   3.077   1.226  11.639  1.8883 -0.4244 -1.6926
  385TMC3    C1 5751   3.373   0.702  11.303 -0.1972 -0.3234  0.1901
  385TMC3    C2 5752   3.344   0.573  11.316  0.4241  0.8651  0.1268
  385TMC3    C3 5753   3.391   0.507  11.431  0.0751 -0.0330 -0.0719
  385TMC3    C4 5754   3.443   0.766  11.401 -0.3925 -0.3742  0.0806
  385TMC3    C5 5755   3.470   0.707  11.520 -0.7620  0.3145 -0.1471
  385TMC3    C6 5756   3.445   0.574  11.543 -0.1665 -0.4201  0.4480
  385TMC3     C 5757   3.266   0.783  11.262 -0.0740 -0.0318 -0.2886
  385TMC3     O 5758   3.212   0.741  11.164  0.2714 -0.2780 -0.7562
  385TMC3     H 5759   3.281   0.526  11.242  0.8071  1.4012 -0.5412
  385TMC3    H1 5760   3.476   0.868  11.384  0.1916 -0.2863  1.7142
  385TMC3    H2 5761   3.462   0.521  11.636  3.9507 -1.3418 -0.8387
  385TMC3    C7 5762   3.453   0.799  11.634  0.5885 -0.6724 -0.1180
  385TMC3    C8 5763   3.372   0.363  11.450  0.0209  0.1466  0.3122
  385TMC3    O1 5764   3.426   0.912  11.594 -0.6989  0.1483 -0.5916
  385TMC3    O2 5765   3.424   0.313  11.546  0.1755 -0.1252 -0.1885
  386TMC3    C1 5766   3.751   2.938  11.956  0.0542 -0.0719  0.3027
  386TMC3    C2 5767   3.699   2.864  11.854  0.5061  0.2020 -0.1091
  386TMC3    C3 5768   3.585   2.918  11.809 -0.1926  0.0503  0.6702
  386TMC3    C4 5769   3.689   3.037  12.023 -0.1222 -0.0185  0.4822
  386TMC3    C5 5770   3.572   3.071  11.975 -0.1307  0.0147  0.7938
  386TMC3    C6 5771   3.515   3.011  11.875 -0.5663 -0.4139  0.8460
  386TMC3     C 5772   3.863   2.876  12.029  0.6152 -0.3317 -0.2516
  386TMC3     O 5773   3.907   2.947  12.114 -0.3640  0.1279 -0.1140
  386TMC3     H 5774   3.757   2.791  11.799  1.5237  0.1438  1.0253
  386TMC3    H1 5775   3.741   3.099  12.096 -1.1485 -0.5767  1.6760
  386TMC3    H2 5776   3.419   3.038  11.832 -0.8152  1.1548  2.3887
  386TMC3    C7 5777   3.482   3.113  12.080 -0.9637  0.5353 -0.4505
  386TMC3    C8 5778   3.535   2.888  11.680 -0.2376 -0.4577  0.2505
  386TMC3    O1 5779   3.526   3.181  12.173 -0.0807 -0.2568  1.2939
  386TMC3    O2 5780   3.473   2.980  11.629 -0.1332  0.0411  0.6745
  387MPD2     C 5781   0.936   3.364   9.832  0.8729  0.1335 -0.2523
  387MPD2    C1 5782   1.004   3.295   9.730  0.6450 -0.6364 -1.1398
  387MPD2    C2 5783   1.031   3.157   9.750  0.3582 -0.6601 -0.3990
  387MPD2    C3 5784   1.012   3.099   9.874  1.1130  0.4902  0.4584
  387MPD2    C4 5785   0.956   3.178   9.978  0.5677 -0.2073 -0.1163
  387MPD2    C5 5786   0.917   3.308   9.954  0.2155  0.6075  0.0730
  387MPD2     H 5787   1.062   3.094   9.667  1.8402  0.5844 -0.7887
  387MPD2    H1 5788   0.932   3.136  10.075 -4.4720 -0.4979 -1.4868
  387MPD2    H2 5789   0.901   3.466   9.817 -0.0596 -0.3726 -1.5946
  387MPD2    H3 5790   0.866   3.364  10.032  0.0333  0.8742 -0.2399
  387MPD2     N 5791   1.063   2.965   9.907  0.0105  0.1761 -0.4397
  387MPD2    H5 5792   1.027   2.917   9.989  0.2011 -0.1303 -0.5345
  387MPD2    N1 5793   1.054   3.351   9.606  0.1673  0.6480 -0.6704
  387MPD2    H7 5794   1.105   3.283   9.550 -0.9944 -0.7779  0.0007
  388TMC3    C1 5795   1.151   3.510   9.464 -0.9070 -0.0177 -0.7959
  388TMC3    C2 5796   1.126   3.597   9.361  0.1818  0.2090  0.6159
  388TMC3    C3 5797   1.193   3.598   9.243  0.4751 -0.6665 -0.4190
  388TMC3    C4 5798   1.256   3.420   9.444  0.4441 -0.5639  0.7072
  388TMC3    C5 5799   1.315   3.417   9.316  0.1802  0.3065  0.3908
  388TMC3    C6 5800   1.279   3.496   9.214  0.1860  0.5351  0.2807
  388TMC3     C 5801   1.055   3.483   9.570 -0.2668 -0.1248  0.1146
  388TMC3     O 5802   0.976   3.570   9.608  0.4323  0.5261 -0.5428
  388TMC3     H 5803   1.037   3.657   9.370 -0.7759 -1.0687 -0.1722
  388TMC3    H1 5804   1.284   3.351   9.523  1.3384 -0.7358  0.2328
  388TMC3    H2 5805   1.333   3.489   9.120  3.0103 -1.8776  2.0776
  388TMC3    C7 5806   1.409   3.310   9.278  0.8144 -0.0161  0.3236
  388TMC3    C8 5807   1.140   3.671   9.127 -0.8162  0.2212  0.1939
  388TMC3    O1 5808   1.489   3.320   9.191  0.2698 -0.0915 -0.5512
  388TMC3    O2 5809   1.159   3.631   9.012 -0.2742  0.6931 -0.6259
  389MPD2     C 5810   0.471   1.368  11.084  0.0117 -0.2344 -0.3700
  389MPD2    C1 5811   0.346   1.330  11.035 -0.2331  0.2890  0.2250
  389MPD2    C2 5812   0.250   1.285  11.127  0.2238 -0.2013  0.1999
  389MPD2    C3 5813   0.283   1.277  11.264  0.0902  0.0820  0.5687
  389MPD2    C4 5814   0.411   1.315  11.309  0.2608  0.2356  0.2781
  389MPD2    C5 5815   0.509   1.356  11.219  0.2069  0.2011 -0.6271
  389MPD2     H 5816   0.155   1.246  11.092  1.1865 -0.7986 -1.7275
  389MPD2    H1 5817   0.433   1.317  11.415  0.0025 -1.0842  0.3550
  389MPD2    H2 5818   0.547   1.393  11.010 -0.1647  1.4856  0.0444
  389MPD2    H3 5819   0.608   1.378  11.256 -0.0052 -0.6570  0.4815
  389MPD2     N 5820   0.202   1.236  11.370  0.2320  0.4499 -0.3796
  389MPD2    H5 5821   0.226   1.270  11.463 -1.4098  2.2412 -0.6088
  389MPD2    N1 5822   0.323   1.326  10.899 -0.2892 -0.0509 -0.1490
  389MPD2    H7 5823   0.405   1.344  10.841  0.2929 -3.2292 -0.2706
  390TMC3    C1 5824   0.053   1.094  11.480 -0.0877 -0.2871 -0.1722
  390TMC3    C2 5825   0.015   0.964  11.475 -0.5586 -0.3131  0.1735
  390TMC3    C3 5826   4.647   0.942  11.570  0.1567 -0.2184 -0.0041
  390TMC3    C4 5827   0.019   1.192  11.573  0.5138 -0.0664 -0.3781
  390TMC3    C5 5828   4.660   1.152  11.671 -0.8153  0.3149 -0.2117
  390TMC3    C6 5829   4.607   1.025  11.669  0.5494  1.0754  0.0901
  390TMC3     C 5830   0.105   1.148  11.352  0.1358  0.0086  0.8992
  390TMC3     O 5831   0.078   1.091  11.248 -0.4899 -0.4178  0.2206
  390TMC3     H 5832   0.041   0.900  11.391  1.2589  1.3830 -0.5537
  390TMC3    H1 5833   0.051   1.295  11.560  0.9040 -0.2319 -0.7465
  390TMC3    H2 5834   4.516   0.990  11.715  0.2335  3.3988  1.2642
  390TMC3    C7 5835   4.586   1.255  11.740  0.4993 -0.2628  0.0045
  390TMC3    C8 5836   4.568   0.816  11.548  0.1707  0.4964 -0.3711
  390TMC3    O1 5837   4.587   1.366  11.687  0.0131 -0.6733 -0.2017
  390TMC3    O2 5838   4.563   0.771  11.439  0.1652 -0.0238  0.1421
  391MPD2     C 5839   3.828   2.817  11.344  0.5735  0.0037 -0.3263
  391MPD2    C1 5840   3.964   2.843  11.324 -0.2759 -0.3379 -0.3720
  391MPD2    C2 5841   4.011   2.828  11.195  0.2869  0.8793 -0.0634
  391MPD2    C3 5842   3.923   2.813  11.088  0.4729  0.5531 -0.3576
  391MPD2    C4 5843   3.781   2.811  11.108  0.2532 -0.3307  0.5965
  391MPD2    C5 5844   3.740   2.807  11.241  0.3955  1.1331 -0.1122
  391MPD2     H 5845   4.114   2.844  11.166  0.0360  0.2883 -1.2891
  391MPD2    H1 5846   3.713   2.799  11.024 -0.1145 -1.3120  1.0295
  391MPD2    H2 5847   3.775   2.816  11.439  0.8649  0.2335 -0.1606
  391MPD2    H3 5848   3.634   2.807  11.262  0.2928 -0.7789 -0.5978
  391MPD2     N 5849   3.978   2.786  10.963  0.3419  0.1103  0.1075
  391MPD2    H5 5850   4.079   2.775  10.962  0.4613  1.2328  0.1001
  391MPD2    N1 5851   4.053   2.882  11.424  0.4637 -0.4847  0.3696
  391MPD2    H7 5852   4.147   2.899  11.391  0.9465 -0.5199  1.7139
  392TMC3    C1 5853   4.014   2.748  10.736 -0.7412  0.6273 -0.1630
  392TMC3    C2 5854   3.979   2.693  10.614  0.7987  0.2439  0.7647
  392TMC3    C3 5855   4.074   2.673  10.520  0.6265  0.4611  0.6332
  392TMC3    C4 5856   4.139   2.798  10.751  0.4169  0.1669 -0.6661
  392TMC3    C5 5857   4.219   2.805  10.642  0.5065  0.1609 -0.3140
  392TMC3    C6 5858   4.192   2.733  10.530  0.4238 -0.5186  0.2191
  392TMC3     C 5859   3.915   2.757  10.848 -0.1756 -0.3707  0.3397
  392TMC3     O 5860   3.801   2.713  10.829 -0.4019 -0.1407  0.1185
  392TMC3     H 5861   3.878   2.653  10.607  0.5734  0.8269  0.7241
  392TMC3    H1 5862   4.164   2.874  10.825 -4.0956  1.7904 -0.7750
  392TMC3    H2 5863   4.266   2.720  10.452  0.3098 -1.9941  0.3557
  392TMC3    C7 5864   4.337   2.886  10.650 -0.1606  0.0004  0.0824
  392TMC3    C8 5865   4.035   2.621  10.394  0.4811  0.0786  0.3016
  392TMC3    O1 5866   4.381   2.892  10.763  0.3033  0.7193  0.3118
  392TMC3    O2 5867   3.922   2.644  10.356 -0.3530 -0.4067  0.2525
  393TMC3    C1 5868   3.281   0.473   9.594 -0.2118  0.1511  0.3344
  393TMC3    C2 5869   3.175   0.399   9.556 -0.1964 -0.4317  0.8180
  393TMC3    C3 5870   3.079   0.375   9.656  0.6041  0.0021  0.0852
  393TMC3    C4 5871   3.307   0.511   9.723 -0.1710  0.0687 -0.0239
  393TMC3    C5 5872   3.205   0.490   9.816 -0.3516 -0.0274 -0.0713
  393TMC3    C6 5873   3.087   0.428   9.782  0.2755  0.8757 -0.0398
  393TMC3     C 5874   3.388   0.505   9.496 -0.1722  0.4017 -0.3574
  393TMC3     O 5875   3.474   0.580   9.525 -0.1704 -0.0934 -0.4897
  393TMC3     H 5876   3.166   0.361   9.455 -0.1780  1.3953  0.1271
  393TMC3    H1 5877   3.394   0.567   9.755  0.7407 -1.8108  0.8052
  393TMC3    H2 5878   3.004   0.421   9.851 -0.9618 -1.9987 -1.8742
  393TMC3    C7 5879   3.210   0.556   9.943  0.9534 -0.4177 -0.2355
  393TMC3    C8 5880   2.968   0.288   9.609  0.1348 -0.2865 -0.0337
  393TMC3    O1 5881   3.107   0.605   9.982  0.3460  0.0918 -0.2519
  393TMC3    O2 5882   2.926   0.284   9.492 -0.1891  0.7915  0.2874
  394TMC3    C1 5883   0.217   1.347  10.685  0.8792 -0.4975  0.2816
  394TMC3    C2 5884   0.094   1.345  10.614  0.0080 -0.8295 -0.0358
  394TMC3    C3 5885   0.089   1.369  10.479  0.5772 -0.3665 -0.3412
  394TMC3    C4 5886   0.332   1.373  10.619 -0.3264  0.1985 -0.1610
  394TMC3    C5 5887   0.325   1.382  10.480 -0.2330  0.5028  0.1034
  394TMC3    C6 5888   0.209   1.368  10.411 -0.5756  0.6003 -0.3067
  394TMC3     C 5889   0.203   1.312  10.828  0.4187 -0.4087 -0.3706
  394TMC3     O 5890   0.088   1.305  10.868  0.0327  0.2152  0.1461
  394TMC3     H 5891   4.726   1.333  10.664  0.2432  0.9131  0.7907
  394TMC3    H1 5892   0.426   1.390  10.669 -0.5032 -0.7018  0.4846
  394TMC3    H2 5893   0.211   1.387  10.304  0.5283  0.1680 -0.3603
  394TMC3    C7 5894   0.446   1.402  10.403  0.0324  0.4160 -0.2490
  394TMC3    C8 5895   4.725   1.288  10.405 -0.1214 -0.7218  0.1341
  394TMC3    O1 5896   0.443   1.464  10.296 -0.2401 -0.0255  0.0504
  394TMC3    O2 5897   4.622   1.340  10.364 -0.1229  0.1924 -0.2587
  395TMC3    C1 5898   4.503   3.909  14.958  0.2591  0.2482 -0.1798
  395TMC3    C2 5899   4.415   3.866  14.866  0.4089 -0.2651 -0.0305
  395TMC3    C3 5900   4.394   3.942  14.758 -0.0238 -0.6391  0.0579
  395TMC3    C4 5901   4.578   4.022  14.948 -0.4151 -0.2155 -0.4423
  395TMC3    C5 5902   4.564   4.085  14.833  0.3166 -0.1721  0.9947
  395TMC3    C6 5903   4.469   4.044  14.738 -0.4076  0.0598  0.2780
  395TMC3     C 5904   4.454   3.895  15.092 -0.2535  0.2571 -0.4344
  395TMC3     O 5905   4.458   3.995  15.164  0.4785 -0.3941  0.0500
  395TMC3     H 5906   4.346   3.785  14.891  1.6502 -1.8691 -1.8514
  395TMC3    H1 5907   4.639   4.058  15.029 -0.8459  0.4910 -0.4322
  395TMC3    H2 5908   4.442   4.117  14.663 -2.3712 -0.0418  0.8741
  395TMC3    C7 5909   4.678   4.156  14.785  0.4540 -0.7928  0.1039
  395TMC3    C8 5910   4.343   3.887  14.642 -0.0241 -0.5612 -0.5807
  395TMC3    O1 5911   4.664   4.205  14.673 -0.0833  0.1125 -0.3629
  395TMC3    O2 5912   4.326   3.964  14.545 -0.0303  0.2430 -0.0922
  396MPD2     C 5913   0.074   4.410  17.386  0.2987 -0.4886 -0.2552
  396MPD2    C1 5914   0.061   4.428  17.249 -0.0303 -0.0799 -0.5720
  396MPD2    C2 5915   0.039   4.555  17.196 -0.6489 -0.7945 -0.5530
  396MPD2    C3 5916   0.058   4.665  17.276  0.4061  0.3623  0.0635
  396MPD2    C4 5917   0.080   4.651  17.413  0.5429  0.2536 -0.3705
  396MPD2    C5 5918   0.074   4.524  17.465 -0.3299 -0.1315  0.5667
  396MPD2     H 5919   0.039   4.582  17.091  1.2635 -0.8632 -0.5782
  396MPD2    H1 5920   0.107   0.009  17.474 -0.6761  0.2503  0.1677
  396MPD2    H2 5921   0.081   4.311  17.429 -0.3766  0.8283  2.9199
  396MPD2    H3 5922   0.084   4.506  17.571  0.7488 -0.4174  0.4117
  396MPD2     N 5923   0.049   0.076  17.230 -0.0114 -0.0531 -0.0330
  396MPD2    H5 5924   0.029   0.148  17.299  1.6260  0.1744  0.1839
  396MPD2    N1 5925   0.054   4.313  17.171  0.6465 -0.4177  0.2537
  396MPD2    H7 5926   0.061   4.223  17.218  0.4777  0.4506  1.9558
  397TMC3    C1 5927   0.023   4.181  16.967 -0.3386  0.1551  0.5217
  397TMC3    C2 5928   0.042   4.198  16.837  0.2002  0.8738 -0.6315
  397TMC3    C3 5929   4.680   4.152  16.747  0.6495  0.2782 -0.1388
  397TMC3    C4 5930   4.630   4.123  17.010 -0.1726  0.6160  0.6358
  397TMC3    C5 5931   4.539   4.078  16.921  0.2354  0.5700 -0.5330
  397TMC3    C6 5932   4.559   4.095  16.783 -0.2771 -0.5739 -0.3928
  397TMC3     C 5933   0.044   4.308  17.035  0.2294 -0.6214 -0.5636
  397TMC3     O 5934   0.038   4.400  16.954 -0.6127 -1.1296 -0.1610
  397TMC3     H 5935   0.139   4.234  16.807  0.2041  0.0199 -1.6388
  397TMC3    H1 5936   4.610   4.112  17.116  0.7798 -2.7301  0.4776
  397TMC3    H2 5937   4.484   4.068  16.709 -0.0739 -0.2564 -0.7202
  397TMC3    C7 5938   4.406   4.020  16.961 -0.1799  0.3202 -0.6970
  397TMC3    C8 5939   4.657   4.244  16.644  0.2961  0.3088  0.3463
  397TMC3    O1 5940   4.337   3.963  16.875  0.1636  0.3489  0.4447
  397TMC3    O2 5941   4.592   4.200  16.546  0.1151  0.0792 -0.1562
  398MPD2     C 5942   2.047   0.643  17.630 -0.0168 -0.5678  0.4977
  398MPD2    C1 5943   2.099   0.528  17.678 -0.0114 -0.0245  0.1189
  398MPD2    C2 5944   2.239   0.509  17.675  0.9678 -0.8347 -0.2935
  398MPD2    C3 5945   2.320   0.612  17.627  0.5686 -0.5744 -0.1843
  398MPD2    C4 5946   2.262   0.727  17.570  0.1347 -0.3916  0.5709
  398MPD2    C5 5947   2.127   0.734  17.573 -0.2516  0.5910  0.4125
  398MPD2     H 5948   2.287   0.422   0.008  2.3916  0.6990  1.1574
  398MPD2    H1 5949   2.318   0.804  17.516 -2.4838  2.3345  1.7328
  398MPD2    H2 5950   1.939   0.651  17.635 -0.2221 -1.0196 -3.5578
  398MPD2    H3 5951   2.081   0.822  17.529 -0.8791  0.3925  0.6793
  398MPD2     N 5952   2.460   0.602  17.644  0.3829  0.7126 -0.2523
  398MPD2    H5 5953   2.487   0.538   0.006 -0.9645  0.0137 -0.3579
  398MPD2    N1 5954   2.025   0.435   0.040 -0.0036  0.1913  0.2364
  398MPD2    H7 5955   2.057   0.339   0.033 -1.1201 -0.4931  4.1176
  399TMC3    C1 5956   1.826   0.335   0.124  0.3695  0.1401 -0.5365
  399TMC3    C2 5957   1.755   0.330   0.241  0.1966 -0.6845 -0.2230
  399TMC3    C3 5958   1.742   0.207   0.302  0.3133 -0.0493 -0.1757
  399TMC3    C4 5959   1.878   0.227   0.061  0.6601 -0.5666  0.0382
  399TMC3    C5 5960   1.874   0.105   0.134 -0.3013 -0.1205 -0.1660
  399TMC3    C6 5961   1.804   0.089   0.253 -0.5796  0.3301 -0.4496
  399TMC3     C 5962   1.898   0.463   0.094 -0.4356 -0.3964 -0.0291
  399TMC3     O 5963   1.845   0.570   0.120 -0.7169  0.0099 -0.0727
  399TMC3     H 5964   1.709   0.422   0.277  1.2562 -0.7795  1.3867
  399TMC3    H1 5965   1.914   0.244  17.672 -0.1141 -0.6424 -0.2555
  399TMC3    H2 5966   1.779   4.724   0.304  0.9511 -0.8334 -1.8390
  399TMC3    C7 5967   1.934   4.719   0.071 -0.6727  0.3122 -0.3433
  399TMC3    C8 5968   1.657   0.198   0.423 -0.0092  0.4870 -0.5671
  399TMC3    O1 5969   1.945   4.721  17.661  0.3697 -0.1836 -0.4337
  399TMC3    O2 5970   1.574   0.284   0.445  0.1314 -0.2191  0.5818
  400TMC3    C1 5971   1.298   4.257  16.995  0.5717 -0.3503 -0.1889
  400TMC3    C2 5972   1.186   4.274  16.916  0.0183  0.3774 -0.8145
  400TMC3    C3 5973   1.127   4.397  16.908  0.1114  1.2869  0.3975
  400TMC3    C4 5974   1.343   4.363  17.065 -0.4589 -0.0286  0.3495
  400TMC3    C5 5975   1.282   4.484  17.053 -0.0832 -0.1542 -0.0046
  400TMC3    C6 5976   1.168   4.504  16.979  0.6195  0.0264  0.6945
  400TMC3     C 5977   1.341   4.122  17.012  0.1206 -0.2295  0.6626
  400TMC3     O 5978   1.283   4.044  16.937  0.5390 -0.0865  0.3200
  400TMC3     H 5979   1.148   4.194  16.854 -0.3170  0.5098 -0.7812
  400TMC3    H1 5980   1.425   4.352  17.134 -2.0762 -2.0087  1.9862
  400TMC3    H2 5981   1.113   4.596  16.959  1.2843 -0.0001 -1.2803
  400TMC3    C7 5982   1.325   4.601  17.125  0.1953 -0.1246  0.9869
  400TMC3    C8 5983   1.021   4.421  16.809 -0.7739  0.5525 -0.1453
  400TMC3    O1 5984   1.444   4.618  17.131  0.0783  0.0385 -0.2431
  400TMC3    O2 5985   0.985   4.537  16.795 -0.5608  0.1428  0.1583
  401MPD2     C 5986   4.689   2.595   0.175  0.1048 -0.2472 -0.1399
  401MPD2    C1 5987   4.660   2.457   0.159 -0.2595 -0.5269  0.6514
  401MPD2    C2 5988   0.028   2.379   0.094 -0.2481 -0.8789 -0.3809
  401MPD2    C3 5989   0.149   2.430   0.066  0.5700 -0.1197  0.0177
  401MPD2    C4 5990   0.177   2.567   0.082  0.2174 -0.5493 -0.0905
  401MPD2    C5 5991   0.078   2.648   0.136 -0.0189  0.2509 -0.4257
  401MPD2     H 5992   0.005   2.275   0.073 -0.9028 -0.8612  0.2533
  401MPD2    H1 5993   0.276   2.606   0.064  0.3516 -1.3969 -1.1539
  401MPD2    H2 5994   4.628   2.662   0.234  2.2875  1.2011  0.4510
  401MPD2    H3 5995   0.106   2.751   0.157  0.8451  0.2114 -1.4028
  401MPD2     N 5996   0.233   2.340  17.710  0.3760  0.4366 -0.1971
  401MPD2    H5 5997   0.194   2.247  17.699  0.5651  0.2571  0.6044
  401MPD2    N1 5998   4.547   2.384   0.217 -0.0741  0.2281 -0.2017
  401MPD2    H7 5999   4.531   2.285   0.205 -1.1679  0.2366  1.1074
  402TMC3    C1 6000   0.413   2.224  17.613 -0.8840 -0.3930  0.4863
  402TMC3    C2 6001   0.355   2.106  17.657  0.1941  0.0083  0.5581
  402TMC3    C3 6002   0.421   1.980  17.638  0.2240  0.1962 -0.6197
  402TMC3    C4 6003   0.540   2.215  17.559  0.1321 -0.0193  0.3735
  402TMC3    C5 6004   0.600   2.092  17.545  0.0467  0.3826  0.0298
  402TMC3    C6 6005   0.540   1.978  17.580  0.2983 -0.7481  0.2196
  402TMC3     C 6006   0.358   2.359  17.658  0.3963  0.2594  0.2459
  402TMC3     O 6007   0.441   2.451  17.664 -0.0964 -0.2002  0.0620
  402TMC3     H 6008   0.280   2.111   0.023 -0.5620 -1.1460 -0.0963
  402TMC3    H1 6009   0.595   2.305  17.533 -0.7923  0.4734  0.1464
  402TMC3    H2 6010   0.595   1.884  17.573  2.3238  0.4489  0.0726
  402TMC3    C7 6011   0.741   2.097  17.530  0.2989  0.4130 -0.1175
  402TMC3    C8 6012   0.366   1.861  17.696 -0.2023 -0.4405  0.0590
  402TMC3    O1 6013   0.804   2.194  17.566  0.1672  0.3239  0.3400
  402TMC3    O2 6014   0.429   1.792   0.062  0.3280  0.1718 -0.4352
  403MPD2     C 6015   2.488   1.112  13.460  0.1598 -0.6468 -0.3990
  403MPD2    C1 6016   2.568   1.021  13.397 -0.2270 -0.0031 -0.4740
  403MPD2    C2 6017   2.701   1.012  13.444 -0.7396  0.9426  0.2059
  403MPD2    C3 6018   2.740   1.077  13.559 -0.6353  0.0583  0.1555
  403MPD2    C4 6019   2.657   1.163  13.622  0.5832  0.2848 -0.1455
  403MPD2    C5 6020   2.530   1.174  13.573 -0.9837 -0.5164  0.7139
  403MPD2     H 6021   2.769   0.950  13.388  0.0607  3.2119 -1.3465
  403MPD2    H1 6022   2.670   1.209  13.720 -0.3712  0.8472 -0.2726
  403MPD2    H2 6023   2.388   1.129  13.423  0.1607  0.6499  0.2303
  403MPD2    H3 6024   2.457   1.234  13.627 -2.3060 -0.9887 -0.5603
  403MPD2     N 6025   2.874   1.057  13.607 -0.3385  0.3074  0.3419
  403MPD2    H5 6026   2.920   0.980  13.561  2.1773  1.8008  0.3600
  403MPD2    N1 6027   2.511   0.948  13.295 -0.2150 -0.1696  0.5534
  403MPD2    H7 6028   2.410   0.939  13.287 -0.3683  0.3854  1.8630
  404TMC3    C1 6029   2.531   0.775  13.144 -0.1498 -0.2416 -0.4406
  404TMC3    C2 6030   2.467   0.690  13.231 -0.2385  0.4479 -0.4298
  404TMC3    C3 6031   2.473   0.555  13.209 -0.8438  0.1571 -0.6249
  404TMC3    C4 6032   2.584   0.731  13.032  0.2155 -0.0444  0.0973
  404TMC3    C5 6033   2.583   0.601  12.998  0.0187 -0.1656 -0.3600
  404TMC3    C6 6034   2.537   0.511  13.095 -0.2405 -0.2180  0.3384
  404TMC3     C 6035   2.590   0.888  13.200  0.0435  0.5010  0.5538
  404TMC3     O 6036   2.691   0.933  13.140  0.4604  0.3400  0.3877
  404TMC3     H 6037   2.441   0.716  13.333  0.7649  0.4259 -0.1692
  404TMC3    H1 6038   2.617   0.808  12.964 -1.4637  0.2711 -0.3498
  404TMC3    H2 6039   2.528   0.408  13.063 -0.1828 -0.2950  0.5717
  404TMC3    C7 6040   2.616   0.567  12.866 -0.7255 -0.7533  0.2125
  404TMC3    C8 6041   2.498   0.465  13.317 -0.3867  0.4705 -0.0422
  404TMC3    O1 6042   2.674   0.657  12.804  0.9734 -0.6218 -0.1692
  404TMC3    O2 6043   2.559   0.363  13.288  0.2677 -0.1418  1.1923
  405MPD2     C 6044   2.796   1.590  14.680  0.4247 -0.0914 -0.5479
  405MPD2    C1 6045   2.729   1.506  14.594 -0.2093  0.1260  0.0238
  405MPD2    C2 6046   2.591   1.500  14.612 -0.2772  0.5799 -0.1405
  405MPD2    C3 6047   2.519   1.575  14.704  0.0584  0.1473  0.3912
  405MPD2    C4 6048   2.592   1.657  14.788  0.0500 -0.1412  0.2660
  405MPD2    C5 6049   2.726   1.656  14.775  0.1378  0.4357 -0.3389
  405MPD2     H 6050   2.532   1.437  14.546  2.0337 -0.7453 -0.9493
  405MPD2    H1 6051   2.543   1.733  14.848 -0.8963 -0.2753 -0.3337
  405MPD2    H2 6052   2.901   1.609  14.659  0.8241 -1.1609  0.4998
  405MPD2    H3 6053   2.779   1.725  14.839 -0.4729 -0.6759  1.3594
  405MPD2     N 6054   2.379   1.558  14.716  0.5368 -0.1031 -0.5949
  405MPD2    H5 6055   2.329   1.484  14.666  0.7519 -1.5829  1.3765
  405MPD2    N1 6056   2.803   1.428  14.496  0.0110  0.3568 -0.2076
  405MPD2    H7 6057   2.903   1.444  14.496  0.4389 -2.2917  0.6800
  406TMC3    C1 6058   1.946   1.616  14.747 -0.0371 -0.3835 -0.6293
  406TMC3    C2 6059   1.922   1.495  14.683 -0.0288 -0.3879  0.2939
  406TMC3    C3 6060   2.024   1.399  14.673  0.5007 -0.2020  0.4845
  406TMC3    C4 6061   2.066   1.639  14.812 -0.0500 -0.8047  0.1509
  406TMC3    C5 6062   2.169   1.548  14.801 -0.4921  0.2634  0.0971
  406TMC3    C6 6063   2.149   1.427  14.732 -0.4284  0.4995  0.2997
  406TMC3     C 6064   1.891   1.727  14.676 -0.3582 -0.7299 -0.4322
  406TMC3     O 6065   1.846   1.823  14.735  0.4512  0.2557  0.2136
  406TMC3     H 6066   1.826   1.474  14.637  0.4131 -1.2223 -0.2565
  406TMC3    H1 6067   2.087   1.740  14.846  0.1454 -0.3855 -1.2457
  406TMC3    H2 6068   2.230   1.357  14.717 -0.2609  0.9399 -0.9068
  406TMC3    C7 6069   2.298   1.598  14.824  0.1596 -0.1211  0.0196
  406TMC3    C8 6070   2.024   1.318  14.551 -0.4722  0.4941 -0.2602
  406TMC3    O1 6071   2.320   1.684  14.908  0.3906  0.3611 -0.2310
  406TMC3    O2 6072   1.937   1.348  14.474  0.0463  0.1364 -0.2549
  407MPD2     C 6073   0.577   2.680   9.442  0.5211  0.3662 -0.7395
  407MPD2    C1 6074   0.668   2.649   9.546 -0.5496 -0.3215 -0.6493
  407MPD2    C2 6075   0.652   2.699   9.672 -0.8500  0.6798 -0.5235
  407MPD2    C3 6076   0.535   2.767   9.712  1.1512 -0.0958  0.6903
  407MPD2    C4 6077   0.441   2.792   9.606 -0.2573  0.0748 -0.0519
  407MPD2    C5 6078   0.460   2.745   9.475  0.2853 -0.4807 -0.6212
  407MPD2     H 6079   0.733   2.679   9.741 -0.9781 -0.5820 -0.7404
  407MPD2    H1 6080   0.352   2.853   9.620 -0.3263  0.0058 -0.1899
  407MPD2    H2 6081   0.601   2.647   9.342  1.9302  0.1626 -0.3307
  407MPD2    H3 6082   0.388   2.768   9.397  1.4450  1.9402 -0.9742
  407MPD2     N 6083   0.515   2.821   9.841 -0.6620 -0.3373 -0.3240
  407MPD2    H5 6084   0.451   2.899   9.850 -1.5370 -1.1540  0.4950
  407MPD2    N1 6085   0.792   2.590   9.514 -0.1975  0.2727  0.2798
  407MPD2    H7 6086   0.869   2.593   9.581 -0.2759  0.2437  0.3716
  408TMC3    C1 6087   0.966   2.531   9.392 -0.3368  0.6739  0.2045
  408TMC3    C2 6088   1.039   2.426   9.344 -0.6581  0.5439  0.3400
  408TMC3    C3 6089   1.173   2.455   9.315  0.3466  0.6438 -0.4408
  408TMC3    C4 6090   1.025   2.656   9.405  0.2161 -0.4709  0.1457
  408TMC3    C5 6091   1.152   2.678   9.353  0.2751 -0.2791 -0.3172
  408TMC3    C6 6092   1.230   2.578   9.305  0.0578 -0.5001 -0.5869
  408TMC3     C 6093   0.824   2.528   9.398 -0.0390 -0.1814 -0.1951
  408TMC3     O 6094   0.754   2.460   9.325  0.0968  0.0946  0.1600
  408TMC3     H 6095   1.006   2.323   9.346 -2.2201  1.0539  0.7055
  408TMC3    H1 6096   0.978   2.731   9.467  2.5255  0.4497  0.7943
  408TMC3    H2 6097   1.327   2.596   9.259 -0.4759  0.4842 -1.3244
  408TMC3    C7 6098   1.152   2.809   9.288 -0.3265  0.0253 -0.4652
  408TMC3    C8 6099   1.263   2.343   9.295  1.2332  0.0740  0.1797
  408TMC3    O1 6100   1.064   2.886   9.327  0.2323 -0.4656  0.0275
  408TMC3    O2 6101   1.209   2.241   9.259 -0.1444 -0.4078 -0.1833
  409MPD2     C 6102   0.220   3.467  17.013 -0.4173  0.2171  0.2214
  409MPD2    C1 6103   0.258   3.545  17.121  0.3848  0.3843 -0.7932
  409MPD2    C2 6104   0.314   3.669  17.098  0.4980 -0.1355 -0.0175
  409MPD2    C3 6105   0.347   3.711  16.969 -0.0547  0.1643 -0.7269
  409MPD2    C4 6106   0.310   3.632  16.866  0.5382  0.0586 -0.4142
  409MPD2    C5 6107   0.253   3.511  16.887 -0.3226 -0.3209 -0.0841
  409MPD2     H 6108   0.346   3.723  17.187  1.5536  0.2359 -0.6188
  409MPD2    H1 6109   0.339   3.654  16.764  2.2746 -2.0604 -0.3897
  409MPD2    H2 6110   0.168   3.372  17.018  0.0164 -0.0265  0.0202
  409MPD2    H3 6111   0.244   3.438  16.808  3.6602 -0.7621 -0.1050
  409MPD2     N 6112   0.405   3.835  16.945  0.2797 -0.0495 -0.2290
  409MPD2    H5 6113   0.423   3.867  16.851  0.5180  0.1194 -0.1267
  409MPD2    N1 6114   0.261   3.500  17.258  0.4248  0.2220  0.0919
  409MPD2    H7 6115   0.302   3.564  17.324  0.8644  0.3863 -0.3437
  410TMC3    C1 6116   0.526   4.025  16.969  0.0256  0.1454  0.0683
  410TMC3    C2 6117   0.650   4.068  17.005 -0.1773  0.5853 -0.1252
  410TMC3    C3 6118   0.690   4.196  16.969  0.6614 -0.0953 -0.2520
  410TMC3    C4 6119   0.440   4.091  16.891 -0.0091 -0.3162  0.3504
  410TMC3    C5 6120   0.479   4.218  16.847 -0.6195  0.3021  0.2604
  410TMC3    C6 6121   0.605   4.264  16.878  0.0020  0.1724 -0.0134
  410TMC3     C 6122   0.485   3.906  17.034  0.2320  0.1798  0.1191
  410TMC3     O 6123   0.528   3.883  17.146 -0.2418 -0.1719  0.2273
  410TMC3     H 6124   0.709   4.004  17.069  1.4422  2.3456  0.1289
  410TMC3    H1 6125   0.348   4.038  16.869  0.9023 -1.8890  0.3632
  410TMC3    H2 6126   0.632   4.361  16.840  2.3649 -1.2062 -1.8731
  410TMC3    C7 6127   0.423   4.250  16.715  0.3907 -0.2980 -0.1187
  410TMC3    C8 6128   0.768   4.277  17.055 -0.2459 -0.1957 -0.0063
  410TMC3    O1 6129   0.347   4.161  16.670  0.3508 -0.4867  0.0179
  410TMC3    O2 6130   0.753   4.401  17.045 -0.1328 -0.1842  0.2574
  411MPD2     C 6131   0.257   4.572  14.231 -0.0987  0.1825 -0.8430
  411MPD2    C1 6132   0.168   4.582  14.332  0.1260  0.4277 -0.0010
  411MPD2    C2 6133   0.128   4.462  14.400  0.0603  0.8263 -0.0226
  411MPD2    C3 6134   0.182   4.342  14.366 -0.2253 -0.1186 -0.2247
  411MPD2    C4 6135   0.279   4.329  14.270  0.1481  0.0494  0.1001
  411MPD2    C5 6136   0.307   4.446  14.201 -0.2353 -0.0755  0.6298
  411MPD2     H 6137   0.050   4.454  14.474 -0.9744  0.8906 -1.0989
  411MPD2    H1 6138   0.315   4.233  14.234  2.0858  0.8956 -0.1852
  411MPD2    H2 6139   0.296   4.658  14.178  0.6131  0.5100  0.2098
  411MPD2    H3 6140   0.376   4.437  14.117  0.7678  1.3607  1.2965
  411MPD2     N 6141   0.130   4.225  14.428 -0.5673 -0.2445  0.0199
  411MPD2    H5 6142   0.040   4.232  14.475 -0.2448 -0.0492  0.6087
  411MPD2    N1 6143   0.127   4.710  14.372  0.1625  0.1143 -0.1287
  411MPD2    H7 6144   0.151   0.060  14.310 -1.5652  0.6469 -0.1199
  412TMC3    C1 6145   0.102   3.997  14.489 -0.0099  0.7343 -0.2877
  412TMC3    C2 6146   4.711   3.978  14.425 -0.0043 -0.4542  1.6047
  412TMC3    C3 6147   4.647   3.859  14.441 -0.2656  0.1605 -0.1082
  412TMC3    C4 6148   0.159   3.906  14.573  0.1059  0.4250  0.7053
  412TMC3    C5 6149   0.090   3.789  14.596 -0.0206  0.5637  0.3588
  412TMC3    C6 6150   4.693   3.768  14.536 -0.1949  0.1701  0.3338
  412TMC3     C 6151   0.184   4.101  14.435  0.3384 -0.2848 -0.3850
  412TMC3     O 6152   0.301   4.076  14.409 -0.3751 -0.5732  0.8044
  412TMC3     H 6153   4.725   4.019  14.326  1.9152 -1.5311  1.4289
  412TMC3    H1 6154   0.265   3.920  14.594  0.5429 -1.5645 -0.1460
  412TMC3    H2 6155   4.637   3.681  14.568 -0.1002 -0.0974 -0.2282
  412TMC3    C7 6156   0.177   3.682  14.569 -0.1398 -0.1552 -0.1956
  412TMC3    C8 6157   4.601   3.787  14.326  0.6915 -0.4631 -0.1584
  412TMC3    O1 6158   0.294   3.689  14.612  0.1981  0.0181  0.2699
  412TMC3    O2 6159   4.632   3.668  14.322  0.2978 -0.0055 -0.5416
  413MPD2     C 6160   2.071   2.107  14.679  0.2974  0.1525  0.3881
  413MPD2    C1 6161   2.105   2.196  14.784  0.0351  0.4254 -0.2946
  413MPD2    C2 6162   2.207   2.165  14.874  0.2063 -0.1764 -0.2904
  413MPD2    C3 6163   2.271   2.044  14.874  0.2764 -0.1020 -0.1739
  413MPD2    C4 6164   2.245   1.959  14.769  0.1652 -0.1461 -0.4984
  413MPD2    C5 6165   2.140   1.987  14.676 -0.3252 -0.5281  1.0308
  413MPD2     H 6166   2.236   2.240  14.948  2.0417 -0.0197 -1.1701
  413MPD2    H1 6167   2.295   1.864  14.754  2.0894  0.9839 -1.3243
  413MPD2    H2 6168   2.011   2.136  14.594 -1.0873 -1.2230  0.8967
  413MPD2    H3 6169   2.142   1.911  14.599 -0.4582  0.5179  0.0073
  413MPD2     N 6170   2.372   2.002  14.959 -0.7393  0.6032 -0.7457
  413MPD2    H5 6171   2.408   1.911  14.935  0.6923  0.6412  1.2244
  413MPD2    N1 6172   2.040   2.321  14.770 -0.1956  0.3006  0.0715
  413MPD2    H7 6173   1.963   2.329  14.704  0.3046 -0.5674 -0.6153
  414TMC3    C1 6174   2.557   2.014  15.099 -0.3409  0.2698  0.8929
  414TMC3    C2 6175   2.543   1.879  15.114  0.5090 -0.3237 -0.3428
  414TMC3    C3 6176   2.656   1.808  15.145 -0.3954  0.1752  0.4012
  414TMC3    C4 6177   2.680   2.067  15.087 -0.2107 -0.4966 -0.2031
  414TMC3    C5 6178   2.787   1.982  15.092  0.4194  0.2086 -0.3752
  414TMC3    C6 6179   2.778   1.850  15.121 -0.0845  0.4545  0.2393
  414TMC3     C 6180   2.447   2.084  15.035  0.6059 -0.1076  0.6234
  414TMC3     O 6181   2.450   2.205  15.046 -0.4026  0.1100  0.0870
  414TMC3     H 6182   2.450   1.826  15.129 -0.5585  1.5805 -0.3140
  414TMC3    H1 6183   2.693   2.174  15.078 -2.0686 -0.3148 -0.6147
  414TMC3    H2 6184   2.865   1.786  15.133  3.1235  5.0355  1.4539
  414TMC3    C7 6185   2.922   2.029  15.074 -0.4322 -0.4218  0.3602
  414TMC3    C8 6186   2.640   1.671  15.199 -0.2017 -0.1105 -0.4699
  414TMC3    O1 6187   3.001   2.037  15.169 -0.1959 -0.2005 -0.0762
  414TMC3    O2 6188   2.534   1.617  15.180  0.1083  0.6872  0.0467
  415TMC3    C1 6189   2.978   4.578   9.717  0.5058  0.1850  0.4151
  415TMC3    C2 6190   3.056   4.657   9.641 -0.1402 -0.0992  0.1369
  415TMC3    C3 6191   3.014   4.685   9.516 -0.4905  0.8324 -0.1184
  415TMC3    C4 6192   2.852   4.538   9.677 -0.8694 -0.4554 -0.3381
  415TMC3    C5 6193   2.810   4.575   9.554  0.3572  0.4023 -1.0838
  415TMC3    C6 6194   2.886   4.649   9.471 -0.2011 -0.2076 -0.4227
  415TMC3     C 6195   3.002   4.565   9.854  0.1769 -0.0742 -0.7060
  415TMC3     O 6196   2.906   4.583   9.930  0.0633  0.2801 -0.2777
  415TMC3     H 6197   3.149   4.697   9.681 -1.3565  2.0527  0.8676
  415TMC3    H1 6198   2.800   4.461   9.732  0.2751  0.6478  2.2933
  415TMC3    H2 6199   2.869   4.681   9.368 -1.5354 -0.2978 -0.2288
  415TMC3    C7 6200   2.679   4.539   9.500  0.0606 -0.8988 -0.1644
  415TMC3    C8 6201   3.115   4.692   9.409  0.9385 -0.3611  0.0001
  415TMC3    O1 6202   2.664   4.550   9.383 -0.1130 -0.1653  0.1704
  415TMC3    O2 6203   3.083   4.663   9.296 -0.1690  0.1138  0.0596
  416MPD2     C 6204   4.386   4.362  11.156  0.2097  0.1491 -0.4716
  416MPD2    C1 6205   4.287   4.326  11.248  0.0496 -0.3483  0.5474
  416MPD2    C2 6206   4.263   4.191  11.260 -0.2378 -0.3246  0.1353
  416MPD2    C3 6207   4.329   4.095  11.192 -0.1562 -0.4781  0.3469
  416MPD2    C4 6208   4.435   4.126  11.112 -0.2633  0.2352 -0.3460
  416MPD2    C5 6209   4.452   4.258  11.089 -0.6984  0.3589 -0.5473
  416MPD2     H 6210   4.172   4.160  11.310  0.1955  1.2896  1.9138
  416MPD2    H1 6211   4.481   4.057  11.043  0.0113 -0.0283  0.0953
  416MPD2    H2 6212   4.419   4.465  11.141  0.8157 -0.0012 -0.1373
  416MPD2    H3 6213   4.523   4.284  11.011 -0.1906  0.3933 -0.0668
  416MPD2     N 6214   4.285   3.964  11.202 -0.7817 -0.1184  0.0126
  416MPD2    H5 6215   4.207   3.938  11.263  1.7045 -0.9523  2.8301
  416MPD2    N1 6216   4.208   4.430  11.308 -0.3287 -0.1724  0.1518
  416MPD2    H7 6217   4.219   4.525  11.275 -0.0577 -0.5976 -0.9948
  417TMC3    C1 6218   4.049   4.528  11.444 -0.3539 -0.1131 -0.1480
  417TMC3    C2 6219   3.987   4.519  11.568 -0.5384 -0.1027  0.4663
  417TMC3    C3 6220   3.867   4.576  11.596 -0.0837  0.3880 -0.0685
  417TMC3    C4 6221   3.980   4.587  11.344 -0.1636  0.4470 -0.7097
  417TMC3    C5 6222   3.861   4.638  11.372 -0.0792 -0.5878  0.6651
  417TMC3    C6 6223   3.804   4.635  11.493  0.8155 -0.0011  0.1396
  417TMC3     C 6224   4.127   4.411  11.410 -0.5306  0.5046  0.1097
  417TMC3     O 6225   4.119   4.312  11.480  0.9956  0.0236  0.0829
  417TMC3     H 6226   4.039   4.463  11.645  2.9931  2.2303 -0.2005
  417TMC3    H1 6227   4.011   4.571  11.241  2.8598  0.4453  0.1812
  417TMC3    H2 6228   3.718   4.702  11.505  0.1894 -0.7122 -0.4096
  417TMC3    C7 6229   3.786   4.686  11.257  0.2785  0.8001  0.3006
  417TMC3    C8 6230   3.827   4.600  11.735 -0.2890 -0.4646 -0.3707
  417TMC3    O1 6231   3.856   0.003  11.170  0.4122  0.3165  0.6596
  417TMC3    O2 6232   3.908   4.570  11.819 -0.5999 -0.3799  0.1107
  418TMC3    C1 6233   2.899   0.524  17.545 -0.0596 -0.7096  0.2210
  418TMC3    C2 6234   2.786   0.596  17.507  0.3212  0.7829 -0.6615
  418TMC3    C3 6235   2.694   0.637  17.603 -0.1151  0.0443 -0.3068
  418TMC3    C4 6236   2.938   0.522  17.675  0.0733  0.2990  0.0946
  418TMC3    C5 6237   2.847   0.563   0.058 -0.3034  0.1193  0.1681
  418TMC3    C6 6238   2.724   0.624   0.028 -0.0857  0.0635 -0.1016
  418TMC3     C 6239   2.999   0.480  17.446 -0.4832 -0.7811 -0.3501
  418TMC3     O 6240   2.995   0.531  17.332 -0.3887  0.0953  0.2281
  418TMC3     H 6241   2.760   0.606  17.402 -3.2469  0.2406  0.1441
  418TMC3    H1 6242   3.025   0.464  17.703  0.9672  0.7570 -1.7316
  418TMC3    H2 6243   2.654   0.658   0.103  0.5246  1.0830  0.0034
  418TMC3    C7 6244   2.883   0.537   0.194 -0.3135  0.3416  0.5805
  418TMC3    C8 6245   2.557   0.671  17.570 -0.1257  0.0061 -0.0276
  418TMC3    O1 6246   2.965   0.451   0.218  0.6645 -0.7036  0.0481
  418TMC3    O2 6247   2.545   0.729  17.462  0.0858  0.0501 -0.2725
  419MPD2     C 6248   1.804   3.652  12.587  0.6425  0.6183  0.1430
  419MPD2    C1 6249   1.699   3.725  12.536  0.3599 -0.3537 -0.0351
  419MPD2    C2 6250   1.614   3.793  12.624 -0.2108 -0.4808  0.8503
  419MPD2    C3 6251   1.639   3.797  12.760 -0.6400 -0.3520 -0.5672
  419MPD2    C4 6252   1.739   3.712  12.813  0.0320  0.1154 -0.2354
  419MPD2    C5 6253   1.814   3.649  12.725 -0.4415  0.9723  0.3286
  419MPD2     H 6254   1.533   3.859  12.595  0.5671  1.9999  4.2240
  419MPD2    H1 6255   1.761   3.709  12.919 -2.8265  0.9856  0.3856
  419MPD2    H2 6256   1.883   3.607  12.528 -0.7925  0.1582 -1.4210
  419MPD2    H3 6257   1.892   3.587  12.767 -0.5320 -0.8790 -2.2495
  419MPD2     N 6258   1.564   3.890  12.847 -0.7963  0.1451  0.3777
  419MPD2    H5 6259   1.481   3.925  12.800 -1.1035 -1.3915 -0.2372
  419MPD2    N1 6260   1.686   3.750  12.401 -0.2033  0.5828 -0.4076
  419MPD2    H7 6261   1.617   3.823  12.381 -0.3262 -0.0467 -2.3145
  420TMC3    C1 6262   1.483   4.013  13.030  0.6151 -0.0940  0.7123
  420TMC3    C2 6263   1.411   4.085  12.940  0.3218  0.4502  0.5965
  420TMC3    C3 6264   1.335   4.181  12.991  0.1846 -0.3217  0.1146
  420TMC3    C4 6265   1.490   4.022  13.170  0.0973  0.0409  0.3367
  420TMC3    C5 6266   1.401   4.116  13.215  0.6098  0.1404 -0.4320
  420TMC3    C6 6267   1.332   4.199  13.128 -0.1572 -0.5216 -0.2232
  420TMC3     C 6268   1.585   3.922  12.978  0.3389 -0.0750 -0.1481
  420TMC3     O 6269   1.675   3.885  13.054 -0.1776  0.4457  0.3902
  420TMC3     H 6270   1.426   4.088  12.832 -1.0638 -1.1262  0.3587
  420TMC3    H1 6271   1.557   3.965  13.233 -0.0797  0.5214  0.9661
  420TMC3    H2 6272   1.265   4.277  13.164  1.1616  0.8536 -0.7498
  420TMC3    C7 6273   1.427   4.142  13.353  0.4404 -0.6587  0.5334
  420TMC3    C8 6274   1.245   4.250  12.901 -0.3517  1.0719 -0.1046
  420TMC3    O1 6275   1.533   4.107  13.397  0.6998  0.1759 -0.2487
  420TMC3    O2 6276   1.192   4.353  12.945 -0.1837  0.2358 -0.0187
  421TMC3    C1 6277   3.060   1.069  13.766 -0.3970 -0.5174  0.2513
  421TMC3    C2 6278   3.139   1.164  13.824  0.2368  0.1531 -0.6341
  421TMC3    C3 6279   3.268   1.131  13.847  0.3652  0.9022 -0.2199
  421TMC3    C4 6280   3.111   0.951  13.718 -0.2082 -0.1255  0.0083
  421TMC3    C5 6281   3.241   0.924  13.747 -0.5780 -0.1171  0.0150
  421TMC3    C6 6282   3.325   1.011  13.813  0.2290 -1.0684 -0.3568
  421TMC3     C 6283   2.928   1.118  13.720 -0.2433 -0.6491 -0.5152
  421TMC3     O 6284   2.896   1.221  13.778 -0.2343  0.6656  0.3965
  421TMC3     H 6285   3.091   1.256  13.857 -1.2310 -1.2008  1.0102
  421TMC3    H1 6286   3.037   0.889  13.669 -0.6276 -0.0117  0.4978
  421TMC3    H2 6287   3.430   0.993  13.837  0.0297 -0.8814  0.6344
  421TMC3    C7 6288   3.305   0.805  13.696  0.3846 -0.4608  0.6605
  421TMC3    C8 6289   3.351   1.250  13.882  0.5486  0.0660  0.1648
  421TMC3    O1 6290   3.422   0.797  13.722  0.6749 -0.4148  0.0199
  421TMC3    O2 6291   3.294   1.358  13.866  0.5799  0.4463 -0.5045
  422TMC3    C1 6292   0.482   2.031  12.578  0.9470  0.2763 -0.2326
  422TMC3    C2 6293   0.438   2.138  12.640  0.4238 -0.9205 -0.2495
  422TMC3    C3 6294   0.333   2.144  12.725  0.1447 -0.1774 -0.0269
  422TMC3    C4 6295   0.402   1.915  12.581  0.2309 -0.0426 -0.5432
  422TMC3    C5 6296   0.295   1.919  12.670  0.0675  0.2175  0.1800
  422TMC3    C6 6297   0.262   2.034  12.749 -0.1158  0.3834 -0.0778
  422TMC3     C 6298   0.601   2.031  12.493 -0.4188 -0.2554 -0.0031
  422TMC3     O 6299   0.626   2.140  12.436  0.0021  0.2601 -0.6194
  422TMC3     H 6300   0.488   2.231  12.616  0.6623  0.0100  3.9445
  422TMC3    H1 6301   0.429   1.825  12.527 -0.4339 -0.0248 -0.9053
  422TMC3    H2 6302   0.183   2.021  12.822  0.0987  1.2642  0.3037
  422TMC3    C7 6303   0.208   1.797  12.669  0.2650 -0.1495  0.4285
  422TMC3    C8 6304   0.348   2.238  12.829 -0.3981 -0.4802 -0.0661
  422TMC3    O1 6305   0.233   1.720  12.580 -0.3192  0.4725 -0.0625
  422TMC3    O2 6306   0.385   2.353  12.797  0.2639  0.3905  0.0437
  423MPD2     C 6307   2.341   3.861   0.458  0.1303 -0.3124  0.0933
  423MPD2    C1 6308   2.318   3.746   0.526  0.6245  0.2242  0.2940
  423MPD2    C2 6309   2.333   3.621   0.465  0.3073 -0.4010 -0.5974
  423MPD2    C3 6310   2.370   3.617   0.331 -0.3816 -0.1994  0.3271
  423MPD2    C4 6311   2.380   3.738   0.259 -0.3284 -1.3027 -0.0071
  423MPD2    C5 6312   2.369   3.858   0.327  1.0276  0.1692 -0.4831
  423MPD2     H 6313   2.316   3.531   0.523  1.0437  0.2238  0.5857
  423MPD2    H1 6314   2.404   3.735   0.153 -3.1418  0.0345 -0.7045
  423MPD2    H2 6315   2.327   3.963   0.492  2.3066 -0.0073  0.0247
  423MPD2    H3 6316   2.364   3.956   0.282 -0.3650  1.1992  1.9050
  423MPD2     N 6317   2.400   3.498   0.260 -0.4249 -0.2566  0.4231
  423MPD2    H5 6318   2.405   3.512   0.160  0.8152 -0.5133  0.4569
  423MPD2    N1 6319   2.275   3.735   0.658  0.3475  0.7365 -0.4908
  423MPD2    H7 6320   2.294   3.645   0.700 -0.3174 -0.1517 -2.1284
  424TMC3    C1 6321   2.160   3.800   0.851 -0.2729 -0.1282 -0.3836
  424TMC3    C2 6322   2.217   3.694   0.920  0.5087  0.6000 -0.0232
  424TMC3    C3 6323   2.155   3.649   1.037  0.3269  0.5377 -0.2386
  424TMC3    C4 6324   2.056   3.872   0.899 -0.2018  0.6150 -0.1292
  424TMC3    C5 6325   1.994   3.814   1.017 -0.1379  0.8582  0.3866
  424TMC3    C6 6326   2.052   3.712   1.087 -0.4845 -0.3164  0.1759
  424TMC3     C 6327   2.225   3.840   0.729  0.1000  0.5137  0.6327
  424TMC3     O 6328   2.203   3.955   0.694 -0.2866 -0.6577 -0.6800
  424TMC3     H 6329   2.312   3.647   0.894 -0.6417 -1.1727 -1.0203
  424TMC3    H1 6330   2.014   3.961   0.853 -0.3960  0.6158  0.0460
  424TMC3    H2 6331   2.006   3.689   1.182 -0.2690 -0.4459  0.2487
  424TMC3    C7 6332   1.871   3.871   1.068  1.0145  0.4005 -0.1262
  424TMC3    C8 6333   2.181   3.521   1.105 -0.2429  0.2459  0.4459
  424TMC3    O1 6334   1.864   3.987   1.034 -0.3922  0.1994 -0.4326
  424TMC3    O2 6335   2.134   3.512   1.217  0.2151 -0.1750 -0.3192
  425MPD2     C 6336   0.611   2.570  17.292  0.1303 -0.0841  0.3848
  425MPD2    C1 6337   0.532   2.461  17.260 -0.1005 -1.2597 -0.2075
  425MPD2    C2 6338   0.399   2.459  17.288 -0.1063  0.1453 -0.2061
  425MPD2    C3 6339   0.350   2.572  17.353 -0.0264  0.1555 -0.0510
  425MPD2    C4 6340   0.426   2.681  17.373  0.4375  0.3111 -0.4300
  425MPD2    C5 6341   0.558   2.678  17.354  0.0332  0.2943  0.1529
  425MPD2     H 6342   0.332   2.378  17.263 -1.5263  1.3301 -0.2297
  425MPD2    H1 6343   0.389   2.768  17.426  1.0564 -0.7339  1.7475
  425MPD2    H2 6344   0.717   2.572  17.268  0.2760 -1.1006  0.9210
  425MPD2    H3 6345   0.619   2.764  17.380 -1.0414  0.9445  0.5172
  425MPD2     N 6346   0.207   2.569  17.385  0.5329  0.0222 -0.2830
  425MPD2    H5 6347   0.155   2.487  17.355 -0.8822  0.6168  0.5368
  425MPD2    N1 6348   0.603   2.356  17.194 -0.1111  0.3242  0.8767
  425MPD2    H7 6349   0.703   2.359  17.181 -0.0918 -0.8623  0.7640
  426TMC3    C1 6350   0.651   2.142  17.109  0.5403  0.3439 -0.9134
  426TMC3    C2 6351   0.605   2.070  17.000 -0.7327  0.4150  0.1093
  426TMC3    C3 6352   0.705   2.034  16.913  0.5130  0.3820 -0.3733
  426TMC3    C4 6353   0.779   2.180  17.129  0.8305 -0.4108 -0.5036
  426TMC3    C5 6354   0.871   2.142  17.038  0.7667 -0.6862 -0.1150
  426TMC3    C6 6355   0.839   2.061  16.934 -0.0494 -0.0576 -0.0670
  426TMC3     C 6356   0.550   2.232  17.171 -0.1928 -0.0528  1.2879
  426TMC3     O 6357   0.437   2.185  17.185 -0.0626  0.1190 -0.3759
  426TMC3     H 6358   0.517   2.008  17.008 -0.2435 -0.3298 -0.2245
  426TMC3    H1 6359   0.802   2.216  17.229 -0.4723  1.8194 -1.0109
  426TMC3    H2 6360   0.913   2.024  16.863  1.3281  0.9598  0.8562
  426TMC3    C7 6361   1.010   2.180  17.058  0.4235  0.1795 -0.3475
  426TMC3    C8 6362   0.669   1.951  16.803 -0.0480 -0.4683 -0.4037
  426TMC3    O1 6363   1.096   2.127  16.987 -0.2369 -0.1292  0.0236
  426TMC3    O2 6364   0.754   1.874  16.757 -0.4215 -0.6461  0.3815
  427MPD2     C 6365   4.118   0.125  14.830  0.9198  0.2857 -0.0481
  427MPD2    C1 6366   4.110   0.125  14.967  0.6965  0.0210 -0.6770
  427MPD2    C2 6367   3.991   0.149  15.027  0.0337  0.4332 -0.0254
  427MPD2    C3 6368   3.879   0.195  14.955  0.2957 -0.6486 -0.6010
  427MPD2    C4 6369   3.892   0.199  14.820  0.4654 -0.1172 -0.4200
  427MPD2    C5 6370   4.007   0.164  14.756  0.2992 -0.0613 -0.2876
  427MPD2     H 6371   3.968   0.133  15.132 -1.2197  1.4373 -0.1422
  427MPD2    H1 6372   3.809   0.244  14.767 -1.9323 -2.1313  1.6183
  427MPD2    H2 6373   4.209   0.101  14.777  0.3727 -0.7842 -0.4959
  427MPD2    H3 6374   4.013   0.169  14.648 -0.8109 -0.7526 -0.3822
  427MPD2     N 6375   3.750   0.215  15.006  0.1648  0.1633  0.0713
  427MPD2    H5 6376   3.697   0.267  14.937 -0.7291 -2.3403 -1.1066
  427MPD2    N1 6377   4.217   0.092  15.055 -0.5809 -0.5890  0.9279
  427MPD2    H7 6378   4.201   0.087  15.155 -3.4947  2.1923  0.6127
  428TMC3    C1 6379   4.442   0.040  15.122 -0.0200 -0.5784  0.6577
  428TMC3    C2 6380   4.392   0.002  15.241  0.3534 -0.1172  0.1497
  428TMC3    C3 6381   4.472   4.679  15.335 -0.2542 -0.5277 -0.4008
  428TMC3    C4 6382   4.584   0.044  15.102 -0.5012 -0.3357 -0.4247
  428TMC3    C5 6383   4.660   4.726  15.203  0.5351 -1.1394  0.6113
  428TMC3    C6 6384   4.605   4.670  15.315  0.4402  0.2835 -0.5102
  428TMC3     C 6385   4.349   0.074  15.015  0.2060 -0.0043  0.2572
  428TMC3     O 6386   4.411   0.085  14.906  0.1288 -0.3864 -0.0699
  428TMC3     H 6387   4.285   4.717  15.255  0.4710  0.0654  1.2211
  428TMC3    H1 6388   4.612   0.101  15.014  0.8654  2.8195  2.0749
  428TMC3    H2 6389   4.661   4.637  15.402 -0.8275 -1.7498 -0.4625
  428TMC3    C7 6390   0.063   0.058  15.240  0.0630  0.4169 -0.0176
  428TMC3    C8 6391   4.411   4.626  15.452 -0.1762  0.1117 -0.3793
  428TMC3    O1 6392   0.112   0.033  15.349 -0.1126  1.2089  0.4911
  428TMC3    O2 6393   4.485   4.541  15.497  0.6081  0.2807  0.4747
  429MPD2     C 6394   0.143   0.041   0.038 -0.4663  0.0746  0.1303
  429MPD2    C1 6395   0.279   0.012   0.063  0.1181  0.8899 -0.1595
  429MPD2    C2 6396   0.383   0.082   0.002 -0.1438 -0.1464 -0.1447
  429MPD2    C3 6397   0.348   0.197  17.645  1.5934 -0.5748 -0.0838
  429MPD2    C4 6398   0.216   0.226  17.628 -0.6264  0.2646  0.1491
  429MPD2    C5 6399   0.116   0.148  17.678 -0.2333 -0.3069  0.2235
  429MPD2     H 6400   0.486   0.052   0.018 -0.3184 -0.2336  0.8765
  429MPD2    H1 6401   0.185   0.316  17.575  0.2614  1.3070  1.3844
  429MPD2    H2 6402   0.060   4.721   0.090 -1.5532 -0.4119 -2.0580
  429MPD2    H3 6403   0.020   0.198  17.683 -0.0681 -0.1580  1.9424
  429MPD2     N 6404   0.441   0.283  17.579 -0.2598 -0.8582 -0.0083
  429MPD2    H5 6405   0.413   0.360  17.519 -2.6179 -1.8326 -0.1245
  429MPD2    N1 6406   0.311   4.634   0.148  0.2569 -0.4431  0.4805
  429MPD2    H7 6407   0.409   4.617   0.166  0.1156 -1.5619  0.1850
  430TMC3    C1 6408   0.645   0.354  17.507 -0.0298 -0.4395 -0.1171
  430TMC3    C2 6409   0.591   0.419  17.401  0.0275 -0.4559 -0.0278
  430TMC3    C3 6410   0.667   0.493  17.319 -0.0225 -0.0758  0.2930
  430TMC3    C4 6411   0.783   0.359  17.532  0.2780  0.5602  0.0250
  430TMC3    C5 6412   0.854   0.428  17.436 -0.7622  0.5115 -1.0962
  430TMC3    C6 6413   0.800   0.499  17.330 -0.3513  0.3985  0.1698
  430TMC3     C 6414   0.572   0.268  17.591  0.5597 -0.4019 -0.0057
  430TMC3     O 6415   0.634   0.204  17.678 -0.1614 -0.2235 -0.1489
  430TMC3     H 6416   0.484   0.426  17.383 -0.0866  0.0919  0.8332
  430TMC3    H1 6417   0.837   0.328  17.621  1.9204 -1.3238 -1.6230
  430TMC3    H2 6418   0.868   0.543  17.258 -0.5896 -0.4667 -0.5844
  430TMC3    C7 6419   0.951   0.333  17.395 -0.7796  0.5266 -0.0061
  430TMC3    C8 6420   0.609   0.520  17.193  0.1915 -0.0969 -0.0870
  430TMC3    O1 6421   0.906   0.221  17.401 -0.2805  0.2503 -0.1745
  430TMC3    O2 6422   0.543   0.428  17.143  0.2754 -0.1500 -0.2132
  431MPD2     C 6423   1.650   4.374  12.620 -0.1249 -0.1817 -0.0916
  431MPD2    C1 6424   1.719   4.393  12.502  0.0529 -0.0854  0.0413
  431MPD2    C2 6425   1.693   4.302  12.396 -0.6511  0.4513 -0.2007
  431MPD2    C3 6426   1.612   4.200  12.417 -0.4206 -0.1150  0.8092
  431MPD2    C4 6427   1.534   4.190  12.532  0.1284  0.2677  0.4256
  431MPD2    C5 6428   1.556   4.269  12.640  0.6034  0.6598  0.5214
  431MPD2     H 6429   1.752   4.313  12.306 -2.7720 -1.3812 -1.7943
  431MPD2    H1 6430   1.459   4.112  12.536 -1.7254  2.0157 -0.2793
  431MPD2    H2 6431   1.643   4.444  12.703 -1.8547 -0.1391 -0.2698
  431MPD2    H3 6432   1.499   4.268  12.732 -0.3619  1.0427 -0.0799
  431MPD2     N 6433   1.602   4.106  12.310  0.5631 -0.4310 -0.0314
  431MPD2    H5 6434   1.536   4.033  12.337  0.7753 -1.0652 -1.2208
  431MPD2    N1 6435   1.809   4.499  12.485 -0.7763  0.2533  0.3841
  431MPD2    H7 6436   1.840   4.514  12.389  1.7844  1.6508  1.4303
  432TMC3    C1 6437   1.664   3.993  12.116  0.2644  0.3547 -0.8010
  432TMC3    C2 6438   1.758   3.995  12.011  0.0594  0.3521  0.2460
  432TMC3    C3 6439   1.835   3.881  11.993 -0.0947  0.2077 -0.3999
  432TMC3    C4 6440   1.646   3.884  12.192  0.3641  0.4252 -0.2627
  432TMC3    C5 6441   1.733   3.774  12.177  0.4135  0.2122 -0.1446
  432TMC3    C6 6442   1.828   3.769  12.076 -0.1460  0.3970  0.4723
  432TMC3     C 6443   1.643   4.118  12.180 -0.7738 -0.4348 -0.0991
  432TMC3     O 6444   1.687   4.218  12.123 -0.3277 -0.0338  0.0704
  432TMC3     H 6445   1.765   4.081  11.946 -1.9280  1.7175  1.8502
  432TMC3    H1 6446   1.554   3.861  12.243  0.4404 -0.7979 -0.6764
  432TMC3    H2 6447   1.888   3.681  12.056 -2.9416 -1.0405 -1.5035
  432TMC3    C7 6448   1.773   3.709  12.301  0.7716 -0.1730 -0.2671
  432TMC3    C8 6449   1.920   3.860  11.874  0.4069  0.7413 -0.2854
  432TMC3    O1 6450   1.859   3.622  12.301  1.0753  0.3398 -0.7644
  432TMC3    O2 6451   1.922   3.745  11.826 -0.0123 -0.4796 -0.0436
  433MPD2     C 6452   0.496   3.255  10.907  0.1337  0.7713 -0.1337
  433MPD2    C1 6453   0.466   3.131  10.963  0.4465  0.4537  0.0920
  433MPD2    C2 6454   0.477   3.105  11.096 -0.3701 -0.2258  0.7030
  433MPD2    C3 6455   0.504   3.210  11.183 -0.3254 -0.1861  0.4290
  433MPD2    C4 6456   0.512   3.341  11.129 -0.8357  0.3954 -0.6630
  433MPD2    C5 6457   0.524   3.363  10.993  0.8521  0.7934  0.0071
  433MPD2     H 6458   0.446   3.008  11.132  1.9776 -0.7533  1.3133
  433MPD2    H1 6459   0.530   3.428  11.192 -1.2312  1.2649 -1.7442
  433MPD2    H2 6460   0.505   3.282  10.802 -0.2396  0.6232 -0.2049
  433MPD2    H3 6461   0.539   3.465  10.958 -1.8999  1.2987  0.2478
  433MPD2     N 6462   0.520   3.181  11.323 -0.6674 -0.2185  0.1961
  433MPD2    H5 6463   0.538   3.081  11.330 -1.1874 -0.1138  2.7537
  433MPD2    N1 6464   0.433   3.021  10.880 -0.4854  0.7114 -0.1339
  433MPD2    H7 6465   0.404   2.941  10.935  0.0904 -0.8278 -2.0959
  434TMC3    C1 6466   0.435   2.869  10.696 -0.8368 -0.5379 -0.1239
  434TMC3    C2 6467   0.465   2.779  10.798 -0.9947  0.0013 -0.3913
  434TMC3    C3 6468   0.529   2.666  10.756 -0.1137 -0.9524  0.2642
  434TMC3    C4 6469   0.487   2.858  10.569  0.5736 -0.0490 -0.3117
  434TMC3    C5 6470   0.557   2.746  10.533  0.0749 -0.5395  0.0161
  434TMC3    C6 6471   0.584   2.652  10.630  0.0024 -0.6300  0.3397
  434TMC3     C 6472   0.428   3.011  10.740  0.9931  0.1402  0.1502
  434TMC3     O 6473   0.445   3.102  10.661 -0.2444 -0.5804 -0.6879
  434TMC3     H 6474   0.437   2.783  10.903 -0.5218 -3.0508 -0.1423
  434TMC3    H1 6475   0.459   2.933  10.495 -1.6128 -0.2905  0.2561
  434TMC3    H2 6476   0.637   2.561  10.606  1.5522  0.0706  1.1411
  434TMC3    C7 6477   0.540   2.701  10.394 -0.0593  0.3625 -0.1597
  434TMC3    C8 6478   0.556   2.569  10.860 -0.7364  0.1673 -0.1722
  434TMC3    O1 6479   0.434   2.737  10.341  0.3096 -0.6024 -0.1794
  434TMC3    O2 6480   0.497   2.572  10.972  0.2822  0.5010 -0.0694
  435MPD2     C 6481   2.236   3.480  15.403 -0.3563 -0.0242 -0.0606
  435MPD2    C1 6482   2.226   3.449  15.535 -0.3506  0.2410  0.4418
  435MPD2    C2 6483   2.344   3.416  15.604 -0.0242  0.6857 -1.1044
  435MPD2    C3 6484   2.458   3.393  15.537  0.2129  0.5572  0.0110
  435MPD2    C4 6485   2.456   3.409  15.403 -0.1390  0.0787 -0.7957
  435MPD2    C5 6486   2.351   3.462  15.336  0.0353  0.5012  0.5071
  435MPD2     H 6487   2.348   3.406  15.712  0.9641 -1.0410 -1.3051
  435MPD2    H1 6488   2.549   3.407  15.348 -0.2243 -0.6035 -0.9209
  435MPD2    H2 6489   2.152   3.510  15.340 -0.4776 -0.2194  0.0079
  435MPD2    H3 6490   2.354   3.484  15.230 -1.3489 -2.0849 -0.0794
  435MPD2     N 6491   2.574   3.357  15.610 -0.2725  0.2253  0.4450
  435MPD2    H5 6492   2.585   3.364  15.711 -1.0277  0.8523  0.4878
  435MPD2    N1 6493   2.102   3.454  15.609  0.7023  0.3454  0.0939
  435MPD2    H7 6494   2.112   3.437  15.709 -2.0746 -0.2076  0.2769
  436TMC3    C1 6495   1.787   3.602  15.841  0.7975  0.3325  0.0924
  436TMC3    C2 6496   1.898   3.566  15.763 -0.1869  0.5297 -0.1406
  436TMC3    C3 6497   1.871   3.503  15.645 -0.8800 -0.1147  0.8359
  436TMC3    C4 6498   1.667   3.552  15.812 -0.2353  0.3767 -0.6252
  436TMC3    C5 6499   1.641   3.493  15.695  0.3790  0.8926  0.2370
  436TMC3    C6 6500   1.742   3.476  15.602 -0.5601 -0.5502 -0.1298
  436TMC3     C 6501   1.819   3.632  15.981  0.0733  0.0753  0.7505
  436TMC3     O 6502   1.931   3.592  16.020  0.2766 -0.1386  0.0455
  436TMC3     H 6503   1.998   3.600  15.788  0.0595 -1.2770  1.3804
  436TMC3    H1 6504   1.584   3.561  15.881 -1.0868  2.2797 -1.8961
  436TMC3    H2 6505   1.723   3.407  15.521  1.1643 -0.3746 -0.6837
  436TMC3    C7 6506   1.550   3.384  15.707 -0.4722  0.1379  0.4812
  436TMC3    C8 6507   1.981   3.482  15.558 -0.0094 -0.0434  0.2796
  436TMC3    O1 6508   1.526   3.332  15.818  0.1514  0.2804 -0.1671
  436TMC3    O2 6509   1.947   3.498  15.444  0.1372 -0.3487  0.5296
  437TMC3    C1 6510   1.303   0.403  12.134 -0.3511  0.5488  0.3610
  437TMC3    C2 6511   1.238   0.516  12.165  0.6610 -0.2292 -0.0211
  437TMC3    C3 6512   1.215   0.610  12.068  0.4650 -0.3869 -0.7753
  437TMC3    C4 6513   1.366   0.393  12.010 -0.2206  0.0922  0.2823
  437TMC3    C5 6514   1.340   0.491  11.913 -1.3040  0.0939  0.4297
  437TMC3    C6 6515   1.266   0.599  11.943  0.5152  0.6537  0.6542
  437TMC3     C 6516   1.305   0.298  12.235 -0.5098 -0.2736  0.1511
  437TMC3     O 6517   1.274   0.326  12.345 -0.0388  0.1785 -0.1472
  437TMC3     H 6518   1.190   0.513  12.262  1.4120 -0.5215  0.3423
  437TMC3    H1 6519   1.413   0.299  11.984  1.5352  0.5513  1.7767
  437TMC3    H2 6520   1.262   0.687  11.880 -4.2273  0.2044  0.3859
  437TMC3    C7 6521   1.446   0.530  11.832 -0.1400 -0.3794 -1.3009
  437TMC3    C8 6522   1.135   0.722  12.096  0.7706 -0.7420 -0.4952
  437TMC3    O1 6523   1.429   0.590  11.727  0.4859  0.2387 -0.1919
  437TMC3    O2 6524   1.150   0.820  12.026  0.7989  0.2768  0.1590
  438MPD2     C 6525   3.017   1.136  16.421  0.2991  0.2787  0.4623
  438MPD2    C1 6526   3.067   1.042  16.514  0.1112 -0.4132  0.3230
  438MPD2    C2 6527   2.986   0.991  16.619  0.5769 -0.8821 -0.2585
  438MPD2    C3 6528   2.856   1.035  16.635  0.2198 -0.1415 -0.4123
  438MPD2    C4 6529   2.816   1.135  16.547 -0.0633 -0.3381  0.0923
  438MPD2    C5 6530   2.892   1.175  16.443 -0.3326 -0.1835 -0.0261
  438MPD2     H 6531   3.034   0.920  16.686  1.4143 -0.8838 -0.8675
  438MPD2    H1 6532   2.718   1.181  16.556  0.8133  1.7326 -0.8580
  438MPD2    H2 6533   3.074   1.183  16.342 -0.4860  1.9201  0.8712
  438MPD2    H3 6534   2.861   1.258  16.380  0.6463 -0.5187 -0.9410
  438MPD2     N 6535   2.769   0.983  16.731 -0.1251  0.3568  0.0877
  438MPD2    H5 6536   2.672   1.013  16.731  0.0446  0.9127  1.0229
  438MPD2    N1 6537   3.197   0.987  16.514 -0.7743  0.4651 -0.7286
  438MPD2    H7 6538   3.217   0.910  16.578  2.0895  0.2518 -1.8906
  439TMC3    C1 6539   3.421   0.965  16.479 -0.6028 -0.6150 -0.4145
  439TMC3    C2 6540   3.509   0.923  16.386  0.1266 -0.5178 -0.4892
  439TMC3    C3 6541   3.624   0.863  16.426  0.9769 -0.5397 -0.4495
  439TMC3    C4 6542   3.450   0.968  16.613 -0.9502  0.0994  0.1431
  439TMC3    C5 6543   3.565   0.904  16.652 -0.3520 -0.0198 -0.0323
  439TMC3    C6 6544   3.662   0.859  16.560  0.0506  0.1347  0.9491
  439TMC3     C 6545   3.296   1.031  16.435 -0.3448 -0.9432 -0.7668
  439TMC3     O 6546   3.296   1.112  16.343 -0.5841 -0.2549 -0.0928
  439TMC3     H 6547   3.476   0.924  16.283 -1.2527  2.3940 -0.0257
  439TMC3    H1 6548   3.380   1.016  16.680  0.1725  0.4764  1.0509
  439TMC3    H2 6549   3.754   0.810  16.590  0.0996  0.6390  1.6409
  439TMC3    C7 6550   3.576   0.852  16.786  0.8128 -0.3247  0.0708
  439TMC3    C8 6551   3.734   0.855  16.337 -0.9784  0.1123 -0.2196
  439TMC3    O1 6552   3.690   0.837  16.834 -0.2866  0.4276 -0.1236
  439TMC3    O2 6553   3.846   0.876  16.383  0.2586 -0.4271  0.1923
  440MPD2     C 6554   1.800   1.351  15.128 -0.1444 -0.0881 -0.7431
  440MPD2    C1 6555   1.929   1.398  15.153  0.4948 -0.0736 -0.2693
  440MPD2    C2 6556   2.021   1.302  15.196 -0.9218 -0.4092 -0.2594
  440MPD2    C3 6557   1.979   1.172  15.219  1.0061 -0.1675 -0.0359
  440MPD2    C4 6558   1.850   1.126  15.187 -0.4214  0.6461 -0.0587
  440MPD2    C5 6559   1.760   1.221  15.145 -0.0006  0.6772  0.3517
  440MPD2     H 6560   2.118   1.339  15.226 -0.6028  0.6428 -2.5930
  440MPD2    H1 6561   1.816   1.023  15.189  2.0324 -0.1399  0.0653
  440MPD2    H2 6562   1.720   1.419  15.101 -0.1924 -0.8423 -2.5522
  440MPD2    H3 6563   1.656   1.199  15.126  1.0113 -3.5671 -0.2657
  440MPD2     N 6564   2.071   1.070  15.253 -0.0933 -0.1457  0.8064
  440MPD2    H5 6565   2.021   0.985  15.277  0.5095 -0.2435  1.7249
  440MPD2    N1 6566   1.968   1.537  15.146 -0.7540 -0.4930  0.0471
  440MPD2    H7 6567   2.066   1.562  15.151 -1.7650  2.8839  2.6136
  441TMC3    C1 6568   2.272   0.985  15.323 -0.1662  0.4252  0.1988
  441TMC3    C2 6569   2.411   1.000  15.324  0.0035 -0.0887 -1.0122
  441TMC3    C3 6570   2.473   0.976  15.444 -0.0940  0.3358 -0.1864
  441TMC3    C4 6571   2.205   0.931  15.432  0.1574  0.5232 -0.5174
  441TMC3    C5 6572   2.279   0.904  15.550 -0.0396  0.7876 -0.2222
  441TMC3    C6 6573   2.417   0.929  15.562 -0.0285  0.3588 -0.2713
  441TMC3     C 6574   2.208   1.093  15.264  0.6889  0.5879  0.2292
  441TMC3     O 6575   2.281   1.187  15.239  0.2136  0.5265 -0.1091
  441TMC3     H 6576   2.479   1.041  15.250 -0.8489  1.3832 -0.9780
  441TMC3    H1 6577   2.097   0.931  15.436  0.1676  1.6294 -0.1322
  441TMC3    H2 6578   2.463   0.939  15.660  1.7185 -2.2457 -0.8276
  441TMC3    C7 6579   2.207   0.970  15.657  0.3985  1.1410  0.2103
  441TMC3    C8 6580   2.586   1.065  15.466 -0.2780 -0.3921 -0.6313
  441TMC3    O1 6581   2.130   1.060  15.632  0.4382 -0.5298  0.5119
  441TMC3    O2 6582   2.643   1.034  15.569 -0.0991  0.2663  0.1720
  442MPD2     C 6583   0.797   2.327  16.664  0.0929  0.6785  0.2061
  442MPD2    C1 6584   0.685   2.361  16.590  0.4721  0.4224  1.1562
  442MPD2    C2 6585   0.651   2.299  16.472 -0.3470  0.1124 -0.2663
  442MPD2    C3 6586   0.722   2.187  16.431 -0.6275  0.1963  0.3290
  442MPD2    C4 6587   0.833   2.145  16.498 -0.3099  0.2513 -0.1580
  442MPD2    C5 6588   0.859   2.213  16.613 -0.0578 -0.2249 -0.1700
  442MPD2     H 6589   0.558   2.325  16.425  0.5901 -0.1781 -2.2736
  442MPD2    H1 6590   0.901   2.064  16.474 -0.2586 -0.0524  0.9849
  442MPD2    H2 6591   0.835   2.380  16.750  1.9917  1.3266 -1.0306
  442MPD2    H3 6592   0.949   2.190  16.669 -0.2228  0.9440  0.5766
  442MPD2     N 6593   0.670   2.105  16.329 -0.3619  0.1537 -0.5201
  442MPD2    H5 6594   0.710   2.012  16.336  0.9075  0.7190 -0.0797
  442MPD2    N1 6595   0.586   2.454  16.634 -0.5880  0.3104  0.2037
  442MPD2    H7 6596   0.517   2.488  16.566  0.8466  0.5051 -1.1545
  443TMC3    C1 6597   0.477   2.592  16.801 -0.1598 -0.9094 -0.0363
  443TMC3    C2 6598   0.454   2.687  16.701  0.0836  0.4185  0.4664
  443TMC3    C3 6599   0.358   2.782  16.715  0.1576 -0.5501 -0.5266
  443TMC3    C4 6600   0.381   2.573  16.905 -0.0212  0.4033 -0.1078
  443TMC3    C5 6601   0.285   2.669  16.913  0.4429 -0.6875 -0.2627
  443TMC3    C6 6602   0.271   2.771  16.821 -0.1215  0.4089 -0.3868
  443TMC3     C 6603   0.573   2.492  16.769  0.3109  0.2881  0.4415
  443TMC3     O 6604   0.623   2.434  16.866 -0.0894 -0.6265 -0.2934
  443TMC3     H 6605   0.505   2.692  16.606  0.1438  3.0003  0.6592
  443TMC3    H1 6606   0.408   2.507  16.986 -0.0302  0.4950 -0.0297
  443TMC3    H2 6607   0.191   2.844  16.824  0.2792  0.7412  2.8526
  443TMC3    C7 6608   0.185   2.652  17.015 -0.1667  0.1375  0.1717
  443TMC3    C8 6609   0.292   2.837  16.597 -0.7255 -0.7953 -0.6439
  443TMC3    O1 6610   0.161   2.538  17.045 -0.0457 -0.3160  0.0166
  443TMC3    O2 6611   0.169   2.839  16.592  0.5113 -0.0792 -0.1109
  444MPD2     C 6612   0.389   1.534  17.470  0.7964  0.2947  0.7246
  444MPD2    C1 6613   0.296   1.454  17.410 -0.0476 -0.2642 -0.2854
  444MPD2    C2 6614   0.337   1.372  17.303  0.1318 -0.2286 -0.2886
  444MPD2    C3 6615   0.466   1.373  17.264  0.0072 -0.3211  0.9668
  444MPD2    C4 6616   0.557   1.454  17.324  0.0501  0.3705  0.0757
  444MPD2    C5 6617   0.512   1.530  17.423  0.3463 -0.1427  0.2441
  444MPD2     H 6618   0.267   1.317  17.241  0.9470 -0.9430 -0.5663
  444MPD2    H1 6619   0.647   1.496  17.282 -1.4992  0.7858 -2.8053
  444MPD2    H2 6620   0.367   1.593  17.558 -0.7620  0.4048  0.2578
  444MPD2    H3 6621   0.581   1.604  17.461 -0.7024  1.7006 -1.4146
  444MPD2     N 6622   0.511   1.305  17.145  0.3228  0.2555  0.0598
  444MPD2    H5 6623   0.441   1.255  17.090 -0.7940  2.0857 -0.1815
  444MPD2    N1 6624   0.164   1.448  17.449  0.2068 -0.0121 -0.6382
  444MPD2    H7 6625   0.109   1.371  17.413  0.6616 -1.5275  1.9050
  445TMC3    C1 6626   0.642   1.296  16.953 -0.1055  0.0386 -0.0450
  445TMC3    C2 6627   0.521   1.309  16.882  0.6106  0.2831 -0.3776
  445TMC3    C3 6628   0.532   1.306  16.746 -0.2233  0.4459  0.1677
  445TMC3    C4 6629   0.763   1.273  16.893  0.2046  0.9227  0.0241
  445TMC3    C5 6630   0.765   1.258  16.763 -0.0579 -0.3705  0.5038
  445TMC3    C6 6631   0.651   1.278  16.680  0.1710  0.1605 -0.0384
  445TMC3     C 6632   0.640   1.309  17.098  0.0615  0.8061  0.3469
  445TMC3     O 6633   0.744   1.328  17.158 -0.1903  0.4718  0.2451
  445TMC3     H 6634   0.426   1.334  16.927 -0.2212  0.7201 -2.3888
  445TMC3    H1 6635   0.858   1.270  16.945  1.9488 -1.0047 -3.2617
  445TMC3    H2 6636   0.653   1.261  16.573 -1.0988  0.1455 -0.0570
  445TMC3    C7 6637   0.882   1.229  16.687  0.0645  0.6971  0.0587
  445TMC3    C8 6638   0.412   1.339  16.669  0.0954 -0.2228 -0.4121
  445TMC3    O1 6639   0.873   1.248  16.563 -0.4638  0.1416  0.3123
  445TMC3    O2 6640   0.325   1.407  16.725 -0.0697 -0.7503  0.2227
  446MPD2     C 6641   0.199   2.447  11.406  0.2637  0.9389  0.0343
  446MPD2    C1 6642   0.215   2.428  11.270 -0.6658  0.6151 -0.0259
  446MPD2    C2 6643   0.341   2.455  11.211 -0.4431 -0.0321 -1.0502
  446MPD2    C3 6644   0.449   2.486  11.293  0.3528  0.2504 -0.1031
  446MPD2    C4 6645   0.433   2.513  11.424  0.0930 -0.2092  0.2211
  446MPD2    C5 6646   0.308   2.490  11.476  0.2817  0.5126  0.0385
  446MPD2     H 6647   0.350   2.442  11.104  0.7148  0.6588 -1.0342
  446MPD2    H1 6648   0.519   2.551  11.478 -1.2904  3.1941  0.0729
  446MPD2    H2 6649   0.104   2.444  11.458 -0.0385 -2.0233 -0.6507
  446MPD2    H3 6650   0.291   2.507  11.581 -0.5231  2.4892 -0.4016
  446MPD2     N 6651   0.577   2.508  11.237  0.2423  0.1720 -0.2910
  446MPD2    H5 6652   0.579   2.502  11.136  1.2334 -1.3004 -0.1767
  446MPD2    N1 6653   0.106   2.368  11.199 -0.2184  0.8113 -0.3827
  446MPD2    H7 6654   0.121   2.345  11.101 -0.7641 -3.6485  0.5835
  447TMC3    C1 6655   0.806   2.528  11.213 -0.1913 -0.2082  0.3883
  447TMC3    C2 6656   0.798   2.631  11.122 -0.3339 -0.5895  0.3428
  447TMC3    C3 6657   0.909   2.650  11.041 -0.6718 -0.2491  0.4693
  447TMC3    C4 6658   0.909   2.442  11.225  0.5211  0.2736  0.8336
  447TMC3    C5 6659   1.011   2.463  11.131 -0.1388 -0.7812 -0.2412
  447TMC3    C6 6660   1.015   2.566  11.042  0.3161  0.0552  0.2746
  447TMC3     C 6661   0.692   2.503  11.300 -0.2262  0.0695  0.2412
  447TMC3     O 6662   0.714   2.468  11.413 -0.2547  0.3192  0.2489
  447TMC3     H 6663   0.718   2.704  11.115  1.7730  1.8078  1.5082
  447TMC3    H1 6664   0.924   2.386  11.317 -0.3156 -0.3969  0.5620
  447TMC3    H2 6665   1.110   2.580  10.991 -0.9899 -0.8530 -2.4359
  447TMC3    C7 6666   1.123   2.369  11.133  0.2351  0.3697  0.2255
  447TMC3    C8 6667   0.892   2.730  10.922  0.4522  0.1329  0.5588
  447TMC3    O1 6668   1.227   2.421  11.095 -0.2704  0.2263 -0.5033
  447TMC3    O2 6669   0.782   2.774  10.892  0.3473 -0.2240 -0.1848
  448TMC3    C1 6670   3.497   2.588  16.533  0.5881 -0.9777 -0.2812
  448TMC3    C2 6671   3.455   2.459  16.526 -0.1236  0.6052 -0.1053
  448TMC3    C3 6672   3.468   2.388  16.643  0.0310  0.5947  0.0345
  448TMC3    C4 6673   3.538   2.652  16.648 -0.0669 -0.4845  0.2542
  448TMC3    C5 6674   3.545   2.572  16.758  0.3419  0.3893 -0.2954
  448TMC3    C6 6675   3.513   2.438  16.759  0.6866 -0.0084  0.1978
  448TMC3     C 6676   3.530   2.660  16.414  0.2766 -0.5631 -0.0418
  448TMC3     O 6677   3.584   2.770  16.429  0.3513 -0.7693 -0.7060
  448TMC3     H 6678   3.422   2.412  16.434 -1.4723 -0.9398  1.1601
  448TMC3    H1 6679   3.583   2.751  16.646 -0.8057 -0.1653 -0.5942
  448TMC3    H2 6680   3.532   2.368  16.840 -2.1790  2.3978  2.9491
  448TMC3    C7 6681   3.635   2.623  16.860  0.0205  0.0633 -0.8051
  448TMC3    C8 6682   3.447   2.247  16.646 -0.0543  0.3669  0.4490
  448TMC3    O1 6683   3.702   2.719  16.831 -0.2629 -0.5956  0.1982
  448TMC3    O2 6684   3.442   2.193  16.752 -0.0709  0.1309  0.3978
  449MPD2     C 6685   0.399   0.967  13.759 -0.0303 -0.5778  0.6044
  449MPD2    C1 6686   0.300   0.995  13.670 -0.2211  0.3413  0.3350
  449MPD2    C2 6687   0.172   0.949  13.704 -0.2587  0.4601  0.2609
  449MPD2    C3 6688   0.150   0.878  13.821 -0.6368 -0.1210 -0.4959
  449MPD2    C4 6689   0.254   0.855  13.909 -0.3754  0.3665 -0.2969
  449MPD2    C5 6690   0.381   0.901  13.881 -0.0578 -0.4094  0.2470
  449MPD2     H 6691   0.088   0.967  13.638  0.1756 -2.3921 -1.0422
  449MPD2    H1 6692   0.233   0.809  14.005  1.9349 -0.0502  0.0263
  449MPD2    H2 6693   0.503   0.991  13.738 -0.2612 -1.9989 -2.0819
  449MPD2    H3 6694   0.457   0.884  13.956 -1.1537  0.3950  1.5253
  449MPD2     N 6695   0.016   0.825  13.836  0.7974 -0.4208 -0.5379
  449MPD2    H5 6696   4.684   0.837  13.755 -0.4250  1.3919  0.6317
  449MPD2    N1 6697   0.312   1.072  13.554 -0.1458  0.3042  0.2174
  449MPD2    H7 6698   0.225   1.092  13.506  0.4371  0.0723 -0.9386
  450TMC3    C1 6699   0.391   1.167  13.372 -0.1175  0.7360 -0.8379
  450TMC3    C2 6700   0.453   1.106  13.266 -1.1867  0.3885  0.6107
  450TMC3    C3 6701   0.375   1.062  13.165  0.0971 -0.2561 -0.1454
  450TMC3    C4 6702   0.260   1.199  13.372  0.6299 -0.4870  0.6581
  450TMC3    C5 6703   0.186   1.155  13.264  0.0967  0.0086 -0.3553
  450TMC3    C6 6704   0.242   1.080  13.164 -0.2906  0.7454  0.6145
  450TMC3     C 6705   0.431   1.121  13.505  0.0161  0.4515 -0.1259
  450TMC3     O 6706   0.545   1.079  13.524 -0.2329 -0.0190 -0.3567
  450TMC3     H 6707   0.560   1.086  13.271 -1.5171 -1.3334  0.7363
  450TMC3    H1 6708   0.216   1.259  13.450  2.0498  1.0275  0.2939
  450TMC3    H2 6709   0.174   1.046  13.086 -1.1642  1.0160  1.2622
  450TMC3    C7 6710   0.054   1.108  13.306 -0.5062  1.0098  0.1690
  450TMC3    C8 6711   0.436   0.968  13.079  0.4300  0.1723 -1.0229
  450TMC3    O1 6712   0.048   1.101  13.423  0.3464 -0.7984 -0.2163
  450TMC3    O2 6713   0.554   0.961  13.084  0.5189 -0.7365  0.3908
  451MPD2     C 6714   1.337   4.029   1.739 -1.0692 -0.4363  0.0364
  451MPD2    C1 6715   1.402   4.116   1.652  0.1647 -0.5350  0.6126
  451MPD2    C2 6716   1.534   4.094   1.623  0.0451 -0.3695  0.1444
  451MPD2    C3 6717   1.603   3.988   1.676 -0.0472  0.1805  0.5650
  451MPD2    C4 6718   1.538   3.906   1.767 -0.1665  0.2749  0.0088
  451MPD2    C5 6719   1.410   3.937   1.804  0.0565 -0.0953 -0.6591
  451MPD2     H 6720   1.584   4.166   1.559  0.6993  1.3397  2.5953
  451MPD2    H1 6721   1.588   3.832   1.828 -1.6648 -2.0582 -1.5410
  451MPD2    H2 6722   1.240   4.058   1.777  0.7069  1.2314  3.3327
  451MPD2    H3 6723   1.346   3.872   1.862  1.1584 -2.0101 -1.5713
  451MPD2     N 6724   1.737   3.956   1.656  0.2266 -0.6814 -0.2623
  451MPD2    H5 6725   1.754   3.867   1.703 -0.1998 -0.6158  0.0150
  451MPD2    N1 6726   1.317   4.210   1.585  0.4665 -0.1282 -0.4002
  451MPD2    H7 6727   1.218   4.191   1.597  0.5959 -1.0901 -0.8569
  452TMC3    C1 6728   1.954   3.950   1.555  0.1479 -0.4384  0.6497
  452TMC3    C2 6729   1.995   3.896   1.674  0.3314  0.5808  0.2974
  452TMC3    C3 6730   2.119   3.837   1.664  0.2359 -0.8159  0.1266
  452TMC3    C4 6731   2.025   3.984   1.445 -0.3185  0.4237  0.0004
  452TMC3    C5 6732   2.154   3.925   1.449  0.4094  0.6584  0.1962
  452TMC3    C6 6733   2.197   3.848   1.554  0.1283 -0.5963 -0.1592
  452TMC3     C 6734   1.825   4.012   1.568  0.1283  0.2447 -0.2596
  452TMC3     O 6735   1.813   4.111   1.491  0.3362  0.2774 -1.1281
  452TMC3     H 6736   1.937   3.892   1.765 -0.9992 -1.9597 -0.6654
  452TMC3    H1 6737   1.990   4.038   1.358 -0.9724 -0.8637 -0.5321
  452TMC3    H2 6738   2.287   3.788   1.547  1.7336  2.0097 -1.8536
  452TMC3    C7 6739   2.220   3.929   1.319  0.9995 -0.3484  0.0789
  452TMC3    C8 6740   2.164   3.765   1.783 -0.4385  0.3027  0.0531
  452TMC3    O1 6741   2.179   4.009   1.239 -0.0771  0.7043 -0.1231
  452TMC3    O2 6742   2.082   3.752   1.872  0.3495 -0.0187  0.6551
  453TMC3    C1 6743   2.783   1.756  11.505  0.7256  0.4274  0.2982
  453TMC3    C2 6744   2.665   1.704  11.549  0.9672  0.1672 -0.1827
  453TMC3    C3 6745   2.600   1.625  11.457  0.5524  0.3193  0.7001
  453TMC3    C4 6746   2.817   1.746  11.370  0.7478 -0.2012 -0.3768
  453TMC3    C5 6747   2.723   1.698  11.282 -0.1141  0.0428 -0.2538
  453TMC3    C6 6748   2.619   1.627  11.321 -0.5802  0.1824 -0.3202
  453TMC3     C 6749   2.892   1.787  11.601 -0.1522  0.5833  0.6557
  453TMC3     O 6750   3.007   1.819  11.554  0.5385 -0.3356  0.3148
  453TMC3     H 6751   2.643   1.697  11.655  1.0789  4.1617  0.0906
  453TMC3    H1 6752   2.910   1.792  11.340  1.2911 -0.6749  0.5705
  453TMC3    H2 6753   2.542   1.587  11.256 -1.2146 -0.0711  0.5982
  453TMC3    C7 6754   2.747   1.685  11.139 -0.5310 -0.7034 -0.0069
  453TMC3    C8 6755   2.535   1.511  11.511  0.4467  0.1382  0.3971
  453TMC3    O1 6756   2.665   1.618  11.078  0.7071  0.8864  0.3043
  453TMC3    O2 6757   2.495   1.515  11.627  0.2122 -0.1029 -0.1633
  454MPD2     C 6758   1.165   1.029  15.989  0.8231  0.7593 -0.0840
  454MPD2    C1 6759   1.152   1.171  15.971  0.1735 -0.3066 -0.3295
  454MPD2    C2 6760   1.070   1.245  16.050 -0.9596  0.8471  0.5836
  454MPD2    C3 6761   0.990   1.175  16.138 -0.7860  0.2821  0.3895
  454MPD2    C4 6762   1.012   1.043  16.165  0.1416 -0.4705 -0.5960
  454MPD2    C5 6763   1.098   0.972  16.091  0.1162 -0.0505 -0.3910
  454MPD2     H 6764   1.050   1.348  16.027 -2.6354  0.0469 -1.5417
  454MPD2    H1 6765   0.979   0.994  16.256  4.1515 -1.6391  0.1897
  454MPD2    H2 6766   1.236   0.968  15.934  0.5984  1.0726 -0.7202
  454MPD2    H3 6767   1.099   0.865  16.109 -0.4931 -0.0864 -0.5729
  454MPD2     N 6768   0.886   1.245  16.197 -0.3813  0.1809 -0.4942
  454MPD2    H5 6769   0.886   1.345  16.176  1.0874  0.6706  1.9165
  454MPD2    N1 6770   1.210   1.241  15.863  0.1752 -0.1388  0.0676
  454MPD2    H7 6771   1.192   1.341  15.867 -0.3260 -0.3692  3.5953
  455TMC3    C1 6772   0.674   1.269  16.276 -0.2248 -0.2108 -0.1940
  455TMC3    C2 6773   0.712   1.397  16.325 -0.2723  0.2824 -0.0902
  455TMC3    C3 6774   0.618   1.489  16.300 -0.4163 -0.3335 -0.4870
  455TMC3    C4 6775   0.579   1.259  16.183 -0.0643  0.4455 -0.2364
  455TMC3    C5 6776   0.512   1.369  16.136  0.0229 -0.5834 -0.2398
  455TMC3    C6 6777   0.528   1.488  16.197 -0.1042 -0.9551 -0.2050
  455TMC3     C 6778   0.781   1.176  16.252 -0.2137 -0.5472 -0.0954
  455TMC3     O 6779   0.760   1.057  16.261 -0.4942 -0.0660 -0.3557
  455TMC3     H 6780   0.763   1.390  16.420  0.0925 -0.3596 -0.3314
  455TMC3    H1 6781   0.587   1.167  16.126  1.2388  1.0093 -0.9572
  455TMC3    H2 6782   0.514   1.583  16.148  2.5169  0.2050  1.2905
  455TMC3    C7 6783   0.460   1.357  15.996 -0.2456  0.4888  0.2546
  455TMC3    C8 6784   0.608   1.596  16.394  0.4821  0.1351  0.3582
  455TMC3    O1 6785   0.480   1.248  15.948 -0.1705 -0.6601 -0.7068
  455TMC3    O2 6786   0.702   1.614  16.476  0.3978  0.8894  0.1549
  456MPD2     C 6787   3.972   1.202  16.466  0.7208  0.5257  0.6723
  456MPD2    C1 6788   3.901   1.305  16.410  0.2065  0.9347 -0.1807
  456MPD2    C2 6789   3.774   1.347  16.458  0.7546  0.3463  0.0462
  456MPD2    C3 6790   3.719   1.281  16.569  0.2499 -0.3132 -0.2103
  456MPD2    C4 6791   3.794   1.183  16.629 -0.0911 -1.2316 -0.3863
  456MPD2    C5 6792   3.924   1.149  16.583  0.6086 -0.1733 -0.6303
  456MPD2     H 6793   3.722   1.430  16.411  0.2154 -0.4703 -0.8099
  456MPD2    H1 6794   3.756   1.132  16.716  0.2729  1.9085  1.6279
  456MPD2    H2 6795   4.065   1.163  16.428 -0.3417  0.9363 -2.3876
  456MPD2    H3 6796   3.986   1.077  16.635  0.2752  0.1038  0.1493
  456MPD2     N 6797   3.599   1.326  16.629  0.4463  0.2162 -0.3653
  456MPD2    H5 6798   3.566   1.411  16.584 -1.0892 -1.2119 -1.9289
  456MPD2    N1 6799   3.976   1.385  16.319 -0.3464 -0.1125  0.0293
  456MPD2    H7 6800   4.076   1.366  16.313  0.1146  2.5104 -0.5594
  457TMC3    C1 6801   3.432   1.369  16.795  0.0444  0.0507 -0.0538
  457TMC3    C2 6802   3.395   1.485  16.729  0.2071 -0.0750 -0.5036
  457TMC3    C3 6803   3.336   1.578  16.810 -1.0201  0.3654  0.1501
  457TMC3    C4 6804   3.403   1.341  16.925 -0.1455 -0.0921 -0.4319
  457TMC3    C5 6805   3.359   1.442  17.001 -0.6383  0.0460 -0.3535
  457TMC3    C6 6806   3.325   1.562  16.950  0.1493  0.1634  0.7345
  457TMC3     C 6807   3.533   1.280  16.738  0.5972 -0.3713 -0.7963
  457TMC3     O 6808   3.568   1.182  16.806  0.4148 -0.9585 -0.5925
  457TMC3     H 6809   3.410   1.490  16.622  1.0043  0.9418 -0.3411
  457TMC3    H1 6810   3.451   1.254  16.970 -0.5735 -0.5821 -0.9241
  457TMC3    H2 6811   3.292   1.641  17.016 -1.0940  0.0508  0.2680
  457TMC3    C7 6812   3.328   1.403  17.139 -0.2899  0.8697  0.2946
  457TMC3    C8 6813   3.333   1.716  16.764 -0.2303  0.2633 -0.0888
  457TMC3    O1 6814   3.333   1.488  17.222 -0.2942 -0.5506  0.3267
  457TMC3    O2 6815   3.324   1.807  16.846  0.2657  0.1990  0.7089
  458MPD2     C 6816   1.940   0.631  11.795  0.6040 -0.0902 -0.0192
  458MPD2    C1 6817   1.922   0.574  11.922  0.2641 -0.2887  0.3011
  458MPD2    C2 6818   1.795   0.532  11.952  0.3240 -0.0154  0.0873
  458MPD2    C3 6819   1.689   0.550  11.863  0.2797  0.1501 -0.3170
  458MPD2    C4 6820   1.715   0.611  11.739  0.5837  0.3002 -0.1663
  458MPD2    C5 6821   1.846   0.643  11.700  1.1232  0.2038  0.4961
  458MPD2     H 6822   1.772   0.483  12.046 -0.5272 -0.8659 -0.5701
  458MPD2    H1 6823   1.643   0.610  11.658 -0.3176  1.2686  0.6258
  458MPD2    H2 6824   2.043   0.646  11.765 -0.0414 -1.2856 -2.8901
  458MPD2    H3 6825   1.865   0.672  11.597 -2.4097  0.2806 -0.1533
  458MPD2     N 6826   1.560   0.505  11.903 -0.2529  0.2152 -0.0706
  458MPD2    H5 6827   1.557   0.444  11.984 -2.0890 -0.7325 -0.8559
  458MPD2    N1 6828   2.032   0.557  12.007 -0.0780 -0.1257 -0.1888
  458MPD2    H7 6829   2.121   0.586  11.969  0.7232 -1.2390  0.8110
  459TMC3    C1 6830   2.130   0.575  12.217  0.2478 -0.2418 -0.2548
  459TMC3    C2 6831   2.206   0.671  12.162 -0.3837 -0.3402 -0.4724
  459TMC3    C3 6832   2.297   0.736  12.244 -0.0926 -0.2896  0.1621
  459TMC3    C4 6833   2.141   0.533  12.342  0.2886  0.3637  0.1303
  459TMC3    C5 6834   2.231   0.600  12.422  0.0805 -0.0375  0.7193
  459TMC3    C6 6835   2.306   0.702  12.375  0.5129 -0.9709  0.4086
  459TMC3     C 6836   2.025   0.509  12.137 -0.2626  1.1478  0.5297
  459TMC3     O 6837   1.935   0.460  12.206  0.3965  0.0033 -0.1251
  459TMC3     H 6838   2.212   0.690  12.056  0.7064 -2.9525 -0.8733
  459TMC3    H1 6839   2.088   0.449  12.383  0.2996  0.3790  0.1753
  459TMC3    H2 6840   2.377   0.756  12.436  0.9757 -2.6509  1.3387
  459TMC3    C7 6841   2.215   0.562  12.560 -0.3491  0.0791 -0.0337
  459TMC3    C8 6842   2.345   0.869  12.214 -0.2870 -0.3165  0.3557
  459TMC3    O1 6843   2.154   0.459  12.590 -0.2867 -0.4252 -0.3214
  459TMC3    O2 6844   2.438   0.913  12.281  0.4653 -0.5068 -0.1194
  460MPD2     C 6845   1.156   2.810  10.687 -0.1989  0.2576  1.1315
  460MPD2    C1 6846   1.029   2.806  10.730  0.2733 -0.2878  0.3370
  460MPD2    C2 6847   0.926   2.850  10.640 -0.2999  0.1890  0.6216
  460MPD2    C3 6848   0.951   2.879  10.511  0.1978 -0.1383 -0.3280
  460MPD2    C4 6849   1.081   2.878  10.469 -0.0556  1.0104 -0.4973
  460MPD2    C5 6850   1.180   2.838  10.561  0.0181  0.3124  0.2716
  460MPD2     H 6851   0.820   2.839  10.659  0.0467 -0.1755  2.3081
  460MPD2    H1 6852   1.104   2.902  10.367  0.8256 -1.6314 -0.9294
  460MPD2    H2 6853   1.240   2.762  10.736  0.0957 -1.9335 -1.5254
  460MPD2    H3 6854   1.279   2.819  10.521 -0.0682  1.1997 -0.3612
  460MPD2     N 6855   0.860   2.924  10.417  0.1094  0.3314 -0.1501
  460MPD2    H5 6856   0.771   2.950  10.457  0.6926  2.1823 -0.0576
  460MPD2    N1 6857   1.011   2.741  10.855  0.4344 -0.1738 -0.6292
  460MPD2    H7 6858   1.093   2.700  10.897  0.9911 -0.3302 -1.8760
  461TMC3    C1 6859   0.739   2.960  10.225  0.2983 -0.0463  0.1221
  461TMC3    C2 6860   0.693   2.857  10.151  0.2179  0.2477 -0.5716
  461TMC3    C3 6861   0.590   2.882  10.063 -0.6709  0.3477  0.3389
  461TMC3    C4 6862   0.704   3.088  10.207 -0.1370 -0.1075  0.3235
  461TMC3    C5 6863   0.597   3.114  10.124  0.5042 -0.5471  0.3570
  461TMC3    C6 6864   0.540   3.006  10.055 -0.3541 -0.3998  0.3754
  461TMC3     C 6865   0.871   2.935  10.282  0.3445 -0.4745 -0.7067
  461TMC3     O 6866   0.955   2.895  10.198 -0.4519 -0.2404 -0.3123
  461TMC3     H 6867   0.707   2.751  10.172  1.1169  0.5974  0.6315
  461TMC3    H1 6868   0.747   3.160  10.276  0.4837 -0.4812  0.3278
  461TMC3    H2 6869   0.467   3.033   9.979  0.7798  3.3677  0.5896
  461TMC3    C7 6870   0.588   3.243  10.063  0.0277  0.4116  0.5784
  461TMC3    C8 6871   0.601   2.793   9.949  0.0015 -0.0413 -0.3950
  461TMC3    O1 6872   0.558   3.247   9.943  0.5821  0.6269 -0.3027
  461TMC3    O2 6873   0.687   2.709   9.961 -0.4290  0.5094  0.4325
  462TMC3    C1 6874   0.624   3.841   0.001 -0.1212 -0.4594 -0.2041
  462TMC3    C2 6875   0.610   3.788  17.586 -0.2583 -0.2044 -0.1727
  462TMC3    C3 6876   0.658   3.668  17.553 -0.3170 -0.1909  0.4253
  462TMC3    C4 6877   0.689   3.771   0.096 -0.2581 -0.0915  0.1221
  462TMC3    C5 6878   0.737   3.651   0.062  0.3854  0.2663  0.3719
  462TMC3    C6 6879   0.730   3.601  17.648  0.1640 -0.4598  0.0908
  462TMC3     C 6880   0.618   3.985   0.019  0.5564 -0.8179  0.2223
  462TMC3     O 6881   0.562   4.060  17.646 -0.2414 -0.4504  0.0928
  462TMC3     H 6882   0.540   3.832  17.516 -3.0422 -1.3699  1.8980
  462TMC3    H1 6883   0.688   3.804   0.199 -1.8388 -0.1882  0.1281
  462TMC3    H2 6884   0.737   3.497  17.617  0.2149 -0.0975 -1.1043
  462TMC3    C7 6885   0.740   3.536   0.160 -0.0695 -0.9751  0.6722
  462TMC3    C8 6886   0.612   3.609  17.429 -0.4409  0.5389  0.4718
  462TMC3    O1 6887   0.698   3.429   0.121 -0.0781 -0.0492  0.4886
  462TMC3    O2 6888   0.495   3.624  17.401  0.2631  0.4368 -0.7982
  463MPD2     C 6889   1.830   2.893   2.123 -0.6802  0.0388 -0.0033
  463MPD2    C1 6890   1.827   2.953   2.003 -0.3822  0.5104 -0.2668
  463MPD2    C2 6891   1.940   3.015   1.956 -0.1615  0.7404  0.2224
  463MPD2    C3 6892   2.054   3.027   2.026  0.8411 -0.9555  0.9556
  463MPD2    C4 6893   2.053   2.974   2.151 -0.8000  0.4743 -0.0005
  463MPD2    C5 6894   1.944   2.905   2.198  0.1947  0.1999 -0.2004
  463MPD2     H 6895   1.934   3.060   1.857  1.1565  0.8847  0.2054
  463MPD2    H1 6896   2.146   2.977   2.207 -0.1402 -0.3125 -1.0754
  463MPD2    H2 6897   1.738   2.851   2.164  0.5221 -1.3226  1.2945
  463MPD2    H3 6898   1.945   2.855   2.294  0.3210 -0.2830 -0.4523
  463MPD2     N 6899   2.177   3.077   1.982 -0.0581  0.6728 -0.3797
  463MPD2    H5 6900   2.260   3.076   2.040 -1.3664  0.1529  1.4741
  463MPD2    N1 6901   1.714   2.952   1.919  0.1451 -0.1234 -0.3856
  463MPD2    H7 6902   1.707   3.027   1.851  0.5071 -1.3733 -1.8050
  464TMC3    C1 6903   1.507   2.873   1.826  0.0357  0.2804  0.0420
  464TMC3    C2 6904   1.493   2.969   1.727 -0.5426  0.0817  0.1910
  464TMC3    C3 6905   1.378   2.971   1.651  1.3169 -0.3401 -0.6703
  464TMC3    C4 6906   1.425   2.767   1.837 -0.1122  0.1867 -0.3700
  464TMC3    C5 6907   1.315   2.772   1.754  0.2507  0.3725  0.4315
  464TMC3    C6 6908   1.289   2.866   1.665 -0.0159  0.8419  0.1292
  464TMC3     C 6909   1.620   2.853   1.917  0.3713 -0.4077 -0.6308
  464TMC3     O 6910   1.630   2.748   1.984  0.0357  0.0434 -0.3442
  464TMC3     H 6911   1.553   3.058   1.716 -0.7742  0.5454  2.9002
  464TMC3    H1 6912   1.441   2.678   1.897 -2.1090  0.1938  0.1764
  464TMC3    H2 6913   1.201   2.865   1.603  1.0846 -1.5514 -1.3972
  464TMC3    C7 6914   1.232   2.644   1.739  0.3253  0.1443 -0.0287
  464TMC3    C8 6915   1.342   3.082   1.569 -0.0077 -0.0825  0.0614
  464TMC3    O1 6916   1.226   2.572   1.837  0.5829  0.3043  0.5998
  464TMC3    O2 6917   1.427   3.168   1.545 -0.0802 -0.1246  0.2283
  465MPD2     C 6918   3.122   1.581  16.227 -0.0484  0.1152 -0.3371
  465MPD2    C1 6919   3.007   1.590  16.301  0.4466 -0.1565  0.1698
  465MPD2    C2 6920   2.899   1.644  16.238  0.2132 -0.2490  1.2395
  465MPD2    C3 6921   2.911   1.703  16.111  0.0132 -0.5093 -0.9931
  465MPD2    C4 6922   3.034   1.718  16.055  0.0707 -0.0665 -0.3181
  465MPD2    C5 6923   3.140   1.652  16.114 -0.4106  1.0060  0.2553
  465MPD2     H 6924   2.805   1.625  16.289 -0.9788 -0.3306 -1.0099
  465MPD2    H1 6925   3.055   1.773  15.965 -0.1037  0.3586 -0.0995
  465MPD2    H2 6926   3.206   1.515  16.246 -0.5242 -0.0240  1.2781
  465MPD2    H3 6927   3.236   1.645  16.064 -1.7117  0.5577 -2.2102
  465MPD2     N 6928   2.798   1.752  16.042 -0.3283  0.2259 -0.1641
  465MPD2    H5 6929   2.707   1.720  16.074  0.3078 -1.8266 -0.3688
  465MPD2    N1 6930   2.978   1.531  16.425 -0.6467  0.4394 -0.4705
  465MPD2    H7 6931   2.880   1.531  16.454 -0.5529  0.4642 -0.1520
  466TMC3    C1 6932   2.456   1.918  16.021 -0.5184  0.8959  0.3155
  466TMC3    C2 6933   2.450   2.052  15.982 -0.3583  0.6444  0.8007
  466TMC3    C3 6934   2.550   2.104  15.899  0.4026 -0.2894 -0.0113
  466TMC3    C4 6935   2.556   1.838  15.973  0.2545 -1.3876  0.0994
  466TMC3    C5 6936   2.661   1.900  15.907 -0.4241  0.1405 -0.3924
  466TMC3    C6 6937   2.658   2.030  15.863  0.2673  0.3566  0.7117
  466TMC3     C 6938   2.352   1.849  16.091  0.8984  1.1088 -0.3130
  466TMC3     O 6939   2.377   1.741  16.144  0.1288  0.0222  0.1379
  466TMC3     H 6940   2.380   2.115  16.035  0.0692  1.1725  0.7326
  466TMC3    H1 6941   2.567   1.733  15.996  1.3917 -1.4302 -0.6084
  466TMC3    H2 6942   2.725   2.058  15.782 -0.8011 -1.1942 -0.7131
  466TMC3    C7 6943   2.795   1.844  15.937  0.0690 -0.1957 -0.2433
  466TMC3    C8 6944   2.569   2.251  15.902  0.9284  0.5439 -0.0173
  466TMC3    O1 6945   2.882   1.923  15.906 -0.5241 -0.3656 -0.0693
  466TMC3    O2 6946   2.574   2.294  15.787  0.4654 -0.2963 -0.2211
  467TMC3    C1 6947   3.526   4.659  13.255  0.1755 -0.2542 -0.0292
  467TMC3    C2 6948   3.427   4.680  13.164  0.8900 -0.5077  0.0469
  467TMC3    C3 6949   3.309   4.723  13.220 -0.9365  0.0974 -0.5700
  467TMC3    C4 6950   3.525   4.700  13.385  1.0085 -0.4181 -0.5404
  467TMC3    C5 6951   3.411   0.025  13.434 -1.0772 -0.6954 -0.7028
  467TMC3    C6 6952   3.298   0.029  13.355  0.2328  0.2027  0.3914
  467TMC3     C 6953   3.669   4.640  13.207  0.7396 -0.3311  0.5325
  467TMC3     O 6954   3.751   4.596  13.283  1.1663 -0.7497 -0.9282
  467TMC3     H 6955   3.435   4.643  13.062  1.4451  0.8884 -0.4182
  467TMC3    H1 6956   3.610   4.692  13.452  0.9958 -0.2490 -0.5064
  467TMC3    H2 6957   3.207   0.073  13.394  0.0847 -0.4453  0.7714
  467TMC3    C7 6958   3.413   0.105  13.559 -0.1794  0.2881 -0.9022
  467TMC3    C8 6959   3.186   0.001  13.149  0.0256  0.3388  0.1637
  467TMC3    O1 6960   3.521   0.122  13.613  0.7249  0.0484  0.4205
  467TMC3    O2 6961   3.089   4.681  13.210 -0.6702 -1.2323 -0.2282
  468MPD2     C 6962   2.670   2.752  10.703  0.4052 -0.4025  0.1166
  468MPD2    C1 6963   2.725   2.658  10.788 -0.3044 -0.1876  0.2197
  468MPD2    C2 6964   2.741   2.535  10.738  0.2840 -0.2734  0.4303
  468MPD2    C3 6965   2.694   2.499  10.611  0.4497 -0.3513  0.5915
  468MPD2    C4 6966   2.649   2.598  10.524  0.4780  0.2630 -0.4838
  468MPD2    C5 6967   2.636   2.723  10.571 -0.4008  0.0111 -0.2452
  468MPD2     H 6968   2.790   2.462  10.801 -1.5587 -0.7887  1.2590
  468MPD2    H1 6969   2.612   2.569  10.427  0.4653  1.1418 -0.7449
  468MPD2    H2 6970   2.660   2.853  10.742  2.1534 -1.1262  2.4272
  468MPD2    H3 6971   2.593   2.803  10.512 -1.5272  1.4142  2.4620
  468MPD2     N 6972   2.690   2.364  10.575  0.2363 -0.3811  0.0184
  468MPD2    H5 6973   2.657   2.349  10.480 -0.4347 -3.7542  0.7621
  468MPD2    N1 6974   2.767   2.684  10.920  0.3644  0.8655  0.3961
  468MPD2    H7 6975   2.841   2.626  10.959 -0.5613 -0.7565 -0.2541
  469TMC3    C1 6976   2.810   2.802  11.103 -0.0878 -0.4757 -0.6595
  469TMC3    C2 6977   2.939   2.781  11.095 -0.2888 -0.1654  0.1508
  469TMC3    C3 6978   3.013   2.793  11.210 -0.3202 -0.5548  0.0402
  469TMC3    C4 6979   2.747   2.858  11.215  0.4588 -0.5830 -0.4484
  469TMC3    C5 6980   2.824   2.871  11.324  0.3326  0.3590 -0.3550
  469TMC3    C6 6981   2.953   2.829  11.326 -0.0114 -0.5985 -0.8695
  469TMC3     C 6982   2.727   2.795  10.989  0.1715 -0.5381  0.4764
  469TMC3     O 6983   2.630   2.871  10.977  0.7935 -0.5451 -0.1452
  469TMC3     H 6984   2.987   2.754  11.001  0.0795 -0.2528  0.3627
  469TMC3    H1 6985   2.641   2.878  11.208  0.2340 -1.1513  1.3496
  469TMC3    H2 6986   3.005   2.811  11.420 -0.9716 -2.4933 -0.7014
  469TMC3    C7 6987   2.757   2.890  11.451  0.7008 -0.3327  0.7557
  469TMC3    C8 6988   3.135   2.713  11.218  0.2808 -0.4179 -0.2165
  469TMC3    O1 6989   2.636   2.904  11.443  0.3394  0.0722  0.3579
  469TMC3    O2 6990   3.160   2.627  11.134 -0.5554 -0.3784  0.2261
  470TMC3    C1 6991   0.035   3.515   0.310  0.6753  0.5741  0.6796
  470TMC3    C2 6992   0.018   3.644   0.345  0.0601  0.7334  0.4791
  470TMC3    C3 6993   0.060   3.684   0.471 -0.3845  0.1777 -0.0555
  470TMC3    C4 6994   0.084   3.423   0.394  0.6923  0.3643 -0.2405
  470TMC3    C5 6995   0.112   3.468   0.524 -0.6682 -0.8419 -0.6898
  470TMC3    C6 6996   0.108   3.594   0.567  0.0650 -0.0700 -0.2209
  470TMC3     C 6997   0.013   3.482   0.170 -0.3307 -0.0444  0.6396
  470TMC3     O 6998   4.676   3.561   0.103  0.3379 -0.5924  0.0128
  470TMC3     H 6999   4.697   3.717   0.282 -2.3748 -0.0860  1.3865
  470TMC3    H1 7000   0.103   3.320   0.367  1.3482  0.2864  0.5067
  470TMC3    H2 7001   0.155   3.633   0.657  0.6272 -1.6464  0.1679
  470TMC3    C7 7002   0.152   3.359   0.621 -0.1250 -1.0289 -0.0144
  470TMC3    C8 7003   0.076   3.826   0.511  0.3640  0.3135  0.1153
  470TMC3    O1 7004   0.211   3.264   0.577  0.3004  0.8040 -0.5098
  470TMC3    O2 7005   0.106   3.852   0.626  0.0008 -0.3571  0.1638
  471MPD2     C 7006   0.566   0.818  16.788 -0.2941 -0.4991 -0.6189
  471MPD2    C1 7007   0.544   0.684  16.804  0.6376  0.0381  0.0567
  471MPD2    C2 7008   0.564   0.621  16.928  0.2345 -0.7719 -0.3960
  471MPD2    C3 7009   0.602   0.698  17.034  0.4821  0.3159  0.0280
  471MPD2    C4 7010   0.630   0.836  17.018  0.1223 -0.6705 -0.0797
  471MPD2    C5 7011   0.600   0.891  16.895  0.2999  0.2663  0.2620
  471MPD2     H 7012   0.539   0.516  16.933 -0.5115 -0.4978  1.5964
  471MPD2    H1 7013   0.641   0.900  17.105  1.1614 -0.4602 -0.3724
  471MPD2    H2 7014   0.545   0.868  16.694 -0.8990  3.4929  1.6674
  471MPD2    H3 7015   0.599   0.998  16.879  0.0361  0.3980  1.1544
  471MPD2     N 7016   0.627   0.652  17.160 -0.7147  0.3623  0.1785
  471MPD2    H5 7017   0.678   0.714  17.221 -0.7275  0.4532  0.0961
  471MPD2    N1 7018   0.469   0.610  16.708  0.2186 -0.3386 -0.3404
  471MPD2    H7 7019   0.459   0.510  16.726  1.2613 -0.8307 -2.4986
  472TMC3    C1 7020   0.381   0.535  16.507 -0.1124 -0.3961  0.6142
  472TMC3    C2 7021   0.295   0.565  16.404 -0.0102  0.1036 -0.3680
  472TMC3    C3 7022   0.233   0.464  16.340 -0.5786  0.3732  0.1503
  472TMC3    C4 7023   0.399   0.407  16.549 -0.1101  0.0937  0.0883
  472TMC3    C5 7024   0.326   0.303  16.496  0.1900  0.4254 -0.4591
  472TMC3    C6 7025   0.249   0.329  16.381  0.0152 -0.4747 -0.3001
  472TMC3     C 7026   0.432   0.645  16.585 -0.6700 -0.1753 -0.3902
  472TMC3     O 7027   0.453   0.750  16.530 -0.0352  1.2241 -0.2204
  472TMC3     H 7028   0.268   0.668  16.381  1.3737  0.0522 -2.2835
  472TMC3    H1 7029   0.480   0.382  16.616 -0.7509  1.9808  1.5579
  472TMC3    H2 7030   0.179   0.253  16.349  0.0251 -0.9175  0.7105
  472TMC3    C7 7031   0.360   0.167  16.538 -0.6366 -0.7922 -0.4289
  472TMC3    C8 7032   0.155   0.487  16.224 -0.4474  0.5615  0.2337
  472TMC3    O1 7033   0.426   0.146  16.638 -0.0205 -0.1345 -0.1889
  472TMC3    O2 7034   0.192   0.568  16.142 -0.6521 -0.1724 -0.0321
  473MPD2     C 7035   0.378   2.593  14.032  0.4414 -0.0120  0.7571
  473MPD2    C1 7036   0.421   2.689  13.944 -0.2676 -0.3440 -0.1754
  473MPD2    C2 7037   0.501   2.795  13.980 -0.4395 -0.0526 -0.6826
  473MPD2    C3 7038   0.538   2.804  14.116 -0.2480  0.1046  0.7934
  473MPD2    C4 7039   0.488   2.715  14.208 -0.2168 -0.2618 -0.3861
  473MPD2    C5 7040   0.415   2.605  14.166 -0.2082 -0.5089 -0.7323
  473MPD2     H 7041   0.539   2.867  13.909 -3.1451  3.0175  1.0197
  473MPD2    H1 7042   0.507   2.716  14.314 -0.7137 -1.1153 -0.2922
  473MPD2    H2 7043   0.320   2.510  13.994  1.4546 -0.0820 -0.6287
  473MPD2    H3 7044   0.385   2.541  14.248  0.2575 -1.0315 -0.9705
  473MPD2     N 7045   0.629   2.904  14.156  0.3300  0.5057 -1.1686
  473MPD2    H5 7046   0.644   2.904  14.256 -0.5584 -2.6834 -1.0328
  473MPD2    N1 7047   0.381   2.676  13.809 -0.2624  0.0161 -0.2409
  473MPD2    H7 7048   0.436   2.723  13.738  0.7726 -1.1531 -0.2043
  474TMC3    C1 7049   0.753   3.097  14.165 -0.0813  0.0277 -0.1504
  474TMC3    C2 7050   0.731   3.232  14.160  0.4916 -0.2557 -0.2293
  474TMC3    C3 7051   0.796   3.308  14.251 -0.5709 -0.3848  0.4307
  474TMC3    C4 7052   0.839   3.034  14.245  0.0857 -0.4776  0.5688
  474TMC3    C5 7053   0.904   3.115  14.333  0.2035  0.1267 -0.7429
  474TMC3    C6 7054   0.878   3.250  14.344  0.2741  0.2626  0.4411
  474TMC3     C 7055   0.655   3.023  14.090  0.1365 -0.3634  0.0123
  474TMC3     O 7056   0.637   3.055  13.974  0.2184  0.3786 -0.7449
  474TMC3     H 7057   0.672   3.276  14.080  1.0503  0.4656 -0.2519
  474TMC3    H1 7058   0.851   2.926  14.244 -0.2239 -0.4569 -3.1129
  474TMC3    H2 7059   0.939   3.316  14.403  2.9145 -1.5259 -0.2961
  474TMC3    C7 7060   0.965   3.053  14.448  0.0367 -0.0922  1.0066
  474TMC3    C8 7061   0.740   3.443  14.279 -0.2698 -0.4444 -0.0536
  474TMC3    O1 7062   1.007   2.943  14.418  0.2067  0.2103  0.3593
  474TMC3    O2 7063   0.731   3.480  14.396 -0.2884 -0.3402  0.2559
  475MPD2     C 7064   3.475   0.724  10.352  0.4565 -0.8441  0.0242
  475MPD2    C1 7065   3.563   0.649  10.270  0.3159  0.7230 -0.2419
  475MPD2    C2 7066   3.506   0.605  10.150 -0.1505  0.6962 -0.3027
  475MPD2    C3 7067   3.372   0.622  10.119  0.1557 -0.6317 -0.0320
  475MPD2    C4 7068   3.287   0.678  10.216  0.6082 -0.3321  0.3671
  475MPD2    C5 7069   3.341   0.730  10.331  0.7154  0.1986 -0.8642
  475MPD2     H 7070   3.574   0.566  10.075 -0.6316 -0.9561  0.1092
  475MPD2    H1 7071   3.179   0.679  10.203  0.9390 -1.7612 -2.4436
  475MPD2    H2 7072   3.515   0.758  10.447  0.6572  1.4127 -0.8690
  475MPD2    H3 7073   3.273   0.779  10.399  2.3237 -1.7983  2.1874
  475MPD2     N 7074   3.335   0.566   9.995 -0.4054  0.0387 -0.2409
  475MPD2    H5 7075   3.406   0.515   9.943  1.7545  2.7725  0.0104
  475MPD2    N1 7076   3.700   0.648  10.302  0.5407 -0.3593  0.1456
  475MPD2    H7 7077   3.725   0.696  10.388  1.5667 -0.1484 -0.2695
  476TMC3    C1 7078   3.929   0.598  10.285 -0.3618  1.3555  0.1219
  476TMC3    C2 7079   4.028   0.555  10.204 -0.6057 -0.3289  0.0357
  476TMC3    C3 7080   4.149   0.599  10.220 -0.0226 -0.1682  0.1064
  476TMC3    C4 7081   3.952   0.688  10.383  0.2763  0.6779 -0.3134
  476TMC3    C5 7082   4.078   0.738  10.395 -0.9207  0.2329 -0.4318
  476TMC3    C6 7083   4.181   0.692  10.315 -0.4019  0.3121  0.3304
  476TMC3     C 7084   3.798   0.580  10.234  0.0142  0.3762  0.9195
  476TMC3     O 7085   3.782   0.513  10.130  0.5524  0.2161 -0.0391
  476TMC3     H 7086   4.005   0.490  10.120  1.1135 -1.6500  0.5963
  476TMC3    H1 7087   3.873   0.733  10.443 -0.9840 -0.0835 -1.4077
  476TMC3    H2 7088   4.284   0.726  10.318 -0.5674  0.8046  0.4703
  476TMC3    C7 7089   4.120   0.806  10.510  0.8760 -0.5246 -0.2580
  476TMC3    C8 7090   4.256   0.546  10.132  0.6069 -0.3864  0.0912
  476TMC3    O1 7091   4.231   0.777  10.554  0.5440 -0.0988  0.5509
  476TMC3    O2 7092   4.346   0.629  10.102 -0.2835  0.0433 -0.3173
  477MPD2     C 7093   1.149   2.014  11.496 -0.5298 -0.3118  0.3126
  477MPD2    C1 7094   1.068   1.928  11.571  0.4732  0.3271 -0.7696
  477MPD2    C2 7095   1.130   1.840  11.653  0.0918 -0.1469  0.0405
  477MPD2    C3 7096   1.272   1.843  11.661  0.0997 -0.7647 -0.6733
  477MPD2    C4 7097   1.351   1.918  11.573  0.9173 -0.0486  0.1361
  477MPD2    C5 7098   1.281   2.003  11.493  0.0591  0.2770 -0.1066
  477MPD2     H 7099   1.070   1.772  11.713  1.5998 -0.7886  0.8107
  477MPD2    H1 7100   1.459   1.918  11.581  0.9350  0.0111 -0.1141
  477MPD2    H2 7101   1.092   2.078  11.430  0.5028  0.9037  0.6030
  477MPD2    H3 7102   1.341   2.067  11.429 -1.0678  1.8737  0.4481
  477MPD2     N 7103   1.329   1.771  11.767  0.6522 -0.1576 -0.3810
  477MPD2    H5 7104   1.267   1.709  11.819  0.4411  0.1887 -0.2127
  477MPD2    N1 7105   0.929   1.934  11.559 -0.2207  0.2741 -0.2104
  477MPD2    H7 7106   0.887   1.991  11.487  2.7587  0.6383 -1.6273
  478TMC3    C1 7107   0.700   1.902  11.572  0.8460 -0.1552 -0.3965
  478TMC3    C2 7108   0.630   1.976  11.657 -0.9307 -0.2562 -0.7033
  478TMC3    C3 7109   0.587   2.102  11.618 -1.0098 -0.2731  0.8916
  478TMC3    C4 7110   0.708   1.950  11.442  0.2036 -0.0991 -0.1278
  478TMC3    C5 7111   0.656   2.065  11.403  0.6116  0.2934 -0.0257
  478TMC3    C6 7112   0.609   2.155  11.494  0.0048  0.0494  0.3821
  478TMC3     C 7113   0.830   1.870  11.631 -0.1793  0.2911 -0.0098
  478TMC3     O 7114   0.833   1.789  11.722 -0.0396 -0.0560 -0.4356
  478TMC3     H 7115   0.619   1.946  11.760 -0.2277 -1.6103 -1.0191
  478TMC3    H1 7116   0.774   1.896  11.375  0.8278  0.5000  0.0081
  478TMC3    H2 7117   0.582   2.253  11.456  2.1443  1.4556  2.5327
  478TMC3    C7 7118   0.732   2.116  11.289 -0.5015  0.0846  0.0280
  478TMC3    C8 7119   0.581   2.198  11.733 -0.2131  0.6984 -0.4942
  478TMC3    O1 7120   0.849   2.081  11.287 -0.7249  0.6129  0.2176
  478TMC3    O2 7121   0.549   2.145  11.839  0.6269 -0.3398 -0.4420
  479MPD2     C 7122   0.213   0.355  15.090  0.1587 -0.0955  0.0189
  479MPD2    C1 7123   0.191   0.265  15.190 -0.0540 -0.7312  0.3661
  479MPD2    C2 7124   0.232   0.292  15.323  0.3434  0.0698 -0.4821
  479MPD2    C3 7125   0.264   0.423  15.354  0.9753  0.0283  0.4492
  479MPD2    C4 7126   0.267   0.519  15.255 -0.2660 -0.0603 -0.0330
  479MPD2    C5 7127   0.247   0.485  15.127  0.0427  0.2375 -0.3461
  479MPD2     H 7128   0.221   0.219  15.402  1.1658  3.0831  2.4464
  479MPD2    H1 7129   0.298   0.620  15.280 -1.9142  0.4481 -0.0231
  479MPD2    H2 7130   0.184   0.332  14.988 -1.2248 -2.9644  1.0559
  479MPD2    H3 7131   0.246   0.560  15.049 -1.5524 -0.3890 -0.9305
  479MPD2     N 7132   0.271   0.465  15.489 -1.0311 -0.0168  0.2281
  479MPD2    H5 7133   0.323   0.549  15.510 -1.4000 -0.0138  1.1308
  479MPD2    N1 7134   0.103   0.156  15.158  0.3110  0.1058  0.2491
  479MPD2    H7 7135   0.056   0.159  15.068 -0.3408  0.9263  0.6092
  480TMC3    C1 7136   4.725   0.153  15.742 -0.3811  0.5088 -0.0873
  480TMC3    C2 7137   4.615   0.190  15.673 -0.3508  0.7672  0.2097
  480TMC3    C3 7138   4.632   0.270  15.557 -0.3366  0.0610 -0.2597
  480TMC3    C4 7139   0.118   0.215  15.716 -0.3384 -0.3441 -0.3799
  480TMC3    C5 7140   0.126   0.318  15.621  0.0566 -0.1570 -0.6475
  480TMC3    C6 7141   0.018   0.350  15.542 -1.2991  0.4208  0.2609
  480TMC3     C 7142   4.725   0.037  15.832  0.3623  0.1195  0.0283
  480TMC3     O 7143   0.094   0.023  15.900 -0.2911 -0.3806  0.2051
  480TMC3     H 7144   4.525   0.130  15.679  1.9622 -2.6107  1.0493
  480TMC3    H1 7145   0.200   0.183  15.780 -1.1270 -2.8072 -0.6037
  480TMC3    H2 7146   0.021   0.429  15.468  1.7796 -0.3817 -0.4838
  480TMC3    C7 7147   0.251   0.380  15.596  0.5668 -0.4492 -0.6761
  480TMC3    C8 7148   4.528   0.281  15.449 -0.3433  0.4988 -0.1862
  480TMC3    O1 7149   0.335   0.365  15.685  0.2126 -0.0331  0.2300
  480TMC3    O2 7150   4.415   0.235  15.470  0.5694  0.0676 -0.0821
  481MPD2     C 7151   1.972   4.026  14.666 -0.2957  0.2745 -0.0082
  481MPD2    C1 7152   1.861   4.093  14.623 -0.6521 -0.0710  0.3412
  481MPD2    C2 7153   1.779   4.154  14.722  0.7159  0.5741  0.4831
  481MPD2    C3 7154   1.802   4.131  14.860 -0.3902 -0.3376  0.8130
  481MPD2    C4 7155   1.904   4.048  14.894  0.6514 -0.8868 -0.1610
  481MPD2    C5 7156   1.994   3.998  14.800 -0.6162  0.2525 -0.1990
  481MPD2     H 7157   1.693   4.207  14.683  0.1608  0.1566  1.1407
  481MPD2    H1 7158   1.932   4.017  14.994  0.5796 -1.1949 -0.2352
  481MPD2    H2 7159   2.046   3.983  14.598 -1.3880 -2.0029  0.2519
  481MPD2    H3 7160   2.075   3.936  14.838 -0.4557  0.1023 -0.7841
  481MPD2     N 7161   1.720   4.177  14.965 -0.1222 -0.6137  0.6350
  481MPD2    H5 7162   1.757   4.155  15.057  0.5787 -0.5013  0.3823
  481MPD2    N1 7163   1.835   4.100  14.484 -0.9571 -0.5536 -0.7841
  481MPD2    H7 7164   1.903   4.060  14.420  0.1120 -0.8283  0.5349
  482TMC3    C1 7165   1.710   4.114  14.289 -0.3587 -0.3112 -0.5697
  482TMC3    C2 7166   1.777   4.004  14.243 -0.1222  0.2147 -0.5651
  482TMC3    C3 7167   1.764   3.975  14.110 -0.7302  0.4811  0.0697
  482TMC3    C4 7168   1.626   4.195  14.208  0.2366  0.1580  0.0295
  482TMC3    C5 7169   1.603   4.145  14.084 -0.8108 -0.3958  0.4724
  482TMC3    C6 7170   1.680   4.044  14.027  0.5687  0.0562  0.3850
  482TMC3     C 7171   1.723   4.152  14.427 -0.2096  0.2323  0.0868
  482TMC3     O 7172   1.635   4.224  14.468 -0.1606 -0.2437 -0.5144
  482TMC3     H 7173   1.802   3.923  14.311  0.4649  2.2543  1.6536
  482TMC3    H1 7174   1.572   4.276  14.255  1.7413 -0.1541  2.3103
  482TMC3    H2 7175   1.672   4.018  13.922 -1.8578 -2.3267  1.1811
  482TMC3    C7 7176   1.494   4.208  14.012  0.4201  0.7654  0.1582
  482TMC3    C8 7177   1.774   3.836  14.082  0.0616  0.0461 -0.0132
  482TMC3    O1 7178   1.418   4.267  14.089 -0.5565  0.6411 -0.1422
  482TMC3    O2 7179   1.688   3.795  14.006 -0.0102  0.6118  0.2200
  483TMC3    C1 7180   4.395   2.335   0.387  0.1930 -0.4718 -0.1559
  483TMC3    C2 7181   4.366   2.388   0.511 -0.9096  0.0536  0.8845
  483TMC3    C3 7182   4.404   2.320   0.627  0.0477 -0.2023  0.0937
  483TMC3    C4 7183   4.451   2.208   0.377 -0.0567 -0.2360 -0.2327
  483TMC3    C5 7184   4.481   2.140   0.488  0.3290  0.0723 -0.2177
  483TMC3    C6 7185   4.451   2.193   0.612 -0.3014  0.0577  0.2123
  483TMC3     C 7186   4.454   2.433   0.295  0.2699 -0.0747 -0.2446
  483TMC3     O 7187   4.443   2.551   0.330  0.4276 -0.6958  0.0925
  483TMC3     H 7188   4.329   2.490   0.515  0.6399  0.5992  1.5010
  483TMC3    H1 7189   4.477   2.161   0.283 -1.2899  0.1440 -0.7741
  483TMC3    H2 7190   4.469   2.140   0.705 -3.2893 -2.5155 -0.6757
  483TMC3    C7 7191   4.605   2.065   0.484 -0.1867 -0.1131  0.1814
  483TMC3    C8 7192   4.450   2.408   0.733  0.3641 -0.9408  0.5605
  483TMC3    O1 7193   4.680   2.106   0.397  0.1954  0.6635  0.3680
  483TMC3    O2 7194   4.443   2.528   0.713 -0.6389 -0.6320 -0.9676
  484MPD2     C 7195   2.234   1.104  11.953  0.2704  0.1379 -0.0089
  484MPD2    C1 7196   2.326   1.043  12.032  0.7578  0.1646 -0.3302
  484MPD2    C2 7197   2.451   1.092  12.032 -0.0615  0.4064 -0.0906
  484MPD2    C3 7198   2.482   1.217  11.976  0.4554 -0.2110  0.0626
  484MPD2    C4 7199   2.387   1.288  11.905  0.3708 -0.6209 -0.0328
  484MPD2    C5 7200   2.264   1.229  11.889  0.2771 -0.2746  0.2789
  484MPD2     H 7201   2.527   1.023  12.066 -0.5601  0.2540  0.7081
  484MPD2    H1 7202   2.419   1.377  11.851 -0.5632  0.7517  1.6595
  484MPD2    H2 7203   2.137   1.058  11.939  0.4069  0.3630 -1.6555
  484MPD2    H3 7204   2.203   1.270  11.810  0.0766  0.5643  0.8668
  484MPD2     N 7205   2.614   1.275  11.948  0.7042  0.1763  0.4365
  484MPD2    H5 7206   2.626   1.367  11.905 -0.2013  0.5975  1.0638
  484MPD2    N1 7207   2.286   0.930  12.107 -0.0471 -0.5231 -0.0559
  484MPD2    H7 7208   2.193   0.897  12.081 -0.6116  1.2001 -0.1928
  485TMC3    C1 7209   2.844   1.295  11.919 -0.3316 -0.2684  0.5895
  485TMC3    C2 7210   2.966   1.257  11.968  0.6091  0.8100 -0.4323
  485TMC3    C3 7211   3.081   1.288  11.897 -0.0358  0.4822  0.2390
  485TMC3    C4 7212   2.832   1.358  11.803 -0.7948 -0.8586  0.3120
  485TMC3    C5 7213   2.945   1.387  11.733 -0.2668  0.2422 -0.1479
  485TMC3    C6 7214   3.070   1.361  11.777  0.3478 -0.5128  0.6603
  485TMC3     C 7215   2.738   1.215  11.970 -0.4691 -0.4922  0.5995
  485TMC3     O 7216   2.765   1.105  12.017  0.2187  0.1924  0.1079
  485TMC3     H 7217   2.971   1.201  12.061  4.4296  1.5792 -0.1455
  485TMC3    H1 7218   2.735   1.361  11.755  0.4692 -1.8557 -2.3016
  485TMC3    H2 7219   3.164   1.389  11.731  0.7658 -1.1042  1.1509
  485TMC3    C7 7220   2.933   1.359  11.593  0.5583  0.9467  0.5614
  485TMC3    C8 7221   3.175   1.184  11.871 -0.3099  0.3765  0.3226
  485TMC3    O1 7222   2.860   1.429  11.519  0.3692  0.2922  1.0752
  485TMC3    O2 7223   3.201   1.171  11.751  0.3785 -0.0470 -0.5014
  486MPD2     C 7224   0.228   0.030  12.879 -0.0196  0.1506  0.4699
  486MPD2    C1 7225   0.115   4.690  12.838 -0.4564  0.7253 -1.1613
  486MPD2    C2 7226   0.006   0.037  12.791  0.3156  0.4129 -0.4237
  486MPD2    C3 7227   0.027   0.175  12.761 -0.1377  0.1357 -0.3362
  486MPD2    C4 7228   0.149   0.235  12.781  0.4737 -0.3628  0.5847
  486MPD2    C5 7229   0.244   0.162  12.846 -0.0646 -0.3839  0.2437
  486MPD2     H 7230   4.633   0.002  12.772 -0.0331  1.2589 -0.1433
  486MPD2    H1 7231   0.172   0.338  12.754  1.7536 -0.5844  0.8204
  486MPD2    H2 7232   0.307   4.709  12.935 -0.8748 -0.7640  0.8887
  486MPD2    H3 7233   0.337   0.200  12.889 -0.3882  0.2576  0.3823
  486MPD2     N 7234   4.642   0.240  12.700  0.4319 -0.2080 -0.3078
  486MPD2    H5 7235   4.557   0.186  12.684  0.1506 -0.3535  1.6535
  486MPD2    N1 7236   0.093   4.559  12.877  0.9491 -0.2530 -0.6632
  486MPD2    H7 7237   0.153   4.518  12.948 -1.6687  1.8788  2.7481
  487TMC3    C1 7238   0.013   4.345  12.875 -0.3062  0.2066  0.2675
  487TMC3    C2 7239   4.645   4.256  12.830  0.0411  0.0170 -0.2736
  487TMC3    C3 7240   4.650   4.130  12.875 -1.2895 -0.2551  0.5752
  487TMC3    C4 7241   0.108   4.310  12.972  0.3206 -0.3472  0.1493
  487TMC3    C5 7242   0.093   4.186  13.028 -0.5336  0.1640  0.9911
  487TMC3    C6 7243   0.015   4.084  12.972  0.3867  0.2149  0.5809
  487TMC3     C 7244   0.004   4.480  12.819 -0.3659 -0.1524  0.1340
  487TMC3     O 7245   4.650   4.505  12.733  0.2632  0.2493  0.4129
  487TMC3     H 7246   4.576   4.294  12.755  2.8976  1.1147 -2.3374
  487TMC3    H1 7247   0.190   4.379  12.987 -0.3983  1.0257 -2.2002
  487TMC3    H2 7248   4.715   3.993  13.025 -1.0510 -0.3618 -1.1648
  487TMC3    C7 7249   0.205   4.153  13.111  0.1896  0.2465  0.6910
  487TMC3    C8 7250   4.533   4.054  12.845  0.0865 -0.5945  0.4208
  487TMC3    O1 7251   0.297   4.231  13.118 -0.2794 -0.5530  0.2594
  487TMC3    O2 7252   4.428   4.116  12.822 -0.4960 -0.6768  0.3143
  488MPD2     C 7253   4.276   2.153  16.259  0.2178 -0.1146 -0.3955
  488MPD2    C1 7254   4.375   2.220  16.324  0.6148 -0.2038 -0.8217
  488MPD2    C2 7255   4.367   2.240  16.458 -0.6657  0.6277  0.3593
  488MPD2    C3 7256   4.258   2.203  16.537 -0.0944 -0.8019  0.1102
  488MPD2    C4 7257   4.153   2.140  16.475  0.1535 -0.4901 -0.3526
  488MPD2    C5 7258   4.168   2.112  16.337 -0.2492  0.0585  0.6614
  488MPD2     H 7259   4.447   2.297  16.502 -0.3071  0.1373  0.3446
  488MPD2    H1 7260   4.065   2.115  16.534 -1.7667 -1.5169 -3.7052
  488MPD2    H2 7261   4.280   2.126  16.154  1.5864  1.3187 -0.7130
  488MPD2    H3 7262   4.087   2.051  16.301  0.1899  0.1396 -0.4660
  488MPD2     N 7263   4.256   2.246  16.671 -0.0240  0.4044 -0.5672
  488MPD2    H5 7264   4.338   2.297  16.704  1.3151 -2.9976  1.3795
  488MPD2    N1 7265   4.493   2.259  16.258  0.0345 -0.4449  0.3136
  488MPD2    H7 7266   4.566   2.306  16.311 -1.4527 -0.0965  2.0638
  489TMC3    C1 7267   4.202   2.250  16.897  0.3367  0.0488  0.1517
  489TMC3    C2 7268   4.299   2.348  16.913 -0.0884  0.7460 -1.0334
  489TMC3    C3 7269   4.318   2.393  17.038  0.5231 -0.3481  0.3212
  489TMC3    C4 7270   4.120   2.225  17.002 -0.3824 -0.6372  0.1506
  489TMC3    C5 7271   4.136   2.274  17.123 -0.0136 -0.0469  0.6950
  489TMC3    C6 7272   4.246   2.354  17.144 -0.1036  0.0285  0.0899
  489TMC3     C 7273   4.161   2.221  16.766 -0.6430 -0.3472 -0.2701
  489TMC3     O 7274   4.050   2.175  16.754  1.0495 -0.2781  0.4339
  489TMC3     H 7275   4.344   2.411  16.837  0.3300  1.5333 -0.1382
  489TMC3    H1 7276   4.040   2.153  16.987 -0.3022 -0.2147 -2.3617
  489TMC3    H2 7277   4.258   2.397  17.243 -2.7831 -0.3510  0.5879
  489TMC3    C7 7278   4.087   2.211  17.244  0.3364  0.4061 -0.5147
  489TMC3    C8 7279   4.441   2.474  17.057 -0.2234 -0.2431 -0.6549
  489TMC3    O1 7280   4.174   2.185  17.326 -0.0296  0.4008 -0.2636
  489TMC3    O2 7281   4.534   2.438  16.983 -0.0578 -0.1467 -0.4422
  490MPD2     C 7282   0.829   1.234   0.439  0.6912 -0.0150 -0.0164
  490MPD2    C1 7283   0.793   1.199   0.309 -0.3641  0.2058  0.5060
  490MPD2    C2 7284   0.807   1.302   0.215 -1.1095  0.1601 -0.2333
  490MPD2    C3 7285   0.861   1.427   0.236  0.0393  0.4423 -0.3878
  490MPD2    C4 7286   0.881   1.455   0.368  0.5425  0.2369 -0.8575
  490MPD2    C5 7287   0.869   1.361   0.468  0.4540 -0.9027 -0.0256
  490MPD2     H 7288   0.778   1.285   0.112  0.0983 -0.6241 -0.4429
  490MPD2    H1 7289   0.898   1.556   0.404  2.5903 -0.1038 -0.8439
  490MPD2    H2 7290   0.825   1.166   0.523 -3.5267 -0.3452 -0.4837
  490MPD2    H3 7291   0.891   1.391   0.570  1.8603  0.3913 -0.7034
  490MPD2     N 7292   0.878   1.531   0.144 -0.0086 -0.0495  0.2841
  490MPD2    H5 7293   0.936   1.609   0.173  0.7045 -0.9815  1.3780
  490MPD2    N1 7294   0.733   1.067   0.270 -0.6107  0.1339  0.7624
  490MPD2    H7 7295   0.694   1.055   0.178 -1.5703 -0.4622  1.2461
  491TMC3    C1 7296   0.651   0.849   0.296  0.3013  0.1203 -0.4252
  491TMC3    C2 7297   0.597   0.753   0.383  0.0301 -0.0729  0.1070
  491TMC3    C3 7298   0.557   0.634   0.339  0.3257  0.4953 -0.5121
  491TMC3    C4 7299   0.657   0.819   0.161 -0.5282  0.3649 -0.2708
  491TMC3    C5 7300   0.619   0.690   0.124  0.1443  1.1377 -0.3595
  491TMC3    C6 7301   0.571   0.599   0.209  0.5367 -0.6601 -0.0851
  491TMC3     C 7302   0.716   0.968   0.354 -0.1127  0.1026  0.5153
  491TMC3     O 7303   0.737   0.957   0.472  0.4579  0.3502  0.0127
  491TMC3     H 7304   0.587   0.778   0.488 -2.4272  1.8930 -0.6092
  491TMC3    H1 7305   0.708   0.891   0.099 -0.5574  2.5150  2.2144
  491TMC3    H2 7306   0.514   0.518   0.165  0.6086 -0.3623 -0.7285
  491TMC3    C7 7307   0.544   0.681  17.706  0.2319 -0.7137 -0.1233
  491TMC3    C8 7308   0.433   0.577   0.400  0.4264 -0.1011  0.1946
  491TMC3    O1 7309   0.448   0.606  17.696  0.1321 -0.0646 -0.4323
  491TMC3    O2 7310   0.381   0.646   0.490  0.8299  0.2842  0.2857
  492MPD2     C 7311   1.455   0.757  11.113  0.6897 -0.8049  0.7922
  492MPD2    C1 7312   1.369   0.682  11.035  0.4036 -0.1932 -0.0016
  492MPD2    C2 7313   1.244   0.649  11.089  0.1349  0.3869 -0.9167
  492MPD2    C3 7314   1.213   0.692  11.216  0.9851  0.2303 -0.7059
  492MPD2    C4 7315   1.304   0.755  11.299  0.1572 -0.1676 -0.1020
  492MPD2    C5 7316   1.425   0.788  11.243 -0.0735 -0.0991 -0.5749
  492MPD2     H 7317   1.167   0.608  11.025 -0.2535 -0.4831  0.0961
  492MPD2    H1 7318   1.283   0.782  11.402  1.4414  1.0280 -0.1500
  492MPD2    H2 7319   1.555   0.781  11.079 -0.4058  0.6622 -1.4072
  492MPD2    H3 7320   1.499   0.833  11.308 -0.0372  0.3282 -0.9078
  492MPD2     N 7321   1.076   0.680  11.271 -0.0319  0.0587 -0.3928
  492MPD2    H5 7322   1.069   0.723  11.363  2.0940  3.2348 -1.7236
  492MPD2    N1 7323   1.405   0.667  10.897 -0.1216  0.1134 -0.4587
  492MPD2    H7 7324   1.489   0.717  10.869  1.0945 -1.2369  0.7806
  493TMC3    C1 7325   1.362   0.646  10.663 -0.3216  0.0836 -0.1123
  493TMC3    C2 7326   1.358   0.782  10.647  0.3799  0.4025  0.2814
  493TMC3    C3 7327   1.270   0.839  10.560  0.1889 -0.0310  0.3165
  493TMC3    C4 7328   1.273   0.569  10.589 -0.4614 -0.1984  0.0042
  493TMC3    C5 7329   1.189   0.634  10.499 -0.5062 -0.3957 -0.2940
  493TMC3    C6 7330   1.179   0.771  10.492 -0.3021 -0.0529  0.7843
  493TMC3     C 7331   1.329   0.606  10.799 -0.0476  0.3423  0.3523
  493TMC3     O 7332   1.238   0.524  10.799  0.1901 -0.5895 -0.1851
  493TMC3     H 7333   1.432   0.841  10.701 -1.2246  0.8324  2.0253
  493TMC3    H1 7334   1.265   0.462  10.599  0.4579 -0.3750 -1.1907
  493TMC3    H2 7335   1.102   0.826  10.439  0.6042  1.2585  0.8482
  493TMC3    C7 7336   1.065   0.562  10.486  0.2162  0.1240 -0.7905
  493TMC3    C8 7337   1.255   0.981  10.582 -0.3279  0.3593 -0.3892
  493TMC3    O1 7338   1.004   0.578  10.381 -0.1019  0.1905  0.5864
  493TMC3    O2 7339   1.277   1.009  10.702  0.1976 -0.3043  0.5293
  494TMC3    C1 7340   1.906   3.383   0.689  0.2489 -0.4255  0.1523
  494TMC3    C2 7341   1.844   3.276   0.733 -0.1618  0.0383 -0.4369
  494TMC3    C3 7342   1.835   3.176   0.645 -0.6466  0.1898  0.4961
  494TMC3    C4 7343   1.952   3.397   0.556  0.1941 -0.0973  0.3180
  494TMC3    C5 7344   1.944   3.291   0.474  0.1945 -0.0390  0.0472
  494TMC3    C6 7345   1.891   3.175   0.522 -0.2196  0.0774  0.1447
  494TMC3     C 7346   1.852   3.497   0.750 -0.4925 -0.4160  0.0762
  494TMC3     O 7347   1.809   3.484   0.864 -0.3134 -0.3469  0.0219
  494TMC3     H 7348   1.805   3.270   0.835 -0.5148 -0.1320 -0.5802
  494TMC3    H1 7349   2.030   3.469   0.536 -0.3004  0.7109  1.2403
  494TMC3    H2 7350   1.858   3.092   0.460 -1.9387  0.3837  0.6607
  494TMC3    C7 7351   1.963   3.306   0.330  0.5739  0.5029 -0.6155
  494TMC3    C8 7352   1.735   3.073   0.681 -1.0876  0.7150  0.1992
  494TMC3    O1 7353   1.939   3.207   0.260 -0.6492  0.6194  0.6223
  494TMC3    O2 7354   1.746   2.964   0.633 -0.4357  0.0257  0.9807
  495TMC3    C1 7355   0.033   0.138  14.521 -0.0852  0.3072 -0.0445
  495TMC3    C2 7356   4.695   0.204  14.419  0.3404 -0.4327  0.1567
  495TMC3    C3 7357   4.617   0.316  14.446 -0.2499  0.1765 -0.1419
  495TMC3    C4 7358   0.011   0.176  14.651 -0.5349 -0.1131  0.1018
  495TMC3    C5 7359   4.652   0.278  14.677 -0.2318  0.0815  0.0117
  495TMC3    C6 7360   4.587   0.344  14.580 -0.3152 -0.0420  0.0993
  495TMC3     C 7361   0.080   0.008  14.497 -0.7406  0.5591 -0.0788
  495TMC3     O 7362   0.075   4.656  14.587 -0.1694 -0.3696  0.8307
  495TMC3     H 7363   4.688   0.154  14.323  1.0392 -2.3239  1.0815
  495TMC3    H1 7364   0.061   0.121  14.730 -0.3038  0.1102  0.1135
  495TMC3    H2 7365   4.519   0.425  14.605  0.6028  0.3713  1.2256
  495TMC3    C7 7366   4.638   0.319  14.819  0.1638  0.2085  0.0295
  495TMC3    C8 7367   4.528   0.356  14.337 -0.0669  0.0597  0.2338
  495TMC3    O1 7368   4.715   0.257  14.894  0.1965 -0.4219 -0.5806
  495TMC3    O2 7369   4.412   0.380  14.364  0.0103 -0.3845  0.2163
  496MPD2     C 7370   1.834   4.479  14.896 -0.3867 -0.3824  0.0547
  496MPD2    C1 7371   1.917   4.468  15.003  0.3189  0.0488  0.3629
  496MPD2    C2 7372   1.887   4.544  15.118 -0.3263  0.2811  0.2752
  496MPD2    C3 7373   1.780   4.632  15.116 -0.1100 -0.5546  0.1032
  496MPD2    C4 7374   1.707   4.648  15.005  0.1900  0.5700  0.0845
  496MPD2    C5 7375   1.727   4.566  14.896 -0.6795  0.4007  0.1166
  496MPD2     H 7376   1.937   4.534  15.213  0.9720 -2.2479 -0.6892
  496MPD2    H1 7377   1.626   4.716  14.983 -1.0911 -1.4158 -1.2556
  496MPD2    H2 7378   1.853   4.417  14.810 -0.4616 -1.5541  0.8876
  496MPD2    H3 7379   1.664   4.575  14.808 -1.9545 -2.6683  0.7146
  496MPD2     N 7380   1.748   4.719  15.223 -0.0499 -0.4577  0.2074
  496MPD2    H5 7381   1.672   0.057  15.206 -0.5768 -1.2950 -0.6912
  496MPD2    N1 7382   2.011   4.365  14.988  0.7529 -0.1855 -0.2815
  496MPD2    H7 7383   1.999   4.303  14.909  2.6322 -0.1233 -0.6249
  497TMC3    C1 7384   1.753   0.107  15.425 -0.5004  0.4693  0.0615
  497TMC3    C2 7385   1.642   0.179  15.379 -0.7172 -0.7955  0.4524
  497TMC3    C3 7386   1.551   0.237  15.464  0.0607  0.5068  0.5499
  497TMC3    C4 7387   1.773   0.106  15.558 -0.4245  0.1885  0.4714
  497TMC3    C5 7388   1.676   0.159  15.642 -0.0259 -0.1007  0.0952
  497TMC3    C6 7389   1.566   0.217  15.602 -0.4256  0.0063  0.7738
  497TMC3     C 7390   1.807   0.003  15.342 -0.5503  0.8333  0.4049
  497TMC3     O 7391   1.891   4.656  15.389 -0.9314 -0.1541  0.5681
  497TMC3     H 7392   1.633   0.186  15.272  0.2554 -0.1609  0.4116
  497TMC3    H1 7393   1.848   0.038  15.596 -0.4507 -1.0576 -1.6939
  497TMC3    H2 7394   1.492   0.251  15.673 -0.9287 -0.2935  0.3901
  497TMC3    C7 7395   1.677   0.126  15.789  0.0166 -1.0390 -0.3106
  497TMC3    C8 7396   1.421   0.226  15.410  0.4332 -0.1925 -0.0968
  497TMC3    O1 7397   1.569   0.125  15.846 -0.8603 -0.2220  0.2091
  497TMC3    O2 7398   1.412   0.169  15.300  0.2537 -0.3663 -0.1025
  498MPD2     C 7399   3.598   0.006   9.251 -0.4772  0.4487  0.4977
  498MPD2    C1 7400   3.588   0.070   9.372 -0.1176  0.8671  1.1292
  498MPD2    C2 7401   3.469   0.069   9.449  0.5000 -0.5370 -0.0955
  498MPD2    C3 7402   3.359   0.001   9.397  0.1541 -0.1232  0.3805
  498MPD2    C4 7403   3.377   4.659   9.280 -0.3693 -0.3488 -0.4132
  498MPD2    C5 7404   3.497   4.660   9.212  0.8028 -0.6117 -0.2699
  498MPD2     H 7405   3.475   0.122   9.543 -0.9775  0.4470 -0.5569
  498MPD2    H1 7406   3.308   4.589   9.237  0.3084  0.2588 -2.5044
  498MPD2    H2 7407   3.687   0.031   9.195 -0.9740  1.5179  0.1764
  498MPD2    H3 7408   3.509   4.601   9.121 -2.6480 -1.1295 -0.3873
  498MPD2     N 7409   3.233   0.014   9.461 -0.4209 -0.8143  0.3106
  498MPD2    H5 7410   3.235   0.063   9.550 -0.5117  2.4939 -1.5046
  498MPD2    N1 7411   3.689   0.151   9.424  0.1980  0.0628 -0.0379
  498MPD2    H7 7412   3.656   0.207   9.503 -1.6503 -2.0208  0.6367
  499TMC3    C1 7413   3.899   0.259   9.441  0.2104 -0.1784  0.4429
  499TMC3    C2 7414   3.837   0.351   9.524 -0.8407  0.1532  0.3069
  499TMC3    C3 7415   3.928   0.449   9.571  0.5955  0.1546  0.3192
  499TMC3    C4 7416   4.033   0.273   9.399  0.1984  0.7289  0.1420
  499TMC3    C5 7417   4.116   0.360   9.466  0.3897 -0.6654  0.7264
  499TMC3    C6 7418   4.062   0.457   9.540 -0.8892 -0.6324  0.1909
  499TMC3     C 7419   3.819   0.155   9.383  0.7982  0.0421  0.4796
  499TMC3     O 7420   3.876   0.079   9.300 -0.1228 -0.2290  0.2963
  499TMC3     H 7421   3.731   0.373   9.522 -0.5795  1.2616 -1.4706
  499TMC3    H1 7422   4.075   0.199   9.331  1.7238 -0.1750  2.0581
  499TMC3    H2 7423   4.124   0.536   9.580 -0.6976 -1.7106  2.0517
  499TMC3    C7 7424   4.254   0.375   9.440 -0.4300  0.3185  0.7882
  499TMC3    C8 7425   3.869   0.543   9.662 -0.3799  0.2041  0.5198
  499TMC3    O1 7426   4.304   0.470   9.499  0.5930  0.3366  0.5035
  499TMC3    O2 7427   3.747   0.543   9.675  0.6945 -0.5141  0.1003
  500MPD2     C 7428   0.221   1.692  10.688  0.3268 -0.2576 -0.7141
  500MPD2    C1 7429   0.287   1.699  10.564  0.3038  0.0055 -0.6324
  500MPD2    C2 7430   0.206   1.703  10.445 -0.3494  0.5255  0.2559
  500MPD2    C3 7431   0.069   1.683  10.453 -0.1307 -0.4638 -0.1903
  500MPD2    C4 7432   0.010   1.683  10.580 -0.2842 -0.1952  0.4214
  500MPD2    C5 7433   0.085   1.689  10.691  0.3982  0.3000  0.3003
  500MPD2     H 7434   0.249   1.693  10.346  0.8505  2.2771  0.5892
  500MPD2    H1 7435   4.632   1.679  10.602 -0.8863  2.2108 -1.9273
  500MPD2    H2 7436   0.269   1.708  10.784 -0.0153 -0.0965 -0.5697
  500MPD2    H3 7437   0.035   1.696  10.787  3.3905 -3.9534  2.1623
  500MPD2     N 7438   4.707   1.670  10.344 -0.0606  0.2391 -0.0738
  500MPD2    H5 7439   4.612   1.640  10.362 -0.4902  1.4039 -0.3877
  500MPD2    N1 7440   0.423   1.719  10.548 -0.7495 -0.5591 -0.1228
  500MPD2    H7 7441   0.445   1.752  10.455 -0.7988 -0.1009  0.0276
  501TMC3    C1 7442   0.623   1.793  10.621 -0.3663 -0.3270 -0.3008
  501TMC3    C2 7443   0.600   1.906  10.548 -0.0294  0.2526 -0.1082
  501TMC3    C3 7444   0.710   1.980  10.542  0.7435 -0.6168 -0.0308
  501TMC3    C4 7445   0.739   1.756  10.685 -0.4727 -0.4153 -0.0787
  501TMC3    C5 7446   0.853   1.819  10.655 -0.5657  0.5622 -0.4594
  501TMC3    C6 7447   0.837   1.936  10.582  0.2010  0.3199  0.9746
  501TMC3     C 7448   0.508   1.711  10.654 -0.5594 -0.4859  0.0937
  501TMC3     O 7449   0.520   1.629  10.745 -0.3037  0.2348 -0.1693
  501TMC3     H 7450   0.504   1.931  10.504 -0.6962 -1.4608  0.3799
  501TMC3    H1 7451   0.752   1.669  10.748  0.0889 -0.1923  0.1182
  501TMC3    H2 7452   0.925   2.000  10.584  0.7903 -0.4570 -0.0662
  501TMC3    C7 7453   0.976   1.789  10.738 -0.4420  0.6387 -0.0461
  501TMC3    C8 7454   0.708   2.100  10.459  0.0949 -0.9389  0.0897
  501TMC3    O1 7455   0.966   1.698  10.821  0.4698 -0.8285  0.7857
  501TMC3    O2 7456   0.809   2.167  10.465 -0.0905 -0.4881  0.6995
  502TMC3    C1 7457   4.123   1.561  15.687 -0.5247  0.1203  0.1343
  502TMC3    C2 7458   4.104   1.665  15.595 -0.4204  0.1718 -0.2619
  502TMC3    C3 7459   3.986   1.658  15.526  0.1345  0.3690  0.4575
  502TMC3    C4 7460   4.028   1.467  15.715  0.5309  0.2893  0.9250
  502TMC3    C5 7461   3.911   1.468  15.642 -0.2443 -0.5333 -0.1374
  502TMC3    C6 7462   3.890   1.558  15.541 -0.5475 -0.4602  0.2335
  502TMC3     C 7463   4.254   1.564  15.752  0.5188  0.0232 -0.6988
  502TMC3     O 7464   4.300   1.673  15.774 -0.5455  0.3313  0.2381
  502TMC3     H 7465   4.177   1.742  15.576 -0.1108  0.5516  2.3750
  502TMC3    H1 7466   4.045   1.408  15.804  0.9805 -0.0107  0.6410
  502TMC3    H2 7467   3.807   1.557  15.471 -0.7495  1.7382  0.4193
  502TMC3    C7 7468   3.826   1.356  15.661  0.3246  0.1369 -0.2618
  502TMC3    C8 7469   3.980   1.735  15.405 -0.0705  0.3726 -0.3729
  502TMC3    O1 7470   3.865   1.272  15.741  0.3842 -0.6438 -1.1290
  502TMC3    O2 7471   4.085   1.779  15.366  0.3722 -0.5827  0.0257
  503MPD2     C 7472   1.711   1.936  16.937 -0.4849  0.4164 -0.3573
  503MPD2    C1 7473   1.806   1.961  17.034 -0.0345  0.2857 -1.0367
  503MPD2    C2 7474   1.875   1.855  17.088  0.2174 -0.4375 -0.1014
  503MPD2    C3 7475   1.858   1.724  17.047 -0.6209 -0.8021 -0.1114
  503MPD2    C4 7476   1.768   1.707  16.948 -0.8269  0.5414  0.0204
  503MPD2    C5 7477   1.689   1.802  16.905 -0.3362  0.1145  0.3811
  503MPD2     H 7478   1.947   1.882  17.164 -0.1777  0.4902 -0.0602
  503MPD2    H1 7479   1.731   1.611  16.912 -1.1224  0.2335  1.1395
  503MPD2    H2 7480   1.655   2.017  16.892 -3.3877 -2.1124 -1.2901
  503MPD2    H3 7481   1.612   1.778  16.832 -0.4138  1.3884  0.0591
  503MPD2     N 7482   1.937   1.623  17.100 -0.2418 -0.4430  0.2480
  503MPD2    H5 7483   1.998   1.638  17.180  1.6847  1.2127 -1.5286
  503MPD2    N1 7484   1.827   2.092  17.083 -0.0554  0.2982 -0.0081
  503MPD2    H7 7485   1.906   2.107  17.146  0.6285 -1.9928 -0.3180
  504TMC3    C1 7486   2.027   1.410  17.129 -0.1399 -0.2603 -0.7154
  504TMC3    C2 7487   2.014   1.410  17.267 -0.0529  0.6627  0.2604
  504TMC3    C3 7488   2.058   1.287  17.327  0.3266 -0.0790  0.1990
  504TMC3    C4 7489   2.074   1.306  17.053 -0.0897  0.5090  0.4814
  504TMC3    C5 7490   2.106   1.188  17.115  0.8965  0.2985 -0.8895
  504TMC3    C6 7491   2.109   1.177  17.255  0.0918 -0.1126 -0.0158
  504TMC3     C 7492   1.953   1.500  17.050 -0.3220 -0.5207 -0.3900
  504TMC3     O 7493   1.907   1.454  16.944 -0.3426  0.2771  0.0985
  504TMC3     H 7494   1.966   1.492  17.319 -0.4229 -0.0878  1.0989
  504TMC3    H1 7495   2.067   1.306  16.945  2.4552 -0.6744  0.3023
  504TMC3    H2 7496   2.166   1.099  17.303 -0.0191  0.0027  0.3015
  504TMC3    C7 7497   2.189   1.108  17.039 -0.0498  0.4624  1.0009
  504TMC3    C8 7498   2.015   1.278  17.461  0.0680  0.7750 -0.0332
  504TMC3    O1 7499   2.234   1.159  16.939  0.0472  0.0457  0.3815
  504TMC3    O2 7500   1.973   1.378  17.522 -0.1978 -0.2984 -0.3558
  505MPD2     C 7501   2.337   0.084  10.206 -0.5810 -0.3684  0.0361
  505MPD2    C1 7502   2.309   4.695  10.273 -0.1784 -0.2988  0.0282
  505MPD2    C2 7503   2.393   4.646  10.369 -0.5662 -0.4655  0.3175
  505MPD2    C3 7504   2.505   4.714  10.397  0.1469 -0.2294 -0.6939
  505MPD2    C4 7505   2.541   0.099  10.330  0.1474 -0.2977  0.5545
  505MPD2    C5 7506   2.456   0.148  10.230  0.3313  0.0765  1.0612
  505MPD2     H 7507   2.384   4.545  10.408  2.3182 -1.2047 -0.8761
  505MPD2    H1 7508   2.634   0.149  10.353  0.9885 -0.4138 -2.6091
  505MPD2    H2 7509   2.264   0.128  10.139  1.0050 -0.0132 -1.4458
  505MPD2    H3 7510   2.475   0.240  10.176  0.7649  0.4064  1.7716
  505MPD2     N 7511   2.587   4.670  10.495  0.0110 -0.1105  0.0921
  505MPD2    H5 7512   2.676   4.718  10.500  1.3046 -2.3132 -1.8606
  505MPD2    N1 7513   2.188   4.626  10.228 -0.6880  0.4303  0.2168
  505MPD2    H7 7514   2.139   4.665  10.149  0.8379  1.9431  0.0194
  506TMC3    C1 7515   2.028   4.457  10.214 -0.5658  0.0706 -0.4520
  506TMC3    C2 7516   2.047   4.458  10.080  0.0762 -0.4703  0.2045
  506TMC3    C3 7517   2.031   4.341  10.013 -0.2682  0.7940 -0.2684
  506TMC3    C4 7518   1.987   4.345  10.268 -0.3852 -0.1508 -0.1942
  506TMC3    C5 7519   1.980   4.226  10.198 -0.6972  0.1960 -0.2360
  506TMC3    C6 7520   1.993   4.222  10.065  0.5888  0.5713  0.3730
  506TMC3     C 7521   2.127   4.519  10.296  0.1893 -0.3243 -0.2512
  506TMC3     O 7522   2.154   4.467  10.402  0.4294  0.0077  0.9981
  506TMC3     H 7523   2.078   4.549  10.030  0.5819 -0.9712 -0.3986
  506TMC3    H1 7524   1.970   4.326  10.373  0.9014 -2.3476 -0.3665
  506TMC3    H2 7525   2.007   4.131  10.008  1.3565  1.4971 -0.9166
  506TMC3    C7 7526   2.016   4.118  10.286 -0.2704  0.0595  0.4827
  506TMC3    C8 7527   2.074   4.335   9.874 -0.0388  0.4616 -1.0366
  506TMC3    O1 7528   1.963   4.002  10.283 -0.0546 -0.5174  0.6602
  506TMC3    O2 7529   2.004   4.265   9.804  0.0414  0.4207  0.4477
  507TMC3    C1 7530   2.863   1.085  14.562  0.2626 -0.3251 -0.3024
  507TMC3    C2 7531   2.777   0.990  14.521  0.1950 -0.4861 -0.4336
  507TMC3    C3 7532   2.703   1.006  14.410 -0.9248  0.6973 -0.4419
  507TMC3    C4 7533   2.900   1.190  14.488  0.3152  0.7149  0.1548
  507TMC3    C5 7534   2.817   1.216  14.382  0.1522 -0.1982 -0.3524
  507TMC3    C6 7535   2.727   1.120  14.338  0.6978  0.0239  0.4877
  507TMC3     C 7536   2.832   1.135  14.695  0.9409  0.0561  0.3944
  507TMC3     O 7537   2.922   1.202  14.749  0.0846 -0.5221 -0.0096
  507TMC3     H 7538   2.767   0.899  14.579 -0.0483  1.5412  2.6805
  507TMC3    H1 7539   2.964   1.269  14.527 -0.1006  1.7713 -1.2839
  507TMC3    H2 7540   2.672   1.137  14.246  0.0948 -0.0977  0.8292
  507TMC3    C7 7541   2.741   1.341  14.401  1.3376  0.1172 -0.2154
  507TMC3    C8 7542   2.564   0.968  14.436 -0.1253  0.5099  0.0113
  507TMC3    O1 7543   2.625   1.340  14.365 -0.1813  0.3027 -0.5528
  507TMC3    O2 7544   2.530   0.968  14.555 -0.6235 -0.2694 -0.0681
  508MPD2     C 7545   4.088   3.563  16.112  0.3204  0.0880  0.2718
  508MPD2    C1 7546   4.019   3.662  16.171  0.2774  0.7412 -0.3725
  508MPD2    C2 7547   3.949   3.754  16.085  0.3990  0.1236  0.0114
  508MPD2    C3 7548   3.946   3.742  15.945  0.2314 -0.0559  0.1145
  508MPD2    C4 7549   4.029   3.650  15.890 -0.1382 -0.1817  0.2539
  508MPD2    C5 7550   4.093   3.565  15.973 -0.1745  0.4746 -0.0393
  508MPD2     H 7551   3.892   3.831  16.134 -1.8852 -0.7392 -1.3223
  508MPD2    H1 7552   4.047   3.625  15.786 -0.6135 -0.0614  0.1427
  508MPD2    H2 7553   4.148   3.487  16.160 -0.5157 -0.0666  1.0742
  508MPD2    H3 7554   4.154   3.485  15.935 -0.0652 -0.6194  2.4730
  508MPD2     N 7555   3.864   3.829  15.868 -0.2094  0.0327 -0.2156
  508MPD2    H5 7556   3.801   3.888  15.921  0.3183  0.6755 -0.2976
  508MPD2    N1 7557   4.014   3.665  16.314 -0.3802  0.5236 -0.7273
  508MPD2    H7 7558   4.082   3.602  16.355  0.1462  0.9641 -0.9343
  509TMC3    C1 7559   3.601   4.102  15.668  0.2434  0.2512 -0.0594
  509TMC3    C2 7560   3.636   4.119  15.537 -0.2252 -0.3044 -0.2907
  509TMC3    C3 7561   3.736   4.045  15.477 -0.5010  0.1873  0.3037
  509TMC3    C4 7562   3.673   4.009  15.740  0.4025  1.1894  0.2146
  509TMC3    C5 7563   3.770   3.929  15.673  0.4244  0.3619  0.4165
  509TMC3    C6 7564   3.803   3.955  15.549  0.4881  0.1543  0.3300
  509TMC3     C 7565   3.563   4.218  15.742 -0.4101  0.4460 -0.5457
  509TMC3     O 7566   3.595   4.233  15.861 -0.4863 -0.5075  0.7109
  509TMC3     H 7567   3.583   4.180  15.465  0.3436  2.8797  1.9534
  509TMC3    H1 7568   3.634   3.974  15.835  0.9080  0.2933  0.0863
  509TMC3    H2 7569   3.899   3.918  15.515  1.0892 -1.3397  3.6319
  509TMC3    C7 7570   3.854   3.822  15.728  0.6413 -0.4493 -0.2740
  509TMC3    C8 7571   3.815   4.116  15.367  0.0513  0.6083  0.8219
  509TMC3    O1 7572   3.909   3.739  15.656 -0.2918  0.3467  0.3160
  509TMC3    O2 7573   3.881   4.059  15.285 -0.0114  0.0449  0.7153
  510MPD2     C 7574   1.482   0.634  14.241  0.3760 -0.4434 -0.0701
  510MPD2    C1 7575   1.518   0.555  14.353 -0.5176 -0.0586  0.4336
  510MPD2    C2 7576   1.658   0.520  14.363 -0.3136  0.0270 -0.0273
  510MPD2    C3 7577   1.749   0.554  14.269  0.3676 -0.2211  0.2880
  510MPD2    C4 7578   1.707   0.625  14.160 -0.6472 -0.3991 -0.7193
  510MPD2    C5 7579   1.576   0.661  14.145  0.0061  0.1183  0.1791
  510MPD2     H 7580   1.689   0.451  14.441 -0.0736 -0.7759 -0.8418
  510MPD2    H1 7581   1.773   0.644  14.076  2.8472 -0.7612  1.9653
  510MPD2    H2 7582   1.376   0.652  14.226  0.5239 -0.5562 -1.2738
  510MPD2    H3 7583   1.554   0.716  14.054  1.3235 -0.0626 -0.2563
  510MPD2     N 7584   1.886   0.508  14.283 -0.1740 -0.2083  0.5543
  510MPD2    H5 7585   1.908   0.442  14.357  0.2977  1.3370  1.8019
  510MPD2    N1 7586   1.419   0.522  14.450  0.0185  0.4858  0.2782
  510MPD2    H7 7587   1.323   0.549  14.431  0.0920  0.2608 -0.4143
  511TMC3    C1 7588   1.302   0.425  14.641 -0.1970  0.6022  0.4080
  511TMC3    C2 7589   1.201   0.520  14.657 -0.8198 -0.2415  0.1766
  511TMC3    C3 7590   1.103   0.496  14.752 -0.5814  0.0406  0.0767
  511TMC3    C4 7591   1.309   0.319  14.727  0.0368  0.0616  0.1523
  511TMC3    C5 7592   1.207   0.294  14.806 -0.7967  0.5169  0.3861
  511TMC3    C6 7593   1.096   0.379  14.818 -0.3521 -0.8493 -0.0925
  511TMC3     C 7594   1.429   0.461  14.571 -0.2357 -0.5016 -0.3201
  511TMC3     O 7595   1.537   0.432  14.628  0.1771 -0.6353 -0.2926
  511TMC3     H 7596   1.209   0.621  14.618  0.1355 -0.6893 -0.8106
  511TMC3    H1 7597   1.402   0.263  14.727  1.9612  3.2574  1.4508
  511TMC3    H2 7598   1.021   0.364  14.894  0.4599  2.0157  1.2840
  511TMC3    C7 7599   1.210   0.183  14.889 -0.5444 -0.2039  0.2443
  511TMC3    C8 7600   1.006   0.596  14.787 -0.3023 -0.7440 -0.1793
  511TMC3    O1 7601   1.313   0.115  14.894 -0.3788 -0.1572  0.1573
  511TMC3    O2 7602   1.045   0.709  14.772 -0.4365 -0.6162  0.2076
  512TMC3    C1 7603   0.397   3.993  12.729 -0.7092  0.2087  0.5029
  512TMC3    C2 7604   0.468   4.023  12.840 -0.5227 -0.0747  0.4003
  512TMC3    C3 7605   0.576   3.947  12.875 -0.0269  0.2802 -0.0261
  512TMC3    C4 7606   0.417   3.877  12.660 -0.7968 -0.0306  0.4342
  512TMC3    C5 7607   0.512   3.791  12.717 -0.4502 -0.2444 -0.7413
  512TMC3    C6 7608   0.587   3.823  12.822 -0.1592 -0.6786 -0.0335
  512TMC3     C 7609   0.290   4.080  12.695  0.3352  0.4348 -1.1444
  512TMC3     O 7610   0.301   4.196  12.740 -0.3012  0.2540 -0.0520
  512TMC3     H 7611   0.429   4.105  12.899 -2.8366 -0.4065 -0.6409
  512TMC3    H1 7612   0.362   3.852  12.570  2.0122 -0.9967 -1.0295
  512TMC3    H2 7613   0.678   3.773  12.851 -0.1129 -0.3192  0.4288
  512TMC3    C7 7614   0.500   3.658  12.675  0.5359 -0.1377 -0.4911
  512TMC3    C8 7615   0.611   3.937  13.015  0.3793 -0.0658  0.0596
  512TMC3    O1 7616   0.418   3.652  12.584 -0.5579 -0.2432 -0.1383
  512TMC3    O2 7617   0.630   3.835  13.080 -0.8017 -0.7393  0.0200
  513MPD2     C 7618   2.984   0.449  12.841  0.2411  0.2565 -0.4682
  513MPD2    C1 7619   2.934   0.322  12.831 -0.4405  0.9157  0.1696
  513MPD2    C2 7620   2.893   0.260  12.945  0.1203 -0.1039  0.3247
  513MPD2    C3 7621   2.920   0.302  13.076  0.2761  0.2547  0.3793
  513MPD2    C4 7622   2.960   0.432  13.086  0.2016 -0.5533 -0.3741
  513MPD2    C5 7623   2.989   0.503  12.971  0.1898 -0.4623 -0.1683
  513MPD2     H 7624   2.839   0.167  12.931  1.2590 -0.8155  0.6798
  513MPD2    H1 7625   2.956   0.483  13.182  1.8851 -1.0245 -0.0464
  513MPD2    H2 7626   3.009   0.503  12.750  0.2614  0.8501 -0.1136
  513MPD2    H3 7627   3.017   0.607  12.985 -0.2953 -0.2203 -1.0278
  513MPD2     N 7628   2.878   0.219  13.176  0.1507 -0.4887  0.0093
  513MPD2    H5 7629   2.833   0.131  13.151 -2.5946  1.4713 -1.8925
  513MPD2    N1 7630   2.923   0.266  12.698 -0.1182 -0.2186 -0.7198
  513MPD2    H7 7631   2.940   0.328  12.619  0.2968  1.0682  0.3781
  514TMC3    C1 7632   2.878   0.092  12.538 -0.6021  0.0576  0.0161
  514TMC3    C2 7633   2.816   0.167  12.441 -0.2322  0.6219  0.5843
  514TMC3    C3 7634   2.743   0.106  12.343 -0.2108 -0.2908 -0.0871
  514TMC3    C4 7635   2.858   4.683  12.538  0.5790  0.1427 -0.0719
  514TMC3    C5 7636   2.765   4.630  12.458 -0.0162 -0.2398 -0.5645
  514TMC3    C6 7637   2.713   4.697  12.351 -0.3949  0.6804  0.2373
  514TMC3     C 7638   2.882   0.136  12.674 -0.5833  0.5666  0.4796
  514TMC3     O 7639   2.835   0.055  12.754  0.3451 -0.1812  0.0105
  514TMC3     H 7640   2.813   0.275  12.449  1.6864  0.7305 -0.2579
  514TMC3    H1 7641   2.899   4.623  12.618  1.9307 -2.2216 -2.5244
  514TMC3    H2 7642   2.644   4.647  12.284 -0.1370  0.7098 -0.0500
  514TMC3    C7 7643   2.678   4.537  12.528  0.4885 -0.0829  0.9623
  514TMC3    C8 7644   2.730   0.168  12.218 -0.3658  0.4804 -0.4025
  514TMC3    O1 7645   2.628   4.448  12.462  0.1849 -0.8110 -0.3193
  514TMC3    O2 7646   2.746   0.291  12.219 -0.1494  0.5687  0.2113
  515MPD2     C 7647   0.825   1.240  14.351  0.3968 -0.1460 -0.6011
  515MPD2    C1 7648   0.725   1.324  14.308  0.3135  0.5467  0.6830
  515MPD2    C2 7649   0.746   1.461  14.334 -0.2833 -0.5701  0.0351
  515MPD2    C3 7650   0.851   1.507  14.415 -1.1441 -0.0858 -0.1580
  515MPD2    C4 7651   0.943   1.418  14.464 -0.8538 -0.0178  0.1694
  515MPD2    C5 7652   0.935   1.283  14.429  0.2784 -0.3227  0.6621
  515MPD2     H 7653   0.663   1.524  14.305 -1.0634 -0.3573  2.6858
  515MPD2    H1 7654   1.029   1.453  14.519 -1.0880  3.3697 -1.5949
  515MPD2    H2 7655   0.816   1.138  14.315  1.3693 -0.7667  0.9358
  515MPD2    H3 7656   1.014   1.216  14.462 -1.9655 -3.7518 -0.9389
  515MPD2     N 7657   0.877   1.650  14.435  0.0823  0.5686  0.2913
  515MPD2    H5 7658   0.953   1.678  14.497  0.6829 -0.8960  0.2139
  515MPD2    N1 7659   0.606   1.281  14.243 -0.6073  0.5911  0.4105
  515MPD2    H7 7660   0.530   1.349  14.239  0.3824  1.7214  0.6284
  516TMC3    C1 7661   0.444   1.137  14.161  0.1653 -0.0224 -0.0322
  516TMC3    C2 7662   0.384   1.205  14.064  0.1099  0.3512  0.7628
  516TMC3    C3 7663   0.251   1.178  14.040  0.1189 -0.4440  0.2946
  516TMC3    C4 7664   0.381   1.049  14.238  0.3403  0.3246 -0.8056
  516TMC3    C5 7665   0.251   1.015  14.215 -0.4103 -0.2758  0.8477
  516TMC3    C6 7666   0.186   1.081  14.116  0.7223  0.0554 -0.1184
  516TMC3     C 7667   0.584   1.157  14.194 -0.4741 -0.4924  0.9645
  516TMC3     O 7668   0.663   1.081  14.144  0.1289 -0.1658 -0.2003
  516TMC3     H 7669   0.446   1.265  13.999  0.0420  1.2565  1.5517
  516TMC3    H1 7670   0.435   0.994  14.314 -0.5412  0.1536 -0.2984
  516TMC3    H2 7671   0.083   1.059  14.092  0.4196  1.4796 -0.1185
  516TMC3    C7 7672   0.181   0.959  14.331  0.2995 -0.4655  0.5627
  516TMC3    C8 7673   0.174   1.237  13.930  0.1684 -0.5602 -0.6583
  516TMC3    O1 7674   0.221   0.989  14.443  0.2956  0.2856 -0.0090
  516TMC3    O2 7675   0.076   1.177  13.891  0.0159 -0.1187 -0.0060
  517MPD2     C 7676   4.419   2.956   0.212 -0.5061 -0.1466 -0.2593
  517MPD2    C1 7677   4.536   2.937   0.146 -0.7503 -0.1698 -0.1325
  517MPD2    C2 7678   4.659   2.965   0.209 -0.9708 -0.5857 -0.0850
  517MPD2    C3 7679   4.663   2.987   0.345 -0.3920  0.0894 -0.1846
  517MPD2    C4 7680   4.545   3.009   0.412 -1.0479 -0.7063  0.2237
  517MPD2    C5 7681   4.424   2.991   0.342 -0.3245 -0.2165  0.2298
  517MPD2     H 7682   0.027   2.952   0.160 -0.5920 -0.4009  0.6086
  517MPD2    H1 7683   4.550   3.023   0.519  2.0534 -2.3013  0.2750
  517MPD2    H2 7684   4.326   2.924   0.165 -1.4947  0.9110  0.9737
  517MPD2    H3 7685   4.329   3.000   0.395 -0.5275  0.3725 -0.2307
  517MPD2     N 7686   0.054   3.001   0.421 -0.1848  0.4722 -0.4460
  517MPD2    H5 7687   0.041   3.011   0.521  1.0273 -0.1741 -0.2310
  517MPD2    N1 7688   4.549   2.879   0.016  0.2415  0.3726  0.1600
  517MPD2    H7 7689   4.642   2.872  17.689 -0.5932 -0.6659 -1.7137
  518TMC3    C1 7690   4.518   2.717  17.555  0.3341 -0.4394  0.6310
  518TMC3    C2 7691   4.457   2.603  17.528  0.1708 -0.1247 -0.0243
  518TMC3    C3 7692   4.536   2.505  17.481 -0.6559 -0.1496 -0.6471
  518TMC3    C4 7693   4.650   2.748  17.527  0.6177 -0.1767  0.2205
  518TMC3    C5 7694   4.721   2.647  17.462  0.2994 -0.1525 -0.5537
  518TMC3    C6 7695   4.664   2.521  17.441 -0.1591  0.0894  0.0870
  518TMC3     C 7696   4.461   2.796  17.663 -1.1500 -0.5399 -0.4065
  518TMC3     O 7697   4.342   2.778  17.680  0.2845 -0.1403  0.2093
  518TMC3     H 7698   4.352   2.590  17.548  0.0185  0.5967 -0.3782
  518TMC3    H1 7699   4.683   2.851  17.533  1.2961 -0.3866  0.1335
  518TMC3    H2 7700   4.720   2.448  17.383 -0.2208 -0.4877  0.7582
  518TMC3    C7 7701   0.134   2.671  17.448  0.7869  0.1374 -0.2098
  518TMC3    C8 7702   4.502   2.361  17.506 -1.0219 -0.0390 -0.0699
  518TMC3    O1 7703   0.174   2.779  17.492 -0.0191 -0.1002 -0.1593
  518TMC3    O2 7704   4.578   2.282  17.450  0.1862  0.2045  0.2533
  519MPD2     C 7705   1.619   1.379  14.039 -0.0535  0.2647  0.3609
  519MPD2    C1 7706   1.546   1.322  13.931 -0.6909 -0.4847  0.6723
  519MPD2    C2 7707   1.587   1.204  13.871  0.1364 -0.5972  0.6876
  519MPD2    C3 7708   1.697   1.138  13.930 -0.2802 -0.3880 -0.2352
  519MPD2    C4 7709   1.770   1.193  14.033  0.2623  0.2104 -0.9473
  519MPD2    C5 7710   1.728   1.315  14.085  0.2847  0.0161  0.2591
  519MPD2     H 7711   1.529   1.162  13.789  1.5835 -2.6990  0.7559
  519MPD2    H1 7712   1.841   1.129  14.083 -0.3750  0.0622 -0.2369
  519MPD2    H2 7713   1.591   1.477  14.078 -2.7994  0.7078 -2.6759
  519MPD2    H3 7714   1.790   1.352  14.166 -0.5081  0.8586  0.4880
  519MPD2     N 7715   1.746   1.012  13.888  0.3842  0.2260  0.4538
  519MPD2    H5 7716   1.832   0.987  13.935  0.4872 -2.4751 -1.1557
  519MPD2    N1 7717   1.432   1.390  13.887 -0.5018  0.3585  0.3356
  519MPD2    H7 7718   1.434   1.490  13.905  0.5641  0.3591  0.2384
  520TMC3    C1 7719   1.775   0.825  13.743 -0.4598  0.3568  0.4444
  520TMC3    C2 7720   1.700   0.734  13.670  0.4189  0.3797  0.0885
  520TMC3    C3 7721   1.777   0.630  13.621 -0.1533  0.2211 -0.2631
  520TMC3    C4 7722   1.908   0.809  13.780 -0.1170  0.4100 -0.0282
  520TMC3    C5 7723   1.961   0.685  13.760 -0.0043 -0.2978  0.6763
  520TMC3    C6 7724   1.895   0.600  13.679 -0.1921 -0.9715 -0.2115
  520TMC3     C 7725   1.695   0.931  13.795 -0.2258 -0.2347  0.4254
  520TMC3     O 7726   1.578   0.933  13.760 -0.7980 -0.7780 -0.2194
  520TMC3     H 7727   1.607   0.757  13.621 -0.9175 -3.9022  0.6542
  520TMC3    H1 7728   1.955   0.874  13.852  0.9567  0.3824 -0.7057
  520TMC3    H2 7729   1.953   0.512  13.653  0.4545 -0.3512 -0.8401
  520TMC3    C7 7730   2.099   0.663  13.790  0.1491 -0.3920 -0.1261
  520TMC3    C8 7731   1.748   0.559  13.496  0.8237  0.0064 -0.0649
  520TMC3    O1 7732   2.128   0.545  13.803 -0.5081  0.2143  0.1919
  520TMC3    O2 7733   1.843   0.498  13.449  0.0049  0.0012 -0.5386
  521MPD2     C 7734   2.399   4.223  17.407  0.3848 -0.1440  1.0786
  521MPD2    C1 7735   2.394   4.175  17.276  0.2311 -0.0857  0.0806
  521MPD2    C2 7736   2.499   4.099  17.233 -0.4455  0.1900  0.7218
  521MPD2    C3 7737   2.607   4.075  17.311 -0.6111  0.5132 -0.2933
  521MPD2    C4 7738   2.609   4.121  17.442 -0.0762  0.0003  0.0108
  521MPD2    C5 7739   2.500   4.193  17.492 -0.3871 -0.8232 -0.6864
  521MPD2     H 7740   2.512   4.055  17.134  0.0798  0.9068  0.4721
  521MPD2    H1 7741   2.692   4.101  17.508 -1.5485 -1.1500  1.5295
  521MPD2    H2 7742   2.312   4.272  17.448 -0.9912 -2.4672  0.9003
  521MPD2    H3 7743   2.492   4.228  17.594  0.7620 -0.7967 -0.6083
  521MPD2     N 7744   2.715   4.007  17.254 -0.1264  0.6989 -0.0412
  521MPD2    H5 7745   2.708   3.986  17.155 -0.5465 -0.8528  0.3158
  521MPD2    N1 7746   2.269   4.193  17.216 -0.9817  0.3093 -0.5994
  521MPD2    H7 7747   2.197   4.238  17.271  0.1373 -0.3706  1.4502
  522TMC3    C1 7748   2.934   3.929  17.218  0.9922  0.0989  0.0800
  522TMC3    C2 7749   3.022   3.824  17.247  0.3892  0.2144  0.3847
  522TMC3    C3 7750   3.099   3.783  17.143 -0.5165 -0.2704  0.4211
  522TMC3    C4 7751   2.934   3.996  17.097 -0.5302 -0.3018  0.4418
  522TMC3    C5 7752   3.013   3.946  16.995 -0.8217 -0.0207 -1.1852
  522TMC3    C6 7753   3.107   3.847  17.027  0.3887 -0.2231  0.6782
  522TMC3     C 7754   2.837   3.966  17.319  0.1408 -0.2592 -0.8690
  522TMC3     O 7755   2.872   3.951  17.436 -0.5863 -0.0730  0.4080
  522TMC3     H 7756   3.021   3.768  17.340 -1.7208  0.8897  0.7696
  522TMC3    H1 7757   2.882   4.090  17.091 -0.1691 -0.0819  0.7453
  522TMC3    H2 7758   3.161   3.791  16.951 -1.9163 -0.8539 -0.4850
  522TMC3    C7 7759   3.024   4.016  16.872  0.0810 -0.4583  0.6847
  522TMC3    C8 7760   3.212   3.692  17.178  0.0159  0.2589  0.3781
  522TMC3    O1 7761   3.126   4.006  16.809 -0.1214  0.2170 -0.4902
  522TMC3    O2 7762   3.200   3.627  17.280 -0.4820 -0.1034  0.4956
  523MPD2     C 7763   0.668   3.569  10.210  0.0482  0.6833 -0.0786
  523MPD2    C1 7764   0.626   3.487  10.109  0.6652 -0.1667 -0.5323
  523MPD2    C2 7765   0.595   3.538   9.984 -0.1200 -0.2794  0.0536
  523MPD2    C3 7766   0.626   3.670   9.961  0.0653  0.1450 -0.2658
  523MPD2    C4 7767   0.664   3.746  10.062 -0.0017  0.0160 -0.1029
  523MPD2    C5 7768   0.682   3.702  10.191 -0.3473 -0.3557 -0.2557
  523MPD2     H 7769   0.549   3.480   9.905 -0.2142 -0.4617  0.2442
  523MPD2    H1 7770   0.675   3.853  10.045  0.9412  0.1692  1.4582
  523MPD2    H2 7771   0.695   3.527  10.307  1.4845  1.8734  0.0434
  523MPD2    H3 7772   0.714   3.779  10.260 -0.2205  0.8494 -1.6531
  523MPD2     N 7773   0.622   3.728   9.829 -0.6395 -0.4710 -0.1413
  523MPD2    H5 7774   0.629   3.829   9.834 -1.0802 -0.6060  3.1920
  523MPD2    N1 7775   0.608   3.348  10.149  0.2920 -0.1220  0.1889
  523MPD2    H7 7776   0.616   3.329  10.248 -2.1943 -0.1320  0.3892
  524TMC3    C1 7777   0.571   3.744   9.600 -0.3515  0.0772  0.5198
  524TMC3    C2 7778   0.497   3.695   9.497 -0.4511  0.9662  0.2981
  524TMC3    C3 7779   0.432   3.789   9.425 -0.0032  0.6253  0.6149
  524TMC3    C4 7780   0.592   3.883   9.618 -0.5155  0.4443 -0.3323
  524TMC3    C5 7781   0.531   3.970   9.533 -0.2575  0.3392  0.5213
  524TMC3    C6 7782   0.450   3.928   9.430 -0.1182  0.0910 -0.1623
  524TMC3     C 7783   0.609   3.662   9.709 -0.6007 -0.7556  0.0408
  524TMC3     O 7784   0.573   3.543   9.694 -0.3785 -0.3329 -0.6040
  524TMC3     H 7785   0.452   3.597   9.503 -1.2731  1.2591 -1.1724
  524TMC3    H1 7786   0.655   3.917   9.699  0.5211  0.8093 -1.2905
  524TMC3    H2 7787   0.410   3.997   9.357  1.4572  0.6881 -0.4566
  524TMC3    C7 7788   0.555   4.116   9.548 -0.1331  0.3803  0.1261
  524TMC3    C8 7789   0.373   3.750   9.302 -0.0666 -0.2900 -0.1139
  524TMC3    O1 7790   0.662   4.143   9.598  0.0782  0.3112 -0.6660
  524TMC3    O2 7791   0.300   3.829   9.242 -0.0893  0.2140 -0.5485
  525MPD2     C 7792   3.016   0.761  14.278  0.2502  0.2725 -0.0090
  525MPD2    C1 7793   3.145   0.781  14.323  0.2654 -0.1490  0.0632
  525MPD2    C2 7794   3.206   0.905  14.290 -0.1175 -0.5714 -0.0681
  525MPD2    C3 7795   3.136   1.012  14.225 -0.7492 -0.4276 -0.4235
  525MPD2    C4 7796   3.005   0.984  14.191  0.1723  0.2131  0.4562
  525MPD2    C5 7797   2.952   0.857  14.206 -0.2004  1.0157  0.3240
  525MPD2     H 7798   3.306   0.926  14.329 -0.5471  0.1304  0.6623
  525MPD2    H1 7799   2.939   1.059  14.150 -1.6030 -1.9104 -0.5543
  525MPD2    H2 7800   2.953   0.674  14.294  0.6860  0.0902  0.7381
  525MPD2    H3 7801   2.853   0.836  14.165  0.5191 -0.3327 -0.7065
  525MPD2     N 7802   3.190   1.148  14.207 -0.1392 -0.8560  0.1670
  525MPD2    H5 7803   3.121   1.217  14.179 -0.4170 -1.3715 -0.4043
  525MPD2    N1 7804   3.200   0.695  14.417  0.7426  0.1696 -0.3059
  525MPD2    H7 7805   3.300   0.712  14.431  0.3261  1.5621  1.0292
  526TMC3    C1 7806   3.218   0.552  14.596 -1.0024 -0.5439  0.3100
  526TMC3    C2 7807   3.162   0.549  14.722 -0.0857 -0.1137 -0.0270
  526TMC3    C3 7808   3.243   0.508  14.823  0.2522  0.4622  0.5327
  526TMC3    C4 7809   3.348   0.514  14.567 -0.6189  0.3630  0.3370
  526TMC3    C5 7810   3.416   0.464  14.677 -0.8695  0.3014 -0.6141
  526TMC3    C6 7811   3.367   0.469  14.806  0.2420  0.6944 -1.0389
  526TMC3     C 7812   3.133   0.611  14.491 -0.7528 -0.3080  0.1984
  526TMC3     O 7813   3.014   0.608  14.510  0.2271  0.0837  0.1645
  526TMC3     H 7814   3.062   0.588  14.739 -0.2061  0.6119 -2.4312
  526TMC3    H1 7815   3.380   0.531  14.465  1.7059  0.2083  1.0436
  526TMC3    H2 7816   3.423   0.417  14.884  2.9010 -1.0866 -4.1499
  526TMC3    C7 7817   3.556   0.429  14.659 -0.6613  0.9814 -0.3706
  526TMC3    C8 7818   3.205   0.535  14.963 -0.0037  0.6202  0.2253
  526TMC3    O1 7819   3.627   0.413  14.761  0.1835 -0.2080  0.6828
  526TMC3    O2 7820   3.291   0.544  15.047  0.2494 -0.9812  0.3395
  527MPD2     C 7821   1.444   3.907   1.366  0.9434  0.4898  0.7466
  527MPD2    C1 7822   1.487   3.773   1.374 -0.9042 -0.4887  0.0594
  527MPD2    C2 7823   1.593   3.742   1.293  0.3968 -1.0337 -0.4250
  527MPD2    C3 7824   1.671   3.832   1.217 -0.1551 -0.1532  0.4981
  527MPD2    C4 7825   1.629   3.959   1.226 -0.3922  0.2542  0.3142
  527MPD2    C5 7826   1.520   3.997   1.295 -0.4764 -0.0206  0.9243
  527MPD2     H 7827   1.619   3.637   1.293 -1.5718 -1.5265  0.4709
  527MPD2    H1 7828   1.682   4.042   1.182  1.5033 -0.6956  0.7952
  527MPD2    H2 7829   1.356   3.940   1.420  0.9576 -0.5152  1.3782
  527MPD2    H3 7830   1.492   4.102   1.298  3.4906  1.0550  0.4832
  527MPD2     N 7831   1.787   3.790   1.147  0.7422 -0.3304 -0.4355
  527MPD2    H5 7832   1.817   3.694   1.162  0.7774  0.0931  2.2211
  527MPD2    N1 7833   1.431   3.672   1.458  0.0744  0.0807 -0.0557
  527MPD2    H7 7834   1.479   3.584   1.442  0.2346  0.4857 -1.7776
  528TMC3    C1 7835   1.283   3.577   1.616 -0.3545 -0.1653  0.3642
  528TMC3    C2 7836   1.373   3.494   1.676 -0.6534 -0.4360 -0.4140
  528TMC3    C3 7837   1.330   3.398   1.762  0.0863  0.1447  0.5861
  528TMC3    C4 7838   1.151   3.582   1.659  0.0782 -0.2251  0.4328
  528TMC3    C5 7839   1.111   3.488   1.756 -0.0284 -0.1714 -0.2551
  528TMC3    C6 7840   1.201   3.394   1.810  0.0703  0.1523 -0.2014
  528TMC3     C 7841   1.324   3.689   1.542  0.0002  1.2750 -0.0957
  528TMC3     O 7842   1.256   3.788   1.555  0.1752  0.7401 -0.0209
  528TMC3     H 7843   1.480   3.497   1.658 -0.4857  1.0811  0.7677
  528TMC3    H1 7844   1.085   3.658   1.618 -0.3750 -1.9219 -1.9802
  528TMC3    H2 7845   1.157   3.334   1.888  0.6809 -0.4449 -0.3195
  528TMC3    C7 7846   0.979   3.483   1.802  1.3212 -0.2724 -0.6120
  528TMC3    C8 7847   1.430   3.341   1.844  0.3660 -0.0756 -0.8118
  528TMC3    O1 7848   0.942   3.392   1.877 -0.0657  0.2563  0.1855
  528TMC3    O2 7849   1.542   3.385   1.845  0.0641 -0.0727  0.1141
  529MPD2     C 7850   4.154   2.083   0.557  0.3684 -0.5007 -0.0466
  529MPD2    C1 7851   4.124   1.969   0.488 -1.3080  0.2981 -0.1778
  529MPD2    C2 7852   4.028   1.977   0.388  0.1921  0.0490 -0.1615
  529MPD2    C3 7853   3.963   2.093   0.353  0.0466 -0.5545 -0.1999
  529MPD2    C4 7854   3.995   2.210   0.415 -0.9548 -0.1058  0.2327
  529MPD2    C5 7855   4.081   2.198   0.526  0.2927  0.3606 -0.6775
  529MPD2     H 7856   4.015   1.886   0.330  0.2102 -0.6859  1.0009
  529MPD2    H1 7857   3.944   2.304   0.395  1.8536  1.2784 -0.5488
  529MPD2    H2 7858   4.224   2.083   0.640  0.5142  0.6481 -0.1698
  529MPD2    H3 7859   4.108   2.287   0.582 -1.7301  0.8218 -0.4423
  529MPD2     N 7860   3.880   2.106   0.240 -0.5565  0.2520  0.5615
  529MPD2    H5 7861   3.847   2.199   0.218  1.3805  1.4746  2.8908
  529MPD2    N1 7862   4.188   1.847   0.512  0.1820 -0.5167 -0.3342
  529MPD2    H7 7863   4.151   1.767   0.462 -2.3283 -0.1513  0.9398
  530TMC3    C1 7864   4.299   1.688   0.651 -0.0844  0.3819 -0.7293
  530TMC3    C2 7865   4.398   1.659   0.738 -0.1704  0.1108  0.2116
  530TMC3    C3 7866   4.398   1.537   0.798  0.9478 -0.1678 -0.1569
  530TMC3    C4 7867   4.201   1.600   0.621  0.3835  0.1658 -0.3102
  530TMC3    C5 7868   4.205   1.483   0.682  0.0173 -0.2492 -0.0868
  530TMC3    C6 7869   4.307   1.440   0.765 -0.0716  0.6814 -0.1415
  530TMC3     C 7870   4.292   1.823   0.598  0.0438 -0.2257  0.0506
  530TMC3     O 7871   4.377   1.895   0.646 -0.6503 -0.5065  0.4351
  530TMC3     H 7872   4.480   1.729   0.751 -0.7402  1.3383 -2.8512
  530TMC3    H1 7873   4.120   1.609   0.549  0.4064 -0.3336 -0.4038
  530TMC3    H2 7874   4.304   1.338   0.802  0.0408  0.8704  0.3792
  530TMC3    C7 7875   4.105   1.383   0.650 -0.0605 -0.2045 -0.1638
  530TMC3    C8 7876   4.509   1.496   0.876  0.3191 -0.2768  0.9034
  530TMC3    O1 7877   4.155   1.273   0.657  0.1765  0.5781 -0.4245
  530TMC3    O2 7878   4.544   1.379   0.864 -0.2749 -0.2353 -0.1371
  531MPD2     C 7879   2.599   4.320  12.983  0.2628  0.7120  0.5449
  531MPD2    C1 7880   2.635   4.449  13.007 -0.1248 -0.3158 -0.0074
  531MPD2    C2 7881   2.638   4.533  12.897  0.8255 -0.1128 -0.7032
  531MPD2    C3 7882   2.627   4.480  12.767  0.3422 -0.6015  0.5713
  531MPD2    C4 7883   2.583   4.351  12.742  0.8704  0.2873 -0.1831
  531MPD2    C5 7884   2.571   4.276  12.857  0.4437 -0.7999  0.4151
  531MPD2     H 7885   2.661   4.638  12.907 -1.4156  0.4911 -2.0510
  531MPD2    H1 7886   2.560   4.310  12.645  1.0922  0.0066 -0.1197
  531MPD2    H2 7887   2.589   4.247  13.062 -0.2896  1.8099  1.4790
  531MPD2    H3 7888   2.525   4.181  12.833 -1.8477  0.3639  0.1219
  531MPD2     N 7889   2.664   4.571  12.661  0.4140 -0.0010  0.2526
  531MPD2    H5 7890   2.708   4.659  12.687  2.3883 -0.6187 -0.9976
  531MPD2    N1 7891   2.660   4.496  13.134  0.0094 -0.3552 -0.9771
  531MPD2    H7 7892   2.644   4.435  13.213  0.0660  0.4553 -0.3389
  532TMC3    C1 7893   2.711   4.656  13.302  0.1665  0.5614 -0.3326
  532TMC3    C2 7894   2.700   0.064  13.309  0.0481 -0.0001  0.1108
  532TMC3    C3 7895   2.796   0.136  13.378  0.0620  1.0866  0.0833
  532TMC3    C4 7896   2.812   4.591  13.366 -0.5754  0.2379  0.2211
  532TMC3    C5 7897   2.893   4.663  13.446  0.1982  0.1636 -0.3520
  532TMC3    C6 7898   2.892   0.070  13.447  0.4051 -0.6147 -0.7692
  532TMC3     C 7899   2.693   4.625  13.166  0.4810  0.3401  0.4606
  532TMC3     O 7900   2.724   4.720  13.096 -0.0315  0.2009 -0.4337
  532TMC3     H 7901   2.627   0.111  13.243 -0.9080  1.2214  2.0531
  532TMC3    H1 7902   2.840   4.487  13.354  0.3298  0.4402  0.5521
  532TMC3    H2 7903   2.971   0.119  13.502  0.5119 -1.7064  0.0658
  532TMC3    C7 7904   3.009   4.604  13.505 -0.0796 -0.6775  0.3949
  532TMC3    C8 7905   2.856   0.253  13.311 -0.1757 -0.5960 -0.3980
  532TMC3    O1 7906   3.059   4.667  13.596 -0.4121  0.4483  0.2523
  532TMC3    O2 7907   2.904   0.341  13.385  0.0801 -0.0250 -1.0843
  533TMC3    C1 7908   3.331   1.342  14.245 -0.0589  0.2513 -0.4073
  533TMC3    C2 7909   3.465   1.378  14.264  0.6473  0.2405  0.7237
  533TMC3    C3 7910   3.484   1.500  14.334  0.3643 -0.0475  0.0253
  533TMC3    C4 7911   3.224   1.409  14.301  0.2450 -0.1431 -0.3230
  533TMC3    C5 7912   3.254   1.528  14.371  0.3414  0.5854  0.3404
  533TMC3    C6 7913   3.379   1.570  14.379 -0.0293  0.4107  0.4166
  533TMC3     C 7914   3.320   1.194  14.227 -0.5815 -0.4269 -0.4744
  533TMC3     O 7915   3.423   1.128  14.248 -0.4090  0.2113 -0.1694
  533TMC3     H 7916   3.544   1.306  14.250 -0.7375 -1.4125  1.4503
  533TMC3    H1 7917   3.128   1.359  14.315  1.2938 -1.9516  0.3522
  533TMC3    H2 7918   3.396   1.664  14.431 -0.0983  0.0809  1.0339
  533TMC3    C7 7919   3.181   1.532  14.495  0.1780  0.0570  0.2562
  533TMC3    C8 7920   3.607   1.525  14.408  0.1962  0.0507  0.1872
  533TMC3    O1 7921   3.081   1.456  14.503 -0.4937 -0.2050 -0.2240
  533TMC3    O2 7922   3.615   1.629  14.471 -0.2853  0.6620  0.0909
  534MPD2     C 7923   1.086   2.395   1.642 -0.0406  0.1510 -0.0353
  534MPD2    C1 7924   1.105   2.512   1.565 -0.3773 -0.0593 -0.3427
  534MPD2    C2 7925   1.059   2.513   1.432 -0.5613  0.2429  0.8933
  534MPD2    C3 7926   0.997   2.399   1.383 -0.3668 -0.1094  0.5490
  534MPD2    C4 7927   0.988   2.281   1.452  0.8483 -0.4815  0.2728
  534MPD2    C5 7928   1.030   2.284   1.583  0.2715  0.0500  0.7193
  534MPD2     H 7929   1.076   2.597   1.366  2.5901 -2.2782 -1.5309
  534MPD2    H1 7930   0.946   2.191   1.410 -1.1507  0.9558 -0.7981
  534MPD2    H2 7931   1.117   2.390   1.745  0.1065 -0.0885 -0.0889
  534MPD2    H3 7932   1.023   2.193   1.642  4.0988 -0.2738  0.6563
  534MPD2     N 7933   0.956   2.385   1.250  0.1785 -0.1094 -0.1253
  534MPD2    H5 7934   0.925   2.299   1.207 -3.1942  0.4297  1.1969
  534MPD2    N1 7935   1.185   2.627   1.607  0.1425 -0.3767  0.8738
  534MPD2    H7 7936   1.216   2.697   1.540  0.3874  0.6783  2.0689
  535TMC3    C1 7937   0.888   2.453   1.031 -0.1356 -0.1342 -0.1660
  535TMC3    C2 7938   0.790   2.352   1.032 -0.4960 -0.4479  0.1657
  535TMC3    C3 7939   0.757   2.310   0.905  0.4379  0.4028  0.1446
  535TMC3    C4 7940   0.942   2.506   0.920  0.4259 -0.1839  0.3744
  535TMC3    C5 7941   0.915   2.448   0.801  0.1080  0.0741  0.1416
  535TMC3    C6 7942   0.828   2.340   0.792 -0.1128  0.5941  0.5963
  535TMC3     C 7943   0.943   2.491   1.156  0.2622 -0.8985 -0.6538
  535TMC3     O 7944   0.965   2.608   1.172 -0.2657  0.2886  0.3351
  535TMC3     H 7945   0.749   2.310   1.124  0.6405 -0.6437  0.5820
  535TMC3    H1 7946   1.014   2.585   0.929 -0.2583  0.5444 -0.5638
  535TMC3    H2 7947   0.809   2.303   0.692  0.7211  1.1258  0.2367
  535TMC3    C7 7948   0.973   2.503   0.677  0.1473  0.5958 -0.1383
  535TMC3    C8 7949   0.674   2.191   0.887 -0.2108 -0.7716  0.3038
  535TMC3    O1 7950   0.977   2.436   0.575  0.1877  0.5628  0.6356
  535TMC3    O2 7951   0.601   2.179   0.788 -0.2100  0.3806 -0.4136
  536MPD2     C 7952   0.185   0.868  16.727 -0.1670 -0.6100 -0.2237
  536MPD2    C1 7953   0.140   0.736  16.708  0.3824 -0.0683  0.5195
  536MPD2    C2 7954   0.068   0.719  16.592  0.2656  0.2047 -0.3911
  536MPD2    C3 7955   0.047   0.825  16.495  0.2512 -0.6825 -0.1362
  536MPD2    C4 7956   0.094   0.947  16.516  0.2087 -0.3606  0.4234
  536MPD2    C5 7957   0.153   0.969  16.636  0.0583  0.3823  0.2191
  536MPD2     H 7958   0.031   0.618  16.582  0.9184  0.0216 -0.9576
  536MPD2    H1 7959   0.069   1.035  16.458 -2.9084 -1.0261  0.7119
  536MPD2    H2 7960   0.236   0.891  16.819 -2.0172  0.4413  0.5383
  536MPD2    H3 7961   0.181   1.071  16.661 -0.4691  0.4446  0.5712
  536MPD2     N 7962   4.694   0.804  16.379  0.2765  0.2891  0.7729
  536MPD2    H5 7963   4.681   0.881  16.314 -1.5595  0.9402  1.9033
  536MPD2    N1 7964   0.150   0.636  16.809  0.2843 -0.3181 -0.5002
  536MPD2    H7 7965   0.185   0.679  16.894  0.5628  2.4609 -2.0185
  537TMC3    C1 7966   0.146   0.429  16.939  0.3995 -0.2115 -0.2753
  537TMC3    C2 7967   0.192   0.508  17.043  0.4823 -0.5249 -0.2784
  537TMC3    C3 7968   0.176   0.457  17.168  0.4774  1.0329  0.5266
  537TMC3    C4 7969   0.075   0.313  16.961  0.2359 -0.0236  0.2114
  537TMC3    C5 7970   0.061   0.260  17.087 -0.3308  0.0390  0.5572
  537TMC3    C6 7971   0.114   0.334  17.194  0.6941  0.0555  0.3502
  537TMC3     C 7972   0.114   0.500  16.812 -0.0859  0.2329 -0.2958
  537TMC3     O 7973   0.084   0.438  16.712 -0.2009  0.2069 -0.2480
  537TMC3     H 7974   0.254   0.597  17.037  1.1337 -0.9048  0.8091
  537TMC3    H1 7975   0.054   0.249  16.876 -1.7003 -3.1498  3.0544
  537TMC3    H2 7976   0.117   0.293  17.295 -0.6220 -3.8441 -1.1881
  537TMC3    C7 7977   0.052   0.119  17.095  0.0087  0.4772 -0.2051
  537TMC3    C8 7978   0.233   0.540  17.280  0.4617 -0.1405  0.4936
  537TMC3    O1 7979   0.044   0.048  16.994 -0.1691  0.0111 -0.1967
  537TMC3    O2 7980   0.245   0.483  17.386  0.5991 -0.2691 -0.2142
  538TMC3    C1 7981   1.006   3.290  10.812  0.3054 -0.1752 -0.3702
  538TMC3    C2 7982   1.021   3.219  10.696  0.0266  0.3003 -0.1196
  538TMC3    C3 7983   0.976   3.268  10.572  0.1086 -0.2932  0.7842
  538TMC3    C4 7984   0.945   3.415  10.805  0.7428 -0.7269 -0.0268
  538TMC3    C5 7985   0.905   3.458  10.683  0.5102 -0.2687 -0.2290
  538TMC3    C6 7986   0.915   3.389  10.565  0.6033 -0.0846  0.4445
  538TMC3     C 7987   1.004   3.218  10.940  0.2328 -0.5024  0.2994
  538TMC3     O 7988   0.928   3.258  11.027  0.2772 -0.3520  0.2381
  538TMC3     H 7989   1.045   3.113  10.698  1.0736  0.5146 -1.0476
  538TMC3    H1 7990   0.926   3.464  10.900  0.7697  1.0017 -0.9051
  538TMC3    H2 7991   0.889   3.430  10.468  1.9627 -0.5101 -0.0993
  538TMC3    C7 7992   0.799   3.557  10.682 -0.2831 -0.1178  0.3435
  538TMC3    C8 7993   1.046   3.236  10.450  0.0754 -0.0063 -0.1553
  538TMC3    O1 7994   0.708   3.531  10.606 -0.0811  0.1013  0.4776
  538TMC3    O2 7995   0.988   3.246  10.341 -0.0503  0.1748  0.4375
  539MPD2     C 7996   0.681   2.402  11.921 -0.1773 -0.0494  0.1983
  539MPD2    C1 7997   0.661   2.428  11.788  0.0236  0.4735 -0.4028
  539MPD2    C2 7998   0.681   2.555  11.740 -0.2315 -0.2065  0.3322
  539MPD2    C3 7999   0.682   2.664  11.831 -0.1888 -0.5529 -0.3157
  539MPD2    C4 8000   0.691   2.637  11.963 -0.0523 -0.2112 -0.9106
  539MPD2    C5 8001   0.689   2.506  12.009  0.0055  0.0968  0.0742
  539MPD2     H 8002   0.676   2.569  11.633  1.8078 -3.2704 -0.1576
  539MPD2    H1 8003   0.688   2.726  12.025 -2.2117  1.4580 -3.4380
  539MPD2    H2 8004   0.673   2.299  11.952  0.8228  0.1282  1.0584
  539MPD2    H3 8005   0.680   2.474  12.112 -0.5202 -0.3303 -0.1056
  539MPD2     N 8006   0.669   2.801  11.790  0.3106  0.2138  0.0959
  539MPD2    H5 8007   0.688   2.864  11.867 -0.6964  2.5179 -1.5625
  539MPD2    N1 8008   0.631   2.321  11.700  0.3288  0.6429  0.0733
  539MPD2    H7 8009   0.623   2.341  11.601  2.9528  2.4505  0.2332
  540TMC3    C1 8010   0.627   2.997  11.661  0.6667  0.0372  0.5946
  540TMC3    C2 8011   0.611   3.063  11.542  0.0072 -0.3605 -0.8952
  540TMC3    C3 8012   0.561   3.191  11.550  0.4710  0.2433 -0.0703
  540TMC3    C4 8013   0.590   3.050  11.784 -0.9588  0.8755  0.1424
  540TMC3    C5 8014   0.555   3.183  11.783  0.2620  1.1519 -0.1347
  540TMC3    C6 8015   0.540   3.251  11.665 -0.5613 -0.4997 -0.3243
  540TMC3     C 8016   0.641   2.851  11.667 -0.8477  0.2419  0.2724
  540TMC3     O 8017   0.622   2.793  11.565 -0.2986  0.1585  0.0721
  540TMC3     H 8018   0.629   2.997  11.457  0.1711  0.1061 -1.2268
  540TMC3    H1 8019   0.572   2.996  11.876 -1.0591  2.0760  0.8260
  540TMC3    H2 8020   0.489   3.347  11.674  1.1399  0.4669 -1.0413
  540TMC3    C7 8021   0.474   3.229  11.893 -0.0313  0.4004 -0.1058
  540TMC3    C8 8022   0.526   3.263  11.437 -0.9864  0.4157  0.7037
  540TMC3    O1 8023   0.419   3.144  11.961 -0.5269 -0.5423  0.2069
  540TMC3    O2 8024   0.516   3.383  11.455  0.5155  0.6963  0.1641
  541MPD2     C 8025   3.451   4.173  12.964 -0.2374  0.0954  0.7551
  541MPD2    C1 8026   3.570   4.148  12.908  0.0165 -0.3151 -0.2923
  541MPD2    C2 8027   3.624   4.249  12.834  0.4444 -0.3007  0.8319
  541MPD2    C3 8028   3.574   4.374  12.832 -0.0285  0.2636 -0.2571
  541MPD2    C4 8029   3.465   4.402  12.912 -0.1400 -0.3298  0.7478
  541MPD2    C5 8030   3.408   4.298  12.975  0.6877  0.1553 -0.5059
  541MPD2     H 8031   3.719   4.235  12.785 -1.6924 -0.2603 -3.3614
  541MPD2    H1 8032   3.419   4.500  12.914  0.7128  0.0391  2.4836
  541MPD2    H2 8033   3.412   4.096  13.030 -0.2200 -0.4053  0.1829
  541MPD2    H3 8034   3.320   4.318  13.036  0.1287 -1.7618 -0.6724
  541MPD2     N 8035   3.640   4.480  12.769  0.1221 -0.1172  0.0266
  541MPD2    H5 8036   3.586   4.567  12.765 -0.8959 -0.6769  1.5599
  541MPD2    N1 8037   3.626   4.021  12.926  0.0784 -0.1001 -0.2298
  541MPD2    H7 8038   3.568   3.950  12.970 -0.2607  1.0335  1.1286
  542TMC3    C1 8039   3.796   4.586  12.642  0.6793  0.1892  0.0982
  542TMC3    C2 8040   3.700   4.617  12.544 -0.4544 -0.3885  0.3298
  542TMC3    C3 8041   3.751   4.682  12.431  0.9056 -0.3626 -0.8538
  542TMC3    C4 8042   3.926   4.623  12.639  0.3357  0.1737 -1.0132
  542TMC3    C5 8043   3.962   4.705  12.536  0.0851  0.1438  0.1949
  542TMC3    C6 8044   3.880   0.006  12.427  0.0553  0.0993  0.3815
  542TMC3     C 8045   3.771   4.482  12.729 -0.3380 -0.2629 -0.4836
  542TMC3     O 8046   3.863   4.403  12.753  0.2353  0.5261  0.4333
  542TMC3     H 8047   3.594   4.594  12.545 -0.2065 -1.6185 -0.5076
  542TMC3    H1 8048   3.996   4.602  12.718 -0.1615 -0.6868 -0.8094
  542TMC3    H2 8049   3.910   0.070  12.346 -1.8824 -0.8728 -1.1055
  542TMC3    C7 8050   4.055   0.078  12.572 -0.7490 -0.6098  0.0154
  542TMC3    C8 8051   3.661   4.727  12.333 -0.0295 -0.5118  0.0284
  542TMC3    O1 8052   4.162   0.043  12.623  0.3062 -0.6352  0.0730
  542TMC3    O2 8053   3.553   0.022  12.373  0.2498  0.0749  0.3220
  543TMC3    C1 8054   2.701   0.835  16.906  0.5310  0.0451 -0.1593
  543TMC3    C2 8055   2.698   0.701  16.954  0.1237  0.2034 -0.5118
  543TMC3    C3 8056   2.624   0.682  17.069 -0.1367 -0.2554 -0.3103
  543TMC3    C4 8057   2.646   0.937  16.980 -0.7313  0.3694 -0.5156
  543TMC3    C5 8058   2.594   0.910  17.100 -0.3251  0.2862 -0.8032
  543TMC3    C6 8059   2.579   0.788  17.142  0.3462 -0.0245  0.1509
  543TMC3     C 8060   2.795   0.869  16.806 -0.1405  0.2913 -0.1404
  543TMC3     O 8061   2.881   0.780  16.792 -0.0442 -0.8654 -0.2699
  543TMC3     H 8062   2.741   0.626  16.889  1.0989  0.4670 -0.1761
  543TMC3    H1 8063   2.651   1.040  16.949  0.3692  1.2243  2.4737
  543TMC3    H2 8064   2.567   0.765  17.247  0.1318  1.2666  0.4070
  543TMC3    C7 8065   2.535   1.022  17.174 -0.0838 -0.5664  0.7706
  543TMC3    C8 8066   2.611   0.545  17.107  0.1637 -0.5365  0.5585
  543TMC3    O1 8067   2.556   1.136  17.132 -0.2815  0.2971  0.2256
  543TMC3    O2 8068   2.671   0.451  17.049 -0.4681 -0.1397 -0.0971
  544MPD2     C 8069   2.643   0.236  17.517  0.2383  0.1024 -0.1608
  544MPD2    C1 8070   2.726   0.248  17.403 -0.0707 -0.0854 -0.2933
  544MPD2    C2 8071   2.700   0.341  17.310 -0.2734  0.3989 -0.0332
  544MPD2    C3 8072   2.585   0.419  17.321  0.1389 -0.3659 -0.0417
  544MPD2    C4 8073   2.494   0.393  17.422 -0.8836 -0.0900  0.4454
  544MPD2    C5 8074   2.526   0.310  17.517  0.7089 -0.0379  0.2702
  544MPD2     H 8075   2.775   0.360  17.234 -2.3190  1.9045 -1.7036
  544MPD2    H1 8076   2.395   0.438  17.431 -0.0480  2.9757 -5.9422
  544MPD2    H2 8077   2.658   0.162  17.596 -1.0414  0.1551  0.1299
  544MPD2    H3 8078   2.460   0.306  17.603  0.0234 -2.1980 -0.3625
  544MPD2     N 8079   2.552   0.521  17.228 -0.8225  0.5288 -0.9223
  544MPD2    H5 8080   2.508   0.600  17.274  1.2191  0.1945  1.5979
  544MPD2    N1 8081   2.840   0.166  17.408  0.1900  0.7853 -0.4695
  544MPD2    H7 8082   2.855   0.111  17.491  0.9336 -0.6239 -1.5392
  545TMC3    C1 8083   3.027   0.051  17.338  0.3144 -0.5456 -0.7128
  545TMC3    C2 8084   3.151   0.060  17.272  0.1822 -0.2155 -0.2206
  545TMC3    C3 8085   3.237   4.685  17.308  0.0594  0.5900 -0.0449
  545TMC3    C4 8086   2.984   4.679  17.430 -0.0284 -0.2673  0.0479
  545TMC3    C5 8087   3.080   4.600  17.473  0.5412 -0.0415 -1.2497
  545TMC3    C6 8088   3.206   4.594  17.405 -0.5334  0.2120 -0.2801
  545TMC3     C 8089   2.929   0.153  17.303 -1.0838 -0.9506 -0.4878
  545TMC3     O 8090   2.932   0.202  17.192 -0.1580  0.1224 -0.3142
  545TMC3     H 8091   3.175   0.153  17.223 -2.6624  0.5752 -0.1438
  545TMC3    H1 8092   2.886   4.671  17.476 -0.9568  3.7247 -1.2368
  545TMC3    H2 8093   3.285   4.531  17.443 -1.6942  0.0215  1.8534
  545TMC3    C7 8094   3.068   4.572  17.615 -0.1903 -0.4349 -0.2725
  545TMC3    C8 8095   3.369   4.685  17.246 -0.2994 -0.6077 -0.7503
  545TMC3    O1 8096   2.998   4.648  17.679  0.0291  0.3613 -0.1492
  545TMC3    O2 8097   3.452   4.623  17.310  0.3827 -0.4538  1.1430
  546MPD2     C 8098   4.435   0.784   0.039  0.7182  0.5382 -0.3668
  546MPD2    C1 8099   4.346   0.854  17.673 -0.3425  0.3698 -0.1940
  546MPD2    C2 8100   4.376   0.985  17.643  0.1992  0.1095  1.0246
  546MPD2    C3 8101   4.500   1.042  17.670 -0.4948  0.1483 -0.4190
  546MPD2    C4 8102   4.594   0.966   0.030 -0.0946  0.1914  0.5408
  546MPD2    C5 8103   4.560   0.832   0.061  0.5964  0.2232  0.2785
  546MPD2     H 8104   4.311   1.049  17.584  1.3790  0.5598  0.2085
  546MPD2    H1 8105   4.679   1.017   0.074 -0.4736  0.6902  0.6991
  546MPD2    H2 8106   4.414   0.682   0.069 -0.3372  0.6996 -0.5541
  546MPD2    H3 8107   4.630   0.773   0.119  1.4231 -0.6685 -1.6316
  546MPD2     N 8108   4.529   1.177  17.632 -0.5410 -0.0933 -0.2934
  546MPD2    H5 8109   4.626   1.204  17.647 -0.3523 -0.7143 -0.3921
  546MPD2    N1 8110   4.222   0.798  17.643  0.0107  0.4977  0.0571
  546MPD2    H7 8111   4.210   0.704  17.680  0.4654  0.1947 -0.5722
  547TMC3    C1 8112   3.999   0.786  17.554  0.6351  0.1674 -0.0640
  547TMC3    C2 8113   3.935   0.797  17.442 -0.3690 -0.7362 -0.8778
  547TMC3    C3 8114   3.815   0.732  17.432 -0.9172 -0.1470  0.6458
  547TMC3    C4 8115   3.952   0.708  17.657 -0.0272 -0.1890  0.4290
  547TMC3    C5 8116   3.843   0.634  17.635 -0.5824 -0.4465 -0.0532
  547TMC3    C6 8117   3.772   0.642  17.524 -0.0229 -0.4866 -0.3226
  547TMC3     C 8118   4.123   0.864  17.569  0.5845 -0.4264  0.6530
  547TMC3     O 8119   4.127   0.972  17.511 -0.3251 -0.1186  0.1631
  547TMC3     H 8120   3.959   0.877  17.373 -1.1933  0.5925  0.3666
  547TMC3    H1 8121   3.994   0.714   0.046  0.0686 -1.6318  0.4629
  547TMC3    H2 8122   3.696   0.569  17.496 -2.6908  0.8633  3.3921
  547TMC3    C7 8123   3.789   0.563   0.042  0.8593  0.3121  0.2799
  547TMC3    C8 8124   3.739   0.770  17.311  0.1175 -0.1798 -0.1051
  547TMC3    O1 8125   3.853   0.568   0.144  0.0133  0.1299  0.2315
  547TMC3    O2 8126   3.809   0.819  17.221 -0.3336  0.2016 -0.0510
  548MPD2     C 8127   4.630   1.642  12.044 -0.6577 -0.2968  0.5702
  548MPD2    C1 8128   4.605   1.546  12.136  0.3487 -0.8943  0.6003
  548MPD2    C2 8129   4.688   1.436  12.145 -0.1050  0.4138  0.4421
  548MPD2    C3 8130   0.057   1.409  12.046  0.0174 -0.8700  0.2194
  548MPD2    C4 8131   0.074   1.508  11.953  0.0365  0.7891 -0.3143
  548MPD2    C5 8132   4.727   1.623  11.954 -0.4992  0.2525 -0.3553
  548MPD2     H 8133   4.676   1.355  12.216 -0.9553  0.5939  0.5041
  548MPD2    H1 8134   0.146   1.482  11.876  0.4098  1.1222 -0.0762
  548MPD2    H2 8135   4.564   1.727  12.031 -0.2985 -0.4033 -1.8644
  548MPD2    H3 8136   0.029   1.704  11.888  3.3397 -0.1395  0.8620
  548MPD2     N 8137   0.118   1.280  12.052  0.6968  0.0331 -0.8108
  548MPD2    H5 8138   0.088   1.220  12.128 -2.7594 -0.9779 -2.9943
  548MPD2    N1 8139   4.499   1.576  12.224  0.5402 -0.1835 -0.9767
  548MPD2    H7 8140   4.440   1.653  12.196 -0.1392 -1.5349 -3.2316
  549TMC3    C1 8141   4.307   1.513  12.361 -0.0255 -0.2367 -0.3995
  549TMC3    C2 8142   4.252   1.630  12.318 -0.0747 -0.3189 -0.6159
  549TMC3    C3 8143   4.115   1.620  12.313  0.1556  0.4700 -0.4771
  549TMC3    C4 8144   4.233   1.405  12.414 -0.2673 -0.8629 -0.8880
  549TMC3    C5 8145   4.097   1.406  12.389  0.7671 -0.2910  0.0735
  549TMC3    C6 8146   4.037   1.514  12.343 -0.0232 -0.5719 -0.4789
  549TMC3     C 8147   4.449   1.486  12.323  0.1882  0.1486  0.5156
  549TMC3     O 8148   4.503   1.389  12.375 -0.2245 -0.0388  0.1958
  549TMC3     H 8149   4.309   1.720  12.296 -2.4067  0.8948 -1.8068
  549TMC3    H1 8150   4.285   1.316  12.447 -0.8844 -0.6644  0.6178
  549TMC3    H2 8151   3.929   1.525  12.351  0.3057  2.1069  0.1935
  549TMC3    C7 8152   4.026   1.282  12.385 -0.6239 -0.3591  0.1291
  549TMC3    C8 8153   4.032   1.738  12.298  0.1226  0.4948  0.0290
  549TMC3    O1 8154   3.919   1.289  12.322  0.2590  0.0705  0.1111
  549TMC3    O2 8155   3.918   1.717  12.254  0.8504 -0.2412  0.2575
  550TMC3    C1 8156   3.145   3.953  12.226 -0.2642  0.6217  0.0347
  550TMC3    C2 8157   3.100   4.035  12.321 -0.1472 -0.1689  0.5985
  550TMC3    C3 8158   2.991   4.112  12.283  0.3681 -0.6763 -0.7053
  550TMC3    C4 8159   3.089   3.931  12.102  0.2284  0.3792 -0.1934
  550TMC3    C5 8160   2.980   4.007  12.067  0.1894  0.6198 -0.5078
  550TMC3    C6 8161   2.918   4.087  12.168 -0.7951  0.0835  0.1575
  550TMC3     C 8162   3.276   3.890  12.247  0.3659 -0.1377 -0.1499
  550TMC3     O 8163   3.309   3.854  12.360  0.1540 -0.0727  0.3275
  550TMC3     H 8164   3.165   4.065  12.402 -1.2693  2.3598  0.5665
  550TMC3    H1 8165   3.118   3.843  12.045  0.6330  1.2505 -1.3166
  550TMC3    H2 8166   2.835   4.151  12.138  0.5155  1.5397 -0.3370
  550TMC3    C7 8167   2.940   4.026  11.926 -0.1014  0.1867 -1.3534
  550TMC3    C8 8168   2.989   4.252  12.311  0.7336 -0.5375 -1.2423
  550TMC3    O1 8169   2.816   4.022  11.903  0.3668  0.4696  0.0988
  550TMC3    O2 8170   2.976   4.320  12.212  0.0506 -0.1851  0.4745
  551TMC3    C1 8171   0.643   2.063  13.032  0.4996 -0.4329  0.9726
  551TMC3    C2 8172   0.681   2.147  12.929 -0.6642 -0.9687 -0.3966
  551TMC3    C3 8173   0.754   2.250  12.956  0.2013 -0.3897 -0.1448
  551TMC3    C4 8174   0.675   2.094  13.162  0.5286  0.1281 -0.8107
  551TMC3    C5 8175   0.745   2.209  13.187  0.1899  0.5342  0.4403
  551TMC3    C6 8176   0.788   2.291  13.085  0.2269 -0.3512 -0.3919
  551TMC3     C 8177   0.596   1.929  12.989 -0.4658 -0.6874  0.4638
  551TMC3     O 8178   0.580   1.914  12.867  0.3552 -0.3504  0.1047
  551TMC3     H 8179   0.659   2.121  12.826  0.8577 -0.1668 -0.9205
  551TMC3    H1 8180   0.671   2.016  13.237 -2.6397 -1.8051 -2.9751
  551TMC3    H2 8181   0.824   2.389  13.113  0.0316 -0.6485  0.9063
  551TMC3    C7 8182   0.785   2.251  13.317  1.1438  0.6569  0.0021
  551TMC3    C8 8183   0.758   2.348  12.837  0.5976 -0.0835 -0.3797
  551TMC3    O1 8184   0.865   2.343  13.329 -0.3478 -0.3456  0.3117
  551TMC3    O2 8185   0.689   2.336  12.735  0.0594 -0.3724  0.3948
  552MPD2     C 8186   2.483   4.555  13.640 -0.6937  0.0322  0.6565
  552MPD2    C1 8187   2.501   4.452  13.731 -0.2460 -0.0023  0.1586
  552MPD2    C2 8188   2.604   4.451  13.820  0.3966 -0.3348  1.1123
  552MPD2    C3 8189   2.700   4.542  13.806 -0.2625  0.2231 -0.0540
  552MPD2    C4 8190   2.694   4.643  13.715 -0.7301 -0.2394 -0.4433
  552MPD2    C5 8191   2.583   4.649  13.633 -0.2353  0.0995 -0.3334
  552MPD2     H 8192   2.621   4.358  13.875  0.5766 -0.6735  0.4780
  552MPD2    H1 8193   2.772   4.717  13.695  0.9376 -1.3613  1.9759
  552MPD2    H2 8194   2.403   4.574  13.570 -0.5481 -0.8910  0.2458
  552MPD2    H3 8195   2.576   4.722  13.553 -1.1821 -0.9600 -1.2089
  552MPD2     N 8196   2.820   4.535  13.877 -0.0548  0.4320  0.8633
  552MPD2    H5 8197   2.901   4.589  13.848  1.5754 -3.0660 -1.0837
  552MPD2    N1 8198   2.413   4.343  13.744  0.1610 -0.1516  0.4625
  552MPD2    H7 8199   2.429   4.282  13.823 -1.5709  0.9029  1.6128
  553TMC3    C1 8200   2.325   4.155  13.660  0.3788  0.3631 -0.0829
  553TMC3    C2 8201   2.314   4.099  13.536 -0.1267 -0.2997 -0.0333
  553TMC3    C3 8202   2.393   3.984  13.512 -0.4004 -0.4232  0.0084
  553TMC3    C4 8203   2.408   4.104  13.756  0.2688  1.1055  0.1096
  553TMC3    C5 8204   2.492   3.997  13.727 -0.1658 -0.1435 -0.0688
  553TMC3    C6 8205   2.488   3.946  13.603 -0.0556 -0.8152  0.5713
  553TMC3     C 8206   2.331   4.295  13.645  0.2878  0.6050 -0.3372
  553TMC3     O 8207   2.302   4.337  13.536  0.7657 -0.4375 -0.0715
  553TMC3     H 8208   2.245   4.131  13.459  1.3692 -0.4703 -1.4377
  553TMC3    H1 8209   2.407   4.135  13.860 -0.3972  0.1526  0.3805
  553TMC3    H2 8210   2.550   3.860  13.581  2.3639  1.0087  0.2700
  553TMC3    C7 8211   2.632   4.009  13.771  0.7525  0.3933  0.3999
  553TMC3    C8 8212   2.415   3.967  13.372 -0.1739  0.1050 -1.2632
  553TMC3    O1 8213   2.683   3.916  13.833 -0.3311 -0.1970 -0.3341
  553TMC3    O2 8214   2.328   4.010  13.298 -0.4749  0.4039 -0.6539
  554TMC3    C1 8215   4.279   2.911  11.819  0.0859 -0.7847  0.8782
  554TMC3    C2 8216   4.160   2.888  11.755 -0.4642  0.3368  0.1668
  554TMC3    C3 8217   4.139   2.945  11.631  0.1151  0.1137 -0.0050
  554TMC3    C4 8218   4.371   2.995  11.768 -0.0461  1.0525 -0.6300
  554TMC3    C5 8219   4.344   3.060  11.645 -0.2833  0.4678 -0.4205
  554TMC3    C6 8220   4.226   3.032  11.572 -0.1554 -0.1862  0.0958
  554TMC3     C 8221   4.305   2.811  11.919  0.0041  0.3954 -0.2007
  554TMC3     O 8222   4.213   2.740  11.961 -0.4013 -0.2042 -0.8423
  554TMC3     H 8223   4.084   2.819  11.788 -0.5337 -0.0490 -0.7832
  554TMC3    H1 8224   4.466   3.011  11.819 -1.1040 -1.4959  2.1499
  554TMC3    H2 8225   4.199   3.093  11.486  0.0502 -1.7092 -1.0355
  554TMC3    C7 8226   4.450   3.134  11.571  0.3353 -0.4179 -0.4752
  554TMC3    C8 8227   4.018   2.895  11.557  0.0010 -0.6966  0.1408
  554TMC3    O1 8228   4.424   3.158  11.455 -0.4219 -0.7885 -0.0178
  554TMC3    O2 8229   3.920   2.860  11.625  0.0762 -0.5620 -0.0865
  555TMC3    C1 8230   4.014   2.984  14.929 -0.0888  0.1413 -0.0732
  555TMC3    C2 8231   4.144   3.001  14.967 -0.0163  0.3438 -0.0377
  555TMC3    C3 8232   4.198   2.921  15.067  0.2321 -0.6427  0.2526
  555TMC3    C4 8233   3.948   2.873  14.973  0.6707  0.1500  0.5191
  555TMC3    C5 8234   4.007   2.785  15.066  1.1027  0.1715 -0.4383
  555TMC3    C6 8235   4.131   2.816  15.114  0.0742  0.0961  0.4500
  555TMC3     C 8236   3.955   3.069  14.826 -0.5376 -0.1854 -0.4686
  555TMC3     O 8237   4.027   3.149  14.770 -0.0784  0.1956 -0.4150
  555TMC3     H 8238   4.191   3.089  14.924  2.3012 -0.8264  0.0776
  555TMC3    H1 8239   3.855   2.845  14.925  1.0364  1.1745 -0.7744
  555TMC3    H2 8240   4.166   2.769  15.206 -0.5998 -0.5652  0.3700
  555TMC3    C7 8241   3.949   2.654  15.084 -0.5725  0.2889  0.1960
  555TMC3    C8 8242   4.292   2.981  15.153 -0.1979 -0.1068 -0.1240
  555TMC3    O1 8243   3.833   2.634  15.058  0.2853 -1.0077  0.6165
  555TMC3    O2 8244   4.284   2.948  15.275  0.3711  0.1233 -0.2537
  556MPD2     C 8245   1.687   3.922  10.663  1.0114  0.0971  0.2642
  556MPD2    C1 8246   1.784   3.848  10.732  0.6654 -0.1025  0.2721
  556MPD2    C2 8247   1.827   3.725  10.677 -0.4514 -0.3675  0.2049
  556MPD2    C3 8248   1.797   3.684  10.550 -0.0785 -0.0372 -0.3689
  556MPD2    C4 8249   1.722   3.770  10.479  0.3090 -0.1843  0.2652
  556MPD2    C5 8250   1.660   3.885  10.535 -0.5901 -0.3112  0.2272
  556MPD2     H 8251   1.908   3.673  10.727 -0.0494 -1.4172 -1.5099
  556MPD2    H1 8252   1.699   3.760  10.373  2.8018  0.6980 -0.3717
  556MPD2    H2 8253   1.641   4.014  10.696 -0.2270 -1.1905  2.1007
  556MPD2    H3 8254   1.591   3.951  10.484 -0.9765 -2.1016 -1.5308
  556MPD2     N 8255   1.865   3.578  10.494  0.0462 -0.1812  0.3729
  556MPD2    H5 8256   1.930   3.522  10.547 -1.2993 -1.3243  0.8160
  556MPD2    N1 8257   1.830   3.892  10.859  0.5198 -0.2258 -0.2314
  556MPD2    H7 8258   1.891   3.826  10.906 -0.2718  1.1333  2.6860
  557TMC3    C1 8259   1.881   3.390  10.359 -0.2701 -0.6184 -0.0777
  557TMC3    C2 8260   1.923   3.340  10.241  0.6625 -0.4173  0.4410
  557TMC3    C3 8261   1.924   3.204  10.221 -0.8603 -0.1732 -1.0158
  557TMC3    C4 8262   1.851   3.305  10.464  0.0076 -0.7059  0.3185
  557TMC3    C5 8263   1.843   3.173  10.438 -0.2806 -0.3397 -0.0673
  557TMC3    C6 8264   1.889   3.118  10.321  0.9521 -0.0151 -0.4793
  557TMC3     C 8265   1.836   3.530  10.374 -0.6770 -0.3803 -0.1954
  557TMC3     O 8266   1.763   3.574  10.286 -0.2624 -0.5209  0.2466
  557TMC3     H 8267   1.942   3.406  10.157  0.2157 -2.6656 -1.4313
  557TMC3    H1 8268   1.793   3.348  10.545  0.3256 -1.8653  1.1593
  557TMC3    H2 8269   1.863   3.014  10.305 -1.4453  0.2958  1.3383
  557TMC3    C7 8270   1.707   3.131  10.470 -0.1484  0.0871  0.2289
  557TMC3    C8 8271   1.872   3.158  10.095  0.2268  0.4663 -0.5673
  557TMC3    O1 8272   1.659   3.165  10.576 -0.0223 -0.7625 -0.7362
  557TMC3    O2 8273   1.812   3.240  10.030 -0.2025 -0.0189  0.3000
  558TMC3    C1 8274   4.646   1.598  10.125  0.1391 -0.1170  0.1897
  558TMC3    C2 8275   4.522   1.649  10.154  0.0545  0.2364 -0.7470
  558TMC3    C3 8276   4.428   1.631  10.055  0.4193 -0.2094  0.0742
  558TMC3    C4 8277   4.676   1.538  10.005 -0.0688  0.2169 -0.0332
  558TMC3    C5 8278   4.573   1.515   9.917 -0.3010 -0.0671  1.5008
  558TMC3    C6 8279   4.448   1.560   9.945 -0.2557  0.7788  0.4178
  558TMC3     C 8280   0.027   1.637  10.217  0.3603 -0.0572  0.5050
  558TMC3     O 8281   0.141   1.619  10.169  0.0863  0.2337 -0.1994
  558TMC3     H 8282   4.505   1.714  10.239 -0.7747 -0.0174 -0.7159
  558TMC3    H1 8283   0.048   1.501   9.981 -0.3585 -1.1432  0.8278
  558TMC3    H2 8284   4.372   1.546   9.869  0.6788 -1.1722 -0.1419
  558TMC3    C7 8285   4.593   1.482   9.777 -0.6565  0.1183 -0.4972
  558TMC3    C8 8286   4.302   1.693  10.072  0.6137  0.5948 -1.3133
  558TMC3    O1 8287   4.525   1.537   9.694 -0.7563  0.6403 -0.0775
  558TMC3    O2 8288   4.249   1.709   9.964  0.1589  0.2161 -0.2209
  559MPD2     C 8289   4.255   2.051  10.425  0.0524 -0.0281 -0.0155
  559MPD2    C1 8290   4.164   2.110  10.510 -0.3732 -0.7677  0.2161
  559MPD2    C2 8291   4.210   2.148  10.638 -0.4319 -0.2058 -0.3134
  559MPD2    C3 8292   4.347   2.132  10.674  1.1697  0.0145  0.2203
  559MPD2    C4 8293   4.433   2.065  10.591  0.3252 -0.2918  0.7550
  559MPD2    C5 8294   4.383   2.024  10.467 -0.2121  0.5366 -0.1293
  559MPD2     H 8295   4.140   2.202  10.701  0.7295  0.8150  0.0978
  559MPD2    H1 8296   4.540   2.051  10.601  0.4227 -0.6360 -0.7345
  559MPD2    H2 8297   4.229   2.012  10.327 -0.9904  0.3279  0.1261
  559MPD2    H3 8298   4.447   1.980  10.391 -2.5088  0.1513 -1.8305
  559MPD2     N 8299   4.387   2.200  10.792  0.3228  0.2210  0.8646
  559MPD2    H5 8300   4.306   2.232  10.844  1.7527  1.5258  2.2873
  559MPD2    N1 8301   4.031   2.143  10.461 -0.0144 -0.6343  0.8437
  559MPD2    H7 8302   3.999   2.113  10.370  0.4453 -1.4251  0.9426
  560TMC3    C1 8303   4.495   2.266  10.979 -0.2770  0.2178 -0.1814
  560TMC3    C2 8304   4.377   2.234  11.044  0.1124 -0.8881  0.2171
  560TMC3    C3 8305   4.391   2.213  11.180 -0.1811 -0.4930 -0.6184
  560TMC3    C4 8306   4.618   2.286  11.038  0.3736 -0.7716 -0.4096
  560TMC3    C5 8307   4.617   2.276  11.178  0.0194  0.2303  0.4494
  560TMC3    C6 8308   4.501   2.245  11.255  0.6757 -0.6546  0.2737
  560TMC3     C 8309   4.509   2.208  10.850 -0.6397 -0.0396  0.5088
  560TMC3     O 8310   4.615   2.159  10.819  1.0557 -0.3367  0.4067
  560TMC3     H 8311   4.278   2.233  11.000  0.4331 -0.4333 -0.5103
  560TMC3    H1 8312   4.708   2.298  10.979  1.0840  2.1191  1.2595
  560TMC3    H2 8313   4.505   2.235  11.363 -1.6203 -1.2540  0.2908
  560TMC3    C7 8314   4.706   2.355  11.251  0.2554 -0.0986 -0.0375
  560TMC3    C8 8315   4.290   2.129  11.232 -0.0526 -0.0599  0.3104
  560TMC3    O1 8316   4.658   2.407  11.350  0.2883  0.5603 -0.1122
  560TMC3    O2 8317   4.184   2.147  11.171  0.0810  0.2601 -0.0470
  561TMC3    C1 8318   2.316   1.105  11.141  0.1213 -0.0602  0.0125
  561TMC3    C2 8319   2.259   1.045  11.249 -0.2015  0.6047 -0.0207
  561TMC3    C3 8320   2.200   1.129  11.344  0.8653  0.3937 -1.1031
  561TMC3    C4 8321   2.316   1.237  11.122 -0.0197 -0.3334  0.3880
  561TMC3    C5 8322   2.274   1.318  11.223 -0.2594  0.0329 -0.0944
  561TMC3    C6 8323   2.214   1.264  11.334  0.3653  0.0188  0.0244
  561TMC3     C 8324   2.349   1.020  11.031  0.6318 -0.1230 -0.7221
  561TMC3     O 8325   2.320   0.906  11.052  0.4396  0.5953  0.2088
  561TMC3     H 8326   2.236   0.940  11.269 -1.1971  0.4158 -2.1107
  561TMC3    H1 8327   2.351   1.279  11.028  1.8343 -0.7663  0.8959
  561TMC3    H2 8328   2.191   1.328  11.419 -2.4083 -0.1030 -0.6481
  561TMC3    C7 8329   2.246   1.463  11.206 -0.1915 -0.3032 -0.1258
  561TMC3    C8 8330   2.112   1.068  11.439  0.3382  0.1804  0.0992
  561TMC3    O1 8331   2.186   1.521  11.294  0.5173 -0.6403  0.0093
  561TMC3    O2 8332   2.088   0.945  11.444 -0.0198 -0.5096  0.4569
  562TMC3    C1 8333   3.315   3.401  15.945  0.1065 -0.1308 -0.6357
  562TMC3    C2 8334   3.206   3.463  15.882 -0.3826  0.1711  0.4445
  562TMC3    C3 8335   3.196   3.459  15.741 -0.1885  0.2444 -0.5604
  562TMC3    C4 8336   3.406   3.335  15.867  0.7308 -0.4134  0.1448
  562TMC3    C5 8337   3.394   3.334  15.734 -0.2755  0.2783 -0.7132
  562TMC3    C6 8338   3.290   3.391  15.668 -0.2815  0.2551 -0.0584
  562TMC3     C 8339   3.332   3.413  16.082 -0.1308  0.8364 -0.0850
  562TMC3     O 8340   3.234   3.446  16.149  0.4005 -0.1092  0.0333
  562TMC3     H 8341   3.138   3.524  15.939 -2.2189 -0.2648 -1.3090
  562TMC3    H1 8342   3.467   3.264  15.920  2.9790  2.7432  1.7837
  562TMC3    H2 8343   3.298   3.394  15.560 -1.0495  1.3423 -0.0737
  562TMC3    C7 8344   3.471   3.235  15.663  0.2790  0.4182 -0.6324
  562TMC3    C8 8345   3.088   3.532  15.681  0.5369  0.2770  0.2406
  562TMC3    O1 8346   3.429   3.207  15.552  0.2444  0.6436  0.4718
  562TMC3    O2 8347   3.009   3.585  15.759 -0.1592  0.1830  0.0838
  563MPD2     C 8348   0.847   4.651  15.575 -0.3175  0.4589 -0.1757
  563MPD2    C1 8349   0.835   4.621  15.706 -0.0946 -0.0985  0.2371
  563MPD2    C2 8350   0.927   4.538  15.761 -0.3313 -0.0426  0.0145
  563MPD2    C3 8351   1.015   4.465  15.687  0.0680 -1.0324 -0.0143
  563MPD2    C4 8352   1.023   4.486  15.556  0.6484  0.0796  0.4939
  563MPD2    C5 8353   0.941   4.575  15.499  0.2297 -0.6851  0.0985
  563MPD2     H 8354   0.927   4.517  15.868 -0.2747 -0.7708 -0.1311
  563MPD2    H1 8355   1.101   4.434  15.502 -0.7389 -2.3339  0.8071
  563MPD2    H2 8356   0.780   4.721  15.526 -0.7382  0.5245  0.4863
  563MPD2    H3 8357   0.942   4.599  15.393 -0.3642  2.6242  0.8597
  563MPD2     N 8358   1.099   4.386  15.772  0.3548  0.1668 -0.3232
  563MPD2    H5 8359   1.092   4.405  15.872  2.6236 -0.6665 -0.0102
  563MPD2    N1 8360   0.733   4.674  15.789 -0.8995 -0.1680 -0.0550
  563MPD2    H7 8361   0.732   4.648  15.887  0.4151  1.8969  0.4932
  564TMC3    C1 8362   0.541   0.013  15.882  0.1321  0.4235 -0.5906
  564TMC3    C2 8363   0.421   4.662  15.883  0.6442  0.6092  0.3078
  564TMC3    C3 8364   0.366   4.607  16.002  0.0852  0.2936  0.3019
  564TMC3    C4 8365   0.616   0.017  15.997 -1.1350  0.0917 -0.0969
  564TMC3    C5 8366   0.571   4.677  16.104  0.3764 -0.2966 -0.7110
  564TMC3    C6 8367   0.451   4.614  16.109 -0.3526  0.0890  0.3888
  564TMC3     C 8368   0.624   0.020  15.763 -0.4821 -0.2283 -0.1588
  564TMC3     O 8369   0.586   0.065  15.655  0.3741  0.2611 -0.5423
  564TMC3     H 8370   0.368   4.661  15.788  1.5463  0.4669 -0.1944
  564TMC3    H1 8371   0.704   0.080  15.996 -1.4624  0.5510  0.1646
  564TMC3    H2 8372   0.438   4.551  16.196  0.1509 -1.3993 -0.6187
  564TMC3    C7 8373   0.667   4.577  16.150  0.5085 -0.2644  0.1543
  564TMC3    C8 8374   0.326   4.466  15.990  0.2019  0.6899 -0.0875
  564TMC3    O1 8375   0.751   4.605  16.241 -0.4273  0.0584 -0.2885
  564TMC3    O2 8376   0.277   4.402  16.082 -0.3570 -0.2945  0.1496
  565TMC3    C1 8377   1.424   0.132  10.021  0.2576  0.5156 -0.5535
  565TMC3    C2 8378   1.502   0.086  10.126  0.4050 -0.0852 -0.6015
  565TMC3    C3 8379   1.447   4.724  10.208 -0.3419  0.2934  0.1341
  565TMC3    C4 8380   1.301   0.082   9.995 -0.2419  0.0232 -0.4503
  565TMC3    C5 8381   1.256   4.706  10.075  0.0513  0.7724 -0.4462
  565TMC3    C6 8382   1.324   4.670  10.186  0.1197  0.5927  0.2062
  565TMC3     C 8383   1.458   0.250   9.949 -0.4821 -0.3393 -0.0813
  565TMC3     O 8384   1.401   0.263   9.841 -0.0205  1.3064  0.1575
  565TMC3     H 8385   1.607   0.107  10.143 -0.0198 -0.7896  2.9281
  565TMC3    H1 8386   1.241   0.131   9.920 -0.2537  1.1980  0.3311
  565TMC3    H2 8387   1.299   4.584  10.247 -0.2054 -0.6362 -1.6869
  565TMC3    C7 8388   1.114   4.687  10.079  0.3026 -0.0865 -0.2420
  565TMC3    C8 8389   1.528   4.654  10.305 -0.0150  0.0387  0.0930
  565TMC3    O1 8390   1.063   4.652  10.185  0.1833  0.7175  0.6537
  565TMC3    O2 8391   1.574   4.724  10.387  0.1445 -0.2285 -0.0117
  566MPD2     C 8392   2.891   2.900  14.386 -0.7036  0.2632 -0.6602
  566MPD2    C1 8393   3.017   2.879  14.345  0.2738  0.0531 -0.9054
  566MPD2    C2 8394   3.047   2.775  14.256 -0.3828  0.9983 -0.0076
  566MPD2    C3 8395   2.948   2.678  14.231  0.0747 -0.6044  0.8504
  566MPD2    C4 8396   2.821   2.699  14.280 -0.5370  0.8322  0.0932
  566MPD2    C5 8397   2.789   2.811  14.348  0.8658 -0.2756 -0.3494
  566MPD2     H 8398   3.143   2.771  14.207 -0.3360 -0.2065  0.1688
  566MPD2    H1 8399   2.748   2.621  14.265  0.5568 -0.4505  1.4091
  566MPD2    H2 8400   2.868   2.987  14.445  1.7101  0.8624 -0.5880
  566MPD2    H3 8401   2.689   2.834  14.383  1.6996  1.3034  1.0092
  566MPD2     N 8402   2.967   2.567  14.147 -0.0906  0.4491  0.3699
  566MPD2    H5 8403   2.884   2.527  14.103 -0.5228  0.4931  1.1437
  566MPD2    N1 8404   3.105   2.980  14.380 -0.4081 -0.5540  0.1632
  566MPD2    H7 8405   3.074   3.065  14.425  1.7364  1.0704 -1.4227
  567TMC3    C1 8406   3.314   3.099  14.372 -0.3757 -0.4094 -1.0728
  567TMC3    C2 8407   3.285   3.162  14.253 -0.5100 -1.2089  0.1585
  567TMC3    C3 8408   3.378   3.180  14.155 -0.0142  0.0935 -0.7361
  567TMC3    C4 8409   3.441   3.080  14.402  0.5478 -0.5061 -0.6866
  567TMC3    C5 8410   3.542   3.092  14.307  0.7134  0.5240  0.2241
  567TMC3    C6 8411   3.507   3.138  14.179 -0.2355  0.0785  0.4928
  567TMC3     C 8412   3.241   2.976  14.358  0.0810 -0.0352  0.4184
  567TMC3     O 8413   3.308   2.890  14.302 -0.2458  0.3336 -0.2759
  567TMC3     H 8414   3.184   3.167  14.214 -0.8518 -2.3585  0.8913
  567TMC3    H1 8415   3.459   3.027  14.495  0.7199  1.6518  0.5136
  567TMC3    H2 8416   3.579   3.147  14.099 -1.6353  2.8363 -0.4560
  567TMC3    C7 8417   3.661   3.012  14.321 -0.2209 -0.9291  0.6927
  567TMC3    C8 8418   3.334   3.187  14.022 -0.5639  0.2012 -0.0380
  567TMC3    O1 8419   3.716   2.976  14.219  0.1257 -0.2337  0.0127
  567TMC3    O2 8420   3.241   3.113  13.993 -0.6862 -0.7714  0.7985
  568MPD2     C 8421   0.553   3.220  16.671  0.6821  0.0829  0.1899
  568MPD2    C1 8422   0.678   3.272  16.657  0.5614 -0.9136  0.6374
  568MPD2    C2 8423   0.690   3.374  16.566 -0.9977 -0.2721  0.5179
  568MPD2    C3 8424   0.583   3.428  16.501  0.0242 -0.9488 -0.0855
  568MPD2    C4 8425   0.462   3.380  16.524 -0.3601 -0.2370 -0.4415
  568MPD2    C5 8426   0.446   3.266  16.601  0.4156 -0.2483 -0.4521
  568MPD2     H 8427   0.791   3.407  16.543 -1.9115  2.0240 -0.1937
  568MPD2    H1 8428   0.372   3.429  16.488 -0.1022 -0.4024 -1.3043
  568MPD2    H2 8429   0.527   3.141  16.741  0.0820  1.1943  1.2313
  568MPD2    H3 8430   0.351   3.216  16.619  0.9499 -1.2095 -0.3405
  568MPD2     N 8431   0.613   3.526  16.399  0.3218 -0.6944  0.2357
  568MPD2    H5 8432   0.705   3.569  16.395 -0.1811  0.2487 -1.2803
  568MPD2    N1 8433   0.803   3.220  16.708 -0.4394 -0.5467 -0.2501
  568MPD2    H7 8434   0.894   3.265  16.700 -0.8105 -0.1989 -2.6450
  569TMC3    C1 8435   0.562   3.707  16.267 -0.2573  0.3072  0.3209
  569TMC3    C2 8436   0.622   3.799  16.335  0.1883 -0.2993  0.4515
  569TMC3    C3 8437   0.671   3.907  16.266 -0.1946  0.3484  0.1287
  569TMC3    C4 8438   0.562   3.705  16.131 -0.7168 -0.1899  0.2107
  569TMC3    C5 8439   0.620   3.807  16.063 -0.8140 -0.0936  0.2877
  569TMC3    C6 8440   0.677   3.906  16.131 -0.9451 -0.1078  0.4544
  569TMC3     C 8441   0.512   3.582  16.328  0.3457  0.4712 -0.2803
  569TMC3     O 8442   0.407   3.532  16.294  0.2516  0.3617  0.1830
  569TMC3     H 8443   0.610   3.798  16.443  0.2427  1.7116  0.4808
  569TMC3    H1 8444   0.503   3.634  16.074  1.7382 -0.5235 -1.9163
  569TMC3    H2 8445   0.719   3.989  16.076  0.9559 -0.8703  0.7555
  569TMC3    C7 8446   0.543   3.855  15.942 -0.2374 -0.3387 -0.3224
  569TMC3    C8 8447   0.641   4.034  16.325  0.8803  0.7429  0.0637
  569TMC3    O1 8448   0.522   3.766  15.860  0.0251 -0.1706  0.0960
  569TMC3    O2 8449   0.571   4.106  16.259 -0.5229  0.4817  0.2374
  570TMC3    C1 8450   4.641   2.323  16.097  0.1484 -0.9564 -0.0180
  570TMC3    C2 8451   4.715   2.276  15.993  0.4733 -0.0949 -0.3544
  570TMC3    C3 8452   0.073   2.361  15.939 -0.1163 -1.2217  0.7019
  570TMC3    C4 8453   4.645   2.457  16.134 -0.1976  0.8819 -0.3043
  570TMC3    C5 8454   0.010   2.541  16.073  0.1273 -0.3479 -0.1906
  570TMC3    C6 8455   0.087   2.494  15.970  1.1682  0.0768  0.4042
  570TMC3     C 8456   4.518   2.260  16.126 -0.1465  0.0362  0.0819
  570TMC3     O 8457   4.456   2.208  16.032  0.4672 -0.0681 -0.5826
  570TMC3     H 8458   4.709   2.170  15.972  1.1737  0.1166 -1.5694
  570TMC3    H1 8459   4.580   2.496  16.212  0.4914  1.4563 -0.0190
  570TMC3    H2 8460   0.161   2.550  15.912  0.0057 -0.9419 -2.0651
  570TMC3    C7 8461   0.057   2.648  16.157  0.1018  0.8378  0.1507
  570TMC3    C8 8462   0.197   2.300  15.883  0.2405  0.3178  0.2435
  570TMC3    O1 8463   0.007   2.660  16.267  0.2431  0.7127 -0.1092
  570TMC3    O2 8464   0.299   2.366  15.882  0.5583  0.4886  0.0931
  571MPD2     C 8465   2.810   3.371  17.525  0.4447 -0.4237  0.1256
  571MPD2    C1 8466   2.922   3.359  17.613  0.0078 -0.3401  0.4555
  571MPD2    C2 8467   2.991   3.476  17.651 -0.6100 -0.1036 -0.5268
  571MPD2    C3 8468   2.934   3.601  17.610  1.0593 -0.7120  0.3460
  571MPD2    C4 8469   2.831   3.610  17.518 -0.2275 -0.1952 -0.4897
  571MPD2    C5 8470   2.779   3.495  17.470 -0.3274 -0.3234  0.0735
  571MPD2     H 8471   3.085   3.461  17.702 -1.3940  0.0795  0.9800
  571MPD2    H1 8472   2.799   3.704  17.474  1.2207  0.2057 -0.6843
  571MPD2    H2 8473   2.760   3.284  17.484 -1.1685  1.1141 -1.1475
  571MPD2    H3 8474   2.710   3.500  17.387  2.0927 -1.2818 -1.9908
  571MPD2     N 8475   2.991   3.722  17.645 -0.9316 -0.2752 -0.2849
  571MPD2    H5 8476   2.940   3.806  17.622 -0.4073 -0.4067 -1.9030
  571MPD2    N1 8477   2.959   3.231  17.654  0.8209  0.6415 -0.0898
  571MPD2    H7 8478   2.912   3.152  17.610  0.1891  2.5825 -2.9173
  572TMC3    C1 8479   3.127   3.873   0.061  0.0579 -0.0216 -0.2276
  572TMC3    C2 8480   3.232   3.898   0.141  0.6511 -0.2949  0.6250
  572TMC3    C3 8481   3.236   4.016   0.216  0.5257 -0.0841  0.1694
  572TMC3    C4 8482   3.031   3.970   0.047  1.0757  0.3993 -0.6265
  572TMC3    C5 8483   3.031   4.074   0.141  0.3860  0.1713 -0.9298
  572TMC3    C6 8484   3.130   4.098   0.226  0.1813 -0.6577  0.0900
  572TMC3     C 8485   3.102   3.742   0.006  0.0366 -0.6107  0.0443
  572TMC3     O 8486   3.191   3.667   0.044 -0.3686 -0.1870  0.4499
  572TMC3     H 8487   3.296   3.818   0.176  1.7779  1.1367  1.8249
  572TMC3    H1 8488   2.945   3.957  17.694  0.7669 -1.8593  0.2554
  572TMC3    H2 8489   3.143   4.191   0.281  1.9187 -2.0652  2.0394
  572TMC3    C7 8490   2.937   4.181   0.111 -0.0152  0.2422  0.5152
  572TMC3    C8 8491   3.339   4.021   0.314 -0.6908 -0.2953  1.1024
  572TMC3    O1 8492   2.858   4.165   0.020 -0.6591 -0.2103  0.1764
  572TMC3    O2 8493   3.448   3.982   0.275 -0.4208 -0.6916  0.1218
  573MPD2     C 8494   4.243   3.898   0.939  1.0742  0.6952 -0.1186
  573MPD2    C1 8495   4.168   4.014   0.954  0.0472  0.3709  0.0222
  573MPD2    C2 8496   4.088   4.042   0.846 -0.1725  0.5035  0.3273
  573MPD2    C3 8497   4.091   3.979   0.723 -0.8187 -0.0841 -0.1706
  573MPD2    C4 8498   4.174   3.869   0.708  0.0202 -0.1863  0.3450
  573MPD2    C5 8499   4.241   3.826   0.823 -0.5960  0.4148 -0.2688
  573MPD2     H 8500   4.028   4.132   0.854  0.9356  1.3248 -0.5647
  573MPD2    H1 8501   4.179   3.805   0.621 -5.0987 -0.6343  0.4167
  573MPD2    H2 8502   4.306   3.863   1.020  0.6144 -2.9529 -1.3647
  573MPD2    H3 8503   4.286   3.728   0.815  1.6562  1.4289 -0.0728
  573MPD2     N 8504   4.005   4.016   0.617 -0.1198  0.2351  0.4655
  573MPD2    H5 8505   3.999   3.961   0.532  2.0523 -0.3944  0.7191
  573MPD2    N1 8506   4.155   4.071   1.084 -0.2575 -0.5690  0.4742
  573MPD2    H7 8507   4.190   4.017   1.162 -1.0034  0.0343  1.2170
  574TMC3    C1 8508   3.832   4.128   0.501 -0.3734  0.3474  0.0267
  574TMC3    C2 8509   3.719   4.212   0.505  0.1512  0.4906 -0.9070
  574TMC3    C3 8510   3.648   4.220   0.388  0.1404 -0.3050 -0.3739
  574TMC3    C4 8511   3.876   4.078   0.380 -0.0017 -0.2325  0.0667
  574TMC3    C5 8512   3.804   4.094   0.270  0.0016 -0.5270 -0.7300
  574TMC3    C6 8513   3.686   4.157   0.277  0.0949 -0.7425 -0.1162
  574TMC3     C 8514   3.904   4.110   0.621  0.4363 -0.4616 -0.1937
  574TMC3     O 8515   3.863   4.171   0.722  0.0872 -0.2231  0.1665
  574TMC3     H 8516   3.686   4.253   0.600 -0.5657  0.6526 -1.2291
  574TMC3    H1 8517   3.969   4.024   0.359 -0.6117 -1.2926  0.0700
  574TMC3    H2 8518   3.644   4.168   0.178 -0.7618  0.4217  0.3834
  574TMC3    C7 8519   3.816   4.008   0.149  0.1220  0.3776 -0.0101
  574TMC3    C8 8520   3.548   4.323   0.383 -0.0849  0.3660 -0.0906
  574TMC3    O1 8521   3.931   3.992   0.107 -0.1961 -0.0943 -1.3460
  574TMC3    O2 8522   3.516   4.357   0.495  0.0018  0.2238  0.0856
  575TMC3    C1 8523   1.782   4.582  11.092 -0.2629  0.3156  0.1932
  575TMC3    C2 8524   1.703   4.488  11.148 -0.3467 -0.4621  0.0844
  575TMC3    C3 8525   1.679   4.376  11.072 -0.4577  0.5431 -0.7883
  575TMC3    C4 8526   1.803   4.586  10.951 -0.4459 -0.6212  1.0873
  575TMC3    C5 8527   1.761   4.484  10.877 -0.6159  0.5478  0.3362
  575TMC3    C6 8528   1.699   4.376  10.935  0.4040 -1.2128 -0.4365
  575TMC3     C 8529   1.829   4.699  11.163 -0.1994 -0.3173 -0.5281
  575TMC3     O 8530   1.779   4.703  11.275  0.0100 -0.1928  0.3184
  575TMC3     H 8531   1.675   4.488  11.253 -1.0936 -2.2269 -0.1254
  575TMC3    H1 8532   1.846   4.672  10.899 -0.8457 -1.2453 -0.2835
  575TMC3    H2 8533   1.663   4.304  10.863 -0.5079  1.2093 -2.4145
  575TMC3    C7 8534   1.765   4.496  10.735  0.1179 -0.8891  0.1822
  575TMC3    C8 8535   1.585   4.278  11.134 -0.2847 -1.0997 -0.9262
  575TMC3    O1 8536   1.740   4.608  10.690  0.3710 -0.3457 -0.2066
  575TMC3    O2 8537   1.568   4.291  11.253  0.4579  0.1263  0.5596
  576MPD2     C 8538   1.329   1.711  12.532 -0.1931  0.5184  0.4182
  576MPD2    C1 8539   1.380   1.792  12.428  0.3127 -0.1796 -0.7408
  576MPD2    C2 8540   1.427   1.916  12.463  0.9693  0.2021  0.5388
  576MPD2    C3 8541   1.426   1.962  12.600  0.1463 -0.9825  0.0006
  576MPD2    C4 8542   1.370   1.881  12.697 -0.0671 -0.6551  0.7423
  576MPD2    C5 8543   1.323   1.754  12.663 -0.5875 -0.2929  0.0331
  576MPD2     H 8544   1.468   1.978  12.385  1.2224 -1.3171 -0.5461
  576MPD2    H1 8545   1.359   1.912  12.800  1.6171 -0.4361  0.8560
  576MPD2    H2 8546   1.294   1.609  12.519 -0.5562  0.5175  1.4228
  576MPD2    H3 8547   1.278   1.694  12.742  1.4205  0.0110  1.4121
  576MPD2     N 8548   1.463   2.096  12.625  0.4633 -0.1802  0.0254
  576MPD2    H5 8549   1.483   2.144  12.539  1.3022  0.1061  0.3847
  576MPD2    N1 8550   1.410   1.736  12.300  0.0382  0.9360 -0.4996
  576MPD2    H7 8551   1.441   1.797  12.226 -3.3391 -1.6544 -4.0528
  577TMC3    C1 8552   1.442   1.587  12.115 -0.1844  0.6839 -0.7981
  577TMC3    C2 8553   1.534   1.491  12.102  0.0358 -0.2995 -0.0034
  577TMC3    C3 8554   1.600   1.476  11.976  0.0888 -0.1796  0.3575
  577TMC3    C4 8555   1.419   1.673  12.014  0.6605 -0.5963 -0.3466
  577TMC3    C5 8556   1.481   1.650  11.890  0.6506  0.6158 -0.2456
  577TMC3    C6 8557   1.572   1.553  11.868 -0.1002  0.2845 -0.0033
  577TMC3     C 8558   1.397   1.606  12.251  0.5027 -0.6270  0.8907
  577TMC3     O 8559   1.374   1.504  12.319 -0.0166 -0.6551  0.1026
  577TMC3     H 8560   1.568   1.444  12.193 -0.0440 -1.4590 -0.5714
  577TMC3    H1 8561   1.366   1.767  12.026  0.2643 -0.7280 -1.0429
  577TMC3    H2 8562   1.591   1.526  11.765  1.5409  0.6696  0.1910
  577TMC3    C7 8563   1.463   1.747  11.784  0.1108  0.6031 -0.2940
  577TMC3    C8 8564   1.689   1.361  11.971  0.3330  0.5023  0.5498
  577TMC3    O1 8565   1.558   1.761  11.707  0.1296 -0.2317 -0.4275
  577TMC3    O2 8566   1.708   1.286  12.068  0.1011  0.0110  0.0567
  578MPD2     C 8567   0.004   1.865   0.060 -0.2014 -0.4567  0.0663
  578MPD2    C1 8568   0.133   1.829   0.082 -0.0433  0.1640  0.4949
  578MPD2    C2 8569   0.172   1.778   0.209  0.4745  0.1342 -0.4890
  578MPD2    C3 8570   0.081   1.761   0.305 -0.2065  0.0224  0.8677
  578MPD2    C4 8571   4.681   1.808   0.279 -0.2054 -0.8852  0.2872
  578MPD2    C5 8572   4.643   1.858   0.163 -0.4972 -0.1182 -0.3487
  578MPD2     H 8573   0.271   1.737   0.223  0.1830 -0.6001 -0.5124
  578MPD2    H1 8574   4.596   1.793   0.345 -0.7236 -1.6540 -0.5556
  578MPD2    H2 8575   4.700   1.905  17.675 -0.3649  1.8263  1.0764
  578MPD2    H3 8576   4.539   1.886   0.162 -0.0111  1.6399 -0.4221
  578MPD2     N 8577   0.124   1.705   0.426 -0.4628  0.1901  0.3842
  578MPD2    H5 8578   0.221   1.680   0.441  0.3996  3.5879  0.4188
  578MPD2    N1 8579   0.226   1.876  17.698  0.2475  0.4219  0.1577
  578MPD2    H7 8580   0.193   1.947  17.633  1.8768  0.7304 -0.3369
  579TMC3    C1 8581   0.102   1.570   0.616  0.5782 -0.1670  0.3911
  579TMC3    C2 8582   0.197   1.633   0.686  0.1720 -0.5048 -1.2995
  579TMC3    C3 8583   0.271   1.553   0.769 -0.0055  0.7595 -0.5784
  579TMC3    C4 8584   0.047   1.449   0.648  0.2167 -0.2816 -0.2402
  579TMC3    C5 8585   0.119   1.369   0.737 -0.7102  0.3521  0.2536
  579TMC3    C6 8586   0.238   1.424   0.794  0.0527  0.6740  0.3117
  579TMC3     C 8587   0.036   1.647   0.514 -0.3496  0.5821 -0.3122
  579TMC3     O 8588   4.641   1.650   0.513 -0.2486  0.5760 -0.0832
  579TMC3     H 8589   0.223   1.735   0.664  0.0235  0.1359  1.4631
  579TMC3    H1 8590   4.700   1.400   0.586  0.5286 -1.5004  0.3581
  579TMC3    H2 8591   0.311   1.352   0.830 -0.7649  0.1875  0.9952
  579TMC3    C7 8592   0.098   1.225   0.728  0.7935 -0.4382  0.3170
  579TMC3    C8 8593   0.370   1.607   0.859 -0.4642 -0.0784 -0.0820
  579TMC3    O1 8594   0.198   1.161   0.709  0.5518 -0.1713  0.2376
  579TMC3    O2 8595   0.434   1.530   0.929 -0.5190  0.0022  0.1260
  580TMC3    C1 8596   3.666   1.076  12.141  0.1483  0.0169  0.7925
  580TMC3    C2 8597   3.783   1.127  12.090  0.1505  0.1506 -0.1457
  580TMC3    C3 8598   3.865   1.051  12.010  0.8586  0.2703  0.0711
  580TMC3    C4 8599   3.638   0.944  12.109  0.1910  0.5601  0.6207
  580TMC3    C5 8600   3.719   0.864  12.033  0.8172  0.2631  0.3174
  580TMC3    C6 8601   3.836   0.920  11.977 -0.4432 -0.9275  0.3535
  580TMC3     C 8602   3.557   1.169  12.116 -0.1214 -0.4260  0.5694
  580TMC3     O 8603   3.454   1.179  12.188 -0.2219  0.0167  0.0114
  580TMC3     H 8604   3.803   1.226  12.131 -1.3511  0.6863 -0.7181
  580TMC3    H1 8605   3.554   0.903  12.163  1.0975 -0.6359  1.1103
  580TMC3    H2 8606   3.899   0.870  11.904 -1.7838 -2.8777  0.5184
  580TMC3    C7 8607   3.720   0.725  12.062  0.8010  0.3794 -0.5641
  580TMC3    C8 8608   4.006   1.089  11.978  0.7553 -0.5099  0.7876
  580TMC3    O1 8609   3.622   0.674  12.104  0.2415 -0.3780  0.2780
  580TMC3    O2 8610   4.079   0.996  11.965 -0.2096 -0.2158  0.0277
  581MPD2     C 8611   1.675   1.112  14.821 -0.1215  0.4261  0.3599
  581MPD2    C1 8612   1.559   1.049  14.791 -0.0383 -0.0462  0.5604
  581MPD2    C2 8613   1.473   1.105  14.697  0.9497  0.1832  0.0646
  581MPD2    C3 8614   1.504   1.225  14.631  0.1737  0.9124 -0.1658
  581MPD2    C4 8615   1.617   1.290  14.677  0.1587 -0.6959  0.4126
  581MPD2    C5 8616   1.695   1.235  14.769 -0.7139  0.2332  0.0590
  581MPD2     H 8617   1.392   1.041  14.663  0.0313  0.2358  2.1656
  581MPD2    H1 8618   1.629   1.395  14.652 -3.9451 -0.6254 -1.2213
  581MPD2    H2 8619   1.742   1.081  14.901  1.1335  1.3461 -0.3439
  581MPD2    H3 8620   1.772   1.297  14.814  1.0442  0.7683 -3.6525
  581MPD2     N 8621   1.435   1.272  14.518 -0.5425 -0.0855  0.1607
  581MPD2    H5 8622   1.353   1.216  14.499 -1.1345  0.6450  0.5773
  581MPD2    N1 8623   1.518   0.930  14.861 -0.0009  0.5439  0.1171
  581MPD2    H7 8624   1.436   0.882  14.824  0.6676 -0.4257 -0.1032
  582TMC3    C1 8625   1.514   0.769  15.047 -0.8430 -0.0711  0.2812
  582TMC3    C2 8626   1.568   0.754  15.177  0.6431 -0.2760 -0.4080
  582TMC3    C3 8627   1.484   0.717  15.280 -1.2656  0.8848  0.0594
  582TMC3    C4 8628   1.380   0.740  15.027 -0.0053  0.0130 -0.3790
  582TMC3    C5 8629   1.302   0.696  15.137 -0.2221 -0.1122 -0.0569
  582TMC3    C6 8630   1.353   0.693  15.264 -0.4457 -0.4508  0.6298
  582TMC3     C 8631   1.585   0.879  14.974  0.0424  0.6022 -0.0571
  582TMC3     O 8632   1.700   0.906  15.010 -0.5342 -0.0059 -0.5945
  582TMC3     H 8633   1.673   0.777  15.192  0.5858 -1.0413  1.1806
  582TMC3    H1 8634   1.320   0.764  14.939 -0.6633  1.5487  0.4853
  582TMC3    H2 8635   1.285   0.660  15.342  3.2890 -1.4229  3.4397
  582TMC3    C7 8636   1.172   0.755  15.143 -0.3550  0.6377 -0.4618
  582TMC3    C8 8637   1.506   0.794  15.404 -0.8710  0.3292  0.5547
  582TMC3    O1 8638   1.081   0.696  15.200 -0.5295 -0.0578 -0.5435
  582TMC3    O2 8639   1.412   0.839  15.465 -0.1187  0.1904  0.0993
  583MPD2     C 8640   2.102   2.602  16.762  0.0830  0.3851  0.6350
  583MPD2    C1 8641   2.085   2.734  16.722  0.4335  0.5231 -0.0623
  583MPD2    C2 8642   2.051   2.824  16.823 -0.2748  0.1398  0.2373
  583MPD2    C3 8643   2.038   2.786  16.955  0.4130 -0.0366 -0.1014
  583MPD2    C4 8644   2.052   2.651  16.991  0.0491  0.5174  0.0613
  583MPD2    C5 8645   2.081   2.560  16.892  0.2395  0.2872 -0.0372
  583MPD2     H 8646   2.044   2.927  16.790  0.6939 -0.1097 -0.7374
  583MPD2    H1 8647   2.044   2.625  17.096 -0.5764  1.6853  0.3061
  583MPD2    H2 8648   2.123   2.523  16.692  2.2531  0.2233  1.4874
  583MPD2    H3 8649   2.094   2.454  16.912  0.1935  0.3139  0.1345
  583MPD2     N 8650   2.014   2.893  17.045  0.3355  0.1840 -0.6107
  583MPD2    H5 8651   1.999   2.986  17.008  0.4401  0.5151  0.1710
  583MPD2    N1 8652   2.095   2.772  16.588  0.8781 -0.4015 -0.0502
  583MPD2    H7 8653   2.070   2.866  16.561 -0.8895 -0.3669  1.7164
  584TMC3    C1 8654   1.954   2.991  17.237 -0.5427  0.9268 -0.7084
  584TMC3    C2 8655   1.864   3.060  17.162  0.2712 -0.0382 -0.3212
  584TMC3    C3 8656   1.858   3.193  17.182 -0.5500  0.0821  0.2697
  584TMC3    C4 8657   2.027   3.046  17.330 -0.0148  0.3610 -0.3187
  584TMC3    C5 8658   2.009   3.175  17.358  0.0292 -0.3896  0.3414
  584TMC3    C6 8659   1.928   3.257  17.281  0.1820 -0.2097  0.1611
  584TMC3     C 8660   2.002   2.874  17.173  0.8068  0.7616  0.1598
  584TMC3     O 8661   2.035   2.781  17.246  0.0475 -0.4610  0.1301
  584TMC3     H 8662   1.800   3.014  17.087  0.4080  2.4561 -1.9731
  584TMC3    H1 8663   2.095   2.996  17.400 -0.0339  3.1680  1.7078
  584TMC3    H2 8664   1.902   3.359  17.308 -1.2704 -0.3518 -0.6578
  584TMC3    C7 8665   2.020   3.216  17.496  0.6281  0.2814 -0.4502
  584TMC3    C8 8666   1.794   3.273  17.079 -0.1304 -0.0748  0.4570
  584TMC3    O1 8667   2.057   3.132  17.575 -0.6448 -0.3858 -0.0449
  584TMC3    O2 8668   1.737   3.204  16.996 -0.4147  0.6677 -0.1928
  585MPD2     C 8669   1.356   2.103   0.499 -0.6018 -0.1712 -0.1180
  585MPD2    C1 8670   1.406   2.111   0.370  0.7883  0.1797 -0.2494
  585MPD2    C2 8671   1.334   2.040   0.278 -0.0782 -0.3796  0.2631
  585MPD2    C3 8672   1.216   1.969   0.299 -0.1148  0.8535 -0.0456
  585MPD2    C4 8673   1.177   1.956   0.432  0.4656  0.6036 -0.6620
  585MPD2    C5 8674   1.249   2.030   0.531 -1.0744 -0.0387 -0.3016
  585MPD2     H 8675   1.365   2.066   0.177 -0.6361 -0.4599  0.0699
  585MPD2    H1 8676   1.089   1.897   0.455  0.7204 -0.0609 -1.3760
  585MPD2    H2 8677   1.403   2.155   0.581 -0.5607 -1.1998  0.5115
  585MPD2    H3 8678   1.210   2.040   0.632  1.8468  2.4320  0.5859
  585MPD2     N 8679   1.150   1.892   0.196 -0.1819  0.5275  0.6942
  585MPD2    H5 8680   1.089   1.817   0.227 -0.7699  0.4702 -0.5918
  585MPD2    N1 8681   1.508   2.203   0.340  0.1295 -0.2129  0.3870
  585MPD2    H7 8682   1.532   2.278   0.404 -1.9038  2.5788 -2.1006
  586TMC3    C1 8683   1.106   1.793  17.697 -0.1842 -0.4801 -0.4522
  586TMC3    C2 8684   1.153   1.752  17.580 -0.7714  0.1649 -0.4427
  586TMC3    C3 8685   1.081   1.662  17.512  0.3780  0.4005  0.7442
  586TMC3    C4 8686   0.981   1.749   0.030 -0.4701  0.6932  0.0272
  586TMC3    C5 8687   0.914   1.652  17.665 -0.5271  0.0236 -0.0358
  586TMC3    C6 8688   0.964   1.606  17.550 -0.3826  0.2829  0.1053
  586TMC3     C 8689   1.188   1.882   0.061  0.0291  0.5428 -0.3258
  586TMC3     O 8690   1.286   1.935   0.008  0.1316  0.5096  0.4644
  586TMC3     H 8691   1.259   1.766  17.561 -0.3712  0.0956  1.6717
  586TMC3    H1 8692   0.924   1.803   0.105 -1.1375 -1.3477  1.0118
  586TMC3    H2 8693   0.923   1.529  17.486  0.5686  0.4544 -0.7098
  586TMC3    C7 8694   0.847   1.543   0.016 -0.4393  0.2048  0.4942
  586TMC3    C8 8695   1.150   1.559  17.434  0.2076 -0.3687  0.2357
  586TMC3    O1 8696   0.785   1.462  17.660  0.8368 -0.2607 -0.4044
  586TMC3    O2 8697   1.112   1.441  17.429  0.7424  1.0996 -0.1552
  587TMC3    C1 8698   3.464   0.170  16.524 -0.0710  0.3358 -0.7746
  587TMC3    C2 8699   3.428   0.285  16.465 -0.8878 -0.1336  0.6914
  587TMC3    C3 8700   3.529   0.369  16.431 -0.3796  0.2104 -1.0277
  587TMC3    C4 8701   3.595   0.145  16.547  0.3526  0.3834 -0.3607
  587TMC3    C5 8702   3.692   0.235  16.513 -0.0333 -0.1761  0.0709
  587TMC3    C6 8703   3.663   0.351  16.448 -0.2247 -0.2628 -0.0672
  587TMC3     C 8704   3.365   0.075  16.572 -0.2535 -0.1550  0.3292
  587TMC3     O 8705   3.397   0.003  16.665 -0.0105  0.0298  0.0546
  587TMC3     H 8706   3.324   0.316  16.454 -0.5562  0.6280 -0.3129
  587TMC3    H1 8707   3.620   0.054  16.601  1.8307  0.6905 -0.5274
  587TMC3    H2 8708   3.730   0.434  16.429  1.3196 -1.1931  1.2513
  587TMC3    C7 8709   3.833   0.211  16.548 -0.5165 -0.1044  0.3460
  587TMC3    C8 8710   3.493   0.497  16.374  0.6928 -0.0661 -0.1176
  587TMC3    O1 8711   3.910   0.304  16.528 -0.3202 -0.6098 -0.2135
  587TMC3    O2 8712   3.583   0.565  16.324 -1.0004 -0.4903 -0.5035
  588TMC3    C1 8713   1.195   2.772   9.878 -0.2247  0.8462 -0.7936
  588TMC3    C2 8714   1.098   2.682   9.851 -0.0936 -0.0218  0.2477
  588TMC3    C3 8715   1.126   2.570   9.780  0.3206 -0.0198 -0.2022
  588TMC3    C4 8716   1.320   2.742   9.838 -0.1687  0.1300 -0.4127
  588TMC3    C5 8717   1.346   2.639   9.753 -0.1836  0.6771 -0.2716
  588TMC3    C6 8718   1.250   2.548   9.726  0.1416 -0.0716 -0.1244
  588TMC3     C 8719   1.158   2.908   9.826 -0.1429 -0.0054 -0.4293
  588TMC3     O 8720   1.247   2.962   9.764  0.0662 -0.2419  0.0613
  588TMC3     H 8721   0.995   2.704   9.877 -0.0277 -0.3603  0.8094
  588TMC3    H1 8722   1.393   2.821   9.855  1.1669 -0.8837 -1.4065
  588TMC3    H2 8723   1.277   2.471   9.654 -2.2495 -0.7239 -0.3302
  588TMC3    C7 8724   1.423   2.672   9.638 -0.0153 -0.2887 -0.1395
  588TMC3    C8 8725   1.029   2.463   9.761 -0.1700  0.8587 -0.0233
  588TMC3    O1 8726   1.459   2.574   9.569 -0.4007  0.3845  0.1649
  588TMC3    O2 8727   0.910   2.495   9.756 -0.2492  0.4297  0.0650
  589TMC3    C1 8728   4.687   4.598   0.942  0.2661 -0.0058 -0.4169
  589TMC3    C2 8729   0.040   4.606   1.051 -0.7983 -0.1010  0.0582
  589TMC3    C3 8730   0.151   4.526   1.046  0.7081  0.7000 -0.6514
  589TMC3    C4 8731   4.713   4.516   0.833 -0.2128 -0.5217  0.1301
  589TMC3    C5 8732   0.100   4.438   0.840  0.3490  0.1356 -0.4223
  589TMC3    C6 8733   0.185   4.435   0.947  0.4964  0.0795 -0.2631
  589TMC3     C 8734   4.550   4.631   0.951  0.1961 -0.0323  0.0626
  589TMC3     O 8735   4.471   4.570   0.881  0.2780  0.5219 -0.1440
  589TMC3     H 8736   0.007   4.655   1.143  0.6901  0.8424  0.0962
  589TMC3    H1 8737   4.648   4.512   0.746 -2.2393  0.6027  1.5856
  589TMC3    H2 8738   0.270   4.369   0.956 -1.3475 -2.4238 -1.2992
  589TMC3    C7 8739   0.117   4.335   0.746 -0.7684 -0.4797 -0.0356
  589TMC3    C8 8740   0.224   4.526   1.174  0.0518  1.3160  0.1334
  589TMC3    O1 8741   0.158   4.226   0.793 -0.2744  0.5701 -0.3831
  589TMC3    O2 8742   0.176   4.592   1.263 -0.3929 -0.2519 -0.2742
  590MPD2     C 8743   4.532   3.718  16.814 -0.1751 -0.0148 -0.5450
  590MPD2    C1 8744   4.468   3.754  16.695  0.0718  0.0501  0.2719
  590MPD2    C2 8745   4.543   3.815  16.601  0.5078 -0.1817 -0.1056
  590MPD2    C3 8746   4.674   3.843  16.615 -0.1165 -0.0456 -0.1799
  590MPD2    C4 8747   0.008   3.811  16.733 -0.4532 -0.0076 -0.7719
  590MPD2    C5 8748   4.663   3.754  16.832 -0.7134 -0.1186  0.3730
  590MPD2     H 8749   4.489   3.866  16.522 -1.7969  1.7473  2.6517
  590MPD2    H1 8750   0.113   3.828  16.752 -0.7315  0.2368  0.5599
  590MPD2    H2 8751   4.480   3.672  16.898 -1.8163 -0.3178 -1.7281
  590MPD2    H3 8752   4.716   3.737  16.925 -1.3252  1.3802  0.9925
  590MPD2     N 8753   0.024   3.905  16.515 -0.4133  0.6872 -0.0636
  590MPD2    H5 8754   4.702   3.944  16.436  1.9448 -1.9474 -2.8551
  590MPD2    N1 8755   4.336   3.729  16.683  0.4944 -0.0863 -0.3216
  590MPD2    H7 8756   4.299   3.766  16.596  0.2623  1.0264  0.2445
  591TMC3    C1 8757   0.194   3.982  16.384 -0.2888 -0.2833  0.6105
  591TMC3    C2 8758   0.244   3.907  16.281 -0.0187  0.1576  0.2465
  591TMC3    C3 8759   0.210   3.941  16.155  0.2383  0.0108  0.5176
  591TMC3    C4 8760   0.126   4.101  16.359  0.1121 -0.6983 -0.3770
  591TMC3    C5 8761   0.104   4.142  16.230  0.6576 -0.2058 -0.0990
  591TMC3    C6 8762   0.156   4.065  16.128  0.2692  0.8681  0.4207
  591TMC3     C 8763   0.162   3.905  16.501  0.6352  0.1213 -0.1186
  591TMC3     O 8764   0.253   3.841  16.555  0.0190 -0.3781  0.4471
  591TMC3     H 8765   0.286   3.810  16.308 -2.2662 -1.0269 -0.4664
  591TMC3    H1 8766   0.064   4.156  16.429  0.9745  1.3692 -1.2361
  591TMC3    H2 8767   0.139   4.092  16.024  1.1647 -1.4049 -0.3338
  591TMC3    C7 8768   4.714   4.211  16.207  0.2628 -0.3311 -0.1286
  591TMC3    C8 8769   0.201   3.830  16.063  0.3529  0.6173 -0.3468
  591TMC3    O1 8770   4.607   4.176  16.260 -0.1377  0.4155  0.0642
  591TMC3    O2 8771   0.259   3.727  16.098  0.2271 -0.5556  0.3228
  592MPD2     C 8772   0.142   0.626  11.039  0.0259  0.7374 -1.0731
  592MPD2    C1 8773   0.176   0.643  11.167  0.9080  0.3075 -0.1440
  592MPD2    C2 8774   0.105   0.560  11.258 -0.6386 -0.4768 -0.7446
  592MPD2    C3 8775   0.013   0.464  11.215 -0.5791 -0.0972  0.1606
  592MPD2    C4 8776   4.706   0.453  11.081 -0.2270 -0.0809 -0.0183
  592MPD2    C5 8777   0.044   0.539  10.997  0.1312  0.0669 -0.5520
  592MPD2     H 8778   0.125   0.569  11.364  0.4209  2.5244 -1.2057
  592MPD2    H1 8779   4.629   0.388  11.042 -0.9945 -0.2053  1.6981
  592MPD2    H2 8780   0.182   0.690  10.961  0.8873  0.1453 -1.1241
  592MPD2    H3 8781   0.014   0.544  10.893 -1.4146  5.2430  0.1220
  592MPD2     N 8782   4.679   0.389  11.312  0.1281 -0.0947 -0.0345
  592MPD2    H5 8783   4.706   0.407  11.408  0.1521  1.7445 -0.3924
  592MPD2    N1 8784   0.264   0.744  11.220 -0.6500 -0.4487 -0.1795
  592MPD2    H7 8785   0.314   0.792  11.145  1.8018  1.8043  2.8807
  593TMC3    C1 8786   0.376   0.891  11.352  0.2891  0.0005  0.9909
  593TMC3    C2 8787   0.386   0.950  11.470  0.0605 -0.6719 -0.2769
  593TMC3    C3 8788   0.499   1.016  11.497  0.0552  0.7570 -0.2056
  593TMC3    C4 8789   0.483   0.885  11.264 -0.0799  0.1841 -0.7006
  593TMC3    C5 8790   0.587   0.958  11.301 -0.1721  0.0017 -0.0162
  593TMC3    C6 8791   0.600   1.036  11.413  0.5897 -0.4447  0.4178
  593TMC3     C 8792   0.275   0.786  11.351  0.0353 -0.1977  0.5275
  593TMC3     O 8793   0.223   0.754  11.460 -0.0310 -0.2333 -1.1094
  593TMC3     H 8794   0.301   0.981  11.530  1.2657 -0.5484  1.3382
  593TMC3    H1 8795   0.486   0.812  11.185  1.5455 -0.9751  0.4390
  593TMC3    H2 8796   0.691   1.089  11.439 -0.3627  0.2000  2.4025
  593TMC3    C7 8797   0.707   0.964  11.218  0.1402 -0.0888 -0.0106
  593TMC3    C8 8798   0.493   1.085  11.617  0.0591  0.2111 -0.2340
  593TMC3    O1 8799   0.800   1.034  11.257 -0.3634  0.7545  0.5688
  593TMC3    O2 8800   0.393   1.151  11.638 -0.4245 -0.1224  0.9572
  594MPD2     C 8801   3.669   4.356  13.945 -0.6890  0.1929 -0.3572
  594MPD2    C1 8802   3.567   4.453  13.917  0.2717  0.4473 -0.0855
  594MPD2    C2 8803   3.601   4.581  13.857 -0.8043 -0.0218 -0.1094
  594MPD2    C3 8804   3.727   4.602  13.813 -0.0022  0.1834  0.2446
  594MPD2    C4 8805   3.822   4.508  13.827  0.2456 -0.6136  0.9203
  594MPD2    C5 8806   3.791   4.385  13.892  0.4664  0.1290 -0.7572
  594MPD2     H 8807   3.521   4.647  13.824 -0.7210 -0.1829 -0.6364
  594MPD2    H1 8808   3.926   4.527  13.808  0.4348 -1.2768  1.2752
  594MPD2    H2 8809   3.644   4.257  13.981 -0.3005  0.5261  0.8351
  594MPD2    H3 8810   3.875   4.321  13.918 -0.7421 -1.0323  0.3427
  594MPD2     N 8811   3.749   4.724  13.745 -0.5314 -0.5208 -0.0047
  594MPD2    H5 8812   3.669   0.060  13.746  1.4470  1.9708  0.7159
  594MPD2    N1 8813   3.436   4.415  13.956 -0.9259 -1.0138 -0.0092
  594MPD2    H7 8814   3.428   4.320  13.992  1.0227 -1.7346 -1.4437
  595TMC3    C1 8815   4.038   0.345  13.776  0.4992 -0.1369 -0.5901
  595TMC3    C2 8816   3.984   0.259  13.688  0.2367  0.3075  0.4084
  595TMC3    C3 8817   3.866   0.199  13.725  0.3228  0.0852  0.0966
  595TMC3    C4 8818   3.971   0.391  13.888  0.6981 -0.3140  0.7224
  595TMC3    C5 8819   3.837   0.357  13.902 -0.2409 -0.4997 -0.2674
  595TMC3    C6 8820   3.787   0.256  13.825 -0.2985 -0.4378  0.0804
  595TMC3     C 8821   4.183   0.354  13.766 -0.0582  0.2529  0.5577
  595TMC3     O 8822   4.241   0.332  13.658  0.6956 -0.1932  0.3196
  595TMC3     H 8823   4.051   0.223  13.611  1.1828  0.2402  1.2628
  595TMC3    H1 8824   4.025   0.461  13.951  1.0436  0.2940 -0.2460
  595TMC3    H2 8825   3.687   0.220  13.843  0.4556 -2.9068 -0.6380
  595TMC3    C7 8826   3.773   0.363  14.031 -0.3818 -0.2347 -0.1680
  595TMC3    C8 8827   3.866   0.051  13.713 -0.0759  0.3699 -0.1701
  595TMC3    O1 8828   3.652   0.341  14.035 -0.0456 -0.0736 -0.3722
  595TMC3    O2 8829   3.973   0.001  13.692 -0.2711 -0.5440  0.9453
  596MPD2     C 8830   2.819   2.585  16.448  1.0979 -0.4480 -0.2528
  596MPD2    C1 8831   2.832   2.722  16.428  0.2648  0.5444  0.0900
  596MPD2    C2 8832   2.838   2.777  16.301 -0.0927 -0.2305  1.2847
  596MPD2    C3 8833   2.840   2.691  16.195  0.0433 -0.3868  0.4279
  596MPD2    C4 8834   2.838   2.555  16.210  0.0173 -0.5650  0.0303
  596MPD2    C5 8835   2.826   2.508  16.336 -0.1429 -0.0361  0.7267
  596MPD2     H 8836   2.838   2.885  16.295  0.7049 -0.3746 -1.3737
  596MPD2    H1 8837   2.833   2.482  16.130 -1.5347  0.2977 -0.6697
  596MPD2    H2 8838   2.802   2.530  16.540 -1.6193 -0.1506 -0.5648
  596MPD2    H3 8839   2.819   2.401  16.346 -0.0527  0.0545  1.7775
  596MPD2     N 8840   2.837   2.742  16.065 -0.1138  0.2460 -0.2472
  596MPD2    H5 8841   2.816   2.668  15.998  1.1156 -2.6906  2.6111
  596MPD2    N1 8842   2.830   2.817  16.537 -0.2266  0.1232 -0.2388
  596MPD2    H7 8843   2.848   2.914  16.512  0.7029  0.1367  0.4693
  597TMC3    C1 8844   2.862   2.897  16.741 -0.0542 -0.5096 -0.6850
  597TMC3    C2 8845   2.945   2.989  16.685  0.3958 -0.3697 -0.2046
  597TMC3    C3 8846   2.944   3.123  16.731 -0.0138 -0.2790  0.2078
  597TMC3    C4 8847   2.782   2.920  16.843  0.8749 -0.1101  0.4902
  597TMC3    C5 8848   2.780   3.053  16.891  0.5044  0.0306  0.5650
  597TMC3    C6 8849   2.860   3.153  16.835  0.1030 -0.1456  0.2868
  597TMC3     C 8850   2.826   2.780  16.671 -0.0052  0.1443  0.5741
  597TMC3     O 8851   2.803   2.670  16.722 -0.3008 -0.4875 -0.1862
  597TMC3     H 8852   3.006   2.971  16.598  1.9392  0.4694  0.6995
  597TMC3    H1 8853   2.720   2.845  16.890 -0.9784  1.6035  0.7942
  597TMC3    H2 8854   2.862   3.248  16.887 -1.0883  0.5174 -0.9010
  597TMC3    C7 8855   2.702   3.080  17.009  0.2764  0.0666 -0.2153
  597TMC3    C8 8856   3.021   3.220  16.656 -0.5233 -0.1299  0.8861
  597TMC3    O1 8857   2.669   2.985  17.083 -0.3638  0.3289  0.3099
  597TMC3    O2 8858   3.088   3.184  16.561 -0.4398  0.3328  0.1669
  598TMC3    C1 8859   0.467   4.206  15.215  0.0101 -0.0804  0.2317
  598TMC3    C2 8860   0.358   4.268  15.163  0.0033  0.0024 -0.3837
  598TMC3    C3 8861   0.367   4.394  15.122  0.7067 -0.0857  0.2687
  598TMC3    C4 8862   0.594   4.258  15.220 -0.4660 -0.5796  0.5179
  598TMC3    C5 8863   0.597   4.390  15.171 -0.0235  0.6194  0.5025
  598TMC3    C6 8864   0.490   4.454  15.121 -0.0390 -0.7632 -0.4430
  598TMC3     C 8865   0.456   4.060  15.240  0.3577 -0.4343 -0.2264
  598TMC3     O 8866   0.366   4.001  15.182 -0.1450  0.5815 -0.3443
  598TMC3     H 8867   0.262   4.220  15.175  1.7903 -2.6880  3.3223
  598TMC3    H1 8868   0.677   4.218  15.277  0.8151 -0.7346 -1.4560
  598TMC3    H2 8869   0.516   4.554  15.088 -1.0271  0.3104  2.0093
  598TMC3    C7 8870   0.722   4.456  15.202  0.1385  0.3016 -0.2123
  598TMC3    C8 8871   0.251   4.470  15.067 -0.4818 -0.2004 -0.8690
  598TMC3    O1 8872   0.787   4.406  15.294 -0.1587  0.3532  0.3632
  598TMC3    O2 8873   0.278   4.565  14.997 -0.0377 -0.0988 -0.0231
  599MPD2     C 8874   0.730   1.641  15.460  0.2905  0.3628  0.2513
  599MPD2    C1 8875   0.815   1.627  15.570  0.9242 -0.6663 -0.6405
  599MPD2    C2 8876   0.772   1.674  15.695  0.6102  0.4196 -0.5337
  599MPD2    C3 8877   0.644   1.728  15.711  0.3915 -0.7472  0.1989
  599MPD2    C4 8878   0.564   1.723  15.606  0.3130  0.1960 -0.4263
  599MPD2    C5 8879   0.604   1.681  15.482 -0.6349  0.0410 -0.0916
  599MPD2     H 8880   0.842   1.663  15.777 -1.2718 -1.3372  0.8395
  599MPD2    H1 8881   0.462   1.758  15.622  0.1699  1.0294 -3.0935
  599MPD2    H2 8882   0.764   1.608  15.362 -2.0866 -2.8832  0.5443
  599MPD2    H3 8883   0.540   1.675  15.394 -1.2253  1.0275  0.2604
  599MPD2     N 8884   0.590   1.789  15.828 -0.7532  0.5333 -0.3936
  599MPD2    H5 8885   0.498   1.832  15.821 -2.1663 -2.6099 -1.3958
  599MPD2    N1 8886   0.930   1.548  15.550  0.2219 -0.0779 -0.1782
  599MPD2    H7 8887   0.946   1.534  15.451  0.2795  0.3991 -0.2343
  600TMC3    C1 8888   0.548   1.829  16.050  0.4446  0.0088  0.3817
  600TMC3    C2 8889   0.422   1.838  15.993  0.5120  0.0571 -0.4015
  600TMC3    C3 8890   0.345   1.945  16.030 -0.5658  0.4175  0.3892
  600TMC3    C4 8891   0.598   1.925  16.128  0.4508  0.1232 -0.8105
  600TMC3    C5 8892   0.524   2.028  16.156 -0.4339  0.1644  0.7185
  600TMC3    C6 8893   0.393   2.043  16.112 -0.4971  0.7364 -0.4384
  600TMC3     C 8894   0.643   1.786  15.950 -0.3494  0.7108  0.0944
  600TMC3     O 8895   0.759   1.754  15.985  0.1529  0.2637 -0.0734
  600TMC3     H 8896   0.385   1.757  15.931 -0.1526 -0.6617  0.9279
  600TMC3    H1 8897   0.707   1.928  16.134  0.3439  2.2210  0.0513
  600TMC3    H2 8898   0.341   2.138  16.116 -0.7923  0.6701 -2.9831
  600TMC3    C7 8899   0.577   2.140  16.229 -0.3361 -0.2263 -0.3585
  600TMC3    C8 8900   0.203   1.908  16.057 -0.3099 -0.1478  0.2143
  600TMC3    O1 8901   0.522   2.245  16.218 -0.1675  0.4584 -0.4522
  600TMC3    O2 8902   0.148   1.812  16.001 -0.0358 -0.1181  0.1744
  601MPD2     C 8903   2.606   4.530   0.301 -0.5491 -0.5548 -0.3499
  601MPD2    C1 8904   2.635   4.486   0.170  0.1493 -0.0662 -0.3084
  601MPD2    C2 8905   2.727   4.392   0.151 -0.5461 -0.3632  0.5544
  601MPD2    C3 8906   2.812   4.345   0.247 -0.4120  0.6635  0.5034
  601MPD2    C4 8907   2.794   4.393   0.371 -0.1959 -0.0383 -0.0779
  601MPD2    C5 8908   2.700   4.485   0.396  0.7688 -0.4953  0.6754
  601MPD2     H 8909   2.731   4.359   0.048 -1.1995 -0.3660  0.5264
  601MPD2    H1 8910   2.846   4.356   0.459  0.4003 -0.6234 -0.6802
  601MPD2    H2 8911   2.543   4.613   0.329  0.3097 -0.8683  2.5069
  601MPD2    H3 8912   2.682   4.517   0.498 -2.3831  0.4050 -0.1632
  601MPD2     N 8913   2.909   4.243   0.227  0.2726 -0.0911  0.5542
  601MPD2    H5 8914   2.977   4.230   0.302 -0.0513  0.5062  0.9481
  601MPD2    N1 8915   2.561   4.539   0.057  0.3107  0.4880  0.1893
  601MPD2    H7 8916   2.591   4.512  17.675  2.9961 -0.1691  1.2435
  602TMC3    C1 8917   2.435   4.702  17.654  0.0100 -0.9100 -0.2069
  602TMC3    C2 8918   2.317   0.035  17.634  0.8596  0.6190 -0.3130
  602TMC3    C3 8919   2.258   0.038  17.510 -0.0553 -0.5430  0.6581
  602TMC3    C4 8920   2.511   4.663  17.540  0.0263  0.7369  1.1707
  602TMC3    C5 8921   2.451   4.672  17.421 -0.3426  0.2255 -0.8310
  602TMC3    C6 8922   2.326   4.716  17.400 -0.1875 -0.5128  0.6179
  602TMC3     C 8923   2.459   4.635   0.065 -0.5914  0.4632 -0.7767
  602TMC3     O 8924   2.383   4.660   0.156 -0.4870  0.2253  0.0956
  602TMC3     H 8925   2.272   0.096  17.710  2.9568 -0.2065  1.5932
  602TMC3    H1 8926   2.610   4.622  17.557 -0.6785 -1.2553  0.4484
  602TMC3    H2 8927   2.281   4.710  17.302  0.1497 -2.0326  0.5509
  602TMC3    C7 8928   2.545   4.671  17.312  0.0467  0.6322 -0.0631
  602TMC3    C8 8929   2.181   0.162  17.472 -0.0107 -0.6670  0.7113
  602TMC3    O1 8930   2.656   4.621  17.335 -0.3183 -0.2412 -0.1489
  602TMC3    O2 8931   2.171   0.245  17.560 -0.4462 -0.9004 -0.1153
  603TMC3    C1 8932   1.380   4.540  10.808  0.0767 -0.0564 -0.1567
  603TMC3    C2 8933   1.380   4.547  10.944  0.2389 -0.6410 -0.2912
  603TMC3    C3 8934   1.438   4.666  11.003  0.1645  0.4797  0.0030
  603TMC3    C4 8935   1.423   4.638  10.728  0.3161  0.4140 -0.7744
  603TMC3    C5 8936   1.477   0.024  10.796  0.5034  0.0529  0.3618
  603TMC3    C6 8937   1.491   0.036  10.927  0.3474  0.1696  0.7454
  603TMC3     C 8938   1.367   4.404  10.759  0.2272 -0.3271 -0.5935
  603TMC3     O 8939   1.403   4.320  10.836 -0.2985  0.2211  0.0252
  603TMC3     H 8940   1.337   4.465  11.001 -1.0094  0.4172  0.2956
  603TMC3    H1 8941   1.448   4.619  10.624 -1.7533  1.9665 -1.5567
  603TMC3    H2 8942   1.553   0.112  10.972 -1.1320  1.8568 -0.0678
  603TMC3    C7 8943   1.522   0.139  10.718  0.0325  0.0549 -0.5256
  603TMC3    C8 8944   1.416   4.676  11.152 -0.2443 -0.0936 -0.2181
  603TMC3    O1 8945   1.606   0.219  10.763 -0.0603  0.5817 -0.7216
  603TMC3    O2 8946   1.389   4.574  11.216 -0.3554 -0.2070 -0.7153
  604MPD2     C 8947   1.704   3.811  16.446  0.0877 -0.0875 -0.4697
  604MPD2    C1 8948   1.596   3.821  16.367  0.2918  0.2082  0.7783
  604MPD2    C2 8949   1.596   3.785  16.236  0.8577 -0.1901  0.0467
  604MPD2    C3 8950   1.713   3.743  16.178  0.3551  0.1357 -0.6170
  604MPD2    C4 8951   1.829   3.733  16.255  0.3109 -0.1042 -0.1840
  604MPD2    C5 8952   1.821   3.754  16.395 -0.4127  0.0639 -0.6431
  604MPD2     H 8953   1.507   3.771  16.176  0.6805 -0.9938  0.4868
  604MPD2    H1 8954   1.925   3.698  16.219  0.0324  0.1556 -1.1877
  604MPD2    H2 8955   1.696   3.835  16.551 -3.3085  2.1252 -1.2604
  604MPD2    H3 8956   1.911   3.747  16.455  0.8941 -0.0155 -2.6079
  604MPD2     N 8957   1.714   3.693  16.040 -0.3455 -0.8219  0.4145
  604MPD2    H5 8958   1.636   3.721  15.981  0.7263 -0.2385 -0.7404
  604MPD2    N1 8959   1.488   3.891  16.431 -0.1565  0.1512 -0.1080
  604MPD2    H7 8960   1.509   3.915  16.527  0.6198 -0.4452 -0.1307
  605TMC3    C1 8961   1.272   4.004  16.462  0.1101 -0.3270  0.4116
  605TMC3    C2 8962   1.311   4.063  16.581  0.3032  0.2101 -0.5897
  605TMC3    C3 8963   1.284   4.198  16.604  0.3621 -0.0814  0.2059
  605TMC3    C4 8964   1.176   4.066  16.386  0.5396 -0.3779 -0.0833
  605TMC3    C5 8965   1.135   4.194  16.417 -1.2724 -0.2560 -0.1484
  605TMC3    C6 8966   1.194   4.258  16.519 -0.6876  0.0326  0.2419
  605TMC3     C 8967   1.359   3.916  16.381  0.4167  0.0631 -0.1220
  605TMC3     O 8968   1.324   3.883  16.267 -0.5073  0.2374  0.1028
  605TMC3     H 8969   1.369   4.002  16.650  0.6438  0.0685 -1.0041
  605TMC3    H1 8970   1.126   4.004  16.313  2.0646  1.5563 -2.8017
  605TMC3    H2 8971   1.177   4.360  16.550 -0.1114 -0.0024  0.6764
  605TMC3    C7 8972   1.068   4.268  16.314 -0.1001  0.3824 -0.1847
  605TMC3    C8 8973   1.380   4.282  16.670 -0.7894 -0.1507  0.1329
  605TMC3    O1 8974   1.034   4.385  16.341  0.2690 -0.1075 -0.4147
  605TMC3    O2 8975   1.345   4.397  16.693 -0.2582 -0.1830  0.1232
  606TMC3    C1 8976   3.106   2.343  16.746 -0.2356  0.1308  0.6060
  606TMC3    C2 8977   3.158   2.282  16.855 -0.4674 -0.0563  0.3906
  606TMC3    C3 8978   3.147   2.143  16.879  0.3699  0.5312 -0.2212
  606TMC3    C4 8979   3.040   2.262  16.660  0.4637 -0.0745  0.3391
  606TMC3    C5 8980   3.034   2.126  16.682 -0.5788 -0.4810  0.2532
  606TMC3    C6 8981   3.082   2.057  16.790 -0.1016  0.2598 -0.8926
  606TMC3     C 8982   3.145   2.476  16.705  0.0091  0.0331  0.3865
  606TMC3     O 8983   3.210   2.541  16.788 -0.3705  0.1985  0.2144
  606TMC3     H 8984   3.214   2.342  16.927  1.2291  0.0488 -1.0163
  606TMC3    H1 8985   2.997   2.293  16.565  0.9126 -0.9380 -0.1506
  606TMC3    H2 8986   3.100   1.951  16.778 -1.0424  0.1125 -0.9888
  606TMC3    C7 8987   2.966   2.041  16.583 -0.8780 -0.0075 -0.1128
  606TMC3    C8 8988   3.185   2.101  17.012  0.0415  0.2568 -0.0887
  606TMC3    O1 8989   2.973   2.074  16.463 -0.2494  0.1512  0.8675
  606TMC3    O2 8990   3.230   2.193  17.085 -0.5934  0.0792 -0.0493
  607MPD2     C 8991   0.293   0.288  11.447 -0.7738  0.4734  0.0910
  607MPD2    C1 8992   0.389   0.345  11.533  0.1038 -0.3960  0.5780
  607MPD2    C2 8993   0.366   0.334  11.669 -1.0689 -0.2544 -0.1064
  607MPD2    C3 8994   0.267   0.258  11.724 -1.0777  0.2603  0.2702
  607MPD2    C4 8995   0.196   0.175  11.639 -0.9341 -0.1942  0.6093
  607MPD2    C5 8996   0.211   0.195  11.504 -0.2105  0.1068  0.5773
  607MPD2     H 8997   0.428   0.393  11.735 -1.8376 -1.2219  1.4892
  607MPD2    H1 8998   0.121   0.110  11.684 -1.7771 -0.0796 -0.6499
  607MPD2    H2 8999   0.307   0.298  11.340 -1.4454  2.0569  0.1466
  607MPD2    H3 9000   0.162   0.138  11.427  1.6339 -1.4452  0.5514
  607MPD2     N 9001   0.270   0.256  11.860 -0.3082  0.0642 -0.3512
  607MPD2    H5 9002   0.310   0.339  11.902  1.3319 -0.2738 -1.2463
  607MPD2    N1 9003   0.501   0.419  11.495  0.4625  0.0208  0.4243
  607MPD2    H7 9004   0.551   0.454  11.576 -1.8066  2.4812  0.7418
  608TMC3    C1 9005   0.650   0.536  11.357  0.1437 -0.2795  0.2153
  608TMC3    C2 9006   0.641   0.636  11.452  0.4450  0.1756  0.0788
  608TMC3    C3 9007   0.740   0.733  11.465  0.5279  0.0277 -0.4279
  608TMC3    C4 9008   0.760   0.521  11.280  0.5225 -0.0251  0.0437
  608TMC3    C5 9009   0.856   0.628  11.291 -0.4932  0.2054 -0.1385
  608TMC3    C6 9010   0.844   0.730  11.386  0.5525 -0.0870 -0.7545
  608TMC3     C 9011   0.558   0.420  11.370  0.1366  0.5953  0.2629
  608TMC3     O 9012   0.525   0.359  11.268 -0.0792 -0.5946  0.2699
  608TMC3     H 9013   0.540   0.650  11.487  0.4807  1.1534 -0.1926
  608TMC3    H1 9014   0.763   0.444  11.203  0.3227 -0.4899  0.4983
  608TMC3    H2 9015   0.917   0.810  11.396 -1.7679  1.8012  1.1847
  608TMC3    C7 9016   0.978   0.605  11.215  0.7448 -0.1474 -0.3831
  608TMC3    C8 9017   0.748   0.809  11.586  0.3226  0.3776 -0.1366
  608TMC3    O1 9018   0.972   0.524  11.122 -0.2643  0.3560 -0.4644
  608TMC3    O2 9019   0.825   0.907  11.597  0.3484 -0.2041 -0.6003
  609TMC3    C1 9020   4.390   3.149   9.248  0.3208 -0.4876 -0.2168
  609TMC3    C2 9021   4.457   3.152   9.131  0.0330  0.0207  0.4238
  609TMC3    C3 9022   4.580   3.091   9.123 -0.5625 -0.2985  0.7181
  609TMC3    C4 9023   4.432   3.077   9.358  0.6352 -0.2884  0.6005
  609TMC3    C5 9024   4.561   3.018   9.349 -0.6356  0.0489  0.5480
  609TMC3    C6 9025   4.633   3.024   9.234 -0.1099 -0.0475 -0.0768
  609TMC3     C 9026   4.255   3.205   9.241  0.1513 -0.6870 -0.5569
  609TMC3     O 9027   4.223   3.259   9.138  0.0965  0.4913 -0.0579
  609TMC3     H 9028   4.434   3.221   9.050  0.4384 -2.3019 -1.6860
  609TMC3    H1 9029   4.365   3.053   9.440  0.0802  1.8683  0.7751
  609TMC3    H2 9030   4.725   2.966   9.225  1.7701  2.8796  0.2936
  609TMC3    C7 9031   4.606   2.950   9.465  0.1314  0.6423 -0.5251
  609TMC3    C8 9032   4.625   3.041   8.997 -0.2819 -0.3816 -0.1630
  609TMC3    O1 9033   4.555   2.986   9.573  0.4687 -0.2297 -0.5492
  609TMC3    O2 9034   4.547   3.003   8.911  0.0388  0.4877  0.0470
  610TMC3    C1 9035   0.788   0.186  12.530  0.4934  0.5332 -0.4007
  610TMC3    C2 9036   0.835   0.252  12.425 -0.5172 -0.0790 -0.0182
  610TMC3    C3 9037   0.910   0.187  12.338 -0.0774  0.4414 -0.6549
  610TMC3    C4 9038   0.833   0.062  12.564 -0.1771  0.2364 -0.4804
  610TMC3    C5 9039   0.937   0.010  12.484 -0.0765 -0.4303 -0.0795
  610TMC3    C6 9040   0.972   0.068  12.368  0.7177  0.3604  0.6712
  610TMC3     C 9041   0.653   0.228  12.566  0.1901 -0.4093 -0.0505
  610TMC3     O 9042   0.635   0.350  12.580  0.1532 -0.6514 -0.4301
  610TMC3     H 9043   0.782   0.342  12.399 -0.8165 -0.8820 -2.1494
  610TMC3    H1 9044   0.815   0.014  12.660  1.5135 -0.2499 -0.4219
  610TMC3    H2 9045   1.050   0.027  12.304  2.9188  2.2476  2.1346
  610TMC3    C7 9046   1.008   4.629  12.546  0.1056  0.2997  0.7361
  610TMC3    C8 9047   0.954   0.278  12.225  0.2988  0.0177  0.0393
  610TMC3    O1 9048   1.016   4.628  12.669  0.0640  0.3124  0.1593
  610TMC3    O2 9049   0.952   0.399  12.241 -0.3527 -0.0950  0.0689
  611MPD2     C 9050   0.478   4.716  10.524  0.4729 -0.2410  0.8569
  611MPD2    C1 9051   0.427   0.020  10.405 -0.1193  0.1032 -1.0077
  611MPD2    C2 9052   0.506   0.085  10.310  0.3394 -0.0254  0.3404
  611MPD2    C3 9053   0.641   0.109  10.339  0.3930 -0.3115  0.2568
  611MPD2    C4 9054   0.689   0.087  10.468  0.1471  0.1666  0.6496
  611MPD2    C5 9055   0.609   0.021  10.554 -0.0241 -0.1483 -0.2141
  611MPD2     H 9056   0.470   0.099  10.209 -1.6409 -2.4649  0.7288
  611MPD2    H1 9057   0.792   0.097  10.499  0.2641 -0.8960  0.6209
  611MPD2    H2 9058   0.410   4.666  10.592 -1.1029  0.6974 -0.0206
  611MPD2    H3 9059   0.646   4.727  10.654  1.2284  1.4349 -0.3359
  611MPD2     N 9060   0.735   0.176  10.255  0.1825 -0.4206 -0.1890
  611MPD2    H5 9061   0.831   0.178  10.286 -0.6904  0.6076  2.3882
  611MPD2    N1 9062   0.290   4.712  10.382 -0.5382  0.3366 -0.5463
  611MPD2    H7 9063   0.249   4.667  10.463  1.3363 -0.3506  0.0218
  612TMC3    C1 9064   0.829   0.274  10.064 -0.0370 -0.2015 -0.0760
  612TMC3    C2 9065   0.934   0.322  10.142  0.4129 -0.1773 -0.1251
  612TMC3    C3 9066   1.050   0.355  10.075  0.3998  0.4480  0.9085
  612TMC3    C4 9067   0.847   0.245   9.931 -0.2242  0.0428  0.4742
  612TMC3    C5 9068   0.965   0.274   9.875  0.5251 -0.3493 -0.0658
  612TMC3    C6 9069   1.067   0.326   9.944  0.5899 -0.0674 -0.1588
  612TMC3     C 9070   0.707   0.219  10.128 -0.0141 -0.0163 -0.3329
  612TMC3     O 9071   0.609   0.208  10.059 -0.4784  0.3596 -0.2409
  612TMC3     H 9072   0.939   0.339  10.249  1.1838  0.1104 -0.2052
  612TMC3    H1 9073   0.760   0.210   9.878 -0.8639  1.2593  0.7253
  612TMC3    H2 9074   1.157   0.355   9.890 -0.3451 -1.8956 -2.6649
  612TMC3    C7 9075   1.001   0.225   9.746  0.2678 -0.3871 -0.5627
  612TMC3    C8 9076   1.165   0.408  10.134 -0.1830  0.2278  0.1942
  612TMC3    O1 9077   1.118   0.201   9.717 -0.0362 -0.5242 -0.0352
  612TMC3    O2 9078   1.226   0.500  10.080 -0.1256 -0.1598 -0.1383
  613MPD2     C 9079   4.477   3.262  16.397  0.1962 -0.4540  0.3505
  613MPD2    C1 9080   4.424   3.230  16.271  0.4268 -0.3025  0.0597
  613MPD2    C2 9081   4.322   3.139  16.269 -0.0683 -0.6161  0.3024
  613MPD2    C3 9082   4.275   3.073  16.380  0.0942  0.0033  0.1942
  613MPD2    C4 9083   4.324   3.120  16.500 -0.2954 -0.0612  0.4880
  613MPD2    C5 9084   4.418   3.216  16.509 -0.6515 -0.4490  0.9102
  613MPD2     H 9085   4.269   3.114  16.178 -1.5256 -0.7727  1.1878
  613MPD2    H1 9086   4.277   3.089  16.593 -0.0145 -2.5769 -0.2021
  613MPD2    H2 9087   4.558   3.334  16.409  0.1087 -0.3023  0.0148
  613MPD2    H3 9088   4.458   3.264  16.598  0.1541  1.1147 -0.2965
  613MPD2     N 9089   4.179   2.974  16.387 -0.2176  0.5648 -0.5765
  613MPD2    H5 9090   4.166   2.944  16.483  1.8372  1.6597  0.0552
  613MPD2    N1 9091   4.484   3.280  16.157  0.0429  0.3615  0.2580
  613MPD2    H7 9092   4.572   3.329  16.167  0.6260 -1.0272  2.1097
  614TMC3    C1 9093   4.555   3.284  15.933  0.5857 -0.0356 -0.2333
  614TMC3    C2 9094   4.688   3.257  15.968  0.7505  0.0168  0.2278
  614TMC3    C3 9095   0.046   3.228  15.868 -0.6664  0.0007 -0.2904
  614TMC3    C4 9096   4.524   3.304  15.805 -0.1882 -0.6009  0.3247
  614TMC3    C5 9097   4.615   3.279  15.706 -0.0815  0.0524  0.1253
  614TMC3    C6 9098   0.006   3.224  15.739 -0.6581 -0.3399  0.5288
  614TMC3     C 9099   4.447   3.254  16.026  0.7972 -0.2048 -1.0160
  614TMC3     O 9100   4.344   3.211  15.979  0.5192 -0.3071 -0.2596
  614TMC3     H 9101   4.722   3.243  16.070  1.1400 -0.6414  0.0117
  614TMC3    H1 9102   4.422   3.324  15.775 -0.7330  1.7335  3.7278
  614TMC3    H2 9103   0.068   3.178  15.663  0.8225  0.4286  1.2619
  614TMC3    C7 9104   4.556   3.240  15.578 -0.0740 -0.0178 -0.1511
  614TMC3    C8 9105   0.177   3.175  15.905 -0.2169 -0.4832 -0.0001
  614TMC3    O1 9106   4.440   3.204  15.579 -0.1120 -0.3688 -0.5342
  614TMC3    O2 9107   0.235   3.257  15.972 -0.1224 -0.1056  0.4646
  615MPD2     C 9108   3.525   3.858  16.189 -0.2043 -0.0326  0.3403
  615MPD2    C1 9109   3.411   3.928  16.156 -0.0213 -0.2856 -0.2493
  615MPD2    C2 9110   3.352   3.919  16.026 -0.1016  0.6206  0.4438
  615MPD2    C3 9111   3.424   3.835  15.936 -0.3938 -0.7101  0.0514
  615MPD2    C4 9112   3.539   3.772  15.975  0.2170  0.8072 -0.6980
  615MPD2    C5 9113   3.590   3.790  16.097 -0.0763  0.4426 -0.1813
  615MPD2     H 9114   3.268   3.985  16.011  0.8574  1.9903  1.0755
  615MPD2    H1 9115   3.595   3.709  15.907  1.0151  1.4238 -0.6102
  615MPD2    H2 9116   3.572   3.873  16.286 -1.5342 -1.5360  1.2141
  615MPD2    H3 9117   3.681   3.742  16.132 -0.3627  0.0607  0.0512
  615MPD2     N 9118   3.381   3.824  15.800 -0.0020 -0.0111 -0.1428
  615MPD2    H5 9119   3.436   3.765  15.738 -0.5966  1.6942 -2.3164
  615MPD2    N1 9120   3.352   4.018  16.251  0.2224  0.0087  0.6407
  615MPD2    H7 9121   3.273   4.067  16.210 -0.0797 -1.0886 -0.1042
  616TMC3    C1 9122   3.300   4.122  16.456 -0.0934  0.1631 -0.0048
  616TMC3    C2 9123   3.256   4.229  16.385  0.1853  0.6902 -0.2509
  616TMC3    C3 9124   3.256   4.353  16.434 -0.6687 -0.7271  0.6530
  616TMC3    C4 9125   3.326   4.133  16.590 -0.0857  0.0001  0.3157
  616TMC3    C5 9126   3.327   4.264  16.637  0.2594  0.0263 -0.3609
  616TMC3    C6 9127   3.287   4.376  16.565 -0.0666  0.6438 -0.1887
  616TMC3     C 9128   3.371   4.019  16.385 -0.1350 -0.7183 -0.3411
  616TMC3     O 9129   3.443   3.954  16.461  0.2339  0.6025 -0.3316
  616TMC3     H 9130   3.230   4.227  16.280 -1.7754 -0.4281  0.2619
  616TMC3    H1 9131   3.356   4.048  16.649  0.4261 -1.4931 -2.0938
  616TMC3    H2 9132   3.297   4.479  16.598 -2.7021  0.9986 -0.4415
  616TMC3    C7 9133   3.347   4.299  16.774  0.3926 -0.1305 -0.1907
  616TMC3    C8 9134   3.285   4.462  16.346 -0.0662 -0.5345 -0.2170
  616TMC3    O1 9135   3.299   4.400  16.823 -0.1747  0.5705  0.2803
  616TMC3    O2 9136   3.204   4.492  16.261 -0.4892 -0.4558  0.4002
  617MPD2     C 9137   1.474   2.392  13.329 -0.1411 -0.3063  0.2860
  617MPD2    C1 9138   1.482   2.258  13.310 -0.0816 -0.3798  0.1172
  617MPD2    C2 9139   1.358   2.195  13.292 -0.1631  0.8867 -0.2856
  617MPD2    C3 9140   1.236   2.258  13.297  0.6312  0.2175  0.1747
  617MPD2    C4 9141   1.231   2.387  13.326 -0.3431 -0.0042  0.5568
  617MPD2    C5 9142   1.355   2.451  13.339 -0.3878 -0.2110 -0.5840
  617MPD2     H 9143   1.370   2.087  13.291 -1.4065  0.7540 -0.7930
  617MPD2    H1 9144   1.136   2.439  13.336 -0.2301  0.4994 -1.0390
  617MPD2    H2 9145   1.565   2.450  13.339 -0.7668  0.8579 -0.8476
  617MPD2    H3 9146   1.360   2.557  13.360  3.7232 -0.6899  0.9141
  617MPD2     N 9147   1.121   2.180  13.282  0.6833  0.2180 -0.2808
  617MPD2    H5 9148   1.042   2.229  13.324  0.6341  1.1082 -1.4181
  617MPD2    N1 9149   1.608   2.191  13.334 -0.0228  0.3808  0.3872
  617MPD2    H7 9150   1.671   2.245  13.393 -0.7479  2.0271 -0.3274
  618TMC3    C1 9151   1.756   2.004  13.396 -0.2207  0.0623 -0.4752
  618TMC3    C2 9152   1.785   1.870  13.390  0.2398 -0.2981 -0.4188
  618TMC3    C3 9153   1.908   1.821  13.409 -0.2612 -0.0395 -0.0764
  618TMC3    C4 9154   1.853   2.098  13.435  0.0162 -0.3064  0.2736
  618TMC3    C5 9155   1.976   2.044  13.464  0.6225  0.5503  0.4629
  618TMC3    C6 9156   2.009   1.909  13.455 -0.0187  0.9716  0.2858
  618TMC3     C 9157   1.643   2.055  13.318  0.2731  0.0707  0.0617
  618TMC3     O 9158   1.578   1.975  13.250  0.4266 -0.5953 -0.0070
  618TMC3     H 9159   1.701   1.805  13.366  0.0450 -0.8978  1.8920
  618TMC3    H1 9160   1.841   2.206  13.435 -3.0780 -0.6659 -1.3717
  618TMC3    H2 9161   2.113   1.880  13.467 -0.6191 -1.9656 -1.5826
  618TMC3    C7 9162   2.072   2.145  13.501 -0.1730 -0.6343  0.5316
  618TMC3    C8 9163   1.950   1.698  13.346 -0.5093  0.0366  0.7770
  618TMC3    O1 9164   2.021   2.229  13.572  0.2441 -0.7930 -0.8539
  618TMC3    O2 9165   1.866   1.643  13.275 -0.2268 -0.0618  0.3636
  619MPD2     C 9166   3.229   3.588  13.758 -0.1359  0.2119 -0.5098
  619MPD2    C1 9167   3.137   3.604  13.653 -0.3330  0.0320 -1.0067
  619MPD2    C2 9168   2.995   3.595  13.673  0.2334  0.1403 -0.2214
  619MPD2    C3 9169   2.950   3.573  13.799 -0.3841  0.5043 -0.2023
  619MPD2    C4 9170   3.046   3.563  13.906  0.6025  0.0278 -0.2904
  619MPD2    C5 9171   3.178   3.559  13.883  0.7828 -0.0897 -0.1411
  619MPD2     H 9172   2.925   3.599  13.591 -1.6229 -1.0509  1.2819
  619MPD2    H1 9173   3.010   3.552  14.007  0.7165  0.0014 -0.2527
  619MPD2    H2 9174   3.336   3.588  13.743 -0.0229 -1.9369  0.2490
  619MPD2    H3 9175   3.247   3.545  13.965 -0.0495  1.7547  0.8723
  619MPD2     N 9176   2.817   3.554  13.827  0.3481 -0.3004 -0.5183
  619MPD2    H5 9177   2.791   3.524  13.920  1.5492  2.3334  0.6552
  619MPD2    N1 9178   3.177   3.635  13.519  0.6771  0.4781  0.2090
  619MPD2    H7 9179   3.102   3.649  13.452  1.0586  1.0792 -0.0855
  620TMC3    C1 9180   3.299   3.714  13.344  0.1731  0.1924 -0.1471
  620TMC3    C2 9181   3.197   3.655  13.270 -0.7968  0.0016 -0.2065
  620TMC3    C3 9182   3.145   3.724  13.170 -0.7467  0.3612  0.0895
  620TMC3    C4 9183   3.336   3.844  13.318  0.4321  0.5093 -0.1465
  620TMC3    C5 9184   3.286   3.908  13.212  0.5966  0.0989  0.4544
  620TMC3    C6 9185   3.193   3.849  13.134 -0.3431 -0.4895  0.7453
  620TMC3     C 9186   3.295   3.687  13.481  0.2842 -0.2998  0.3463
  620TMC3     O 9187   3.399   3.716  13.542  0.2186 -0.0439  0.1604
  620TMC3     H 9188   3.177   3.550  13.285 -0.8688  0.0601  0.1022
  620TMC3    H1 9189   3.403   3.885  13.394  1.8491 -0.0267 -1.1084
  620TMC3    H2 9190   3.153   3.890  13.042 -2.6226 -0.5338  1.7212
  620TMC3    C7 9191   3.252   4.045  13.232  0.5751 -0.6722  0.8286
  620TMC3    C8 9192   3.004   3.717  13.192 -0.5572 -0.6945 -0.0502
  620TMC3    O1 9193   3.160   4.090  13.165 -0.0220 -0.1404 -0.5652
  620TMC3    O2 9194   2.960   3.674  13.298  0.0606 -0.2149 -1.0508
  621MPD2     C 9195   3.948   3.329   9.694 -0.2046 -0.0190 -0.1204
  621MPD2    C1 9196   4.028   3.313   9.802  0.0165 -0.5424 -0.3115
  621MPD2    C2 9197   4.151   3.376   9.795 -0.2108  0.1332  0.2110
  621MPD2    C3 9198   4.185   3.464   9.697  0.3508 -0.2166  1.0042
  621MPD2    C4 9199   4.102   3.493   9.598  0.8079 -0.0640 -0.4819
  621MPD2    C5 9200   3.983   3.430   9.604 -0.4360 -0.1859 -0.1054
  621MPD2     H 9201   4.227   3.366   9.872  0.9276  2.4147 -0.6448
  621MPD2    H1 9202   4.118   3.563   9.517 -0.5725  0.2007 -0.5236
  621MPD2    H2 9203   3.851   3.280   9.689  0.7907 -2.1309  1.5060
  621MPD2    H3 9204   3.913   3.446   9.523 -1.8574  1.4631  1.4493
  621MPD2     N 9205   4.306   3.531   9.717 -0.1699  0.3473 -0.8847
  621MPD2    H5 9206   4.365   3.514   9.797 -1.1423 -0.7434 -0.3910
  621MPD2    N1 9207   3.986   3.247   9.920  0.7860  0.0908  0.3533
  621MPD2    H7 9208   4.051   3.253   9.998  1.3737  1.9837 -0.2693
  622TMC3    C1 9209   3.865   3.109  10.065  0.1969  0.3552  0.0665
  622TMC3    C2 9210   3.735   3.082  10.104  0.2032  0.7197 -0.5916
  622TMC3    C3 9211   3.700   2.953  10.150  0.5317 -0.0469  0.2993
  622TMC3    C4 9212   3.964   3.012  10.071 -0.3919 -0.2846 -0.7935
  622TMC3    C5 9213   3.927   2.890  10.119 -0.0591  0.1684  0.1981
  622TMC3    C6 9214   3.797   2.853  10.151 -0.0280 -0.3916 -0.3583
  622TMC3     C 9215   3.868   3.197   9.947  0.3696  0.1664  0.3138
  622TMC3     O 9216   3.766   3.207   9.881 -0.7008 -0.4215  0.3441
  622TMC3     H 9217   3.662   3.160  10.089  1.7218  1.6452 -3.0788
  622TMC3    H1 9218   4.058   3.022  10.018  0.2418  0.8301  0.5377
  622TMC3    H2 9219   3.779   2.755  10.193  1.7765 -1.0033 -1.0260
  622TMC3    C7 9220   4.001   2.780  10.059  0.3691  0.8574  0.1867
  622TMC3    C8 9221   3.564   2.918  10.174  0.2763  0.2355 -0.0414
  622TMC3    O1 9222   4.126   2.784  10.048 -0.0504  0.1055  0.0051
  622TMC3    O2 9223   3.549   2.804  10.215 -0.3310 -0.4600  0.1109
  623MPD2     C 9224   1.853   3.943  15.809 -0.3409 -0.0247 -0.0570
  623MPD2    C1 9225   1.804   4.018  15.913  0.2070  0.0962 -0.3331
  623MPD2    C2 9226   1.874   4.034  16.032 -0.3316 -0.1561 -0.7168
  623MPD2    C3 9227   2.003   3.999  16.039  0.7979  0.4737  0.0612
  623MPD2    C4 9228   2.059   3.930  15.932 -0.4935  0.1703 -0.2066
  623MPD2    C5 9229   1.984   3.905  15.822  0.2715 -0.1947  0.0767
  623MPD2     H 9230   1.820   4.073  16.118 -1.9805 -0.8737 -1.4255
  623MPD2    H1 9231   2.156   3.883  15.941  0.1036  1.9842  2.9142
  623MPD2    H2 9232   1.803   3.907  15.719  0.3658 -0.0123 -0.4582
  623MPD2    H3 9233   2.034   3.853  15.741 -0.1888  0.4665 -0.6272
  623MPD2     N 9234   2.062   4.016  16.171 -0.2693 -0.0666 -0.1009
  623MPD2    H5 9235   2.008   4.062  16.244  2.3174 -0.3548  1.9631
  623MPD2    N1 9236   1.675   4.074  15.912 -0.3506  0.1257  0.0998
  623MPD2    H7 9237   1.640   4.113  15.999 -0.7573 -0.8148  0.3533
  624TMC3    C1 9238   2.323   4.125  16.517 -0.5852  1.0720 -0.9550
  624TMC3    C2 9239   2.213   4.122  16.604  0.9264 -0.2971 -0.2605
  624TMC3    C3 9240   2.108   4.045  16.564  0.9418 -0.1022  0.2837
  624TMC3    C4 9241   2.321   4.069  16.392 -0.0868 -0.5091 -0.2683
  624TMC3    C5 9242   2.205   4.010  16.353 -0.7134 -0.1567 -0.4414
  624TMC3    C6 9243   2.096   4.000  16.431  0.0130 -0.6455 -0.2201
  624TMC3     C 9244   2.451   4.114  16.587  0.3178  0.2611 -0.6939
  624TMC3     O 9245   2.446   4.067  16.701 -0.2786 -0.3736 -0.3810
  624TMC3     H 9246   2.224   4.164  16.703  1.1083  1.3720 -1.0021
  624TMC3    H1 9247   2.406   4.071  16.324 -0.9132 -0.8410 -1.3066
  624TMC3    H2 9248   2.004   3.949  16.406 -0.5096 -0.1507  0.6825
  624TMC3    C7 9249   2.188   3.976  16.212  0.1567 -0.7841  0.6440
  624TMC3    C8 9250   1.985   4.081  16.634 -0.3388  0.4414  0.7700
  624TMC3    O1 9251   2.282   3.924  16.148  0.8996  0.5167  0.8952
  624TMC3    O2 9252   1.902   3.990  16.653  0.1897  0.2275 -0.6953
  625MPD2     C 9253   2.652   0.224   0.248 -0.0661 -0.5956 -0.2840
  625MPD2    C1 9254   2.605   0.262   0.366 -0.8072 -0.2182  0.4897
  625MPD2    C2 9255   2.652   0.208   0.483  0.3980  0.6214  0.2343
  625MPD2    C3 9256   2.752   0.116   0.484 -0.3914  0.7295  0.4381
  625MPD2    C4 9257   2.804   0.078   0.367  0.2216  0.4895  0.2817
  625MPD2    C5 9258   2.749   0.120   0.253  0.5318 -0.2369  0.2115
  625MPD2     H 9259   2.614   0.246   0.577 -0.1991  1.0021 -0.1589
  625MPD2    H1 9260   2.882   0.002   0.359 -0.5894 -0.1655 -1.4937
  625MPD2    H2 9261   2.610   0.260   0.155 -0.1934 -0.0746 -0.0253
  625MPD2    H3 9262   2.787   0.091   0.156 -1.2210  0.2928 -0.6374
  625MPD2     N 9263   2.798   0.078   0.610  0.2192 -1.0990  0.3698
  625MPD2    H5 9264   2.738   0.106   0.687  0.7359  0.9155  0.0269
  625MPD2    N1 9265   2.497   0.353   0.380 -0.3235 -0.4780 -0.7161
  625MPD2    H7 9266   2.453   0.361   0.471  1.2279  1.0328 -0.1051
  626TMC3    C1 9267   2.326   0.517   0.325 -0.0837 -0.4719 -0.0493
  626TMC3    C2 9268   2.310   0.635   0.264  0.3786  0.3737  0.2954
  626TMC3    C3 9269   2.183   0.692   0.268 -0.4676  0.0070  0.3909
  626TMC3    C4 9270   2.228   0.449   0.393  0.0588  0.6546 -0.0494
  626TMC3    C5 9271   2.106   0.510   0.396 -0.3708 -0.7341 -0.2100
  626TMC3    C6 9272   2.077   0.630   0.340 -0.5837  0.6201 -0.0091
  626TMC3     C 9273   2.448   0.446   0.285  0.2995  0.0471  1.0233
  626TMC3     O 9274   2.494   0.470   0.173 -0.2307  0.6136 -0.1584
  626TMC3     H 9275   2.390   0.682   0.208  0.4729 -1.4155 -1.0496
  626TMC3    H1 9276   2.245   0.359   0.452  1.5042  0.4310 -0.7964
  626TMC3    H2 9277   1.974   0.663   0.330  0.1024  3.2021  1.4110
  626TMC3    C7 9278   2.002   0.443   0.468 -0.1048  0.5092 -0.5557
  626TMC3    C8 9279   2.167   0.813   0.198  0.7232  0.9360  0.5986
  626TMC3    O1 9280   2.012   0.320   0.484  0.1492  0.0379  0.0822
  626TMC3    O2 9281   2.267   0.860   0.135  0.0605 -0.2065 -0.3275
  627MPD2     C 9282   1.314   0.871  13.985  0.3661 -0.8571 -0.1530
  627MPD2    C1 9283   1.208   0.946  14.034  0.7310 -0.2209  0.5366
  627MPD2    C2 9284   1.080   0.896  14.044  0.1381 -0.4753  0.6006
  627MPD2    C3 9285   1.054   0.775  13.993 -0.4036 -0.5175 -0.7245
  627MPD2    C4 9286   1.158   0.704  13.931  0.0207  0.1830  0.1441
  627MPD2    C5 9287   1.288   0.748  13.931  0.9958 -0.6361  0.3399
  627MPD2     H 9288   1.002   0.960  14.085  0.1613 -0.7253  1.0298
  627MPD2    H1 9289   1.145   0.608  13.883 -0.0077  0.4236 -0.3361
  627MPD2    H2 9290   1.416   0.907  13.976 -0.2365  1.4037  2.0270
  627MPD2    H3 9291   1.370   0.697  13.882  0.9147  0.2354 -0.7032
  627MPD2     N 9292   0.926   0.722  14.003 -0.0640  0.1089  0.1706
  627MPD2    H5 9293   0.859   0.775  14.059  1.8371  1.2451  1.3572
  627MPD2    N1 9294   1.240   1.077  14.079  0.2892  0.6308  0.3492
  627MPD2    H7 9295   1.339   1.096  14.084  1.2104 -3.8583 -0.8000
  628TMC3    C1 9296   1.223   1.303  14.169  0.6529  0.0897  0.1022
  628TMC3    C2 9297   1.322   1.286  14.261  0.2914 -0.4305 -0.1340
  628TMC3    C3 9298   1.368   1.398  14.324 -0.2819 -0.0186 -0.0599
  628TMC3    C4 9299   1.161   1.420  14.149  0.1810  0.3031  0.0558
  628TMC3    C5 9300   1.208   1.531  14.217 -0.0290 -1.0290 -0.5487
  628TMC3    C6 9301   1.308   1.522  14.313 -0.2254  0.4079 -0.7186
  628TMC3     C 9302   1.155   1.182  14.115 -0.5288 -0.0472  0.0890
  628TMC3     O 9303   1.036   1.202  14.088 -0.3886  0.2214  0.1142
  628TMC3     H 9304   1.361   1.186  14.278 -1.5368 -0.8920  1.2860
  628TMC3    H1 9305   1.085   1.419  14.071 -1.5185  0.8481  1.7185
  628TMC3    H2 9306   1.365   1.606  14.352  0.9498  0.0859 -1.7708
  628TMC3    C7 9307   1.190   1.664  14.159  0.2436  1.0079  0.0296
  628TMC3    C8 9308   1.458   1.384  14.438  0.4631 -0.4524 -0.0577
  628TMC3    O1 9309   1.271   1.743  14.204 -0.4807  0.1237  0.0155
  628TMC3    O2 9310   1.526   1.480  14.462 -0.0524  0.2423 -0.1697
  629MPD2     C 9311   3.620   0.087  16.195  0.3281  0.5682 -0.0203
  629MPD2    C1 9312   3.689   4.714  16.251  0.1272 -0.5856  0.0564
  629MPD2    C2 9313   3.619   4.608  16.306 -0.1309 -0.2866 -0.6993
  629MPD2    C3 9314   3.481   4.606  16.294  0.5342  0.4425 -0.2781
  629MPD2    C4 9315   3.417   4.702  16.223 -0.6111  0.2680 -0.0298
  629MPD2    C5 9316   3.486   0.082  16.176  0.4357 -0.6921 -0.1727
  629MPD2     H 9317   3.673   4.536  16.367  0.1612  0.7446  0.2514
  629MPD2    H1 9318   3.309   4.711  16.226 -0.5729 -0.1449  2.8805
  629MPD2    H2 9319   3.674   0.170  16.151  1.1414  0.8196  1.4682
  629MPD2    H3 9320   3.434   0.167  16.135  0.9788 -0.1165  0.3319
  629MPD2     N 9321   3.421   4.496  16.361  0.1455  0.0572 -0.4486
  629MPD2    H5 9322   3.482   4.436  16.415 -2.9311 -2.5516  0.1309
  629MPD2    N1 9323   3.825   4.726  16.258 -0.0694 -0.0006  0.1918
  629MPD2    H7 9324   3.860   0.080  16.209  0.6088 -0.6929 -0.4577
  630TMC3    C1 9325   4.057   4.652  16.277 -0.0842  0.0190  0.1684
  630TMC3    C2 9326   4.094   0.050  16.243  0.2564  1.0293 -0.3111
  630TMC3    C3 9327   4.220   0.063  16.186  0.1654 -0.3355 -0.0123
  630TMC3    C4 9328   4.148   4.551  16.262  1.2474 -0.7459 -0.2404
  630TMC3    C5 9329   4.280   4.575  16.227 -0.5705 -0.1258  0.0029
  630TMC3    C6 9330   4.309   4.689  16.166 -0.3975  0.6343 -0.1565
  630TMC3     C 9331   3.914   4.622  16.290  0.1302  0.6273  0.0460
  630TMC3     O 9332   3.902   4.508  16.328  0.0433 -0.1225  0.1764
  630TMC3     H 9333   4.039   0.141  16.266  1.7254  1.0818  3.1450
  630TMC3    H1 9334   4.120   4.461  16.316 -2.1011  0.6657  0.3809
  630TMC3    H2 9335   4.406   4.709  16.120 -1.0410  2.3444 -0.7345
  630TMC3    C7 9336   4.386   4.518  16.305 -0.8669 -0.7107  0.8057
  630TMC3    C8 9337   4.298   0.174  16.219  1.1726 -0.2459 -0.6610
  630TMC3    O1 9338   4.370   4.405  16.344 -0.0260  0.1224  0.1550
  630TMC3    O2 9339   4.363   0.170  16.319 -0.1912  0.3280  0.8328
  631MPD2     C 9340   2.438   4.064  15.526 -0.3410  0.1890  0.0200
  631MPD2    C1 9341   2.508   4.049  15.411 -0.1062  0.2363 -0.4948
  631MPD2    C2 9342   2.642   4.028  15.409  0.4186  0.1319  0.6111
  631MPD2    C3 9343   2.705   4.009  15.528  0.1479  0.6254 -0.0932
  631MPD2    C4 9344   2.627   4.019  15.649 -0.3864  0.2041  0.1731
  631MPD2    C5 9345   2.495   4.050  15.649  0.4512 -0.0669  0.3251
  631MPD2     H 9346   2.698   4.015  15.317 -0.9527 -0.8728 -0.0677
  631MPD2    H1 9347   2.684   4.010  15.741  0.3905  0.3211 -0.2945
  631MPD2    H2 9348   2.331   4.081  15.523  0.0437  2.5308 -0.6223
  631MPD2    H3 9349   2.439   4.068  15.740  0.6750 -0.0568  0.4621
  631MPD2     N 9350   2.841   3.982  15.542  0.2276  0.1585 -0.0159
  631MPD2    H5 9351   2.873   3.951  15.634  0.1886  2.5180  0.8008
  631MPD2    N1 9352   2.427   4.069  15.296 -0.5749  0.2441  0.0986
  631MPD2    H7 9353   2.330   4.081  15.322 -0.0416  3.3755  0.6543
  632TMC3    C1 9354   2.375   4.099  15.061 -0.1975 -0.3997 -0.4446
  632TMC3    C2 9355   2.267   4.158  15.103  0.1790  0.6303  0.0445
  632TMC3    C3 9356   2.193   4.230  15.016  0.3748  0.0752 -0.0376
  632TMC3    C4 9357   2.416   4.116  14.931  0.9178  0.9064  0.3331
  632TMC3    C5 9358   2.353   4.199  14.842 -0.0436 -0.0106 -0.1305
  632TMC3    C6 9359   2.226   4.248  14.882 -0.1095  0.9106  0.5884
  632TMC3     C 9360   2.476   4.069  15.164  0.7937 -0.8180 -0.1898
  632TMC3     O 9361   2.586   4.035  15.117  0.0424  0.3676  0.4090
  632TMC3     H 9362   2.230   4.144  15.204  0.0480 -0.4832 -0.1527
  632TMC3    H1 9363   2.506   4.061  14.906  1.0262  1.4297 -0.4129
  632TMC3    H2 9364   2.183   4.319  14.812 -0.1901  0.6996  0.4229
  632TMC3    C7 9365   2.428   4.256  14.731 -0.3057  0.2083 -0.0610
  632TMC3    C8 9366   2.112   4.335  15.074  0.6911 -0.2111  0.6578
  632TMC3    O1 9367   2.381   4.358  14.681 -0.4015  0.3476 -0.1523
  632TMC3    O2 9368   2.141   4.382  15.186 -0.0208  0.0990 -0.3880
  633MPD2     C 9369   2.431   2.303  17.135 -0.2142 -0.4285 -0.2874
  633MPD2    C1 9370   2.376   2.298  17.010 -0.1113 -0.2901  0.0738
  633MPD2    C2 9371   2.323   2.184  16.966 -0.0896  0.1715  0.3750
  633MPD2    C3 9372   2.329   2.064  17.046  1.0731  0.2515 -0.7287
  633MPD2    C4 9373   2.396   2.067  17.167 -0.2063  0.3049  0.0501
  633MPD2    C5 9374   2.441   2.188  17.212 -0.1621 -0.2340 -0.0209
  633MPD2     H 9375   2.281   2.190  16.866 -1.0963 -0.4291  0.7663
  633MPD2    H1 9376   2.399   1.986  17.239  0.9681 -0.6622 -1.0698
  633MPD2    H2 9377   2.469   2.393  17.182 -1.0390  0.4608 -1.3354
  633MPD2    H3 9378   2.492   2.196  17.307 -1.0233 -1.0871  0.5186
  633MPD2     N 9379   2.265   1.940  17.019 -0.4040  0.0532  0.1460
  633MPD2    H5 9380   2.294   1.859  17.072 -0.1784 -0.6128 -0.9852
  633MPD2    N1 9381   2.387   2.413  16.926  0.1069  0.2961  0.1468
  633MPD2    H7 9382   2.352   2.398  16.832  2.0450  1.7520 -0.8153
  634TMC3    C1 9383   2.436   2.624  16.836 -0.1180  0.1599 -0.5625
  634TMC3    C2 9384   2.472   2.565  16.713  0.4952 -0.0310  0.2443
  634TMC3    C3 9385   2.489   2.642  16.603  0.0858  0.0684 -0.6315
  634TMC3    C4 9386   2.412   2.759  16.853 -0.3179  0.0356 -0.4814
  634TMC3    C5 9387   2.435   2.831  16.735 -0.3236  0.2278 -0.4732
  634TMC3    C6 9388   2.478   2.777  16.613 -0.0868  0.1956 -0.0241
  634TMC3     C 9389   2.417   2.543  16.959 -0.6472  0.4349  0.8133
  634TMC3     O 9390   2.414   2.594  17.071  0.8963  0.3505  0.4859
  634TMC3     H 9391   2.486   2.457  16.715  0.6213 -0.0274 -0.5774
  634TMC3    H1 9392   2.387   2.795  16.952  4.5333 -0.4636  0.9370
  634TMC3    H2 9393   2.496   2.846  16.531 -0.8090  0.2018 -0.1770
  634TMC3    C7 9394   2.398   2.978  16.733 -0.5963  0.1198  0.1366
  634TMC3    C8 9395   2.509   2.569  16.477  0.0643  0.9747  0.5991
  634TMC3    O1 9396   2.418   3.042  16.631 -0.2682  0.0924  0.0856
  634TMC3    O2 9397   2.507   2.448  16.485  0.1178  0.3240 -0.2136
  635TMC3    C1 9398   3.055   3.066   0.078 -0.0226 -0.0211  0.1110
  635TMC3    C2 9399   3.101   3.049   0.201 -0.5579 -0.0688  0.1138
  635TMC3    C3 9400   3.104   2.924   0.260 -0.3312  0.0268  0.2565
  635TMC3    C4 9401   3.041   2.959  17.708  0.7373  1.2599 -0.3523
  635TMC3    C5 9402   3.054   2.834   0.054 -0.5845  0.0601 -0.9371
  635TMC3    C6 9403   3.084   2.812   0.184  0.3802 -0.5744  0.8672
  635TMC3     C 9404   3.056   3.204   0.036  0.1559 -0.2492  0.3641
  635TMC3     O 9405   3.124   3.275   0.112 -0.1777  0.3340  0.0195
  635TMC3     H 9406   3.125   3.127   0.273 -0.6018  0.4524 -0.4438
  635TMC3    H1 9407   3.022   2.971  17.602  1.0637  1.3600 -0.3989
  635TMC3    H2 9408   3.105   2.715   0.228 -1.9423 -0.9272  1.1862
  635TMC3    C7 9409   2.993   2.723  17.693 -0.4836  0.2189  0.2945
  635TMC3    C8 9410   3.192   2.901   0.373  0.5312 -0.3075 -0.0784
  635TMC3    O1 9411   2.984   2.621   0.048 -0.2214 -0.1177 -0.0903
  635TMC3    O2 9412   3.182   2.796   0.438 -0.4134 -0.0071 -0.2399
  636MPD2     C 9413   3.624   2.977  15.586  0.3676  0.6850 -0.7059
  636MPD2    C1 9414   3.668   3.083  15.673  0.6917 -0.4408  0.6894
  636MPD2    C2 9415   3.784   3.065  15.746  0.0668  0.2358 -0.6775
  636MPD2    C3 9416   3.848   2.941  15.743  0.1333  0.3089  0.9197
  636MPD2    C4 9417   3.808   2.845  15.652 -0.0158 -0.3479  0.0526
  636MPD2    C5 9418   3.700   2.864  15.572  0.5286 -0.1722  0.1818
  636MPD2     H 9419   3.817   3.129  15.827 -1.1230  0.8747 -0.6980
  636MPD2    H1 9420   3.862   2.751  15.647 -0.2278 -0.5202  0.9479
  636MPD2    H2 9421   3.532   2.999  15.533  0.0078 -0.5105 -0.5672
  636MPD2    H3 9422   3.660   2.782  15.512 -0.0602  0.1388  0.1488
  636MPD2     N 9423   3.953   2.929  15.828 -0.2038  0.4283 -0.2054
  636MPD2    H5 9424   3.970   3.010  15.886 -1.9094  0.8092 -0.2683
  636MPD2    N1 9425   3.588   3.193  15.721  0.6738 -0.4622  0.1409
  636MPD2    H7 9426   3.623   3.243  15.802 -0.3024  4.2635 -2.3585
  637TMC3    C1 9427   4.138   2.837  15.934 -0.8793 -0.3926 -0.5356
  637TMC3    C2 9428   4.092   2.886  16.050  0.9381 -0.7557  0.0368
  637TMC3    C3 9429   4.180   2.896  16.155  0.2258  0.0109  0.0368
  637TMC3    C4 9430   4.265   2.796  15.916  0.0496 -0.7275  0.1009
  637TMC3    C5 9431   4.353   2.817  16.020  0.1141 -0.1760 -0.3567
  637TMC3    C6 9432   4.314   2.856  16.151  0.0209  0.1451 -0.9192
  637TMC3     C 9433   4.036   2.822  15.831 -0.2083  0.2860  0.5729
  637TMC3     O 9434   4.063   2.740  15.738  0.5137 -0.3516 -0.4712
  637TMC3     H 9435   3.987   2.910  16.061  1.0416  0.6545 -2.0668
  637TMC3    H1 9436   4.306   2.769  15.820 -1.1073  0.4161 -0.7152
  637TMC3    H2 9437   4.380   2.863  16.236 -0.2101 -2.8008 -0.5007
  637TMC3    C7 9438   4.501   2.836  15.995 -0.5995  0.1013  0.0508
  637TMC3    C8 9439   4.119   2.896  16.291  0.4331 -0.3454 -0.3742
  637TMC3    O1 9440   4.565   2.887  16.081  0.5632 -0.0715  0.4492
  637TMC3    O2 9441   4.014   2.839  16.312 -0.3892 -0.1957  0.2723
  638MPD2     C 9442   3.205   1.743  14.796 -0.6928 -0.1009 -0.4478
  638MPD2    C1 9443   3.172   1.633  14.720  0.0223 -0.5513  0.5348
  638MPD2    C2 9444   3.106   1.521  14.780 -0.1104  0.5225 -0.2498
  638MPD2    C3 9445   3.093   1.513  14.917  0.0380 -0.5382 -0.2927
  638MPD2    C4 9446   3.118   1.626  14.988  0.6543 -0.3455  0.0147
  638MPD2    C5 9447   3.176   1.734  14.930  0.1762 -0.1190  0.4787
  638MPD2     H 9448   3.084   1.434  14.719 -1.3188  2.3177 -2.3479
  638MPD2    H1 9449   3.102   1.626  15.095  2.4859  0.4856  0.2901
  638MPD2    H2 9450   3.269   1.823  14.760  1.0641 -2.3679 -2.2660
  638MPD2    H3 9451   3.207   1.819  14.989  1.5152 -0.8416  0.8296
  638MPD2     N 9452   3.061   1.392  14.980  0.6464  0.2368  0.6030
  638MPD2    H5 9453   3.051   1.311  14.920 -4.0555  0.4701  1.0463
  638MPD2    N1 9454   3.220   1.633  14.587 -0.2444  0.0670  0.3772
  638MPD2    H7 9455   3.287   1.703  14.557 -0.6083  0.5565  0.7041
  639TMC3    C1 9456   3.068   1.224  15.148 -0.0175 -0.3853 -0.0169
  639TMC3    C2 9457   3.018   1.143  15.052  0.1074  1.2035  0.0310
  639TMC3    C3 9458   3.069   1.021  15.018 -0.4042 -1.0547 -0.2265
  639TMC3    C4 9459   3.177   1.190  15.219  0.5039 -0.2623 -0.3991
  639TMC3    C5 9460   3.223   1.062  15.192  1.2110 -0.5432  0.1513
  639TMC3    C6 9461   3.165   0.973  15.100 -0.3216  0.4344 -0.5451
  639TMC3     C 9462   3.067   1.365  15.114 -0.4422  0.2227 -0.0646
  639TMC3     O 9463   3.117   1.430  15.205  0.2990 -0.0136 -0.0275
  639TMC3     H 9464   2.935   1.179  14.992 -0.4036 -1.1070 -0.6661
  639TMC3    H1 9465   3.212   1.254  15.299  0.0203  0.7171 -0.9611
  639TMC3    H2 9466   3.215   0.878  15.084 -0.7736  0.2837 -1.0554
  639TMC3    C7 9467   3.328   1.007  15.273 -0.7393  0.1293  0.4146
  639TMC3    C8 9468   2.980   0.920  14.953 -0.1837 -0.7969 -0.5432
  639TMC3    O1 9469   3.336   0.884  15.283  0.2698 -0.0948 -0.4951
  639TMC3    O2 9470   3.036   0.862  14.856  0.1733  0.6629  0.4806
  640MPD2     C 9471   4.378   3.936   9.240 -0.1406 -0.8615  1.5225
  640MPD2    C1 9472   4.470   3.940   9.343  0.4074  0.4947  0.0485
  640MPD2    C2 9473   4.461   4.045   9.439 -0.1982  0.4768 -0.0875
  640MPD2    C3 9474   4.346   4.130   9.440 -0.3761 -0.5674 -0.2196
  640MPD2    C4 9475   4.259   4.117   9.342  0.0533  0.2472 -0.3347
  640MPD2    C5 9476   4.275   4.032   9.239  0.6644  0.2612 -0.2034
  640MPD2     H 9477   4.532   4.051   9.521  2.6431 -0.8356 -2.4467
  640MPD2    H1 9478   4.176   4.188   9.335 -1.3459 -1.5138 -1.5392
  640MPD2    H2 9479   4.379   3.864   9.159 -2.6238 -0.7009  1.3758
  640MPD2    H3 9480   4.205   4.023   9.157 -0.2528 -2.1259  0.8308
  640MPD2     N 9481   4.320   4.219   9.541 -0.2455 -0.1182 -0.2956
  640MPD2    H5 9482   4.238   4.278   9.526  1.7776  2.4926 -1.1799
  640MPD2    N1 9483   4.581   3.851   9.333  0.0904  0.8154 -0.5555
  640MPD2    H7 9484   4.575   3.770   9.272  0.2462  0.5021 -0.1514
  641TMC3    C1 9485   0.044   3.736   9.391 -0.0785 -0.1418  0.3186
  641TMC3    C2 9486   0.084   3.670   9.505  0.0425  0.0284  0.4195
  641TMC3    C3 9487   0.110   3.538   9.501 -0.1773 -0.1022  0.0489
  641TMC3    C4 9488   0.031   3.673   9.270  0.5006  0.2041  0.0933
  641TMC3    C5 9489   0.051   3.536   9.271  0.4675  1.1149  0.3781
  641TMC3    C6 9490   0.098   3.467   9.385  0.7909  0.1700 -0.0997
  641TMC3     C 9491   4.686   3.852   9.416  0.4606  1.2130 -0.5690
  641TMC3     O 9492   4.723   3.939   9.498  0.0841  0.0397 -0.2797
  641TMC3     H 9493   0.104   3.727   9.595  2.8639 -0.5333  0.1810
  641TMC3    H1 9494   0.001   3.724   9.179 -3.1973  1.0069  1.7491
  641TMC3    H2 9495   0.100   3.359   9.389  1.2919  0.1694 -0.4461
  641TMC3    C7 9496   0.030   3.457   9.146  0.0072  0.2851 -0.9737
  641TMC3    C8 9497   0.109   3.467   9.630 -0.7955 -0.0470 -0.3276
  641TMC3    O1 9498   0.090   3.349   9.141  0.2602 -0.1759  0.2214
  641TMC3    O2 9499   0.034   3.372   9.633 -0.4651 -0.1030  0.3402
  642TMC3    C1 9500   0.230   1.087  11.977  0.1807  0.5113 -0.6928
  642TMC3    C2 9501   0.310   1.078  12.088  0.5173  0.1543  0.1096
  642TMC3    C3 9502   0.348   0.962  12.149 -0.3698  0.1840  0.1534
  642TMC3    C4 9503   0.202   0.972  11.912  0.7449  0.2069 -0.2716
  642TMC3    C5 9504   0.234   0.857  11.984 -0.6132  0.0398 -0.5244
  642TMC3    C6 9505   0.304   0.843  12.105 -0.4192 -0.1753 -0.7794
  642TMC3     C 9506   0.171   1.217  11.944 -0.7996 -0.6743 -0.2694
  642TMC3     O 9507   0.186   1.252  11.829  0.1355  0.4372  0.3448
  642TMC3     H 9508   0.314   1.176  12.134  0.4047  0.3520 -0.2975
  642TMC3    H1 9509   0.153   0.981  11.815  1.4251 -1.5770 -0.7969
  642TMC3    H2 9510   0.333   0.750  12.153 -0.0217  0.7971  0.8612
  642TMC3    C7 9511   0.151   0.746  11.949 -0.2126  0.0706  1.0152
  642TMC3    C8 9512   0.405   0.975  12.279  0.3767  0.0096 -0.5928
  642TMC3    O1 9513   0.126   0.735  11.828 -0.2993  0.3074 -0.0462
  642TMC3    O2 9514   0.380   0.885  12.362 -0.3432  0.3720  0.3340
  643TMC3    C1 9515   3.823   0.427   0.869 -0.6886 -0.0931 -0.4061
  643TMC3    C2 9516   3.701   0.463   0.923  0.9495  0.1005  0.1455
  643TMC3    C3 9517   3.595   0.457   0.840 -0.6043 -0.5937  0.1710
  643TMC3    C4 9518   3.837   0.382   0.740 -0.7031  0.6968  0.0185
  643TMC3    C5 9519   3.720   0.370   0.674 -0.5063  0.3332  0.4804
  643TMC3    C6 9520   3.594   0.403   0.721 -0.3408  0.2740  0.0003
  643TMC3     C 9521   3.940   0.470   0.938 -0.3774  0.3849 -0.3059
  643TMC3     O 9522   3.929   0.549   1.030  0.4247  0.1330 -0.1075
  643TMC3     H 9523   3.692   0.512   1.019 -1.3879 -1.3338  0.6543
  643TMC3    H1 9524   3.931   0.364   0.690 -0.5776 -0.3231  0.6341
  643TMC3    H2 9525   3.509   0.421   0.657 -0.5199 -0.6617 -0.0160
  643TMC3    C7 9526   3.730   0.370   0.527  0.0186 -0.0774 -0.2299
  643TMC3    C8 9527   3.492   0.563   0.855  0.3882 -0.4234  0.0764
  643TMC3    O1 9528   3.831   0.406   0.473  0.4883 -0.0201  0.0602
  643TMC3    O2 9529   3.424   0.551   0.954 -0.3495 -0.1542 -0.5664
  644MPD2     C 9530   4.104   0.206   9.779 -0.8658 -0.3254  0.0647
  644MPD2    C1 9531   4.149   0.097   9.710  0.5488 -0.4905  0.2771
  644MPD2    C2 9532   4.065   4.721   9.673  0.4588  0.8982  0.5324
  644MPD2    C3 9533   3.930   4.727   9.714 -0.2312  0.1898 -0.4076
  644MPD2    C4 9534   3.885   0.109   9.784  0.3920  0.6144 -0.0302
  644MPD2    C5 9535   3.972   0.207   9.821 -0.0084  0.0018 -0.1015
  644MPD2     H 9536   4.099   4.634   9.618 -0.8933  0.1700  0.8413
  644MPD2    H1 9537   3.786   0.104   9.829  1.5393  0.1138  2.4744
  644MPD2    H2 9538   4.164   0.293   9.806  0.5466 -0.7652 -1.6556
  644MPD2    H3 9539   3.941   0.280   9.895  2.8299 -0.5633  1.6837
  644MPD2     N 9540   3.846   4.630   9.651  0.7636 -0.0855  0.6853
  644MPD2    H5 9541   3.892   4.558   9.597  1.7082  1.0398 -0.0223
  644MPD2    N1 9542   4.281   0.103   9.674 -0.1847  0.0705 -0.3524
  644MPD2    H7 9543   4.338   0.181   9.705 -1.6158  0.8613  0.3127
  645TMC3    C1 9544   3.648   4.501   9.609  0.7272 -0.3351 -0.6160
  645TMC3    C2 9545   3.722   4.396   9.554  0.3303  0.2333 -0.0144
  645TMC3    C3 9546   3.655   4.294   9.497 -0.1252  0.5111 -0.4545
  645TMC3    C4 9547   3.513   4.502   9.613 -0.6727 -0.4370 -0.0807
  645TMC3    C5 9548   3.455   4.396   9.547  0.0829  0.1984 -0.2447
  645TMC3    C6 9549   3.520   4.293   9.489 -0.5113  0.1897 -1.2475
  645TMC3     C 9550   3.709   4.624   9.662 -0.4109  1.1149  0.1776
  645TMC3     O 9551   3.629   4.705   9.707 -0.2851  0.2029  0.3578
  645TMC3     H 9552   3.830   4.392   9.565  0.5787  1.0582 -2.0997
  645TMC3    H1 9553   3.448   4.572   9.664 -0.3826  0.9323 -1.6152
  645TMC3    H2 9554   3.474   4.210   9.437  0.8783 -1.3210 -0.0944
  645TMC3    C7 9555   3.306   4.389   9.559 -0.3727  0.1324 -0.5739
  645TMC3    C8 9556   3.726   4.166   9.488 -0.6428  0.3004 -0.2853
  645TMC3    O1 9557   3.266   4.418   9.673 -0.3144  0.6396  0.4561
  645TMC3    O2 9558   3.847   4.161   9.480 -0.7570 -0.0589 -0.2059
  646MPD2     C 9559   3.363   0.081  14.590  0.0097 -0.4582  0.3690
  646MPD2    C1 9560   3.277   0.129  14.683 -0.0864  0.0582 -0.3049
  646MPD2    C2 9561   3.154   0.179  14.645  0.1128 -0.3380  0.0749
  646MPD2    C3 9562   3.126   0.194  14.516 -0.0307  0.0849  0.0128
  646MPD2    C4 9563   3.211   0.143  14.421  0.2421  0.1912 -0.2629
  646MPD2    C5 9564   3.334   0.095  14.459  0.9386  0.6962 -0.2140
  646MPD2     H 9565   3.085   0.216  14.720  0.0825  1.8291 -1.0133
  646MPD2    H1 9566   3.189   0.146  14.315  1.6974 -3.3475 -0.6598
  646MPD2    H2 9567   3.462   0.046  14.618 -0.0838  0.1094  1.4194
  646MPD2    H3 9568   3.401   0.053  14.385 -1.5590 -3.6582 -0.0068
  646MPD2     N 9569   3.002   0.256  14.490 -0.1758  0.0739  0.2328
  646MPD2    H5 9570   2.937   0.279  14.565 -0.4971 -0.0344 -0.0091
  646MPD2    N1 9571   3.333   0.118  14.811 -0.0901 -0.6736  0.0692
  646MPD2    H7 9572   3.428   0.087  14.826 -0.5347 -2.7531 -1.4419
  647TMC3    C1 9573   3.352   0.155  15.045  0.1513 -0.1523  0.4519
  647TMC3    C2 9574   3.310   0.105  15.162  0.4451 -0.8207  0.4889
  647TMC3    C3 9575   3.394   0.096  15.270  0.8670  0.6318  0.2878
  647TMC3    C4 9576   3.485   0.191  15.027 -0.0360 -0.0011 -0.3876
  647TMC3    C5 9577   3.562   0.204  15.142  0.5688  0.5760 -0.5851
  647TMC3    C6 9578   3.517   0.153  15.268  0.7714 -0.1148 -0.3361
  647TMC3     C 9579   3.263   0.145  14.929  0.2588  0.1181  0.2330
  647TMC3     O 9580   3.156   0.200  14.949 -0.1156 -0.4115  0.1928
  647TMC3     H 9581   3.211   0.062  15.176  0.0744 -0.2985 -0.5599
  647TMC3    H1 9582   3.524   0.238  14.937 -0.3493 -1.6415 -1.3727
  647TMC3    H2 9583   3.583   0.129  15.350  0.2468  0.6374  0.3046
  647TMC3    C7 9584   3.704   0.199  15.134  0.7204  0.7935  0.2345
  647TMC3    C8 9585   3.380   4.715  15.361  0.6629 -0.1382  0.0217
  647TMC3    O1 9586   3.756   0.146  15.232 -0.0656  0.2703  0.0299
  647TMC3    O2 9587   3.354   4.608  15.309  0.4497  0.3558 -0.2222
  648TMC3    C1 9588   2.753   2.881  15.891  0.3012  0.2913  0.1840
  648TMC3    C2 9589   2.810   2.807  15.794 -0.6057  0.6382  0.1290
  648TMC3    C3 9590   2.753   2.817  15.668  0.1778  0.8132 -0.6472
  648TMC3    C4 9591   2.637   2.961  15.877  0.3170  0.0828  0.3167
  648TMC3    C5 9592   2.587   2.960  15.754 -0.8448 -0.2543  0.1389
  648TMC3    C6 9593   2.635   2.892  15.651  0.0888  0.2783  0.1372
  648TMC3     C 9594   2.790   2.867  16.031  0.2959 -0.0677  0.3988
  648TMC3     O 9595   2.756   2.962  16.103  0.1327 -0.0036 -0.7459
  648TMC3     H 9596   2.892   2.739  15.816  0.5834  2.2665  0.8079
  648TMC3    H1 9597   2.602   3.022  15.959 -0.6830  1.7990 -1.3998
  648TMC3    H2 9598   2.588   2.911  15.556 -0.5633 -0.4084  0.3283
  648TMC3    C7 9599   2.447   3.009  15.728 -0.5896 -0.3911 -0.3847
  648TMC3    C8 9600   2.795   2.729  15.559  0.0249 -0.1591  0.2869
  648TMC3    O1 9601   2.387   2.958  15.635 -0.3236  0.0917 -0.0702
  648TMC3    O2 9602   2.708   2.722  15.472  0.1727  0.1683 -0.4491
  649TMC3    C1 9603   1.634   3.391  12.431 -0.1257  0.3107  0.2002
  649TMC3    C2 9604   1.728   3.349  12.338 -1.3616 -0.4664 -0.6361
  649TMC3    C3 9605   1.826   3.257  12.376 -0.4953  0.0030 -0.1198
  649TMC3    C4 9606   1.630   3.351  12.563  0.1592  0.7321 -0.7212
  649TMC3    C5 9607   1.729   3.266  12.606  0.2038  0.5218 -0.7056
  649TMC3    C6 9608   1.825   3.225  12.512 -0.3104 -0.3999 -0.7477
  649TMC3     C 9609   1.517   3.466  12.394 -0.4688  0.0746  0.1281
  649TMC3     O 9610   1.429   3.483  12.476 -0.0851 -0.3203  0.2508
  649TMC3     H 9611   1.742   3.417  12.255  1.0276 -0.4925 -0.2552
  649TMC3    H1 9612   1.560   3.395  12.634  2.4607  1.4046  1.1265
  649TMC3    H2 9613   1.905   3.155  12.532 -1.5857 -1.3945  0.8566
  649TMC3    C7 9614   1.719   3.201  12.737 -0.4385  0.0763 -0.0916
  649TMC3    C8 9615   1.955   3.250  12.303 -0.1361 -0.5601  0.1014
  649TMC3    O1 9616   1.643   3.262  12.810 -0.0630  0.1210  0.0038
  649TMC3    O2 9617   2.057   3.208  12.356 -0.3870 -1.0583 -0.3141
  650TMC3    C1 9618   4.518   0.410  12.570  0.7062 -0.2300  0.6954
  650TMC3    C2 9619   4.499   0.546  12.575 -0.3197  0.0820 -0.3505
  650TMC3    C3 9620   4.433   0.596  12.468  0.3707 -0.5567 -0.1589
  650TMC3    C4 9621   4.450   0.334  12.474  0.1258 -0.0182 -0.1265
  650TMC3    C5 9622   4.399   0.394  12.362  0.8399 -0.2998  0.2813
  650TMC3    C6 9623   4.388   0.531  12.359  0.0391 -0.0083 -0.4515
  650TMC3     C 9624   4.639   0.365  12.642  0.0093 -0.0260  0.0037
  650TMC3     O 9625   4.724   0.449  12.655  0.5306 -0.4155  0.8233
  650TMC3     H 9626   4.539   0.606  12.656  2.0231 -1.9877  0.0353
  650TMC3    H1 9627   4.466   0.227  12.469 -0.4775 -0.1274  0.2319
  650TMC3    H2 9628   4.363   0.592  12.273 -0.5622  1.0549  0.4831
  650TMC3    C7 9629   4.289   0.329  12.286 -0.6779  0.2998 -0.4587
  650TMC3    C8 9630   4.363   0.718  12.488  0.1214 -0.5924  0.0615
  650TMC3    O1 9631   4.269   0.208  12.289  0.0715 -0.0976 -0.0157
  650TMC3    O2 9632   4.431   0.816  12.521  0.0225 -0.4848  1.0884
  651MPD2     C 9633   3.075   1.873  10.209  1.0047 -0.1983  0.2731
  651MPD2    C1 9634   3.065   1.951  10.321 -0.7194 -0.4515  0.1202
  651MPD2    C2 9635   3.177   2.011  10.378 -0.2571 -0.7179 -0.3012
  651MPD2    C3 9636   3.300   1.997  10.310 -1.3450 -0.4897 -0.1346
  651MPD2    C4 9637   3.313   1.920  10.196  0.0950 -0.5816  0.1527
  651MPD2    C5 9638   3.196   1.855  10.153 -0.4369  0.0221 -0.7311
  651MPD2     H 9639   3.159   2.074  10.464  2.0254 -1.1233  0.4552
  651MPD2    H1 9640   3.402   1.916  10.134  0.6462 -0.6081  0.9534
  651MPD2    H2 9641   2.987   1.833  10.159  0.9110  0.5756 -0.1796
  651MPD2    H3 9642   3.210   1.797  10.062 -2.3811 -0.3989 -0.7703
  651MPD2     N 9643   3.407   2.071  10.363  0.2052  0.6030  0.0827
  651MPD2    H5 9644   3.385   2.121  10.448  0.5042  0.0224  0.5026
  651MPD2    N1 9645   2.939   1.996  10.371 -0.2826 -0.2138  0.0279
  651MPD2    H7 9646   2.940   2.074  10.436 -0.5850 -0.7749  0.7009
  652TMC3    C1 9647   3.819   2.267  10.450 -0.3307  0.1536  0.6487
  652TMC3    C2 9648   3.744   2.172  10.385 -0.7494  0.2922 -0.1379
  652TMC3    C3 9649   3.608   2.189  10.379  0.5578 -0.0692 -0.3960
  652TMC3    C4 9650   3.756   2.384  10.495 -0.7147  0.5333  0.5466
  652TMC3    C5 9651   3.624   2.405  10.455  0.2150  0.2777 -0.2388
  652TMC3    C6 9652   3.550   2.306  10.400  0.4301 -0.0744  0.1330
  652TMC3     C 9653   3.940   2.230  10.524  0.4439  0.8648 -0.4144
  652TMC3     O 9654   3.954   2.291  10.628 -0.4261 -0.4450  0.6428
  652TMC3     H 9655   3.791   2.080  10.351 -2.0150  0.7118 -2.9417
  652TMC3    H1 9656   3.810   2.457  10.555  2.1282 -2.7075  1.9237
  652TMC3    H2 9657   3.443   2.322  10.391  0.6163  1.6437  0.9311
  652TMC3    C7 9658   3.565   2.542  10.457  0.6877  0.4798  0.1928
  652TMC3    C8 9659   3.535   2.078  10.318 -0.1842  0.0601  0.1056
  652TMC3    O1 9660   3.445   2.551  10.466 -0.6173 -0.3847  0.0613
  652TMC3    O2 9661   3.595   2.008  10.236 -0.1636  0.3130  0.4642
  653MPD2     C 9662   2.170   2.679   0.081 -0.1008  0.7645  0.0952
  653MPD2    C1 9663   2.141   2.781  17.701  0.8744  0.3258  0.0119
  653MPD2    C2 9664   2.062   2.759  17.593  0.7233 -0.4681 -0.4630
  653MPD2    C3 9665   2.011   2.632  17.581 -0.8947  0.1108 -0.2632
  653MPD2    C4 9666   2.028   2.533  17.676  0.0731  0.8045 -0.7378
  653MPD2    C5 9667   2.110   2.558   0.073  0.3675  0.0813 -0.2859
  653MPD2     H 9668   2.055   2.831  17.512 -5.0459  0.4557  0.8814
  653MPD2    H1 9669   2.002   2.429  17.659  0.8211  1.0766 -3.5863
  653MPD2    H2 9670   2.232   2.702   0.167 -2.2197  2.3432  1.1944
  653MPD2    H3 9671   2.124   2.489   0.155  2.2952  0.8958  0.0672
  653MPD2     N 9672   1.930   2.606  17.468  0.3331 -0.4827  0.3304
  653MPD2    H5 9673   1.941   2.682  17.401  1.6107 -0.3748  0.6732
  653MPD2    N1 9674   2.202   2.906  17.710 -0.0185  0.2578  0.7243
  653MPD2    H7 9675   2.187   2.974  17.636  0.0988 -0.3470  0.1423
  654TMC3    C1 9676   1.841   2.470  17.302  0.2766  0.1417 -0.1451
  654TMC3    C2 9677   1.810   2.581  17.231  0.3983 -1.1120  0.6184
  654TMC3    C3 9678   1.767   2.563  17.106 -0.3435 -0.2773  0.0355
  654TMC3    C4 9679   1.843   2.340  17.241  0.1415  0.0027 -0.3116
  654TMC3    C5 9680   1.812   2.330  17.108 -0.2343 -0.2485 -0.5350
  654TMC3    C6 9681   1.777   2.441  17.042 -0.7766 -0.5300  0.2018
  654TMC3     C 9682   1.871   2.482  17.440  0.8111  0.4021  0.2348
  654TMC3     O 9683   1.847   2.389  17.516  0.1124  0.1428  0.2440
  654TMC3     H 9684   1.797   2.674  17.284 -3.3613 -1.7361  0.7744
  654TMC3    H1 9685   1.861   2.253  17.302 -0.0776  0.3726  0.2770
  654TMC3    H2 9686   1.746   2.435  16.938 -0.8584 -1.5102  0.2827
  654TMC3    C7 9687   1.758   2.208  17.050 -0.1410 -0.0545 -0.0119
  654TMC3    C8 9688   1.704   2.683  17.044  0.9027  0.2029  0.2764
  654TMC3    O1 9689   1.650   2.223  16.995 -0.4697 -0.1929 -0.1180
  654TMC3    O2 9690   1.660   2.774  17.117 -0.4160  0.1367 -0.1594
  655MPD2     C 9691   3.185   2.818  15.782 -0.1164  1.0986 -0.2049
  655MPD2    C1 9692   3.175   2.892  15.665  0.2060 -0.9160  0.3201
  655MPD2    C2 9693   3.211   2.835  15.540  0.2903  0.1888  0.2040
  655MPD2    C3 9694   3.297   2.728  15.543 -0.1307 -0.3892  0.7849
  655MPD2    C4 9695   3.316   2.655  15.662 -0.0446 -0.9867 -1.2906
  655MPD2    C5 9696   3.262   2.703  15.778 -0.5188  0.0829  0.4188
  655MPD2     H 9697   3.183   2.889  15.451  1.0995  1.7178  0.8666
  655MPD2    H1 9698   3.370   2.561  15.656  0.0005 -1.0597  0.1963
  655MPD2    H2 9699   3.150   2.847  15.881  0.6711  0.1177  0.3657
  655MPD2    H3 9700   3.274   2.635  15.861 -1.9777 -0.9962 -0.2582
  655MPD2     N 9701   3.358   2.669  15.433 -0.0245  0.4292 -0.3448
  655MPD2    H5 9702   3.432   2.602  15.448  0.8910  1.5760  0.3086
  655MPD2    N1 9703   3.107   3.021  15.668 -0.5712 -0.4024 -0.3038
  655MPD2    H7 9704   3.083   3.062  15.579 -2.5845  1.4011  1.0675
  656TMC3    C1 9705   2.958   3.187  15.778 -0.7454 -0.2861  0.0854
  656TMC3    C2 9706   2.917   3.240  15.903 -0.1321  0.6295 -0.3650
  656TMC3    C3 9707   2.818   3.342  15.903 -0.0078 -0.0702 -1.0331
  656TMC3    C4 9708   2.894   3.219  15.662 -0.3196 -0.0894 -0.2181
  656TMC3    C5 9709   2.793   3.308  15.669  0.3098 -0.4274  0.2760
  656TMC3    C6 9710   2.767   3.377  15.784  0.4407  0.4731  0.2608
  656TMC3     C 9711   3.069   3.092  15.783 -0.7970  0.3522 -0.3604
  656TMC3     O 9712   3.109   3.064  15.894  0.0767 -0.3955 -0.0177
  656TMC3     H 9713   2.965   3.208  15.994  1.9486  1.5516 -1.1383
  656TMC3    H1 9714   2.909   3.160  15.572  0.9756  3.5858 -2.4072
  656TMC3    H2 9715   2.691   3.455  15.786  1.3186  1.3620 -1.6969
  656TMC3    C7 9716   2.697   3.322  15.555  0.4331 -0.3480  0.1319
  656TMC3    C8 9717   2.707   3.307  15.993  0.4889  0.0335  0.1838
  656TMC3    O1 9718   2.722   3.279  15.443  0.5807 -0.2474  0.4537
  656TMC3    O2 9719   2.611   3.252  15.939 -0.0977  0.5019 -0.1001
  657TMC3    C1 9720   1.943   1.764  15.109 -0.4671  0.3033  0.5576
  657TMC3    C2 9721   2.036   1.792  15.198  0.3391 -0.5568  0.5457
  657TMC3    C3 9722   2.088   1.920  15.201  0.3130  0.2429 -0.1580
  657TMC3    C4 9723   1.877   1.866  15.042  0.7476 -0.1805 -0.3829
  657TMC3    C5 9724   1.925   1.999  15.055 -0.2885 -0.4759 -0.3524
  657TMC3    C6 9725   2.034   2.024  15.131 -0.2744 -0.0444  0.3973
  657TMC3     C 9726   1.876   1.634  15.109  0.5787 -0.4340  0.2606
  657TMC3     O 9727   1.760   1.628  15.059 -0.2315  0.0580 -0.2535
  657TMC3     H 9728   2.080   1.715  15.260  0.6256  0.3703  1.4948
  657TMC3    H1 9729   1.787   1.839  14.988  1.1516 -1.6953 -0.3230
  657TMC3    H2 9730   2.073   2.125  15.130  0.8162 -0.4760 -0.2269
  657TMC3    C7 9731   1.834   2.110  15.030 -0.5148  0.3507 -0.2780
  657TMC3    C8 9732   2.184   1.956  15.301 -0.1906 -0.0135  0.0321
  657TMC3    O1 9733   1.840   2.201  15.112  0.1624 -0.5161  0.0363
  657TMC3    O2 9734   2.219   2.075  15.307 -0.5213 -0.0453 -0.2115
  658MPD2     C 9735   3.748   2.599  14.585  0.6205  0.3932  0.4530
  658MPD2    C1 9736   3.675   2.685  14.665 -0.3228  0.3642 -0.3509
  658MPD2    C2 9737   3.664   2.815  14.617  0.2447  0.2508 -0.3336
  658MPD2    C3 9738   3.699   2.842  14.488 -0.1691 -0.3381 -0.2527
  658MPD2    C4 9739   3.768   2.748  14.412  0.1207  0.1154 -0.1238
  658MPD2    C5 9740   3.807   2.630  14.465  0.0688 -0.3684  0.8468
  658MPD2     H 9741   3.617   2.897  14.669  0.4735  0.1473  0.0383
  658MPD2    H1 9742   3.805   2.776  14.314 -0.1974  0.8466 -0.0321
  658MPD2    H2 9743   3.759   2.498  14.622  1.4176  0.8332  1.4571
  658MPD2    H3 9744   3.864   2.560  14.406  0.7523 -0.1680  1.2762
  658MPD2     N 9745   3.671   2.976  14.450 -0.1179 -0.2554 -0.7972
  658MPD2    H5 9746   3.626   3.027  14.524 -0.0171 -2.0009  0.4798
  658MPD2    N1 9747   3.629   2.636  14.788 -0.7084 -0.2620 -0.0440
  658MPD2    H7 9748   3.661   2.543  14.816  1.4006  0.5636  0.2940
  659TMC3    C1 9749   3.506   2.637  14.996  0.1176  0.3533  0.6840
  659TMC3    C2 9750   3.470   2.711  15.103  0.4375  0.3494 -0.0487
  659TMC3    C3 9751   3.423   2.651  15.216  0.4159 -0.0167  1.0014
  659TMC3    C4 9752   3.508   2.497  14.999  0.2973 -0.4879 -0.0674
  659TMC3    C5 9753   3.454   2.436  15.108  0.0782 -0.3521 -0.2452
  659TMC3    C6 9754   3.402   2.513  15.212  0.5751 -0.4973  0.0106
  659TMC3     C 9755   3.553   2.711  14.875  0.8521  0.1210 -0.1526
  659TMC3     O 9756   3.505   2.824  14.869 -0.1942  0.5484 -0.5927
  659TMC3     H 9757   3.474   2.819  15.094 -0.4073  0.4403  0.6446
  659TMC3    H1 9758   3.547   2.438  14.917 -2.7272 -0.1349 -1.7858
  659TMC3    H2 9759   3.323   2.475  15.276  0.2513 -1.2312 -0.8221
  659TMC3    C7 9760   3.364   2.318  15.083  0.1915 -0.1785 -0.6290
  659TMC3    C8 9761   3.346   2.733  15.308 -0.0187 -0.2386  0.4659
  659TMC3    O1 9762   3.305   2.264  15.172 -0.0193 -0.0718 -0.5171
  659TMC3    O2 9763   3.303   2.840  15.266 -0.4275  0.2486  0.0013
  660MPD2     C 9764   1.595   0.756  12.217 -0.0496 -0.1569  0.7591
  660MPD2    C1 9765   1.484   0.838  12.256 -0.3244  0.1194 -0.4385
  660MPD2    C2 9766   1.407   0.805  12.362  0.3925  0.4790 -0.2562
  660MPD2    C3 9767   1.416   0.679  12.424  0.6506  0.5084  0.2267
  660MPD2    C4 9768   1.520   0.598  12.389 -0.1082 -0.5124 -0.0751
  660MPD2    C5 9769   1.614   0.637  12.287 -0.0795 -0.2963 -0.0594
  660MPD2     H 9770   1.311   0.853  12.378  0.2770  0.0228  0.4373
  660MPD2    H1 9771   1.534   0.499  12.430  0.7542 -0.1196  0.5827
  660MPD2    H2 9772   1.658   0.774  12.131 -0.3673 -0.8783  0.3807
  660MPD2    H3 9773   1.691   0.574  12.247  1.6992  2.7096 -1.3917
  660MPD2     N 9774   1.321   0.629  12.518  0.4199 -0.7936 -0.4856
  660MPD2    H5 9775   1.333   0.538  12.562  1.7064 -0.7034 -0.6592
  660MPD2    N1 9776   1.454   0.953  12.184  0.1680  0.2304  0.0048
  660MPD2    H7 9777   1.492   0.948  12.090 -0.8356  0.4629 -0.4069
  661TMC3    C1 9778   1.349   1.155  12.116  0.3346  0.5369  0.0302
  661TMC3    C2 9779   1.408   1.147  11.990  0.8717 -0.0487  0.7286
  661TMC3    C3 9780   1.353   1.224  11.889  0.4929 -0.1186  0.0911
  661TMC3    C4 9781   1.240   1.238  12.131  0.6002 -0.0980 -0.6015
  661TMC3    C5 9782   1.180   1.296  12.020 -0.1848 -0.2290  0.8701
  661TMC3    C6 9783   1.232   1.286  11.896  0.2690 -0.7739 -0.9272
  661TMC3     C 9784   1.365   1.055  12.220 -0.2316 -0.2025  0.2341
  661TMC3     O 9785   1.300   1.079  12.321  0.6289 -0.4367 -0.0125
  661TMC3     H 9786   1.510   1.116  11.970  1.1417  0.4022  1.4155
  661TMC3    H1 9787   1.190   1.249  12.227  0.8031  0.9880 -0.6252
  661TMC3    H2 9788   1.179   1.332  11.813 -0.1757  0.5742  0.1026
  661TMC3    C7 9789   1.039   1.316  12.043 -0.2940 -0.7705 -0.2049
  661TMC3    C8 9790   1.427   1.228  11.761  0.1777 -0.0119 -0.7462
  661TMC3    O1 9791   1.001   1.364  12.147  0.2825  0.1867  0.1603
  661TMC3    O2 9792   1.510   1.140  11.737 -0.3431 -0.2992  0.0374
  662MPD2     C 9793   1.591   1.406  17.196 -0.3453 -0.5694 -0.2456
  662MPD2    C1 9794   1.516   1.352  17.299 -0.2613  0.1834  0.0252
  662MPD2    C2 9795   1.405   1.421  17.352  0.0947 -0.0530  0.4792
  662MPD2    C3 9796   1.368   1.543  17.296  0.6270 -0.5124 -0.2434
  662MPD2    C4 9797   1.448   1.604  17.195  0.2674  0.0990  0.5465
  662MPD2    C5 9798   1.552   1.530  17.147  0.0180  0.0134  0.7545
  662MPD2     H 9799   1.351   1.374  17.434  0.3541 -0.0168  0.6733
  662MPD2    H1 9800   1.438   1.703  17.151  1.9211  0.4954  1.0460
  662MPD2    H2 9801   1.661   1.341  17.145  2.5745  1.2000  1.4790
  662MPD2    H3 9802   1.601   1.577  17.063 -0.3308 -0.0750  0.5000
  662MPD2     N 9803   1.257   1.615  17.353  0.5025  0.3771  0.1594
  662MPD2    H5 9804   1.247   1.713  17.328 -0.0312  0.8110  2.0657
  662MPD2    N1 9805   1.549   1.232  17.368 -0.2923  0.4995  0.1555
  662MPD2    H7 9806   1.482   1.197  17.436 -0.0384  0.5196  0.4154
  663TMC3    C1 9807   1.663   1.064  17.466 -0.1246  0.5487 -0.0278
  663TMC3    C2 9808   1.598   1.091  17.585 -0.0335 -0.0227  0.6960
  663TMC3    C3 9809   1.586   0.996  17.681 -0.1239 -0.2711 -0.2877
  663TMC3    C4 9810   1.706   0.943  17.432 -0.4353  0.0588  1.0476
  663TMC3    C5 9811   1.674   0.840  17.519  0.2563  0.1979  0.3426
  663TMC3    C6 9812   1.601   0.862  17.638 -0.2927  0.3777 -0.3918
  663TMC3     C 9813   1.669   1.164  17.356  0.0074  0.8908 -0.1164
  663TMC3     O 9814   1.750   1.158  17.267  0.1606 -0.2244  0.2437
  663TMC3     H 9815   1.599   1.193  17.623  0.9826  0.1722  0.1604
  663TMC3    H1 9816   1.770   0.931  17.345  1.0840  0.2507  2.1417
  663TMC3    H2 9817   1.612   0.778  17.706  0.8251  0.4318 -0.4933
  663TMC3    C7 9818   1.698   0.697  17.478 -0.7372 -0.4240 -0.2413
  663TMC3    C8 9819   1.489   1.043   0.064 -1.0001  1.1302  0.1763
  663TMC3    O1 9820   1.779   0.682  17.387 -0.2586  0.1738 -0.2463
  663TMC3    O2 9821   1.450   1.159   0.054 -0.3200  0.5099 -0.0391
  664MPD2     C 9822   4.157   3.925  17.102 -0.0900 -0.6001  0.4019
  664MPD2    C1 9823   4.283   3.951  17.160 -0.3719 -0.5311  0.1241
  664MPD2    C2 9824   4.291   3.922  17.298  0.3406 -0.5127  0.1200
  664MPD2    C3 9825   4.187   3.863  17.373  0.0751  0.0784 -0.0059
  664MPD2    C4 9826   4.072   3.829  17.304 -0.1448  0.0532  0.1311
  664MPD2    C5 9827   4.057   3.860  17.171 -0.6970  0.0368  0.2278
  664MPD2     H 9828   4.384   3.942  17.350  1.8646  1.2659 -3.2524
  664MPD2    H1 9829   3.994   3.769  17.351  0.6745 -0.9546  0.2056
  664MPD2    H2 9830   4.141   3.952  16.998  1.8780 -1.7510 -0.1986
  664MPD2    H3 9831   3.960   3.848  17.125  0.5696 -0.6244 -2.2724
  664MPD2     N 9832   4.221   3.817  17.501  0.1188 -0.5037  0.4919
  664MPD2    H5 9833   4.306   3.853  17.543  0.2414 -0.8132  0.5141
  664MPD2    N1 9834   4.392   4.011  17.096 -0.4346  0.4693  0.6603
  664MPD2    H7 9835   4.461   4.054  17.156  1.3595 -0.4224 -0.7653
  665TMC3    C1 9836   4.179   3.755   0.020  1.0168  0.5241  0.3174
  665TMC3    C2 9837   4.110   3.685   0.110  0.5255 -0.5249  1.0930
  665TMC3    C3 9838   4.115   3.733   0.241 -0.6734  0.0739 -0.6672
  665TMC3    C4 9839   4.249   3.871   0.053  0.3150 -0.4845  0.0051
  665TMC3    C5 9840   4.257   3.904   0.186 -0.5526 -0.1042  0.0842
  665TMC3    C6 9841   4.195   3.832   0.284  0.5313  0.0800  0.1658
  665TMC3     C 9842   4.145   3.742  17.589  0.1932 -0.6802  0.4671
  665TMC3     O 9843   4.062   3.662  17.549 -0.8437 -0.3745 -0.2674
  665TMC3     H 9844   4.044   3.605   0.079  0.6235 -0.0559 -0.2984
  665TMC3    H1 9845   4.282   3.949  17.697 -2.2032  0.0493 -0.6075
  665TMC3    H2 9846   4.185   3.876   0.383 -1.0946 -1.7738  0.8468
  665TMC3    C7 9847   4.290   4.041   0.216  0.0659 -0.4257 -0.9596
  665TMC3    C8 9848   4.002   3.713   0.329 -0.0264  0.3868 -0.9051
  665TMC3    O1 9849   4.279   4.128   0.132  0.0989  0.7964 -0.0865
  665TMC3    O2 9850   4.006   3.762   0.442  0.7155 -0.2673  0.7166
  666TMC3    C1 9851   4.490   3.668   9.683 -0.1671 -0.7625  0.2999
  666TMC3    C2 9852   4.559   3.583   9.766  0.4107 -0.0176  1.0028
  666TMC3    C3 9853   4.623   3.633   9.875 -0.4791 -0.0295 -0.1117
  666TMC3    C4 9854   4.492   3.801   9.704  0.1235  0.7726 -0.3026
  666TMC3    C5 9855   4.545   3.849   9.814 -0.1361  0.6422 -0.0965
  666TMC3    C6 9856   4.619   3.770   9.896 -0.5833 -0.3845  0.0794
  666TMC3     C 9857   4.368   3.621   9.628 -0.2427 -0.0352 -0.9731
  666TMC3     O 9858   4.324   3.688   9.531 -0.0087 -0.1466 -0.5901
  666TMC3     H 9859   4.546   3.476   9.771 -0.8345  0.0517 -0.7247
  666TMC3    H1 9860   4.434   3.865   9.639 -2.9411 -2.8619 -1.1429
  666TMC3    H2 9861   4.641   3.814   9.993  1.9227  1.5699 -1.3914
  666TMC3    C7 9862   4.472   3.961   9.874  0.1936 -0.9031  0.5299
  666TMC3    C8 9863   4.591   3.566   9.999 -0.3331 -0.0566  0.1935
  666TMC3    O1 9864   4.358   3.966   9.832 -0.0313 -0.3532  0.3543
  666TMC3    O2 9865   4.481   3.515   9.991 -0.0980 -0.3062 -0.2538
  667MPD2     C 9866   0.456   4.271  14.759 -0.1784  0.0388 -0.3663
  667MPD2    C1 9867   0.340   4.338  14.716  0.3577 -0.2882 -0.2448
  667MPD2    C2 9868   0.211   4.285  14.739 -0.2371 -0.2039  0.4233
  667MPD2    C3 9869   0.198   4.166  14.806 -0.2837 -0.1368  0.0684
  667MPD2    C4 9870   0.313   4.103  14.857 -0.1805 -0.3115 -0.6435
  667MPD2    C5 9871   0.443   4.146  14.821  0.6840  0.6264 -0.3502
  667MPD2     H 9872   0.121   4.336  14.709 -1.0583 -1.6830  0.3839
  667MPD2    H1 9873   0.312   4.008  14.909 -0.2475  1.2287  2.1710
  667MPD2    H2 9874   0.558   4.306  14.751 -0.3331  0.7557  0.8499
  667MPD2    H3 9875   0.528   4.089  14.857  0.9106  1.4438  0.4041
  667MPD2     N 9876   0.069   4.114  14.835  0.3972 -0.1911 -0.0732
  667MPD2    H5 9877   0.058   4.034  14.897 -0.0298  0.4666  0.6961
  667MPD2    N1 9878   0.343   4.471  14.664  0.7004  0.1514  0.1984
  667MPD2    H7 9879   0.248   4.508  14.666  0.8790  0.5244  1.5730
  668TMC3    C1 9880   0.416   4.672  14.600 -0.2872  0.1007 -0.5119
  668TMC3    C2 9881   0.446   0.016  14.491 -0.3490  0.0547  0.1451
  668TMC3    C3 9882   0.439   0.157  14.501 -0.5578  0.0469 -0.0823
  668TMC3    C4 9883   0.368   4.722  14.713 -0.7906 -0.5639  0.8320
  668TMC3    C5 9884   0.359   0.134  14.723  0.0443 -0.2864 -0.4602
  668TMC3    C6 9885   0.392   0.217  14.619 -0.5446  0.2402  0.4805
  668TMC3     C 9886   0.447   4.534  14.608 -0.0923 -0.1907  0.5713
  668TMC3     O 9887   0.551   4.487  14.567  0.6945  0.5745 -0.2684
  668TMC3     H 9888   0.487   4.693  14.405  1.0498  0.7633  0.3984
  668TMC3    H1 9889   0.342   4.661  14.798  0.4911 -0.7656  1.0840
  668TMC3    H2 9890   0.394   0.323  14.639  2.2407  0.6481 -1.9474
  668TMC3    C7 9891   0.430   0.182  14.842 -0.2900  0.6845 -0.2858
  668TMC3    C8 9892   0.537   0.219  14.412 -0.6978 -0.2785  0.3845
  668TMC3    O1 9893   0.518   0.263  14.811  0.2175  0.3099 -0.5201
  668TMC3    O2 9894   0.587   0.152  14.322 -0.1438 -0.6650 -0.1528
  669TMC3    C1 9895   3.107   4.299  14.151  0.0816 -0.5831  0.4405
  669TMC3    C2 9896   2.989   4.357  14.141  0.2223  0.0707  1.0182
  669TMC3    C3 9897   2.969   4.446  14.036 -0.6024  0.4356 -0.1971
  669TMC3    C4 9898   3.215   4.326  14.073  1.0450 -0.1294  0.8162
  669TMC3    C5 9899   3.201   4.426  13.985  0.1473 -0.6054  0.9528
  669TMC3    C6 9900   3.080   4.489  13.962  0.4040  0.4944  0.3929
  669TMC3     C 9901   3.114   4.191  14.245  0.1747 -0.5920 -0.5145
  669TMC3     O 9902   3.032   4.102  14.245  0.0113  0.6017 -0.5901
  669TMC3     H 9903   2.909   4.310  14.197  0.4001 -1.0051  0.3542
  669TMC3    H1 9904   3.300   4.261  14.091  0.6245 -1.8082 -3.2126
  669TMC3    H2 9905   3.081   4.563  13.883 -2.7401 -1.0798 -1.0975
  669TMC3    C7 9906   3.321   4.494  13.939  0.2014  0.7487 -0.2144
  669TMC3    C8 9907   2.835   4.457  13.990 -0.2502 -0.5813  0.0852
  669TMC3    O1 9908   3.311   4.600  13.882  0.3442 -0.0253 -0.3319
  669TMC3    O2 9909   2.758   4.392  14.061  0.2566  0.2018 -0.0454
  670MPD2     C 9910   1.478   1.516  13.001 -0.1282  0.0239 -0.0927
  670MPD2    C1 9911   1.571   1.551  13.096  0.0435  0.2060 -0.5850
  670MPD2    C2 9912   1.538   1.552  13.230  0.7556 -0.2428 -0.2206
  670MPD2    C3 9913   1.404   1.548  13.262  0.1036  0.1113  0.0054
  670MPD2    C4 9914   1.310   1.526  13.160 -0.3035  0.5101 -0.5773
  670MPD2    C5 9915   1.346   1.494  13.030 -0.0470 -0.2274 -0.0360
  670MPD2     H 9916   1.605   1.584  13.308 -1.3954  0.2371  1.4228
  670MPD2    H1 9917   1.205   1.516  13.183 -0.0776 -0.3886  0.0600
  670MPD2    H2 9918   1.511   1.513  12.898  1.3423 -3.2443  0.4965
  670MPD2    H3 9919   1.270   1.472  12.956 -1.1545  1.4048  0.6068
  670MPD2     N 9920   1.356   1.556  13.393  0.3069 -0.0072 -0.6866
  670MPD2    H5 9921   1.421   1.548  13.470  0.1047 -3.2574 -0.8288
  670MPD2    N1 9922   1.701   1.568  13.059  0.6800  0.0699 -0.5778
  670MPD2    H7 9923   1.767   1.602  13.128  1.7491 -3.5993  0.2230
  671TMC3    C1 9924   1.184   1.550  13.565 -0.0445 -0.2220  0.3557
  671TMC3    C2 9925   1.279   1.516  13.662  0.2349 -0.0138 -0.3079
  671TMC3    C3 9926   1.243   1.426  13.757  0.3193 -0.2793  0.0802
  671TMC3    C4 9927   1.057   1.506  13.570  0.9789  0.1914 -0.3483
  671TMC3    C5 9928   1.018   1.421  13.674 -0.6969 -0.3129 -0.0580
  671TMC3    C6 9929   1.113   1.385  13.768 -0.3331  0.3515 -0.6409
  671TMC3     C 9930   1.229   1.592  13.428  0.5830  0.3580 -1.3768
  671TMC3     O 9931   1.138   1.642  13.359  0.6447 -0.2275  0.8442
  671TMC3     H 9932   1.382   1.545  13.643 -0.3518  1.1741 -1.6424
  671TMC3    H1 9933   0.982   1.526  13.495 -0.4153  0.8251  1.2092
  671TMC3    H2 9934   1.090   1.313  13.846  0.5593 -0.0914 -0.7830
  671TMC3    C7 9935   0.950   1.308  13.614  0.0348 -0.8198 -0.3349
  671TMC3    C8 9936   1.332   1.334  13.819 -0.6691  0.7209 -0.2625
  671TMC3    O1 9937   0.925   1.299  13.495  0.4116  0.1833 -0.2434
  671TMC3    O2 9938   1.297   1.214  13.816 -0.1829  0.0718 -0.3372
  672MPD2     C 9939   1.460   2.393   1.607  0.1528  0.0431 -0.5866
  672MPD2    C1 9940   1.469   2.496   1.512 -0.9388 -0.0127 -0.3993
  672MPD2    C2 9941   1.557   2.599   1.538 -0.6550 -1.5559  0.2403
  672MPD2    C3 9942   1.651   2.584   1.640  0.1119  0.3238 -0.4728
  672MPD2    C4 9943   1.646   2.474   1.723 -0.0703 -0.7649 -0.5261
  672MPD2    C5 9944   1.548   2.384   1.716 -0.3225  0.4276  1.2888
  672MPD2     H 9945   1.563   2.681   1.468  0.7093 -0.3175  1.7942
  672MPD2    H1 9946   1.729   2.461   1.792 -1.3829 -1.8709  0.8429
  672MPD2    H2 9947   1.378   2.322   1.611 -0.6051  0.8390 -1.7657
  672MPD2    H3 9948   1.538   2.300   1.783 -2.2884 -1.3721 -1.2626
  672MPD2     N 9949   1.764   2.666   1.650 -0.4848 -0.5325  0.9469
  672MPD2    H5 9950   1.835   2.647   1.720 -1.2302  0.5586  2.0041
  672MPD2    N1 9951   1.388   2.494   1.396 -0.6205  0.2553 -0.5053
  672MPD2    H7 9952   1.380   2.580   1.343  2.0744  1.3641  0.8603
  673TMC3    C1 9953   1.287   2.403   1.207 -0.4719  0.5729  0.1840
  673TMC3    C2 9954   1.324   2.303   1.118  0.3888 -0.1338 -0.2017
  673TMC3    C3 9955   1.353   2.333   0.989  0.4490 -0.1467  0.0979
  673TMC3    C4 9956   1.293   2.531   1.168  0.4765 -1.0581  0.6016
  673TMC3    C5 9957   1.328   2.561   1.038 -0.3145  0.1489 -0.1021
  673TMC3    C6 9958   1.362   2.462   0.948  0.6289 -0.7924 -0.5746
  673TMC3     C 9959   1.323   2.379   1.343  0.3993 -0.0473 -0.2143
  673TMC3     O 9960   1.316   2.265   1.383  0.2048 -0.0830 -0.5379
  673TMC3     H 9961   1.323   2.199   1.150 -0.2294 -0.5645 -1.6141
  673TMC3    H1 9962   1.251   2.608   1.231  1.7659 -0.0575  0.2486
  673TMC3    H2 9963   1.407   2.497   0.856  0.4798  1.1044  0.0672
  673TMC3    C7 9964   1.290   2.701   1.005  0.7122 -0.4180 -1.0355
  673TMC3    C8 9965   1.420   2.242   0.903  0.0987 -0.8667 -0.3993
  673TMC3    O1 9966   1.180   2.741   1.039 -0.0325 -0.5441  0.4063
  673TMC3    O2 9967   1.436   2.288   0.793 -0.0537 -0.3359  0.1104
  674MPD2     C 9968   1.528   1.942  17.290  0.4411 -0.6702  1.0532
  674MPD2    C1 9969   1.556   1.905  17.419  0.1800 -0.3920 -0.6601
  674MPD2    C2 9970   1.561   2.007  17.514 -0.1927  0.0358 -0.0590
  674MPD2    C3 9971   1.531   2.134  17.482  0.6101 -0.2040  0.0693
  674MPD2    C4 9972   1.516   2.170  17.348  0.3217  0.2684 -1.0711
  674MPD2    C5 9973   1.520   2.073  17.254 -0.6799  0.2724  0.0801
  674MPD2     H 9974   1.565   1.988  17.620  0.2372  0.0952 -0.0674
  674MPD2    H1 9975   1.507   2.273  17.313 -3.2267  0.0680 -0.7649
  674MPD2    H2 9976   1.529   1.864  17.215  1.2330 -0.9703  1.3756
  674MPD2    H3 9977   1.503   2.108  17.153 -1.9161 -1.1719 -0.2179
  674MPD2     N 9978   1.547   2.224  17.585 -0.4206 -0.0230  0.0830
  674MPD2    H5 9979   1.547   2.174  17.673 -1.6675  0.3076  0.2797
  674MPD2    N1 9980   1.572   1.768  17.451 -0.3520 -0.1967 -0.0524
  674MPD2    H7 9981   1.541   1.699  17.384 -1.6266  0.2196  0.1050
  675TMC3    C1 9982   1.648   1.582  17.571  0.0864 -0.3528  0.9980
  675TMC3    C2 9983   1.531   1.548  17.629 -0.1137  0.1509  0.5440
  675TMC3    C3 9984   1.528   1.485   0.036 -0.1109  0.0305 -0.4097
  675TMC3    C4 9985   1.762   1.539  17.633 -0.1786 -0.1409 -0.0110
  675TMC3    C5 9986   1.749   1.488   0.047 -0.3551 -0.4507  0.2233
  675TMC3    C6 9987   1.637   1.457   0.107 -0.4991  0.8017 -0.3564
  675TMC3     C 9988   1.645   1.725  17.550  0.2992 -0.4382 -0.4617
  675TMC3     O 9989   1.736   1.790  17.602 -0.0562 -0.3315  0.0722
  675TMC3     H 9990   1.437   1.582  17.585  0.6497  0.7178 -0.6370
  675TMC3    H1 9991   1.850   1.582  17.585 -0.5654 -0.9691 -1.4634
  675TMC3    H2 9992   1.636   1.402   0.200  1.1482  1.3055 -0.0441
  675TMC3    C7 9993   1.863   1.506   0.145  0.9898 -0.1138  0.0410
  675TMC3    C8 9994   1.406   1.506   0.113  0.1444  0.3786  0.2411
  675TMC3    O1 9995   1.852   1.521   0.265 -0.0066 -0.3859 -0.0823
  675TMC3    O2 9996   1.330   1.601   0.088 -0.2724 -0.0237 -0.2611
  676MPD2     C 9997   4.173   0.097  10.791 -0.3658 -0.2168  0.1480
  676MPD2    C1 9998   4.089   0.049  10.886 -0.0305 -0.5966  0.2485
  676MPD2    C2 9999   4.072   4.644  10.912 -0.4985  0.8572 -0.3806
  676MPD2    C310000   4.148   4.554  10.842  0.5401  0.5632 -0.8888
  676MPD2    C410001   4.243   4.602  10.757  0.2671 -0.3038 -0.5259
  676MPD2    C510002   4.254   0.007  10.725  0.9859  0.7108  0.4917
  676MPD2     H10003   3.995   4.608  10.979  0.2678  3.2514  1.7937
  676MPD2    H110004   4.313   4.527  10.722  2.5822  0.7786  1.7565
  676MPD2    H210005   4.179   0.197  10.748  1.0948 -0.6626 -0.6718
  676MPD2    H310006   4.321   0.044  10.648  0.8799 -0.2336 -0.0557
  676MPD2     N10007   4.141   4.414  10.850  0.0670  0.0563 -0.1724
  676MPD2    H510008   4.188   4.366  10.774  0.0373 -0.8717  0.3903
  676MPD2    N110009   4.033   0.137  10.985 -0.6605  0.3426  0.1133
  676MPD2    H710010   3.975   0.094  11.057  2.2839 -2.0979  1.0333
  677TMC3    C110011   3.990   0.333  11.099  0.3887 -0.0182  0.1793
  677TMC3    C210012   3.870   0.284  11.164  0.9097  0.1072 -0.5936
  677TMC3    C310013   3.847   0.348  11.286 -0.4280 -0.0585  0.8031
  677TMC3    C410014   4.073   0.431  11.151 -0.0741  0.2950  0.3842
  677TMC3    C510015   4.046   0.476  11.276 -0.2200  0.0865  0.0833
  677TMC3    C610016   3.936   0.437  11.340  0.6747 -0.5590  0.4481
  677TMC3     C10017   4.041   0.271  10.977  0.2712 -0.3518 -0.4635
  677TMC3     O10018   4.102   0.340  10.895 -0.4151  0.1236  0.4183
  677TMC3     H10019   3.795   0.217  11.125  1.3468 -0.3928 -0.5745
  677TMC3    H110020   4.163   0.457  11.097 -1.0345 -0.3723 -1.5515
  677TMC3    H210021   3.898   0.486  11.429 -1.6568  0.0079 -0.8453
  677TMC3    C710022   4.161   0.538  11.348  0.3686  0.4364 -0.9126
  677TMC3    C810023   3.717   0.325  11.353 -0.2608 -0.3074  0.6429
  677TMC3    O110024   4.243   0.600  11.283  0.3339  0.2534 -0.1438
  677TMC3    O210025   3.628   0.345  11.270  0.8366 -0.0497 -0.5861
  678MPD2     C10026   0.628   4.419   1.473 -0.1110 -0.4910  0.0667
  678MPD2    C110027   0.670   4.440   1.349 -0.4963 -0.3750  0.0826
  678MPD2    C210028   0.583   4.476   1.247 -0.3439 -0.4250  0.2926
  678MPD2    C310029   0.445   4.476   1.269 -0.1326  0.5693 -0.0980
  678MPD2    C410030   0.401   4.450   1.395 -0.2244  0.5258  0.1523
  678MPD2    C510031   0.496   4.421   1.492 -0.5099  0.4223 -0.0234
  678MPD2     H10032   0.623   4.508   1.152 -2.1448 -1.7037 -0.8922
  678MPD2    H110033   0.296   4.442   1.418 -0.2334  3.7356  1.3255
  678MPD2    H210034   0.694   4.386   1.552  1.8624 -0.5170 -1.5752
  678MPD2    H310035   0.450   4.402   1.588 -1.9864  2.4734 -0.3113
  678MPD2     N10036   0.357   4.490   1.158  0.0985 -0.5087  0.0061
  678MPD2    H510037   0.396   4.485   1.065 -1.7952  0.1729 -0.8263
  678MPD2    N110038   0.810   4.431   1.326 -0.4193  0.4085 -0.2882
  678MPD2    H710039   0.852   4.480   1.247  0.9832 -0.2154  0.0762
  679TMC3    C110040   1.252   4.389   1.440 -0.7912 -0.4501  0.0395
  679TMC3    C210041   1.124   4.341   1.458 -0.0398  0.6852  0.2659
  679TMC3    C310042   1.024   4.405   1.390 -0.3088  0.5593 -0.7563
  679TMC3    C410043   1.282   4.501   1.378  0.3647  0.3800 -0.2682
  679TMC3    C510044   1.173   4.567   1.327 -0.7579  0.4440 -0.3990
  679TMC3    C610045   1.040   4.528   1.331  0.4324 -0.2112  0.1481
  679TMC3     C10046   1.361   4.322   1.513 -0.5024 -0.4836 -0.3643
  679TMC3     O10047   1.472   4.378   1.510 -0.1512  0.2685 -0.0734
  679TMC3     H10048   1.096   4.257   1.519 -0.9485  1.2236  0.5937
  679TMC3    H110049   1.382   4.532   1.349  0.6504 -0.9306 -0.6808
  679TMC3    H210050   0.958   4.591   1.300  0.7065  1.1287  2.1330
  679TMC3    C710051   1.200   4.705   1.273  0.1772  0.1306  0.6452
  679TMC3    C810052   0.896   4.354   1.403  0.1927  0.2603  0.0099
  679TMC3    O110053   1.101   0.037   1.238  0.0211 -0.0095 -0.5703
  679TMC3    O210054   0.879   4.258   1.477  0.3056  0.6548 -0.4642
  680MPD2     C10055   2.075   3.424  14.001 -0.5973 -0.0000 -0.6728
  680MPD2    C110056   1.968   3.469  13.932 -0.0515  0.4491 -0.0124
  680MPD2    C210057   1.910   3.593  13.972 -0.0590 -0.9242  1.1056
  680MPD2    C310058   1.950   3.655  14.088 -0.0121  0.0149  0.0923
  680MPD2    C410059   2.063   3.606  14.148  0.2723  0.3022 -0.6452
  680MPD2    C510060   2.127   3.498  14.104  0.3081 -0.2153  0.6894
  680MPD2     H10061   1.836   3.640  13.910 -1.9408 -5.3426  0.0159
  680MPD2    H110062   2.119   3.659  14.224 -0.8394 -1.6240  1.5108
  680MPD2    H210063   2.111   3.330  13.963 -0.9834 -0.4429  0.0619
  680MPD2    H310064   2.230   3.477  14.134 -0.3535 -3.3167  0.8085
  680MPD2     N10065   1.889   3.773  14.141 -0.1930  0.0895  0.2413
  680MPD2    H510066   1.943   3.826  14.209  0.4387  0.5130 -0.5811
  680MPD2    N110067   1.916   3.414  13.816  0.2098  0.4237 -0.3532
  680MPD2    H710068   1.837   3.463  13.775  1.4844  2.6048 -0.1977
  681TMC3    C110069   1.843   3.255  13.655 -0.0798  0.3558 -0.9316
  681TMC3    C210070   1.717   3.310  13.656 -0.2899 -0.0643  0.7123
  681TMC3    C310071   1.635   3.259  13.559  0.8189 -0.8899 -0.6725
  681TMC3    C410072   1.891   3.163  13.574  0.4223  0.0133 -0.4601
  681TMC3    C510073   1.808   3.124  13.472 -0.2878 -0.2373 -0.1435
  681TMC3    C610074   1.679   3.173  13.465 -0.2780 -0.0803  0.5183
  681TMC3     C10075   1.942   3.291  13.753  0.5074  0.4212  0.1832
  681TMC3     O10076   2.039   3.226  13.774  0.2076 -0.2143 -0.6881
  681TMC3     H10077   1.677   3.351  13.748 -1.8456 -1.7573  0.7928
  681TMC3    H110078   1.997   3.145  13.566  0.6777  0.6275  1.4764
  681TMC3    H210079   1.603   3.138  13.396  0.8122 -1.0450 -0.1989
  681TMC3    C710080   1.868   3.054  13.359 -0.5748  0.7144  0.3357
  681TMC3    C810081   1.504   3.314  13.545  0.2053  0.1900  0.2996
  681TMC3    O110082   1.977   3.004  13.374  0.1694  0.1237 -0.0743
  681TMC3    O210083   1.427   3.238  13.490  0.9129 -0.6549 -0.7830
  682MPD2     C10084   3.395   4.659  10.316 -0.5722  0.0582 -0.1803
  682MPD2    C110085   3.414   4.538  10.380 -0.7989  0.5029 -0.2692
  682MPD2    C210086   3.316   4.509  10.479 -0.3771 -0.1652  0.4415
  682MPD2    C310087   3.212   4.596  10.516  0.1876 -0.0579 -0.1437
  682MPD2    C410088   3.179   4.694  10.427 -0.2093  0.2796 -0.1260
  682MPD2    C510089   3.273   4.720  10.324  0.0991 -0.1154  0.7306
  682MPD2     H10090   3.331   4.422  10.542 -0.6783 -0.9213 -0.5291
  682MPD2    H110091   3.092   0.030  10.431  0.3901  1.0912  0.0856
  682MPD2    H210092   3.461   4.688  10.235  1.2906 -0.3327  1.2149
  682MPD2    H310093   3.255   0.082  10.266 -0.6403  0.9260  2.5392
  682MPD2     N10094   3.125   4.571  10.621 -0.3368 -0.4355 -1.0389
  682MPD2    H510095   3.061   4.647  10.642  0.1151 -0.6247  1.0671
  682MPD2    N110096   3.520   4.458  10.348 -0.3656  0.2340  0.5702
  682MPD2    H710097   3.530   4.377  10.408 -2.3592 -0.9793 -0.7278
  683TMC3    C110098   2.925   4.627  10.974  0.0375 -0.3482  0.4408
  683TMC3    C210099   2.871   4.516  11.035  0.7716  0.2993  0.2575
  683TMC3    C310100   2.898   4.394  10.982  0.3707 -0.3083  0.3841
  683TMC3    C410101   3.004   4.611  10.865  0.6621 -0.2405 -0.6802
  683TMC3    C510102   3.030   4.487  10.815  0.5516  0.3102 -0.1417
  683TMC3    C610103   2.986   4.379  10.880 -0.3553 -0.0118  0.5117
  683TMC3     C10104   2.976   0.007  11.055 -0.4305 -0.0695  0.5540
  683TMC3     O10105   3.011   0.109  10.997 -0.2224  0.2658  0.5565
  683TMC3     H10106   2.801   4.510  11.118  0.8560  0.8230  0.3613
  683TMC3    H110107   3.060   4.696  10.829 -0.6316  0.9823  0.1800
  683TMC3    H210108   3.013   4.281  10.844 -0.3074 -0.3880  1.5716
  683TMC3    C710109   3.129   4.470  10.713 -0.5920 -0.8659 -0.6482
  683TMC3    C810110   2.868   4.280  11.065 -0.6358  0.1734 -0.6390
  683TMC3    O110111   3.168   4.355  10.703  0.1958  0.5279  0.2489
  683TMC3    O210112   2.751   4.258  11.083  0.5028 -0.3510 -0.3222
  684MPD2     C10113   1.415   4.490  16.378 -0.1456  0.0648  0.1603
  684MPD2    C110114   1.383   4.520  16.247  0.5035  0.1729 -0.3964
  684MPD2    C210115   1.379   4.654  16.210  0.1735 -0.9324  0.3502
  684MPD2    C310116   1.413   0.026  16.305  0.2961 -0.3081 -0.5602
  684MPD2    C410117   1.455   4.713  16.429 -0.3162 -0.0197 -1.1954
  684MPD2    C510118   1.462   4.585  16.467 -0.2251 -0.0533 -0.0523
  684MPD2     H10119   1.363   4.674  16.105 -0.8251 -0.0857  0.6593
  684MPD2    H110120   1.477   0.057  16.506 -3.2345  1.5355 -1.7914
  684MPD2    H210121   1.422   4.389  16.416 -1.1528  0.4474  1.3544
  684MPD2    H310122   1.486   4.559  16.569 -0.5903  0.6858  0.2143
  684MPD2     N10123   1.408   0.167  16.280 -0.1992 -0.3179  0.9223
  684MPD2    H510124   1.419   0.236  16.354 -1.3233  2.1021 -1.1856
  684MPD2    N110125   1.355   4.421  16.152 -0.2412 -0.0929  0.4903
  684MPD2    H710126   1.309   4.455  16.068  2.3570  0.7011 -0.5961
  685TMC3    C110127   1.359   4.206  16.042 -0.3656  0.6106  0.5583
  685TMC3    C210128   1.272   4.265  15.949 -0.4304 -0.2831  0.8501
  685TMC3    C310129   1.274   4.230  15.822  0.2991 -0.1945  0.4892
  685TMC3    C410130   1.449   4.115  16.000 -0.3008  0.6874 -0.2080
  685TMC3    C510131   1.449   4.082  15.871  1.1019 -0.6862 -0.5520
  685TMC3    C610132   1.368   4.144  15.782 -0.0536 -0.0025  0.1355
  685TMC3     C10133   1.390   4.289  16.161 -1.6951  0.5859 -0.1245
  685TMC3     O10134   1.465   4.233  16.240  0.1981 -0.3881 -0.3328
  685TMC3     H10135   1.190   4.319  15.994  0.6466  3.7254 -1.9927
  685TMC3    H110136   1.511   4.069  16.077 -0.8780  1.3210  0.6236
  685TMC3    H210137   1.391   4.124  15.678  1.5930 -0.7409  0.6282
  685TMC3    C710138   1.579   4.049  15.824  0.0847 -0.2364 -0.3736
  685TMC3    C810139   1.191   4.295  15.721 -0.1339  0.5033  0.8914
  685TMC3    O110140   1.587   4.017  15.706 -0.2250  0.2322  0.6280
  685TMC3    O210141   1.191   4.234  15.613  0.2477 -0.7021 -0.2903
  686MPD2     C10142   3.138   4.392  15.321  0.2553 -0.5657 -0.1891
  686MPD2    C110143   3.183   4.314  15.433 -0.7477 -0.1227 -0.1999
  686MPD2    C210144   3.264   4.207  15.401  0.2627  0.1931  0.9319
  686MPD2    C310145   3.298   4.174  15.271 -1.0548  0.8071  0.8884
  686MPD2    C410146   3.249   4.248  15.170 -0.6395  0.4575  0.6585
  686MPD2    C510147   3.168   4.354  15.196 -0.0538 -0.9589  0.2217
  686MPD2     H10148   3.303   4.146  15.483  1.7556 -1.5723 -1.1043
  686MPD2    H110149   3.253   4.207  15.069 -0.1475  1.6868  0.1755
  686MPD2    H210150   3.067   4.474  15.329 -0.3118 -1.3525  3.0396
  686MPD2    H310151   3.124   4.389  15.103 -0.0622 -1.0913  0.1752
  686MPD2     N10152   3.370   4.059  15.234 -0.1363  0.4873  0.2422
  686MPD2    H510153   3.410   4.074  15.142 -0.2867 -0.8135 -0.0385
  686MPD2    N110154   3.121   4.328  15.561  0.1084 -0.4798 -0.1204
  686MPD2    H710155   3.058   4.406  15.573  1.9576  1.3018 -1.8375
  687TMC3    C110156   3.294   3.900  15.397 -0.1377 -0.4264 -0.1916
  687TMC3    C210157   3.165   3.924  15.369 -0.6495  0.7148  0.5547
  687TMC3    C310158   3.065   3.921  15.464 -0.3195  0.4148  0.5240
  687TMC3    C410159   3.329   3.859  15.526  0.1799 -0.3473 -0.5286
  687TMC3    C510160   3.224   3.864  15.620 -0.2731  0.3915  1.5041
  687TMC3    C610161   3.093   3.882  15.593 -0.3499  0.1112 -0.5211
  687TMC3     C10162   3.404   3.951  15.311  0.3896  0.4823  0.4834
  687TMC3     O10163   3.490   3.869  15.277 -0.5036 -0.2287 -0.4174
  687TMC3     H10164   3.144   3.956  15.268  0.0668 -0.3852  0.0585
  687TMC3    H110165   3.432   3.837  15.551  0.5087 -0.0294 -1.5940
  687TMC3    H210166   3.014   3.845  15.658  1.3693 -0.1137  1.4640
  687TMC3    C710167   3.254   3.853  15.767  0.2124 -0.2495  0.1717
  687TMC3    C810168   2.932   3.968  15.433 -0.0878 -0.2498 -0.0522
  687TMC3    O110169   3.160   3.860  15.843 -0.3879 -0.2266 -0.3498
  687TMC3    O210170   2.924   4.025  15.325 -0.1864 -0.8243  0.4461
  688MPD2     C10171   2.410   3.410  17.270  0.2011 -0.5850 -0.4934
  688MPD2    C110172   2.475   3.295  17.317  0.2720 -0.2589 -0.4805
  688MPD2    C210173   2.533   3.215  17.221 -0.9078  0.3284 -0.1746
  688MPD2    C310174   2.581   3.271  17.103 -0.4650 -0.6614  0.9626
  688MPD2    C410175   2.532   3.394  17.064  0.1908 -0.1072 -0.0664
  688MPD2    C510176   2.441   3.455  17.143 -0.5821  0.2807 -0.0585
  688MPD2     H10177   2.562   3.114  17.249 -0.3672  1.3520  3.0095
  688MPD2    H110178   2.555   3.439  16.968  0.5723  0.5716  0.3482
  688MPD2    H210179   2.340   3.464  17.333 -1.3419 -1.3263 -1.5726
  688MPD2    H310180   2.388   3.541  17.103 -1.4290 -0.7040 -1.0498
  688MPD2     N10181   2.656   3.205  17.004 -0.2188  0.8015 -0.7059
  688MPD2    H510182   2.666   3.254  16.916 -1.9080 -0.0490 -1.3637
  688MPD2    N110183   2.463   3.239  17.447  0.4782  0.3693  0.1632
  688MPD2    H710184   2.483   3.140  17.461 -0.0139  0.4637  1.4394
  689TMC3    C110185   2.434   3.246  17.682 -1.0831  1.0797 -0.1935
  689TMC3    C210186   2.459   3.321   0.077 -0.6597 -0.6702 -0.6516
  689TMC3    C310187   2.419   3.278   0.200  0.7624  0.4696  0.0862
  689TMC3    C410188   2.366   3.128  17.684  0.4325 -0.7423 -0.6012
  689TMC3    C510189   2.323   3.090   0.096 -0.4948  0.9758  1.1738
  689TMC3    C610190   2.355   3.160   0.205 -0.1042  0.4568 -0.2598
  689TMC3     C10191   2.440   3.317  17.558 -0.0910  0.3446 -0.1037
  689TMC3     O10192   2.457   3.437  17.565  0.5937  0.0406 -1.1729
  689TMC3     H10193   2.517   3.410   0.058 -2.5470  1.1049  1.8821
  689TMC3    H110194   2.332   3.088  17.589  0.5362 -1.8756 -0.1671
  689TMC3    H210195   2.317   3.136   0.304 -0.7505 -0.4104 -0.7063
  689TMC3    C710196   2.259   2.953   0.111  0.4213  0.1515  0.2422
  689TMC3    C810197   2.405   3.370   0.309 -1.0279 -0.0114 -0.0139
  689TMC3    O110198   2.271   2.911   0.228  0.1792  0.1452  0.4184
  689TMC3    O210199   2.390   3.323   0.418 -0.3556  0.9573 -0.5136
  690MPD2     C10200   4.376   0.649  15.703 -0.0259 -0.1453 -0.2409
  690MPD2    C110201   4.319   0.622  15.578  1.0822  0.2783  0.3652
  690MPD2    C210202   4.383   0.668  15.466 -0.5367  0.1553  0.2715
  690MPD2    C310203   4.508   0.725  15.479 -0.2332 -0.2881  0.0373
  690MPD2    C410204   4.566   0.745  15.602  0.1473 -0.2797  0.5306
  690MPD2    C510205   4.497   0.715  15.717 -0.3967 -0.0171 -0.3290
  690MPD2     H10206   4.345   0.651  15.366  0.2046  1.1454 -0.1831
  690MPD2    H110207   4.667   0.782  15.615  0.1645  0.0855 -0.5872
  690MPD2    H210208   4.321   0.638  15.796  0.8115 -1.0929  0.1406
  690MPD2    H310209   4.536   0.740  15.815  2.0909  0.9744 -1.5701
  690MPD2     N10210   4.569   0.759  15.356  0.4459  0.6344  0.7384
  690MPD2    H510211   4.510   0.761  15.273  0.4529 -1.9326  0.6719
  690MPD2    N110212   4.205   0.552  15.562 -0.0701  0.3344  0.0061
  690MPD2    H710213   4.153   0.555  15.474 -2.4399  2.4451  1.4842
  691TMC3    C110214   4.034   0.402  15.606 -0.2136  0.0291  0.3094
  691TMC3    C210215   3.923   0.383  15.685 -0.9068  0.3666  0.3604
  691TMC3    C310216   3.838   0.282  15.659 -0.5402 -0.3125 -0.0110
  691TMC3    C410217   4.061   0.307  15.507 -0.5306 -0.1603  0.1796
  691TMC3    C510218   3.964   0.215  15.477 -0.4828  0.3463 -0.4979
  691TMC3    C610219   3.845   0.204  15.546  0.1692  0.0834  0.9900
  691TMC3     C10220   4.141   0.478  15.657  0.4080  0.0307  0.8076
  691TMC3     O10221   4.155   0.481  15.777  0.8950 -0.0131 -0.5987
  691TMC3     H10222   3.904   0.450  15.768  1.3254  0.4707  0.7966
  691TMC3    H110223   4.149   0.327  15.445  0.2910 -0.0209  1.3995
  691TMC3    H210224   3.761   0.145  15.508  1.1621 -1.0678  0.5865
  691TMC3    C710225   4.013   0.100  15.399  1.1096 -0.2438  0.5505
  691TMC3    C810226   3.713   0.281  15.724 -1.0221  0.9292 -0.4493
  691TMC3    O110227   4.115   0.125  15.336 -0.6077  0.5442 -0.0395
  691TMC3    O210228   3.661   0.174  15.737  0.3675 -0.1909  0.3912
  692TMC3    C110229   1.117   1.399  15.587  0.0093 -0.9895 -0.1075
  692TMC3    C210230   1.229   1.374  15.665 -0.7199 -0.5689  0.2508
  692TMC3    C310231   1.304   1.258  15.655  0.6708  0.3237  0.3971
  692TMC3    C410232   1.066   1.300  15.511 -0.0114 -0.5864  0.3192
  692TMC3    C510233   1.130   1.178  15.514 -0.1262 -0.5904 -0.0135
  692TMC3    C610234   1.258   1.161  15.565 -0.3850 -0.1802 -0.6675
  692TMC3     C10235   1.032   1.505  15.637  0.1028 -0.1859  0.1190
  692TMC3     O10236   1.045   1.526  15.756  0.6826 -0.0108  0.5458
  692TMC3     H10237   1.285   1.455  15.709 -1.7480 -0.0417  0.5880
  692TMC3    H110238   0.969   1.310  15.465  1.3730  1.3318 -2.1436
  692TMC3    H210239   1.313   1.067  15.565  2.0521  1.2756  0.2613
  692TMC3    C710240   1.046   1.071  15.553 -0.4813  0.0381  0.4225
  692TMC3    C810241   1.306   1.182  15.782  0.0283  0.3635  0.3742
  692TMC3    O110242   0.929   1.099  15.575  0.0021 -0.5530 -0.5247
  692TMC3    O210243   1.361   1.073  15.779 -0.4970 -0.1602  0.1401
  693MPD2     C10244   0.529   3.885  10.965  0.2989  0.4439  0.4337
  693MPD2    C110245   0.487   3.781  10.888 -0.1219  0.2212  0.0577
  693MPD2    C210246   0.581   3.708  10.820  0.9787  0.0196 -0.7691
  693MPD2    C310247   0.719   3.728  10.838 -0.1604 -0.0260  0.3246
  693MPD2    C410248   0.756   3.837  10.912 -0.2756 -0.1360  0.2620
  693MPD2    C510249   0.660   3.918  10.963 -0.5276  0.9109 -1.1854
  693MPD2     H10250   0.561   3.621  10.758  0.0160 -0.4107  0.1572
  693MPD2    H110251   0.860   3.863  10.927  0.0107 -0.1195 -1.7521
  693MPD2    H210252   0.457   3.954  11.009 -0.5206 -0.2734  0.2315
  693MPD2    H310253   0.697   4.012  11.003 -0.4268  0.9397 -1.3451
  693MPD2     N10254   0.820   3.644  10.781 -0.0771 -0.7983 -0.4616
  693MPD2    H510255   0.914   3.638  10.819 -0.6345  0.5836  1.1503
  693MPD2    N110256   0.353   3.737  10.893 -0.3860 -0.7714  0.0029
  693MPD2    H710257   0.285   3.774  10.958  0.6959  1.6374 -0.2399
  694TMC3    C110258   0.216   3.554  10.890 -0.3216 -0.5853  0.7799
  694TMC3    C210259   0.156   3.457  10.818  0.0653 -0.5805 -0.1867
  694TMC3    C310260   0.121   3.341  10.881  0.5126 -0.5107  0.0063
  694TMC3    C410261   0.225   3.556  11.025  0.0101 -0.1019 -0.1758
  694TMC3    C510262   0.182   3.441  11.089 -0.1167 -0.0976 -1.1721
  694TMC3    C610263   0.129   3.335  11.018 -0.5282 -0.0264 -0.7503
  694TMC3     C10264   0.307   3.630  10.813  0.2607 -0.1361 -0.3411
  694TMC3     O10265   0.352   3.568  10.722 -0.0314 -1.4112 -0.0263
  694TMC3     H10266   0.143   3.459  10.710  0.9127 -1.7809 -0.3007
  694TMC3    H110267   0.260   3.642  11.081  2.0366  0.5606 -2.4659
  694TMC3    H210268   0.083   3.246  11.060 -1.7537  1.0881  0.2767
  694TMC3    C710269   0.194   3.437  11.235  0.6286  0.6186  0.0526
  694TMC3    C810270   0.031   3.243  10.819 -0.4768  0.1298 -0.5173
  694TMC3    O110271   0.247   3.533  11.291  0.0935  0.6669  0.3348
  694TMC3    O210272   4.708   3.158  10.891 -0.0589 -0.1389 -0.1969
  695MPD2     C10273   1.635   0.490  13.227  0.1349  0.2075 -0.3343
  695MPD2    C110274   1.575   0.566  13.319  0.1278 -0.2972 -0.1906
  695MPD2    C210275   1.465   0.637  13.279  0.3646  0.1161  0.3801
  695MPD2    C310276   1.402   0.612  13.167  0.1080  0.1893 -0.3693
  695MPD2    C410277   1.451   0.514  13.081 -0.1522  0.9980  0.4310
  695MPD2    C510278   1.574   0.464  13.113  0.4069  0.3446 -0.2526
  695MPD2     H10279   1.415   0.713  13.338 -1.6123 -0.6606 -0.2992
  695MPD2    H110280   1.394   0.480  12.995 -0.8883  0.1444  1.2697
  695MPD2    H210281   1.720   0.430  13.259  0.8796  1.2581 -0.3536
  695MPD2    H310282   1.622   0.383  13.059  1.5384  1.5928 -1.1044
  695MPD2     N10283   1.279   0.675  13.145  0.4344 -0.1312  0.0012
  695MPD2    H510284   1.247   0.736  13.219 -0.9941  0.7431 -1.3460
  695MPD2    N110285   1.624   0.592  13.448  0.4035 -0.4610 -0.4247
  695MPD2    H710286   1.563   0.653  13.501 -1.4378 -1.1934 -1.6828
  696TMC3    C110287   1.101   0.780  13.031  0.3829  0.0453 -0.4459
  696TMC3    C210288   1.035   0.797  13.149 -0.4864 -0.4705 -1.0821
  696TMC3    C310289   0.935   0.889  13.150  0.5719  0.6087  0.1691
  696TMC3    C410290   1.080   0.863  12.925 -0.5678 -0.0872  0.7014
  696TMC3    C510291   0.988   0.959  12.940  0.4355 -0.0989 -0.6246
  696TMC3    C610292   0.911   0.975  13.054 -0.6327 -0.0993 -0.0970
  696TMC3     C10293   1.221   0.695  13.019  0.4446  0.5431  0.6926
  696TMC3     O10294   1.245   0.664  12.903  1.1098 -0.0465  0.3178
  696TMC3     H10295   1.058   0.733  13.233 -0.3478 -2.6416 -2.7550
  696TMC3    H110296   1.148   0.871  12.840  1.8983  0.2841  2.7165
  696TMC3    H210297   0.826   1.042  13.062 -1.3265 -0.8278 -1.2044
  696TMC3    C710298   1.011   1.074  12.854  0.3197 -0.4882  0.1618
  696TMC3    C810299   0.895   0.939  13.276  0.3722  0.0580  0.1800
  696TMC3    O110300   1.066   1.069  12.744 -0.0708  0.2465  0.5296
  696TMC3    O210301   0.888   1.064  13.283  0.5323 -0.0349  0.0117
  697MPD2     C10302   1.008   2.927  15.826  0.7534 -0.1056 -0.2329
  697MPD2    C110303   0.990   2.885  15.695 -0.5578  0.4356 -0.7743
  697MPD2    C210304   0.964   2.982  15.604  0.3542 -0.4253 -0.2569
  697MPD2    C310305   0.987   3.114  15.632  0.9499 -0.5958  1.1777
  697MPD2    C410306   1.019   3.153  15.756 -0.0276 -0.6952 -0.0909
  697MPD2    C510307   1.023   3.064  15.852  0.2899 -0.1839 -0.6745
  697MPD2     H10308   0.940   2.951  15.503 -0.1477 -0.5783 -0.0903
  697MPD2    H110309   1.040   3.259  15.769  0.6631 -0.6053 -1.9703
  697MPD2    H210310   1.004   2.857  15.909  0.6580 -2.4897 -2.2529
  697MPD2    H310311   1.048   3.085  15.956  0.9251 -0.3740 -0.7895
  697MPD2     N10312   0.968   3.197  15.522  0.6898 -0.5274 -0.0314
  697MPD2    H510313   0.956   3.149  15.434  2.1879  3.6909 -2.5201
  697MPD2    N110314   0.982   2.750  15.654 -0.7264 -0.4575 -0.0763
  697MPD2    H710315   0.974   2.724  15.556  1.0694 -0.3631 -0.2527
  698TMC3    C110316   0.963   3.407  15.406  0.0511 -0.2315 -0.3276
  698TMC3    C210317   0.947   3.542  15.414 -0.5062 -0.3862  0.1367
  698TMC3    C310318   0.917   3.607  15.301 -0.7508 -0.2167  0.7350
  698TMC3    C410319   0.968   3.337  15.287 -0.6455  0.6176 -0.1929
  698TMC3    C510320   0.943   3.408  15.173  0.1934  0.5093  0.6984
  698TMC3    C610321   0.918   3.543  15.180 -0.2676  0.2910 -0.2773
  698TMC3     C10322   0.971   3.335  15.531  0.4538 -0.3843 -0.0247
  698TMC3     O10323   0.974   3.409  15.628 -0.3070 -0.0972 -0.1250
  698TMC3     H10324   0.936   3.591  15.510  2.8959 -0.2300  0.4543
  698TMC3    H110325   0.990   3.232  15.276 -2.0129  0.4441 -1.2740
  698TMC3    H210326   0.903   3.603  15.091  0.5215 -0.9789 -1.2514
  698TMC3    C710327   0.941   3.339  15.042 -0.6097 -0.7471 -0.9696
  698TMC3    C810328   0.921   3.751  15.303  0.1506 -0.2808  0.2829
  698TMC3    O110329   0.905   3.410  14.949 -0.0742 -0.3485 -0.2811
  698TMC3    O210330   0.990   3.810  15.387 -0.2131  0.3589 -0.4001
  699TMC3    C110331   1.111   0.613  12.638  0.2000 -0.4457  0.0181
  699TMC3    C210332   1.126   0.479  12.662 -0.1423  0.2510 -0.2051
  699TMC3    C310333   1.023   0.417  12.727  0.4448 -0.4417  0.5122
  699TMC3    C410334   1.000   0.683  12.682  0.3880  0.0117  0.0427
  699TMC3    C510335   0.891   0.608  12.722  0.1472  0.1724  0.6497
  699TMC3    C610336   0.901   0.475  12.742  0.4783 -0.1295  0.6413
  699TMC3     C10337   1.208   0.695  12.557  0.2723  0.1454 -0.2254
  699TMC3     O10338   1.180   0.812  12.547  0.1606 -1.0940  0.6132
  699TMC3     H10339   1.203   0.419  12.616 -1.9865 -1.4030 -1.1391
  699TMC3    H110340   0.984   0.787  12.656  0.6112  0.1184  0.3371
  699TMC3    H210341   0.821   0.417  12.788  0.8145 -0.4377  0.8392
  699TMC3    C710342   0.770   0.680  12.761 -0.1294  0.1931 -0.0696
  699TMC3    C810343   1.035   0.293  12.791  0.6662  0.6167 -0.0737
  699TMC3    O110344   0.779   0.802  12.774  0.1608  0.0394  0.1986
  699TMC3    O210345   0.934   0.237  12.829 -0.4025  0.0467 -0.3633
  700TMC3    C110346   0.257   3.337  17.443  0.1047 -0.8839  0.3938
  700TMC3    C210347   0.352   3.239  17.461 -0.2884  0.5554 -0.5289
  700TMC3    C310348   0.444   3.247  17.563  0.6414 -0.3284  0.0519
  700TMC3    C410349   0.264   3.446  17.528  0.1067 -0.3158 -0.4487
  700TMC3    C510350   0.347   3.456  17.634 -0.2419  0.0038 -0.1371
  700TMC3    C610351   0.442   3.356  17.650 -0.6059  0.5062 -0.0479
  700TMC3     C10352   0.227   3.371  17.299  0.1087  0.5918 -0.0295
  700TMC3     O10353   0.211   3.274  17.231 -0.1289  0.3291  0.8031
  700TMC3     H10354   0.356   3.162  17.385 -1.1883 -0.4458  0.4339
  700TMC3    H110355   0.192   3.525  17.509 -0.6536 -1.0059 -0.4181
  700TMC3    H210356   0.500   3.350   0.031 -1.2750 -2.5669  0.1618
  700TMC3    C710357   0.340   3.578   0.012 -0.0553  0.3843 -0.0344
  700TMC3    C810358   0.581   3.200  17.531 -0.0552 -0.2451  0.4555
  700TMC3    O110359   0.285   3.680  17.684  0.2224 -0.3216  0.0984
  700TMC3    O210360   0.590   3.119  17.437  0.5106  0.4602 -0.6564
  701TMC3    C110361   0.122   2.376  15.497  0.4040  0.0309  0.1979
  701TMC3    C210362   0.130   2.336  15.369  0.3109 -0.1459  0.1537
  701TMC3    C310363   0.260   2.331  15.317  0.3171  0.1365 -0.2384
  701TMC3    C410364   0.221   2.420  15.573  0.1660 -0.4576 -0.0073
  701TMC3    C510365   0.345   2.417  15.521  0.5490 -0.4845  0.1338
  701TMC3    C610366   0.359   2.378  15.391  0.1556 -0.1529  0.7772
  701TMC3     C10367   4.718   2.392  15.545 -0.4475  0.2606 -0.2243
  701TMC3     O10368   4.709   2.364  15.664  0.0333  0.5643 -0.2443
  701TMC3     H10369   0.037   2.299  15.328 -0.6282 -0.0977  2.2264
  701TMC3    H110370   0.196   2.472  15.665 -1.6862  0.7801 -1.2301
  701TMC3    H210371   0.450   2.388  15.334 -1.0836 -0.9638 -1.3447
  701TMC3    C710372   0.439   2.524  15.560 -0.4452  0.9983 -0.1512
  701TMC3    C810373   0.284   2.280  15.183  0.1332 -0.0800  0.0116
  701TMC3    O110374   0.489   2.596  15.473 -0.0557 -0.1276 -0.4561
  701TMC3    O210375   0.400   2.240  15.164  0.2661 -0.0436 -0.2072
  702MPD2     C10376   4.569   3.979  10.605 -0.3828  0.5298 -0.1761
  702MPD2    C110377   4.486   4.090  10.633 -0.4704 -0.8957  1.2373
  702MPD2    C210378   4.536   4.210  10.601 -0.3916 -0.4008  0.1925
  702MPD2    C310379   4.661   4.230  10.545 -0.1789  0.3357  0.4468
  702MPD2    C410380   0.007   4.120  10.522  0.4747  0.2635  0.0435
  702MPD2    C510381   4.695   3.989  10.549  0.8474 -0.5528  0.6175
  702MPD2     H10382   4.462   4.288  10.620  0.1182  0.3266 -0.8115
  702MPD2    H110383   0.103   4.133  10.474 -0.2587 -1.6536 -1.9599
  702MPD2    H210384   4.531   3.879  10.627  0.6014 -0.2425 -2.0070
  702MPD2    H310385   0.033   3.906  10.526  0.1412 -0.8389 -0.3758
  702MPD2     N10386   4.703   4.354  10.508 -0.4530 -0.2990  1.1862
  702MPD2    H510387   0.057   4.366  10.449 -1.1820 -0.1310  0.2230
  702MPD2    N110388   4.365   4.080  10.706  0.6181 -0.1669 -1.0297
  702MPD2    H710389   4.308   4.163  10.718  0.0658 -0.6424 -0.3494
  703TMC3    C110390   4.664   4.586  10.445  0.1429  0.4587  0.4472
  703TMC3    C210391   4.572   4.688  10.440  0.5248  0.5282 -0.5783
  703TMC3    C310392   4.598   0.069  10.361 -0.4833  0.0585  0.1098
  703TMC3    C410393   0.054   4.602  10.382 -0.1088  1.0031  0.1997
  703TMC3    C510394   0.073   4.715  10.304  0.2675  1.1786  0.3405
  703TMC3    C610395   4.712   0.083  10.288 -0.2985 -0.8078 -0.1316
  703TMC3     C10396   4.634   4.472  10.535 -0.2838 -1.1798 -0.1330
  703TMC3     O10397   4.563   4.493  10.628  0.0132  0.0017 -0.1258
  703TMC3     H10398   4.485   4.672  10.502  1.3152 -0.2528  0.3373
  703TMC3    H110399   0.132   4.530  10.400 -0.2491  1.4553  2.5696
  703TMC3    H210400   0.009   0.172  10.232 -0.2560  0.0689  1.2757
  703TMC3    C710401   0.208   0.026  10.272  0.5483 -0.0623  0.4899
  703TMC3    C810402   4.522   0.186  10.392  0.5943 -0.0605 -0.1217
  703TMC3    O110403   0.222   0.110  10.183  0.0642  0.0696  0.2288
  703TMC3    O210404   4.584   0.290  10.401  0.4294 -0.1446 -0.2644
  704TMC3    C110405   2.347   2.573  12.504  0.2533 -0.9015 -0.2951
  704TMC3    C210406   2.438   2.562  12.404  0.6522  0.2836  0.2187
  704TMC3    C310407   2.544   2.479  12.415 -0.0190 -0.7415  0.3537
  704TMC3    C410408   2.361   2.495  12.612  0.3950  0.3896 -0.1796
  704TMC3    C510409   2.469   2.408  12.624 -0.7411 -0.1463  0.1080
  704TMC3    C610410   2.574   2.409  12.529 -0.1224 -0.2898 -0.6294
  704TMC3     C10411   2.211   2.601  12.461 -0.2738 -0.1016  0.1523
  704TMC3     O10412   2.129   2.638  12.546 -0.5471 -0.9607 -0.2915
  704TMC3     H10413   2.432   2.621  12.313  0.8563 -0.5878 -0.3663
  704TMC3    H110414   2.287   2.495  12.692  2.0629 -2.0450  1.3745
  704TMC3    H210415   2.639   2.324  12.516  1.2043  0.2012  2.7383
  704TMC3    C710416   2.501   2.344  12.746 -0.6211  0.2881 -0.2526
  704TMC3    C810417   2.589   2.431  12.282 -0.1021  0.0801 -0.4001
  704TMC3    O110418   2.622   2.346  12.770  0.3382  0.3228 -0.4798
  704TMC3    O210419   2.510   2.455  12.189  0.1121  0.1972 -0.2282
  705MPD2     C10420   1.338   0.996  16.640 -0.2178 -0.2233  0.2641
  705MPD2    C110421   1.286   1.085  16.553 -0.3927 -0.1675  0.5577
  705MPD2    C210422   1.167   1.145  16.592  0.1714  0.2495  0.8176
  705MPD2    C310423   1.104   1.118  16.717  0.0802  0.5862 -0.1121
  705MPD2    C410424   1.170   1.029  16.806 -0.2794 -0.5425 -0.7931
  705MPD2    C510425   1.288   0.972  16.763 -0.3089  0.4391 -0.3746
  705MPD2     H10426   1.114   1.204  16.519  0.1321 -2.9459 -1.7410
  705MPD2    H110427   1.130   1.002  16.903 -0.7481  1.1366 -0.5213
  705MPD2    H210428   1.435   0.952  16.619  0.2997  1.2244 -0.3888
  705MPD2    H310429   1.346   0.911  16.832 -0.6816  2.0776  1.3852
  705MPD2     N10430   0.978   1.165  16.761  0.1758 -0.1662 -0.2106
  705MPD2    H510431   0.959   1.137  16.856 -1.7731  0.6815 -0.3576
  705MPD2    N110432   1.361   1.115  16.434  0.4681 -0.4135 -0.3356
  705MPD2    H710433   1.432   1.045  16.416  0.0995 -1.6088  2.8988
  706TMC3    C110434   1.542   1.092  16.064  0.4301  0.5182 -0.8043
  706TMC3    C210435   1.565   1.210  15.993 -0.4182  0.4575 -0.3098
  706TMC3    C310436   1.523   1.328  16.047 -0.1061  0.4041 -0.3806
  706TMC3    C410437   1.463   1.093  16.178 -0.2490 -0.1945 -0.5170
  706TMC3    C510438   1.415   1.219  16.217 -0.4898  0.0636 -1.0001
  706TMC3    C610439   1.448   1.338  16.158 -0.8975  0.0709  0.1682
  706TMC3     C10440   1.616   0.973  16.025 -0.7409  0.1016 -0.1931
  706TMC3     O10441   1.673   0.909  16.110  0.8273 -0.4644  0.5520
  706TMC3     H10442   1.616   1.209  15.897  0.7670  3.4271  0.2833
  706TMC3    H110443   1.437   1.002  16.232 -2.4634 -0.5106 -2.0977
  706TMC3    H210444   1.398   1.426  16.198  2.6258  1.3220  1.8856
  706TMC3    C710445   1.344   1.223  16.348 -0.3386 -0.6429 -0.0694
  706TMC3    C810446   1.550   1.446  15.967 -0.3686 -0.1348  1.1213
  706TMC3    O110447   1.283   1.323  16.384 -0.3105  0.6595  0.7579
  706TMC3    O210448   1.569   1.432  15.845 -0.3428  0.3129 -0.1626
  707TMC3    C110449   3.102   4.256   1.569  0.0970 -0.3790 -0.4366
  707TMC3    C210450   3.099   4.121   1.583  0.1176 -0.0110  0.4293
  707TMC3    C310451   2.981   4.058   1.602 -0.6640  0.2124 -0.1259
  707TMC3    C410452   2.988   4.326   1.600 -0.0176  0.3120 -0.3571
  707TMC3    C510453   2.876   4.265   1.640 -0.4541  0.3755  0.5229
  707TMC3    C610454   2.867   4.125   1.634  0.5120  0.0395 -0.2954
  707TMC3     C10455   3.236   4.307   1.533 -0.0075 -0.0720  0.4967
  707TMC3     O10456   3.325   4.232   1.558  0.2979 -0.4830  0.5662
  707TMC3     H10457   3.190   4.064   1.568  1.2535  1.5560  1.3891
  707TMC3    H110458   2.987   4.434   1.600 -0.1502  0.3064 -1.1725
  707TMC3    H210459   2.770   4.077   1.638  0.0730  0.9171 -0.2765
  707TMC3    C710460   2.750   4.341   1.636 -0.9443  0.3389  0.2794
  707TMC3    C810461   2.968   3.912   1.580  0.1484  0.6917  0.4707
  707TMC3    O110462   2.732   4.427   1.554  0.4781  0.2309 -0.1929
  707TMC3    O210463   2.863   3.867   1.614  0.6569  0.2695 -0.0253
  708MPD2     C10464   0.359   3.322  14.263  0.2221  0.6525  0.4941
  708MPD2    C110465   0.247   3.381  14.205 -0.0227  0.3717 -0.2600
  708MPD2    C210466   0.162   3.460  14.284  0.3835 -0.1357  0.2913
  708MPD2    C310467   0.206   3.488  14.413 -0.4022 -0.5934 -0.7796
  708MPD2    C410468   0.325   3.438  14.469  0.2781  0.1488 -1.2839
  708MPD2    C510469   0.398   3.349  14.393 -0.2104 -0.3792  0.5089
  708MPD2     H10470   0.066   3.498  14.250  0.6178 -0.6435 -0.9560
  708MPD2    H110471   0.357   3.448  14.573 -1.2647 -1.6978 -0.6202
  708MPD2    H210472   0.433   3.271  14.203 -2.6849 -2.3171 -0.5568
  708MPD2    H310473   0.498   3.314  14.414  0.4585  0.9801 -0.4070
  708MPD2     N10474   0.124   3.588  14.486  0.4781 -0.2181 -0.0367
  708MPD2    H510475   0.037   3.618  14.444  0.6049 -0.3460 -0.3961
  708MPD2    N110476   0.227   3.365  14.064 -0.0929  0.0297 -1.5618
  708MPD2    H710477   0.297   3.315  14.010  0.6475 -1.4827  0.7916
  709TMC3    C110478   0.107   3.404  13.858 -0.2476  0.2320 -0.2761
  709TMC3    C210479   0.212   3.476  13.802  0.3097 -0.0163  0.0643
  709TMC3    C310480   0.174   3.548  13.689  0.5440  0.2735  0.2309
  709TMC3    C410481   4.710   3.401  13.805  0.3268 -0.3504  0.1962
  709TMC3    C510482   4.678   3.475  13.694  0.5729 -0.5393 -0.0305
  709TMC3    C610483   0.044   3.553  13.633 -0.0193  0.1317  0.8712
  709TMC3     C10484   0.108   3.398  14.000 -0.4476  0.2259 -0.3507
  709TMC3     O10485   4.722   3.424  14.044 -0.8886  0.3940  0.4535
  709TMC3     H10486   0.315   3.479  13.835  0.2874 -0.3400  0.1652
  709TMC3    H110487   4.640   3.330  13.849  2.0093 -0.8979  2.0267
  709TMC3    H210488   0.023   3.621  13.550  0.2047 -2.5459 -1.3641
  709TMC3    C710489   4.565   3.563  13.719 -0.0865  0.5874 -0.5903
  709TMC3    C810490   0.251   3.668  13.670  0.2715  0.4097 -0.4571
  709TMC3    O110491   4.527   3.618  13.620 -0.2866 -0.2078  0.4403
  709TMC3    O210492   0.323   3.706  13.757  1.1189 -0.4185 -0.2499
  710TMC3    C110493   0.944   0.551   0.748 -0.3687 -0.2517 -0.3021
  710TMC3    C210494   1.017   0.633   0.668  0.3441 -0.0935 -0.3594
  710TMC3    C310495   1.159   0.634   0.679 -0.9937  0.0495  0.8120
  710TMC3    C410496   1.005   0.455   0.824 -0.5561  0.6342  0.0460
  710TMC3    C510497   1.144   0.467   0.831 -0.7034  0.9605  0.4991
  710TMC3    C610498   1.222   0.549   0.761 -0.0836 -0.0022  0.4234
  710TMC3     C10499   0.803   0.572   0.750 -0.2948 -0.0820 -0.2698
  710TMC3     O10500   0.734   0.474   0.783  0.1636  0.5528  0.6505
  710TMC3     H10501   0.967   0.693   0.593 -1.1323 -0.5247  0.2702
  710TMC3    H110502   0.947   0.389   0.887  2.3485  0.1586  2.2328
  710TMC3    H210503   1.330   0.549   0.767  0.0028  1.5579 -1.1144
  710TMC3    C710504   1.200   0.368   0.918 -0.4965 -0.7495  0.0246
  710TMC3    C810505   1.236   0.706   0.584  0.1199  0.3144  0.4250
  710TMC3    O110506   1.128   0.270   0.931  0.8302  0.0988  0.0359
  710TMC3    O210507   1.349   0.663   0.561  0.4475  0.1979  0.1115
  711TMC3    C110508   0.849   1.886  14.427 -0.0388  0.9453 -0.5908
  711TMC3    C210509   0.750   1.965  14.474  0.8704 -0.3521 -0.4555
  711TMC3    C310510   0.784   2.090  14.520 -0.4944 -0.4852  0.1427
  711TMC3    C410511   0.979   1.928  14.412 -0.1485 -0.5703 -0.0874
  711TMC3    C510512   1.005   2.057  14.454  0.4841  0.2150 -0.1743
  711TMC3    C610513   0.907   2.138  14.510 -0.0209 -0.1141 -0.3146
  711TMC3     C10514   0.807   1.754  14.385 -0.4271 -0.4636 -0.2175
  711TMC3     O10515   0.709   1.746  14.318 -0.0212 -0.1747 -0.0814
  711TMC3     H10516   0.656   1.913  14.486  0.6476 -0.0365 -0.8410
  711TMC3    H110517   1.060   1.865  14.376 -1.4234 -1.9633 -0.5011
  711TMC3    H210518   0.933   2.236  14.547  1.2236 -0.9820  1.1441
  711TMC3    C710519   1.126   2.055  14.533  0.6780  0.1500 -0.2183
  711TMC3    C810520   0.729   2.106  14.647  0.1517  0.0260 -0.9568
  711TMC3    O110521   1.108   2.097  14.646 -0.5171  0.8797  0.0203
  711TMC3    O210522   0.610   2.080  14.656 -0.2636  0.3864  0.0041
  712MPD2     C10523   2.504   2.685  13.903 -0.4336 -0.1418  0.7599
  712MPD2    C110524   2.402   2.770  13.878 -0.0488  0.2653 -0.5487
  712MPD2    C210525   2.421   2.904  13.889 -0.1445 -0.0501  0.3216
  712MPD2    C310526   2.543   2.966  13.899  0.5239  0.6480  0.0904
  712MPD2    C410527   2.651   2.884  13.908 -0.4131  0.4735  0.1136
  712MPD2    C510528   2.627   2.746  13.925  0.4766 -0.3251 -0.1129
  712MPD2     H10529   2.327   2.956  13.875  1.0345  1.4431 -2.0110
  712MPD2    H110530   2.753   2.919  13.918 -0.3750  0.9201 -1.8057
  712MPD2    H210531   2.495   2.577  13.905  0.3430 -0.1648  3.0371
  712MPD2    H310532   2.719   2.691  13.940 -0.4787 -1.2116  2.4397
  712MPD2     N10533   2.562   3.104  13.886 -0.0487 -0.4009 -0.2437
  712MPD2    H510534   2.655   3.136  13.864  0.6906 -2.2511  0.1899
  712MPD2    N110535   2.275   2.718  13.848  0.1541  0.1666  0.9094
  712MPD2    H710536   2.204   2.791  13.845 -1.6345 -1.6065  0.4774
  713TMC3    C110537   2.474   3.326  13.830 -0.5061 -0.6826  0.0084
  713TMC3    C210538   2.589   3.397  13.850 -0.3899 -0.1352 -0.0724
  713TMC3    C310539   2.591   3.512  13.767 -0.3466  0.6952  0.3228
  713TMC3    C410540   2.372   3.361  13.748  0.1326 -0.3010  0.9224
  713TMC3    C510541   2.385   3.475  13.681  0.5354 -0.2530 -0.0618
  713TMC3    C610542   2.495   3.565  13.685 -0.1959 -0.1446 -0.4672
  713TMC3     C10543   2.458   3.191  13.887 -0.8245  0.0552 -0.0162
  713TMC3     O10544   2.345   3.173  13.929 -0.2036 -0.3532 -0.0475
  713TMC3     H10545   2.672   3.362  13.910 -0.5266  0.0135  0.2006
  713TMC3    H110546   2.279   3.304  13.748  0.0371 -0.1456  0.7992
  713TMC3    H210547   2.499   3.647  13.614  0.7330  0.9626  0.8628
  713TMC3    C710548   2.261   3.525  13.625  1.0258  0.6254 -0.1956
  713TMC3    C810549   2.717   3.571  13.731  0.2006 -0.9107 -0.8051
  713TMC3    O110550   2.189   3.444  13.565  0.0949  0.4464  0.3244
  713TMC3    O210551   2.716   3.636  13.623 -0.4759 -0.3205  0.0960
  714MPD2     C10552   0.161   1.612   1.205 -0.1864  0.2580 -0.4469
  714MPD2    C110553   0.129   1.490   1.148  0.7290 -0.0687  0.6931
  714MPD2    C210554   0.024   1.482   1.060  0.5779 -0.6892  0.5558
  714MPD2    C310555   4.680   1.597   1.027  0.4316  0.9418 -0.3226
  714MPD2    C410556   4.715   1.723   1.084  0.3346  0.7617 -0.3120
  714MPD2    C510557   0.092   1.724   1.177 -0.1667  0.0644 -0.2900
  714MPD2     H10558   0.001   1.390   1.009  1.2457 -0.5633  0.0271
  714MPD2    H110559   4.655   1.809   1.058  1.8046  1.7112 -0.6117
  714MPD2    H210560   0.245   1.620   1.273 -0.5534 -0.9125  0.1402
  714MPD2    H310561   0.118   1.822   1.215 -0.0153 -0.5824  1.2551
  714MPD2     N10562   4.566   1.601   0.943 -0.3260  0.2862 -0.4404
  714MPD2    H510563   4.520   1.692   0.946 -0.2909  0.3014 -0.3467
  714MPD2    N110564   0.211   1.376   1.177  0.1358  0.3426  0.3295
  714MPD2    H710565   0.280   1.388   1.250 -1.1144  0.8125  1.4418
  715TMC3    C110566   0.309   1.162   1.148 -0.0590  0.0389 -0.1146
  715TMC3    C210567   0.284   1.033   1.187  0.9724  0.6013  0.4145
  715TMC3    C310568   0.387   0.943   1.191  0.2811 -0.4000 -0.1260
  715TMC3    C410569   0.438   1.203   1.130  0.6545  0.5431 -0.9334
  715TMC3    C510570   0.540   1.115   1.142  0.1126 -0.0111  0.3824
  715TMC3    C610571   0.516   0.981   1.168 -0.3001  0.8805  0.7002
  715TMC3     C10572   0.198   1.252   1.120 -0.6234  0.1459  0.2819
  715TMC3     O10573   0.101   1.202   1.061 -0.1883  0.0852  0.0809
  715TMC3     H10574   0.182   0.994   1.186  0.9567  0.7389 -5.0825
  715TMC3    H110575   0.454   1.309   1.114  2.4763  0.5801  1.0638
  715TMC3    H210576   0.589   0.906   1.140 -1.7473  0.4046 -1.8598
  715TMC3    C710577   0.676   1.165   1.154 -0.2570 -0.4961 -0.7424
  715TMC3    C810578   0.353   0.806   1.174 -0.3491  0.2909 -0.7183
  715TMC3    O110579   0.693   1.280   1.113 -0.3913 -0.1244 -0.6503
  715TMC3    O210580   0.236   0.780   1.148  0.2837 -0.1926  0.2432
  716MPD2     C10581   0.279   3.564   9.948  0.0778  0.3322  0.1301
  716MPD2    C110582   0.200   3.481   9.865 -0.1712  0.2432 -0.1629
  716MPD2    C210583   0.146   3.361   9.912  0.2844 -0.5962 -0.1952
  716MPD2    C310584   0.168   3.313  10.041  0.9638  0.1375  0.0762
  716MPD2    C410585   0.232   3.405  10.131  0.4893  0.2381  0.5771
  716MPD2    C510586   0.280   3.526  10.081 -0.0219 -0.1568  0.0269
  716MPD2     H10587   0.089   3.289   9.854 -1.0107 -0.0480  0.3882
  716MPD2    H110588   0.253   3.386  10.235 -0.0867 -0.5673  0.5481
  716MPD2    H210589   0.339   3.644   9.907  1.5666 -1.8697 -1.9855
  716MPD2    H310590   0.337   3.595  10.141 -1.8540  0.9957  0.4576
  716MPD2     N10591   0.137   3.182  10.084 -0.7545 -0.2947  0.3141
  716MPD2    H510592   0.092   3.130  10.009 -2.6697 -1.6379  2.4068
  716MPD2    N110593   0.175   3.534   9.737 -0.1209  0.4398 -0.4757
  716MPD2    H710594   0.230   3.617   9.717 -1.0276  0.7996 -1.4681
  717TMC3    C110595   0.130   2.994  10.214  0.3437 -0.0807 -0.5817
  717TMC3    C210596   0.158   2.919  10.101 -0.2598 -0.1443  0.1238
  717TMC3    C310597   0.159   2.781  10.112 -0.2589  0.1907  0.4372
  717TMC3    C410598   0.117   2.936  10.334 -0.6501  0.6456  0.3005
  717TMC3    C510599   0.121   2.801  10.345 -0.1238 -0.4039 -0.5244
  717TMC3    C610600   0.147   2.722  10.231  0.4301 -0.5454 -0.5746
  717TMC3     C10601   0.168   3.125  10.208  0.3236 -1.1507 -0.7013
  717TMC3     O10602   0.210   3.179  10.309  0.3075 -0.5897 -0.0843
  717TMC3     H10603   0.195   2.960  10.007 -1.6863 -0.5553 -0.6226
  717TMC3    H110604   0.130   2.988  10.429 -0.4537  1.0124  0.0715
  717TMC3    H210605   0.157   2.614  10.237  0.3991 -0.5096  0.2259
  717TMC3    C710606   0.116   2.734  10.479  0.4217 -0.2656 -0.0763
  717TMC3    C810607   0.171   2.701   9.994 -0.7067  0.1346 -0.9222
  717TMC3    O110608   0.057   2.793  10.569  0.0378 -0.3081 -0.3588
  717TMC3    O210609   0.222   2.589  10.002 -0.0207 -0.0521  0.9578
  718MPD2     C10610   3.365   3.076  13.179 -0.0853  0.8379 -0.4889
  718MPD2    C110611   3.447   3.017  13.085  0.7199  0.8528 -0.1239
  718MPD2    C210612   3.555   2.946  13.130  0.1297  0.2595 -0.4426
  718MPD2    C310613   3.582   2.917  13.268  0.0377 -0.3406 -0.2196
  718MPD2    C410614   3.499   2.978  13.359  0.4434  0.1145 -0.1133
  718MPD2    C510615   3.384   3.051  13.312  0.2343  0.3131 -0.0434
  718MPD2     H10616   3.625   2.910  13.055 -0.0842  0.6888 -0.8448
  718MPD2    H110617   3.512   2.970  13.466  0.1783  1.4609  0.0219
  718MPD2    H210618   3.287   3.150  13.162 -1.7474 -0.6322  0.6965
  718MPD2    H310619   3.320   3.102  13.383 -1.1280 -1.5706  0.0781
  718MPD2     N10620   3.681   2.822  13.300  0.4978  0.0205 -0.5258
  718MPD2    H510621   3.730   2.773  13.226 -1.3379 -1.0222 -1.0431
  718MPD2    N110622   3.422   3.045  12.944  0.2150  0.3237  0.2141
  718MPD2    H710623   3.329   3.078  12.924  0.5627  1.0190 -0.2536
  719TMC3    C110624   3.452   3.034  12.717  0.0576 -0.3530 -0.5658
  719TMC3    C210625   3.386   2.923  12.679 -0.0919 -0.0285  0.1486
  719TMC3    C310626   3.447   2.842  12.594  0.5752  0.1840 -0.1321
  719TMC3    C410627   3.550   3.101  12.643 -0.1721 -0.1058 -0.1652
  719TMC3    C510628   3.584   3.030  12.533 -0.4603  0.5944 -0.0553
  719TMC3    C610629   3.527   2.904  12.502  0.5254 -0.2071  0.4556
  719TMC3     C10630   3.511   3.013  12.846 -0.7880 -0.5156  0.6130
  719TMC3     O10631   3.628   2.973  12.845  0.1964 -0.6198 -0.4138
  719TMC3     H10632   3.315   2.883  12.750  0.9324 -1.1149  0.5636
  719TMC3    H110633   3.616   3.179  12.679  0.6767  0.2985 -2.5997
  719TMC3    H210634   3.600   2.855  12.438 -0.2012 -0.5440 -0.1116
  719TMC3    C710635   3.721   3.045  12.492 -0.1718 -0.4754 -0.5799
  719TMC3    C810636   3.501   2.721  12.661  0.2232 -0.1983  0.0051
  719TMC3    O110637   3.751   3.085  12.380  0.7833  0.1830  0.1220
  719TMC3    O210638   3.443   2.692  12.766 -0.2481  0.4645 -0.3075
  720MPD2     C10639   2.070   4.705  13.827  0.2182  0.8174  1.6208
  720MPD2    C110640   2.163   0.031  13.740 -0.4521 -0.3343 -0.4631
  720MPD2    C210641   2.296   0.031  13.788  0.3044 -0.5860  0.3794
  720MPD2    C310642   2.329   4.694  13.907  0.0449 -0.3188 -0.1402
  720MPD2    C410643   2.231   4.624  13.975  0.1009  0.7740  0.1046
  720MPD2    C510644   2.101   4.643  13.941  0.4943  0.8377  0.5707
  720MPD2     H10645   2.376   0.067  13.724 -0.8472  3.5569  1.2721
  720MPD2    H110646   2.234   4.577  14.072 -0.1071 -0.7108 -0.6077
  720MPD2    H210647   1.963   4.710  13.809  0.3761  0.4930  0.6137
  720MPD2    H310648   2.017   4.604  13.997  0.8037  0.2094  0.5963
  720MPD2     N10649   2.460   4.713  13.960 -0.5988  0.1071 -0.2948
  720MPD2    H510650   2.528   0.035  13.904 -0.6567 -0.3031 -0.7271
  720MPD2    N110651   2.137   0.094  13.613  0.4836 -0.1070 -0.2890
  720MPD2    H710652   2.221   0.113  13.559  1.5308 -0.4903  1.2077
  721TMC3    C110653   2.633   4.709  14.127  0.3159  0.4617 -0.6497
  721TMC3    C210654   2.672   4.681  14.255 -0.5121  0.1275  0.2715
  721TMC3    C310655   2.800   4.702  14.290 -0.5090  0.2712  0.3115
  721TMC3    C410656   2.714   0.046  14.041  0.4845  0.1794  0.3395
  721TMC3    C510657   2.845   0.064  14.074  0.6532 -0.7599 -0.5569
  721TMC3    C610658   2.889   0.027  14.199 -0.6481 -0.6224 -0.2533
  721TMC3     C10659   2.497   4.674  14.089 -0.9753  0.2878  0.1311
  721TMC3     O10660   2.433   4.604  14.170  0.8770 -0.3823 -0.2012
  721TMC3     H10661   2.590   4.644  14.316 -1.4883  0.7289 -0.6694
  721TMC3    H110662   2.673   0.078  13.946 -0.0408 -2.5037 -0.3360
  721TMC3    H210663   2.996   0.024  14.219 -0.7755  1.4011  0.7947
  721TMC3    C710664   2.931   0.119  13.973  0.3316 -0.4204 -0.3266
  721TMC3    C810665   2.864   4.607  14.387 -0.0825  0.0806  0.2812
  721TMC3    O110666   2.886   0.114  13.861 -0.7418 -0.2218  0.5878
  721TMC3    O210667   2.985   4.590  14.376  0.2930 -0.1481 -0.2305
  722MPD2     C10668   1.459   3.089  13.168  1.0037  0.6993  0.0286
  722MPD2    C110669   1.360   3.185  13.183 -0.0813  0.6073  0.4463
  722MPD2    C210670   1.228   3.144  13.204 -0.2385  0.4876  0.3429
  722MPD2    C310671   1.195   3.009  13.194 -0.0594  0.4129 -0.3398
  722MPD2    C410672   1.295   2.913  13.169  0.6732 -0.5194 -0.2376
  722MPD2    C510673   1.429   2.953  13.168 -0.2839 -0.1773  0.4367
  722MPD2     H10674   1.160   3.225  13.227  0.8333  1.0190  1.6615
  722MPD2    H110675   1.279   2.807  13.154  1.8670 -0.6627 -0.4726
  722MPD2    H210676   1.564   3.112  13.155  1.2532 -0.4244  0.0353
  722MPD2    H310677   1.508   2.879  13.166 -1.3806 -1.3462  0.8155
  722MPD2     N10678   1.055   2.976  13.198  0.2857  0.7322  0.4922
  722MPD2    H510679   0.989   3.048  13.228 -2.4191 -1.0375 -1.2490
  722MPD2    N110680   1.384   3.327  13.186  0.2176  0.5495 -0.7118
  722MPD2    H710681   1.302   3.387  13.190  1.1341  1.9100 -2.0791
  723TMC3    C110682   0.856   2.860  13.166  0.7753  1.1685 -0.0011
  723TMC3    C210683   0.792   2.757  13.234  0.1687  0.5587  0.1964
  723TMC3    C310684   0.666   2.736  13.208 -0.6886 -0.0583  1.0174
  723TMC3    C410685   0.792   2.941  13.083  0.5047  0.2052  0.2457
  723TMC3    C510686   0.660   2.907  13.049  0.2272 -0.0655  0.2294
  723TMC3    C610687   0.600   2.796  13.102 -0.2097  0.2821 -0.0797
  723TMC3     C10688   1.000   2.855  13.172 -0.5426  0.0547  0.3073
  723TMC3     O10689   1.058   2.745  13.167 -0.7038  0.5382 -0.2670
  723TMC3     H10690   0.846   2.696  13.307  1.1223  1.6280  0.3845
  723TMC3    H110691   0.846   3.015  13.024 -1.2291  0.1393 -1.4325
  723TMC3    H210692   0.497   2.779  13.076  0.0179  0.9701 -1.4414
  723TMC3    C710693   0.586   2.975  12.940  0.5034  0.4151  0.6145
  723TMC3    C810694   0.609   2.616  13.269  0.4038  0.2545  0.0097
  723TMC3    O110695   0.507   2.903  12.882 -0.0039  0.0422  0.5606
  723TMC3    O210696   0.655   2.577  13.379 -0.6242 -0.0072  0.3351
  724TMC3    C110697   1.012   1.168   9.597 -0.2680 -0.2806 -0.4994
  724TMC3    C210698   0.993   1.303   9.565  0.4108  0.3292  0.0361
  724TMC3    C310699   0.873   1.340   9.514 -0.5156  0.3535  0.1129
  724TMC3    C410700   0.918   1.077   9.558 -0.1921  0.0597 -0.2309
  724TMC3    C510701   0.804   1.113   9.485  0.2173  0.4014  0.5092
  724TMC3    C610702   0.780   1.249   9.470  0.5231 -0.5567 -0.1731
  724TMC3     C10703   1.102   1.127   9.700  0.1871 -0.3135  0.3901
  724TMC3     O10704   1.101   1.009   9.733  0.1251 -0.1222 -0.7330
  724TMC3     H10705   1.033   1.377   9.635 -0.0046 -0.4513  1.0994
  724TMC3    H110706   0.936   0.970   9.564 -1.6144 -0.1366  0.4681
  724TMC3    H210707   0.687   1.281   9.424  0.1426  0.1444  1.0666
  724TMC3    C710708   0.734   1.009   9.413 -0.1932  0.4015 -0.2820
  724TMC3    C810709   0.847   1.482   9.489 -0.1390  0.0503  0.1477
  724TMC3    O110710   0.785   0.898   9.406  0.1369  0.2294 -0.0718
  724TMC3    O210711   0.746   1.516   9.431  0.0958 -0.1115  0.3446
  725TMC3    C110712   3.038   0.364  12.091 -0.0879 -0.9005 -0.1952
  725TMC3    C210713   2.993   0.354  11.958 -0.5278 -0.1648  0.1520
  725TMC3    C310714   3.010   0.234  11.895  0.1652  0.0246  0.0112
  725TMC3    C410715   3.105   0.262  12.154 -0.2675  0.0459 -0.5005
  725TMC3    C510716   3.097   0.138  12.089 -0.2019 -0.3410 -0.0829
  725TMC3    C610717   3.060   0.127  11.960 -0.0666 -0.3868 -0.5234
  725TMC3     C10718   3.032   0.486  12.167 -0.4732  0.1166  1.1160
  725TMC3     O10719   3.136   0.506  12.230  0.6429 -0.7352  0.1640
  725TMC3     H10720   2.937   0.430  11.904 -0.8638  0.2137  1.0480
  725TMC3    H110721   3.123   0.281  12.260 -0.8164  2.1910 -0.7968
  725TMC3    H210722   3.066   0.034  11.904 -0.1238  0.2706 -1.6120
  725TMC3    C710723   3.113   0.012  12.154  0.0315  0.1501  0.1998
  725TMC3    C810724   2.975   0.200  11.753 -0.0374 -0.1304  0.0336
  725TMC3    O110725   3.088   4.637  12.094  0.3213 -0.1279 -0.0838
  725TMC3    O210726   2.990   0.086  11.717  0.0575  0.4299 -0.0007
  726MPD2     C10727   0.942   1.533  10.425 -0.4878 -0.2487 -0.5267
  726MPD2    C110728   0.839   1.591  10.358 -1.0871  0.4526  0.1316
  726MPD2    C210729   0.712   1.535  10.365 -0.7646 -0.2445  0.2898
  726MPD2    C310730   0.690   1.429  10.455 -0.3238 -0.4198 -0.6770
  726MPD2    C410731   0.787   1.388  10.531  0.0364  0.0533 -0.2403
  726MPD2    C510732   0.918   1.433  10.515 -0.4942  0.6130 -0.2841
  726MPD2     H10733   0.627   1.576  10.313  0.8842  1.0475 -1.3938
  726MPD2    H110734   0.769   1.318  10.612  1.2601  0.2668  0.2238
  726MPD2    H210735   1.042   1.572  10.411  0.4299 -3.0224 -1.7302
  726MPD2    H310736   0.994   1.396  10.582 -0.8057  1.9558  0.8280
  726MPD2     N10737   0.556   1.375  10.478 -0.6206 -0.2009 -0.2628
  726MPD2    H510738   0.542   1.316  10.559 -3.5710 -1.7513 -1.8891
  726MPD2    N110739   0.858   1.704  10.272  0.2215 -0.0893 -0.3374
  726MPD2    H710740   0.777   1.726  10.215  0.8158  0.7064 -0.8802
  727TMC3    C110741   0.935   1.914  10.190  0.6205  0.0609 -0.0823
  727TMC3    C210742   1.032   2.008  10.192 -0.5331 -0.1328 -0.4367
  727TMC3    C310743   1.016   2.121  10.112  0.3129  0.0199  0.4279
  727TMC3    C410744   0.819   1.944  10.129 -0.1444  0.3360 -0.2777
  727TMC3    C510745   0.790   2.058  10.064 -0.6015  0.7167  0.3526
  727TMC3    C610746   0.898   2.141  10.045  0.6002 -0.7507  0.7936
  727TMC3     C10747   0.952   1.799  10.285  0.2239 -0.5163  0.3264
  727TMC3     O10748   1.042   1.810  10.367 -0.4465 -0.0081 -0.4347
  727TMC3     H10749   1.131   1.989  10.233 -0.0683  1.7690 -0.6864
  727TMC3    H110750   0.740   1.870  10.136  1.6122 -1.3910  1.2213
  727TMC3    H210751   0.892   2.223   9.974  1.0057 -1.6037 -0.2312
  727TMC3    C710752   0.662   2.075   9.992  0.0724  0.4339  0.0409
  727TMC3    C810753   1.125   2.216  10.109 -0.2351 -0.0228  0.7832
  727TMC3    O110754   0.610   1.963   9.969 -0.8155  0.4339  0.5161
  727TMC3    O210755   1.243   2.183  10.127 -0.0026  0.0807 -0.6164
  728TMC3    C110756   4.722   0.855  15.212 -0.4810 -0.1174  0.6269
  728TMC3    C210757   0.078   0.959  15.195  0.2737  0.3830  0.1058
  728TMC3    C310758   0.116   0.985  15.069 -0.2304 -0.0156  0.2711
  728TMC3    C410759   4.671   0.784  15.105 -0.5834 -0.0994  0.7069
  728TMC3    C510760   4.701   0.823  14.974  0.3490  0.5430 -0.6302
  728TMC3    C610761   0.058   0.930  14.952 -0.0560 -0.3423  0.2092
  728TMC3     C10762   4.696   0.799  15.341  0.0996 -0.7503 -0.2326
  728TMC3     O10763   0.049   0.839  15.422 -0.2758  0.3731 -0.2288
  728TMC3     H10764   0.122   1.010  15.279  1.4877  1.0763 -0.9542
  728TMC3    H110765   4.612   0.695  15.116  0.8950 -1.4407 -2.1491
  728TMC3    H210766   0.097   0.958  14.855 -0.1675 -2.1635 -0.3518
  728TMC3    C710767   4.636   0.761  14.865 -0.2220 -0.2661  0.1508
  728TMC3    C810768   0.197   1.109  15.056 -0.6102  0.1220  0.1590
  728TMC3    O110769   4.522   0.716  14.879 -0.1556  0.1391 -0.1676
  728TMC3    O210770   0.166   1.200  15.128 -0.2253  0.2194  0.3979
  729MPD2     C10771   2.000   1.946  16.153 -0.2496 -0.1141 -0.0443
  729MPD2    C110772   2.126   1.892  16.182  0.0640 -0.2459 -0.7149
  729MPD2    C210773   2.143   1.818  16.300  1.0248 -0.4160  0.4321
  729MPD2    C310774   2.035   1.781  16.370 -0.4970 -0.7676 -0.5205
  729MPD2    C410775   1.901   1.821  16.332 -0.3710  0.2855  0.3217
  729MPD2    C510776   1.889   1.911  16.226 -0.1993  0.0023 -0.4525
  729MPD2     H10777   2.243   1.790  16.333  1.8569 -0.2383 -1.9881
  729MPD2    H110778   1.808   1.804  16.383  0.3632  2.6306  2.4314
  729MPD2    H210779   1.993   2.026  16.081 -2.5582 -1.5506 -1.4123
  729MPD2    H310780   1.794   1.957  16.202 -0.2389  0.5920  0.7957
  729MPD2     N10781   2.051   1.705  16.492 -0.0393  0.1304 -0.0006
  729MPD2    H510782   2.142   1.665  16.511  1.3021  2.3520 -1.7682
  729MPD2    N110783   2.239   1.925  16.100  0.3349  0.4034 -0.4526
  729MPD2    H710784   2.227   2.003  16.037 -1.3814 -0.0786 -0.7498
  730TMC3    C110785   2.034   1.667  16.716  0.1554  0.5040 -0.1814
  730TMC3    C210786   2.140   1.582  16.697  0.0425  0.1083  0.3821
  730TMC3    C310787   2.264   1.614  16.758  0.5427 -0.7003 -0.6384
  730TMC3    C410788   2.035   1.773  16.801  0.2080 -0.1237 -0.2103
  730TMC3    C510789   2.149   1.788  16.877  0.6167 -0.1892 -0.8830
  730TMC3    C610790   2.257   1.715  16.848  0.1827 -0.7074 -0.5388
  730TMC3     C10791   1.959   1.693  16.593  0.5074 -0.5866 -0.1186
  730TMC3     O10792   1.847   1.746  16.607  0.4554 -0.4625  0.0358
  730TMC3     H10793   2.126   1.499  16.629 -0.2157 -0.5177  1.1933
  730TMC3    H110794   1.949   1.839  16.806 -0.5792 -1.0565 -1.6380
  730TMC3    H210795   2.349   1.740  16.901 -0.2576 -0.9651  0.3529
  730TMC3    C710796   2.187   1.926  16.907  0.6593 -0.3300 -1.0394
  730TMC3    C810797   2.354   1.651  16.650 -0.6579  0.7552  0.5272
  730TMC3    O110798   2.150   2.004  16.820 -0.2242 -0.0553  0.1476
  730TMC3    O210799   2.305   1.623  16.545 -0.6730 -0.1950 -0.0567
  731MPD2     C10800   2.570   0.152  11.720 -0.2907 -0.5831  0.3770
  731MPD2    C110801   2.615   0.025  11.762  0.4846  0.1649  0.0711
  731MPD2    C210802   2.670   0.000  11.893  0.3678 -0.5842 -0.5351
  731MPD2    C310803   2.679   0.100  11.981 -0.0958  0.2316 -0.2667
  731MPD2    C410804   2.642   0.226  11.938 -0.6341 -0.4231  0.2246
  731MPD2    C510805   2.596   0.255  11.810 -0.6518 -0.2906 -0.7571
  731MPD2     H10806   2.684   4.626  11.926  4.1798 -0.5402 -2.0224
  731MPD2    H110807   2.667   0.307  12.006 -3.2365  0.1752  0.4816
  731MPD2    H210808   2.543   0.167  11.616 -1.2403  0.3151  0.7510
  731MPD2    H310809   2.592   0.359  11.780  0.8697  1.3149  4.6596
  731MPD2     N10810   2.722   0.072  12.119 -0.0445 -0.0331  0.7392
  731MPD2    H510811   2.746   4.705  12.146  2.7394  0.5391  0.2639
  731MPD2    N110812   2.606   4.650  11.659  0.3361  0.1444  0.4326
  731MPD2    H710813   2.668   4.570  11.663  0.5233  0.2485 -0.5072
  732TMC3    C110814   2.529   4.547  11.463  0.0427 -0.2240 -0.0535
  732TMC3    C210815   2.421   4.462  11.455 -0.2986  0.7167 -0.1810
  732TMC3    C310816   2.450   4.336  11.405 -0.5210  0.2511 -1.1367
  732TMC3    C410817   2.658   4.521  11.424  0.1659 -0.2255  0.1050
  732TMC3    C510818   2.683   4.392  11.401  0.5478  0.1161  0.2177
  732TMC3    C610819   2.578   4.294  11.393 -1.2693 -0.1488  0.0521
  732TMC3     C10820   2.511   4.654  11.557  0.4550  0.5410 -1.0581
  732TMC3     O10821   2.399   4.698  11.554 -0.3728 -0.3075  0.3592
  732TMC3     H10822   2.318   4.486  11.478 -0.3515  0.7460 -0.4484
  732TMC3    H110823   2.741   4.587  11.447  0.1284  0.4800 -1.8741
  732TMC3    H210824   2.603   4.189  11.379  1.8943  0.9056 -2.0142
  732TMC3    C710825   2.818   4.343  11.404 -0.1724  0.2639 -0.1620
  732TMC3    C810826   2.356   4.218  11.394  0.3076 -0.2645  0.3836
  732TMC3    O110827   2.899   4.428  11.373  0.8095 -0.2572  0.4216
  732TMC3    O210828   2.384   4.138  11.309  0.1869 -0.4177  0.3296
  733TMC3    C110829   3.745   2.417  13.482  0.5008  0.0476  0.1926
  733TMC3    C210830   3.750   2.556  13.508 -0.3634 -0.0225  0.0676
  733TMC3    C310831   3.780   2.652  13.414  0.4770  0.1347  0.1824
  733TMC3    C410832   3.786   2.374  13.353  0.2215 -0.2382 -0.0937
  733TMC3    C510833   3.816   2.472  13.262 -0.1928 -0.0521  0.2140
  733TMC3    C610834   3.813   2.609  13.286 -0.6659 -0.2522  0.3298
  733TMC3     C10835   3.610   2.367  13.518  0.4120 -0.2910  0.6228
  733TMC3     O10836   3.532   2.455  13.543 -0.0366  0.0394  0.0363
  733TMC3     H10837   3.722   2.588  13.608  2.5747 -0.3908  1.0124
  733TMC3    H110838   3.792   2.272  13.318 -0.7967 -0.4117  0.2339
  733TMC3    H210839   3.872   2.681  13.231 -0.5535 -2.2873 -2.2597
  733TMC3    C710840   3.839   2.426  13.129 -0.5370 -0.2732 -0.6919
  733TMC3    C810841   3.700   2.767  13.424  0.5200 -0.5977  0.6169
  733TMC3    O110842   3.886   2.318  13.108  0.1661 -0.4675  0.2779
  733TMC3    O210843   3.641   2.797  13.528 -0.2959  0.7745 -0.5992
  734MPD2     C10844   0.675   0.771  12.089  0.0013  0.0193  0.2432
  734MPD2    C110845   0.591   0.675  12.029  0.2753  0.9241 -0.5175
  734MPD2    C210846   0.595   0.668  11.889  1.2525  0.3592 -1.1874
  734MPD2    C310847   0.675   0.754  11.817  0.4168 -0.1526  0.2373
  734MPD2    C410848   0.767   0.834  11.882 -0.1017  0.0448  0.1457
  734MPD2    C510849   0.759   0.847  12.016  0.9676 -0.2844  0.4295
  734MPD2     H10850   0.543   0.589  11.836  0.3207  0.9755 -1.1933
  734MPD2    H110851   0.838   0.897  11.829 -1.0094  1.2433  0.3602
  734MPD2    H210852   0.672   0.775  12.197  1.0795  3.2790  0.1558
  734MPD2    H310853   0.806   0.929  12.069 -0.0359 -0.0664  0.9771
  734MPD2     N10854   0.677   0.737  11.678  0.6976  0.0264  0.3121
  734MPD2    H510855   0.625   0.660  11.637  0.7372 -0.0650  0.4332
  734MPD2    N110856   0.528   0.575  12.111  0.4456 -1.1277 -0.0082
  734MPD2    H710857   0.546   0.560  12.210 -1.0613 -1.9753  0.1444
  735TMC3    C110858   0.394   0.370  12.147 -0.1145 -0.2374 -0.1073
  735TMC3    C210859   0.278   0.311  12.108  0.1330  0.5762  0.4994
  735TMC3    C310860   0.270   0.176  12.076  0.2458  0.3944  0.4583
  735TMC3    C410861   0.493   0.282  12.187 -0.2150  0.2388  0.4141
  735TMC3    C510862   0.478   0.147  12.155  0.9716  0.8427 -0.6408
  735TMC3    C610863   0.372   0.090  12.099 -0.3064 -0.1309 -0.7803
  735TMC3     C10864   0.429   0.489  12.062 -0.0024  0.2434 -0.3398
  735TMC3     O10865   0.357   0.509  11.962 -0.3722  0.3571  0.3313
  735TMC3     H10866   0.200   0.374  12.068 -1.5593 -2.8036 -1.4409
  735TMC3    H110867   0.590   0.318  12.218  0.7373 -1.9302 -0.0060
  735TMC3    H210868   0.364   4.713  12.072 -1.6201 -1.0522  3.3096
  735TMC3    C710869   0.597   0.065  12.163 -0.4408  0.4396  0.1009
  735TMC3    C810870   0.208   0.157  11.942 -0.6935  0.2135 -0.0068
  735TMC3    O110871   0.706   0.113  12.137  0.7089 -0.1548 -0.4384
  735TMC3    O210872   0.164   0.042  11.923 -0.0326 -0.0553  0.4193
  736MPD2     C10873   0.613   4.451  12.305  0.6176  0.0379 -0.1081
  736MPD2    C110874   0.663   4.567  12.244  0.7244 -0.4429 -0.6811
  736MPD2    C210875   0.791   4.569  12.189  0.9876 -0.1310  0.6890
  736MPD2    C310876   0.860   4.446  12.180 -0.2232  0.2345  0.3723
  736MPD2    C410877   0.804   4.329  12.235 -0.9983  0.1302 -0.4774
  736MPD2    C510878   0.684   4.335  12.303  0.5758 -0.8734  0.1538
  736MPD2     H10879   0.817   4.655  12.129 -2.8657 -0.4645 -1.4642
  736MPD2    H110880   0.851   4.235  12.211 -0.8536  0.3398 -1.0160
  736MPD2    H210881   0.519   4.446  12.359  0.1364 -1.3483 -1.0671
  736MPD2    H310882   0.625   4.252  12.341 -0.9513 -0.4038 -1.1761
  736MPD2     N10883   0.977   4.433  12.095  0.0139  0.4767 -0.0702
  736MPD2    H510884   1.009   4.340  12.070  1.7387  0.2899  2.8052
  736MPD2    N110885   0.573   4.674  12.238  0.4698  0.0706  0.1954
  736MPD2    H710886   0.477   4.653  12.265  0.1394  1.4346  0.0834
  737TMC3    C110887   1.162   4.504  11.972  0.4223 -0.2012  0.2888
  737TMC3    C210888   1.251   4.605  11.950 -0.0651  0.0665 -0.7053
  737TMC3    C310889   1.357   4.590  11.872 -0.9259 -0.4543 -0.4118
  737TMC3    C410890   1.178   4.381  11.918 -0.0612  0.6571  0.2708
  737TMC3    C510891   1.301   4.363  11.851  0.3417 -0.0858  0.0033
  737TMC3    C610892   1.384   4.468  11.820 -0.0048 -0.8966  0.1441
  737TMC3     C10893   1.052   4.541  12.056 -0.2927 -1.0660  0.5058
  737TMC3     O10894   1.042   4.657  12.092  0.2847 -0.1171  0.5727
  737TMC3     H10895   1.218   4.706  11.971 -0.6123  0.4218 -3.2439
  737TMC3    H110896   1.121   4.293  11.946 -1.2184  1.9404  1.9444
  737TMC3    H210897   1.470   4.457  11.756  0.3352  2.3479  0.0217
  737TMC3    C710898   1.352   4.225  11.835  0.4090  0.8609 -0.5393
  737TMC3    C810899   1.396   4.711  11.806  0.7311 -0.6447  0.1318
  737TMC3    O110900   1.280   4.139  11.876 -0.1338  0.2067  0.2598
  737TMC3    O210901   1.393   0.090  11.867 -0.0361  0.1844  0.3900
  738MPD2     C10902   0.774   3.976  15.041 -0.3448 -0.1260 -0.0747
  738MPD2    C110903   0.864   3.932  15.146  0.7375 -0.7691 -0.7842
  738MPD2    C210904   0.974   4.012  15.169  0.4155 -0.5325 -0.3828
  738MPD2    C310905   0.994   4.127  15.098 -0.0093  0.7998 -0.3628
  738MPD2    C410906   0.907   4.169  14.997 -0.1079 -0.2314 -0.2094
  738MPD2    C510907   0.798   4.091  14.971  0.3028 -0.4088  0.1787
  738MPD2     H10908   1.045   3.982  15.245 -0.9257  0.3453  1.2267
  738MPD2    H110909   0.927   4.261  14.942  2.6849 -0.8833 -0.2816
  738MPD2    H210910   0.688   3.913  15.021  0.4036 -2.3286  3.4292
  738MPD2    H310911   0.731   4.130  14.895 -0.5708  0.1894  1.2458
  738MPD2     N10912   1.122   4.192  15.099  0.2771 -0.4372 -0.3718
  738MPD2    H510913   1.142   4.258  15.024  1.6457 -0.0874  0.3091
  738MPD2    N110914   0.845   3.807  15.203 -0.6502 -0.2181 -0.0289
  738MPD2    H710915   0.772   3.751  15.161 -0.6130 -1.2716  1.2842
  739TMC3    C110916   1.327   4.259  15.198 -0.4965  0.0600 -0.2601
  739TMC3    C210917   1.393   4.253  15.076 -0.3453 -0.3125 -0.5191
  739TMC3    C310918   1.529   4.252  15.078  0.1297 -0.6252  0.3249
  739TMC3    C410919   1.399   4.288  15.309 -0.0214  0.0912 -0.0041
  739TMC3    C510920   1.531   4.308  15.301  0.1113  0.1161  0.4548
  739TMC3    C610921   1.608   4.277  15.187  0.0008  0.5516  0.7163
  739TMC3     C10922   1.188   4.211  15.215 -0.1502 -0.3811 -0.1199
  739TMC3     O10923   1.153   4.190  15.332 -0.0585  0.4048  0.0724
  739TMC3     H10924   1.337   4.229  14.986  0.2220 -0.6842 -0.7693
  739TMC3    H110925   1.348   4.302  15.404 -0.6614 -0.4712 -0.2608
  739TMC3    H210926   1.716   4.284  15.191  0.0544  0.5872 -0.8055
  739TMC3    C710927   1.602   4.336  15.423  0.0787  0.2081 -0.1046
  739TMC3    C810928   1.588   4.224  14.948 -0.6559  0.1085 -0.9501
  739TMC3    O110929   1.720   4.298  15.429  1.1371 -0.2879  0.3613
  739TMC3    O210930   1.513   4.235  14.852 -0.2313 -0.0465 -0.3710
  740TMC3    C110931   2.109   0.460  14.223  0.6268 -0.8811  0.2635
  740TMC3    C210932   2.128   0.402  14.343  0.8753  0.7242  0.5575
  740TMC3    C310933   2.237   0.323  14.357  0.0561 -0.3369  0.2264
  740TMC3    C410934   2.195   0.445  14.122 -0.1356 -0.1414  0.3015
  740TMC3    C510935   2.300   0.363  14.135 -0.0477 -0.5161  0.6090
  740TMC3    C610936   2.323   0.306  14.257 -0.0843  0.5178  0.2370
  740TMC3     C10937   1.987   0.534  14.192 -0.0751  0.7283 -0.3299
  740TMC3     O10938   1.990   0.619  14.101 -0.1597 -0.5573  0.3524
  740TMC3     H10939   2.058   0.409  14.425  0.7159 -1.6460  0.6462
  740TMC3    H110940   2.172   0.479  14.021 -0.0726  1.8719  0.9672
  740TMC3    H210941   2.406   0.237  14.270  0.6348  1.5938  1.3681
  740TMC3    C710942   2.392   0.338  14.033 -0.7954  0.2815  0.1338
  740TMC3    C810943   2.270   0.269  14.492  0.0939  1.3594  0.6861
  740TMC3    O110944   2.492   0.276  14.067 -0.3466 -0.3363  0.1218
  740TMC3    O210945   2.385   0.265  14.523  0.1672 -0.3227 -0.2745
  741TMC3    C110946   1.621   4.545  13.828 -0.3699 -0.6812  0.1808
  741TMC3    C210947   1.491   4.585  13.863  0.6318  0.0387 -0.3373
  741TMC3    C310948   1.466   4.596  13.990  0.2451  0.2765 -0.7181
  741TMC3    C410949   1.712   4.515  13.918  0.1268  0.6102 -0.9044
  741TMC3    C510950   1.687   4.528  14.049 -0.9025 -0.3045 -0.2137
  741TMC3    C610951   1.560   4.577  14.087 -0.3164  0.2263  0.4912
  741TMC3     C10952   1.653   4.511  13.693 -0.1320  0.2146 -0.4827
  741TMC3     O10953   1.757   4.450  13.675 -0.0976 -0.2872 -0.3264
  741TMC3     H10954   1.404   4.601  13.800  0.8259  0.4499 -0.4978
  741TMC3    H110955   1.813   4.496  13.884  0.5984  0.9130  0.3591
  741TMC3    H210956   1.535   4.589  14.192  0.3927  0.4699  0.6290
  741TMC3    C710957   1.792   4.485  14.139 -0.0021  0.8358 -0.1362
  741TMC3    C810958   1.327   4.607  14.025  0.4899  0.3104  0.4469
  741TMC3    O110959   1.885   4.419  14.095  0.5941 -0.3384 -0.2247
  741TMC3    O210960   1.242   4.663  13.953  0.2401  0.0860 -0.2019
  742TMC3    C110961   1.894   2.755  14.888  0.3933 -0.3354  0.0990
  742TMC3    C210962   1.789   2.741  14.802 -0.2930 -0.1553  0.0775
  742TMC3    C310963   1.780   2.629  14.721 -0.0255 -0.0056  0.1644
  742TMC3    C410964   1.991   2.658  14.894 -0.3146  0.2068  0.1180
  742TMC3    C510965   1.971   2.537  14.828  0.0380  0.8125  0.0017
  742TMC3    C610966   1.861   2.523  14.739 -0.1732 -0.0123 -0.0431
  742TMC3     C10967   1.899   2.878  14.974 -0.9544 -0.3618 -0.6112
  742TMC3     O10968   1.813   2.962  14.956  0.8332  0.6059  0.9519
  742TMC3     H10969   1.733   2.831  14.782 -1.1940 -1.1464 -1.8063
  742TMC3    H110970   2.074   2.663  14.962 -0.5936 -2.3388  0.6426
  742TMC3    H210971   1.843   2.435  14.677 -1.2241 -0.1453  0.4425
  742TMC3    C710972   2.062   2.428  14.858 -0.0080  0.1675 -0.7458
  742TMC3    C810973   1.694   2.625  14.602  0.7082 -0.1505  0.4060
  742TMC3    O110974   2.162   2.445  14.928  0.1580  0.6994 -0.2893
  742TMC3    O210975   1.715   2.544  14.514 -0.6302  0.4664 -0.5354
  743MPD2     C10976   3.839   3.374   1.555 -0.6682 -0.4653  0.6517
  743MPD2    C110977   3.889   3.394   1.427 -0.3115 -0.2677 -0.0251
  743MPD2    C210978   4.023   3.386   1.413  0.1755 -0.3476 -0.3005
  743MPD2    C310979   4.101   3.372   1.520 -0.2277  0.2514  0.5925
  743MPD2    C410980   4.052   3.339   1.645 -0.5350  0.2411 -0.0026
  743MPD2    C510981   3.919   3.348   1.660  0.3171 -0.6623  0.0613
  743MPD2     H10982   4.061   3.389   1.312 -1.5222 -0.5682 -0.9457
  743MPD2    H110983   4.116   3.321   1.730 -0.0645  2.2361  0.0726
  743MPD2    H210984   3.735   3.399   1.571 -0.5041  1.1216 -0.7659
  743MPD2    H310985   3.890   3.346   1.765  2.0210 -0.4436  0.5486
  743MPD2     N10986   4.244   3.382   1.503 -0.0354 -0.0642 -0.0380
  743MPD2    H510987   4.266   3.390   1.404  1.3361  0.9015  0.3499
  743MPD2    N110988   3.792   3.422   1.326  0.1338  0.2770  0.4813
  743MPD2    H710989   3.694   3.429   1.352  0.4267 -1.1740  1.9017
  744TMC3    C110990   3.726   3.486   1.103 -0.2689  0.0059  0.1204
  744TMC3    C210991   3.618   3.556   1.159  0.1455  0.3951  0.1135
  744TMC3    C310992   3.525   3.608   1.069 -0.6098 -0.2651 -0.6439
  744TMC3    C410993   3.741   3.487   0.970  0.0895 -0.0536  0.8263
  744TMC3    C510994   3.662   3.560   0.887  0.6907 -0.0180 -0.0847
  744TMC3    C610995   3.551   3.619   0.937  0.5016  0.0713  0.1730
  744TMC3     C10996   3.829   3.419   1.192 -0.0772 -0.3969 -0.1387
  744TMC3     O10997   3.929   3.369   1.136 -0.1561  0.2626  0.3446
  744TMC3     H10998   3.584   3.542   1.260 -1.0431  0.6773 -0.2523
  744TMC3    H110999   3.830   3.440   0.929 -0.2229  2.0151 -2.2306
  744TMC3    H211000   3.491   3.671   0.864  1.6008  1.2889  0.1369
  744TMC3    C711001   3.710   3.568   0.752 -0.1117 -0.3292 -0.2539
  744TMC3    C811002   3.407   3.668   1.125 -0.3765  1.0638 -0.0451
  744TMC3    O111003   3.828   3.561   0.731  0.3693  0.2459  0.3983
  744TMC3    O211004   3.369   3.779   1.085  0.0898  0.2267  0.3843
  745TMC3    C111005   2.117   2.585  13.748 -0.0350 -0.0939 -0.0699
  745TMC3    C211006   2.020   2.679  13.779  0.0574  0.6803 -0.1302
  745TMC3    C311007   1.915   2.710  13.692  0.8168  0.0219  0.2759
  745TMC3    C411008   2.103   2.518  13.633  0.6645  0.3133  0.7192
  745TMC3    C511009   1.991   2.542  13.556 -0.2073  0.0410  0.7292
  745TMC3    C611010   1.891   2.637  13.580 -0.4278  0.4854 -0.1364
  745TMC3     C11011   2.246   2.589  13.815  0.4564 -0.8456 -0.1370
  745TMC3     O11012   2.315   2.494  13.787 -0.5231  0.2893 -0.6778
  745TMC3     H11013   2.029   2.741  13.867 -1.6785  0.6941  0.0238
  745TMC3    H111014   2.151   2.422  13.621  2.4874  1.2772  0.2253
  745TMC3    H211015   1.809   2.661  13.513  0.0407  1.1009 -0.4864
  745TMC3    C711016   2.023   2.530  13.407 -0.3419 -0.3271 -0.1887
  745TMC3    C811017   1.800   2.794  13.738  0.4847  0.0660  0.5672
  745TMC3    O111018   1.930   2.562  13.332  0.2366 -0.2969 -0.5119
  745TMC3    O211019   1.696   2.777  13.685 -0.3024 -0.2921  0.4476
  746TMC3    C111020   4.077   4.201  10.922  0.2572 -0.4794 -0.4097
  746TMC3    C211021   4.193   4.152  10.864  0.0913  0.4963  0.5127
  746TMC3    C311022   4.198   4.014  10.845 -0.9765 -0.4914  0.1970
  746TMC3    C411023   3.966   4.124  10.930 -0.2982  0.0371  0.0490
  746TMC3    C511024   3.973   3.988  10.909 -0.5379  0.2879 -0.0951
  746TMC3    C611025   4.093   3.930  10.870  0.1377 -0.0475  0.0180
  746TMC3     C11026   4.059   4.341  10.936  0.1976  0.1071  0.3545
  746TMC3     O11027   3.972   4.372  11.013  0.2506 -0.1936 -0.4091
  746TMC3     H11028   4.286   4.206  10.882  0.1397  1.5008 -2.8295
  746TMC3    H111029   3.869   4.166  10.956 -0.9340 -1.8540  0.7265
  746TMC3    H211030   4.105   3.824  10.849  1.7493  0.2727 -0.6198
  746TMC3    C711031   3.856   3.900  10.900  0.1001  0.0327  0.0989
  746TMC3    C811032   4.314   3.971  10.773 -0.0694 -0.9720 -0.0608
  746TMC3    O111033   3.867   3.780  10.878 -0.0883  0.3272 -0.0725
  746TMC3    O211034   4.342   3.853  10.780  0.2548  0.6001  0.4020
  747TMC3    C111035   1.918   4.039  11.012  0.0082  0.0395  0.1052
  747TMC3    C211036   1.869   3.966  11.121  0.2201  0.3935  0.6110
  747TMC3    C311037   1.885   4.011  11.248  0.0089  0.1950  0.1776
  747TMC3    C411038   1.975   4.157  11.032 -0.0226 -0.2133 -0.4444
  747TMC3    C511039   1.991   4.204  11.161 -0.1543 -0.2102 -0.1907
  747TMC3    C611040   1.952   4.126  11.272  0.5268 -0.1498 -0.1751
  747TMC3     C11041   1.835   4.021  10.896 -0.5706  0.9778 -0.2974
  747TMC3     O11042   1.809   4.124  10.832 -0.0340 -0.0236 -0.2202
  747TMC3     H11043   1.803   3.881  11.109 -0.5278  0.9748  0.5754
  747TMC3    H111044   1.996   4.220  10.946 -2.5047  0.5075 -0.5172
  747TMC3    H211045   1.987   4.157  11.370  2.2258 -0.8404 -0.5640
  747TMC3    C711046   2.060   4.331  11.190  0.0145  0.3748  0.9973
  747TMC3    C811047   1.819   3.943  11.359 -0.5263  0.1441 -0.0861
  747TMC3    O111048   2.041   4.385  11.298  0.4454  1.1874 -0.0633
  747TMC3    O211049   1.807   3.823  11.349  0.7500 -0.4005 -0.0499
  748MPD2     C11050   3.069   4.493   1.905 -0.3475 -0.4371 -0.4014
  748MPD2    C111051   3.197   4.449   1.935 -0.5565  0.2015 -0.3887
  748MPD2    C211052   3.304   4.523   1.885  0.3688  0.4239  0.2158
  748MPD2    C311053   3.288   4.637   1.810  0.2442 -0.2655 -0.1360
  748MPD2    C411054   3.157   4.682   1.786  0.0979 -0.1829 -0.4976
  748MPD2    C511055   3.051   4.617   1.841  0.4536 -0.3087 -0.3841
  748MPD2     H11056   3.404   4.489   1.911  0.0845  0.2405  1.0561
  748MPD2    H111057   3.141   0.040   1.722  1.7727  0.5913  0.1108
  748MPD2    H211058   2.982   4.445   1.948  1.3277 -2.2501  0.9628
  748MPD2    H311059   2.952   4.661   1.833  0.7181  0.4240  0.4241
  748MPD2     N11060   3.408   4.701   1.762  0.1502  0.4912  0.0177
  748MPD2    H511061   3.494   4.647   1.773 -0.4139 -0.2915  0.6276
  748MPD2    N111062   3.209   4.343   2.027  0.0497 -0.0496  0.1511
  748MPD2    H711063   3.124   4.304   2.066  0.1634 -0.5430 -0.0985
  749TMC3    C111064   3.552   0.115   1.636  0.3041 -0.1891  0.0280
  749TMC3    C211065   3.656   0.033   1.660 -0.2350 -0.3115 -0.2948
  749TMC3    C311066   3.782   0.042   1.604 -0.1334 -0.2726 -0.3457
  749TMC3    C411067   3.571   0.198   1.526 -0.9671 -0.0559  0.7310
  749TMC3    C511068   3.695   0.215   1.472 -0.5549 -0.4041 -0.8282
  749TMC3    C611069   3.803   0.132   1.505  0.0124  0.2521 -0.2181
  749TMC3     C11070   3.413   0.094   1.691 -0.2081  0.1391 -0.4080
  749TMC3     O11071   3.318   0.174   1.677  0.1851 -0.2410  0.0188
  749TMC3     H11072   3.642   4.713   1.756  0.9641  0.6973  0.3824
  749TMC3    H111073   3.491   0.254   1.480  0.9712  1.6197 -0.6101
  749TMC3    H211074   3.898   0.164   1.464 -0.5875  0.1987 -1.6466
  749TMC3    C711075   3.726   0.337   1.407 -0.2593  0.3489 -0.2049
  749TMC3    C811076   3.892   4.695   1.659 -0.3444 -0.2733 -0.6712
  749TMC3    O111077   3.824   0.332   1.334 -0.4510 -0.8928  0.3191
  749TMC3    O211078   3.880   4.645   1.767 -0.5183  0.4076 -0.1713
  750MPD2     C11079   4.275   1.338  11.448  0.6712  0.0696  0.5615
  750MPD2    C111080   4.155   1.331  11.383 -0.1483  0.2180  0.3059
  750MPD2    C211081   4.122   1.230  11.292  0.4311 -0.7952 -0.1048
  750MPD2    C311082   4.224   1.129  11.278  0.1909  0.3669  0.1745
  750MPD2    C411083   4.346   1.141  11.345  0.0260 -0.4518  0.8255
  750MPD2    C511084   4.371   1.250  11.422 -0.7296  0.0928  0.1332
  750MPD2     H11085   4.028   1.227  11.237  0.1642 -4.6092  0.5727
  750MPD2    H111086   4.428   1.073  11.323  0.5975  0.4374  0.2257
  750MPD2    H211087   4.295   1.416  11.521 -1.1457  1.7712 -0.7581
  750MPD2    H311088   4.471   1.270  11.459  0.0248 -0.3455 -1.6749
  750MPD2     N11089   4.208   1.012  11.196  0.4232 -0.2196  0.0387
  750MPD2    H511090   4.279   0.939  11.194  0.4947 -0.2079  2.1101
  750MPD2    N111091   4.061   1.433  11.414  0.2299 -0.1241 -0.6323
  750MPD2    H711092   4.103   1.491  11.486  1.7591 -0.9817 -0.8347
  751TMC3    C111093   4.093   0.858  11.058  0.4136  1.1105 -0.2530
  751TMC3    C211094   3.973   0.818  11.013  0.0576  0.2244 -0.2546
  751TMC3    C311095   3.970   0.721  10.918 -0.1239 -0.3418  0.1700
  751TMC3    C411096   4.211   0.821  10.997  0.3613  0.1888  0.3354
  751TMC3    C511097   4.202   0.714  10.913  0.1983 -0.0971  0.2179
  751TMC3    C611098   4.084   0.653  10.877  0.2797  0.4063 -0.1893
  751TMC3     C11099   4.092   0.984  11.128  0.8237 -0.1089 -0.0496
  751TMC3     O11100   3.979   1.029  11.144  0.0810 -0.0218  0.5256
  751TMC3     H11101   3.883   0.852  11.063 -0.2375 -2.2676  0.8757
  751TMC3    H111102   4.302   0.878  11.010 -0.1526  1.7821 -2.9793
  751TMC3    H211103   4.079   0.571  10.805 -1.1866 -0.3562  0.7874
  751TMC3    C711104   4.333   0.655  10.861  0.4927 -0.0404 -0.9518
  751TMC3    C811105   3.864   0.708  10.820 -0.2073 -0.1858 -0.1286
  751TMC3    O111106   4.425   0.732  10.845  0.0222  0.2198 -0.2483
  751TMC3    O211107   3.898   0.650  10.716  0.2092 -0.5821 -0.0820
  752TMC3    C111108   3.024   1.466  16.646  0.2070 -0.4513 -0.5860
  752TMC3    C211109   2.961   1.571  16.711 -0.1146 -0.2469 -0.3109
  752TMC3    C311110   2.922   1.561  16.840 -0.0779 -0.3311  0.0765
  752TMC3    C411111   3.068   1.355  16.718 -0.1870 -0.2308  0.2866
  752TMC3    C511112   3.030   1.348  16.849 -0.3265  0.2623 -0.0640
  752TMC3    C611113   2.955   1.447  16.912  0.0703  0.3790  0.9914
  752TMC3     C11114   3.076   1.486  16.507  0.3477  0.4568  0.0832
  752TMC3     O11115   3.196   1.480  16.485 -0.0538  0.1842  0.5179
  752TMC3     H11116   2.934   1.661  16.657 -1.0888  0.0903  0.7455
  752TMC3    H111117   3.104   1.267  16.666 -1.7239 -1.1173  0.7204
  752TMC3    H211118   2.948   1.450  17.020 -0.7569 -0.1323  0.9537
  752TMC3    C711119   3.055   1.218  16.913  0.1624 -0.3757  0.2822
  752TMC3    C811120   2.887   1.683  16.911 -0.0364 -0.0829 -0.4724
  752TMC3    O111121   3.138   1.147  16.855 -0.9794  0.2404 -0.3995
  752TMC3    O211122   2.941   1.790  16.877  0.2278 -0.0966  0.0234
  753TMC3    C111123   0.213   2.735  13.422  0.3190 -0.3509  0.4703
  753TMC3    C211124   0.263   2.722  13.543  0.6519  0.0128 -0.1566
  753TMC3    C311125   0.250   2.600  13.610 -0.3221 -0.1898 -0.2845
  753TMC3    C411126   0.154   2.629  13.353 -0.4400 -0.8148 -0.6043
  753TMC3    C511127   0.146   2.505  13.417 -0.6347  0.7518  0.9880
  753TMC3    C611128   0.197   2.491  13.546  0.3558 -0.4639  0.7426
  753TMC3     C11129   0.249   2.853  13.344 -0.1955  1.3059 -0.2018
  753TMC3     O11130   0.183   2.871  13.241  0.4486  0.3073  0.1045
  753TMC3     H11131   0.295   2.806  13.604  1.0808  0.1327 -0.5536
  753TMC3    H111132   0.117   2.645  13.252 -0.6327  1.8241 -0.1032
  753TMC3    H211133   0.189   2.400  13.605  2.0417  0.9100  3.0682
  753TMC3    C711134   0.071   2.387  13.376 -0.6423 -0.2248 -0.7384
  753TMC3    C811135   0.280   2.595  13.756 -0.1548  0.4158  0.3379
  753TMC3    O111136   0.041   2.311  13.463 -0.4120  1.0449 -0.0264
  753TMC3    O211137   0.205   2.517  13.813  0.0184 -0.5574 -0.4551
  754MPD2     C11138   4.055   0.994  12.849 -0.3717 -0.6798 -0.0025
  754MPD2    C111139   3.937   0.919  12.836 -0.1828 -0.1704 -0.3218
  754MPD2    C211140   3.839   0.954  12.743  0.8254 -0.0525 -0.4004
  754MPD2    C311141   3.845   1.071  12.674 -0.3855 -0.1673 -0.3465
  754MPD2    C411142   3.951   1.147  12.693  0.4800  0.1359  0.0384
  754MPD2    C511143   4.057   1.109  12.772  0.7291 -0.4215 -0.0277
  754MPD2     H11144   3.750   0.894  12.731 -0.8538  2.3188  0.3358
  754MPD2    H111145   3.969   1.239  12.638 -1.4121 -0.3067 -1.3364
  754MPD2    H211146   4.142   0.968  12.907 -0.1745  2.0243  0.9427
  754MPD2    H311147   4.145   1.172  12.781  0.7766 -0.6098  0.7782
  754MPD2     N11148   3.738   1.116  12.602  0.3112 -0.0101  0.2556
  754MPD2    H511149   3.736   1.211  12.567 -1.3538  0.0588  0.5492
  754MPD2    N111150   3.904   0.809  12.912 -0.2499 -0.0671  0.5143
  754MPD2    H711151   3.818   0.760  12.891  0.1451 -0.2525 -0.6906
  755MPD2     C11152   3.323   1.555  13.198  0.3854 -0.0722  0.3240
  755MPD2    C111153   3.225   1.464  13.164 -0.5626 -0.2761 -0.9557
  755MPD2    C211154   3.227   1.385  13.046  0.4721  0.2525 -0.0970
  755MPD2    C311155   3.343   1.401  12.971 -0.4209  0.1166  0.5669
  755MPD2    C411156   3.443   1.485  13.011  0.1100 -0.3910 -0.4255
  755MPD2    C511157   3.434   1.564  13.126 -0.2768 -0.5216  0.0201
  755MPD2     H11158   3.142   1.323  13.021  0.7138 -0.4944  0.9542
  755MPD2    H111159   3.536   1.485  12.955 -0.4631 -1.4705 -1.3623
  755MPD2    H211160   3.321   1.612  13.290  0.3944 -0.6776  0.7011
  755MPD2    H311161   3.513   1.632  13.156 -0.3258 -1.2922  1.9486
  755MPD2     N11162   3.366   1.327  12.852  0.2424  0.0282  0.2612
  755MPD2    H511163   3.462   1.333  12.820  0.0374 -2.2935 -0.8242
  755MPD2    N111164   3.121   1.450  13.256 -0.1101  0.5730 -0.8639
  755MPD2    H711165   3.127   1.513  13.336  0.0770  0.8812 -1.1222
  756MPD2     C11166   4.696   1.389   9.514 -0.0189 -0.5367  0.7632
  756MPD2    C111167   0.011   1.346   9.634 -0.7280  0.0014  0.0321
  756MPD2    C211168   0.089   1.229   9.642  0.1845  0.0056  0.5313
  756MPD2    C311169   0.104   1.152   9.533  0.4641  0.0228 -0.5824
  756MPD2    C411170   0.056   1.188   9.411  0.0101  0.5912 -0.4985
  756MPD2    C511171   4.716   1.308   9.402 -0.3216  0.0885  0.3469
  756MPD2     H11172   0.134   1.200   9.736 -0.7483  3.8323  2.1603
  756MPD2    H111173   0.058   1.128   9.321  1.8850 -1.1151  0.6797
  756MPD2    H211174   4.629   1.474   9.501 -1.2716 -1.5512  0.6070
  756MPD2    H311175   4.669   1.334   9.308 -0.8809 -2.8381 -0.1820
  756MPD2     N11176   0.161   1.022   9.552 -0.0842 -0.7007 -0.1349
  756MPD2    H511177   0.223   1.007   9.631 -1.3005 -2.8014  0.4125
  756MPD2    N111178   4.707   1.399   9.758  0.8226 -0.3246 -0.4510
  756MPD2    H711179   0.035   1.376   9.840 -3.0371  2.2975  2.8931
  757MPD2     C11180   4.488   0.156   9.257 -0.3845  0.2755 -0.6839
  757MPD2    C111181   4.449   0.262   9.330 -0.5245 -0.1580  0.3146
  757MPD2    C211182   4.544   0.358   9.369 -0.1059 -0.1282 -0.0384
  757MPD2    C311183   4.677   0.346   9.332 -0.6170 -0.4791 -1.2825
  757MPD2    C411184   4.711   0.242   9.251 -0.4674  0.2076 -0.2095
  757MPD2    C511185   4.618   0.145   9.214  0.5335  0.2465  0.3510
  757MPD2     H11186   4.533   0.432   9.447 -0.0262  0.7120 -0.8252
  757MPD2    H111187   0.080   0.223   9.206  0.1109  0.1615  1.0378
  757MPD2    H211188   4.414   0.080   9.232  0.1725 -0.0713 -1.2803
  757MPD2    H311189   4.629   0.057   9.152  0.3730 -0.7851  1.7904
  757MPD2     N11190   0.038   0.448   9.380 -0.0715 -1.1289  0.4232
  757MPD2    H511191   4.727   0.521   9.440 -1.9799  0.5444 -2.8270
  757MPD2    N111192   4.308   0.279   9.359 -0.1285  0.6894  0.3178
  757MPD2    H711193   4.251   0.210   9.312 -1.5466  2.0592  0.0348
  758MPD2     C11194   3.933   0.679  15.896  0.0924  0.4595  0.1162
  758MPD2    C111195   3.991   0.688  16.023 -0.3343 -0.8502  0.3803
  758MPD2    C211196   3.911   0.734  16.128 -0.0084 -0.2503  0.0002
  758MPD2    C311197   3.778   0.783  16.108  0.1335  0.7289  0.1549
  758MPD2    C411198   3.725   0.778  15.979 -0.4584  0.3974  0.9632
  758MPD2    C511199   3.807   0.722  15.879 -0.3006  0.4128  0.1411
  758MPD2     H11200   3.944   0.738  16.231  2.2635  3.5925 -0.9077
  758MPD2    H111201   3.630   0.825  15.955  0.7829  1.5572 -1.6381
  758MPD2    H211202   3.990   0.655  15.807 -0.5487 -1.4173  0.2031
  758MPD2    H311203   3.775   0.714  15.775  0.7272 -0.2611 -0.1260
  758MPD2     N11204   3.695   0.839  16.209 -0.2842 -0.9931  0.3973
  758MPD2    H511205   3.599   0.867  16.193 -0.1366 -1.0611 -0.6328
  758MPD2    N111206   4.127   0.646  16.030  0.2755  0.0525 -0.1339
  758MPD2    H711207   4.175   0.636  15.941 -0.7117 -1.3360 -0.5072
  759MPD2     C11208   2.857   3.803   9.625  0.4764  0.7122  0.2916
  759MPD2    C111209   2.947   3.713   9.669 -0.6356  0.4922  1.1228
  759MPD2    C211210   3.071   3.701   9.611 -1.3153  0.5768 -0.5556
  759MPD2    C311211   3.112   3.776   9.505 -0.8428  0.7090  0.0694
  759MPD2    C411212   3.015   3.863   9.454 -0.5520  0.7815 -0.0388
  759MPD2    C511213   2.887   3.878   9.517  0.0030 -0.1740 -0.6071
  759MPD2     H11214   3.134   3.626   9.659  2.2411  3.1077 -1.2725
  759MPD2    H111215   3.034   3.931   9.371 -1.2831  3.0648  1.6653
  759MPD2    H211216   2.757   3.816   9.666 -0.3001 -1.3661 -0.9208
  759MPD2    H311217   2.812   3.934   9.463  0.0765  0.1540 -0.3664
  759MPD2     N11218   3.243   3.749   9.455  0.8477 -0.5109  0.0015
  759MPD2    H511219   3.284   3.667   9.499 -1.0277 -1.5490 -0.2014
  759MPD2    N111220   2.925   3.624   9.772  0.0627 -0.2126  0.3637
  759MPD2    H711221   3.000   3.558   9.791 -0.2140 -0.7629 -0.4243
  760MPD2     C11222   2.475   1.218  11.564  0.4005  0.0467  0.5254
  760MPD2    C111223   2.553   1.266  11.456 -0.7174 -0.1469  0.8565
  760MPD2    C211224   2.605   1.174  11.363  0.4892 -0.0373  0.1858
  760MPD2    C311225   2.587   1.037  11.384  0.1761  0.1584 -0.2149
  760MPD2    C411226   2.518   0.993  11.493  0.4976  0.4770  0.2710
  760MPD2    C511227   2.469   1.082  11.583 -0.0633  0.1784 -0.2719
  760MPD2     H11228   2.657   1.211  11.276 -2.2801 -0.8108 -1.7832
  760MPD2    H111229   2.494   0.889  11.513  1.3323 -0.0109 -1.2616
  760MPD2    H211230   2.421   1.280  11.634 -3.5145 -4.0575  1.1077
  760MPD2    H311231   2.421   1.046  11.673  0.4718  0.2493  0.0428
  760MPD2     N11232   2.630   0.941  11.289  0.1317 -0.2831 -0.4116
  760MPD2    H511233   2.618   0.847  11.324  0.6444 -0.6459 -1.1972
  760MPD2    N111234   2.574   1.405  11.432  0.0031 -0.2871 -0.0710
  760MPD2    H711235   2.633   1.426  11.352  2.5641 -0.7663  1.6822
  761MPD2     C11236   3.371   0.609  10.713 -0.5483  0.4960  0.3070
  761MPD2    C111237   3.489   0.572  10.645  0.9565  0.0498  0.2322
  761MPD2    C211238   3.608   0.621  10.691  0.0897 -0.0133 -0.7397
  761MPD2    C311239   3.620   0.697  10.802 -0.1438 -0.0108 -0.0531
  761MPD2    C411240   3.509   0.722  10.875 -0.1681 -0.2177  0.8183
  761MPD2    C511241   3.385   0.678  10.831 -0.3100 -0.1917  0.5432
  761MPD2     H11242   3.698   0.600  10.633  1.8608 -0.2529  2.1066
  761MPD2    H111243   3.506   0.772  10.972  0.3170  2.3424 -0.4825
  761MPD2    H211244   3.271   0.585  10.678 -0.2978 -0.7731  0.4501
  761MPD2    H311245   3.298   0.712  10.885  0.8566 -0.1049  2.3520
  761MPD2     N11246   3.739   0.748  10.865 -0.0768 -0.3037  0.3312
  761MPD2    H511247   3.722   0.791  10.955  1.0881  0.0856  0.3643
  761MPD2    N111248   3.485   0.468  10.544 -0.4308 -0.8568 -0.0918
  761MPD2    H711249   3.392   0.426  10.535 -1.4898  2.0853 -2.9829
  762MPD2     C11250   4.081   0.390  10.556  0.4388 -0.0601  0.2685
  762MPD2    C111251   4.062   0.259  10.513  0.7172  0.0078  0.6275
  762MPD2    C211252   4.165   0.184  10.467 -0.0316  0.5860 -0.1756
  762MPD2    C311253   4.293   0.242  10.456  0.5135 -0.1755  0.7306
  762MPD2    C411254   4.313   0.373  10.504 -0.4398  0.3426  0.3886
  762MPD2    C511255   4.207   0.440  10.554 -0.6528 -0.8552  0.0815
  762MPD2     H11256   4.155   0.080  10.440  1.9710  0.2700  0.2669
  762MPD2    H111257   4.415   0.409  10.495  0.6766 -2.1840  2.6259
  762MPD2    H211258   3.994   0.447  10.586  0.1372 -0.3426 -0.0673
  762MPD2    H311259   4.227   0.533  10.606 -0.9185 -1.7644  1.8092
  762MPD2     N11260   4.391   0.156  10.397 -0.1539  0.2882  0.0346
  762MPD2    H511261   4.361   0.060  10.383 -1.0835  0.4596  0.7880
  762MPD2    N111262   3.928   0.215  10.508 -0.0434  0.5126  0.3537
  762MPD2    H711263   3.855   0.284  10.520  1.3647  2.3432 -1.6139
  763MPD2     C11264   0.272   1.513  15.551 -0.4191 -0.2443  0.4930
  763MPD2    C111265   0.386   1.436  15.573  0.6511  0.5764 -0.3807
  763MPD2    C211266   0.425   1.422  15.710  1.1129 -0.3040 -0.8442
  763MPD2    C311267   0.350   1.483  15.810  0.5855  0.5577  0.1539
  763MPD2    C411268   0.239   1.565  15.781  0.1330 -0.4192 -0.1116
  763MPD2    C511269   0.209   1.584  15.648 -0.0982 -0.3772 -0.2877
  763MPD2     H11270   0.512   1.362  15.736 -0.3405 -2.3354 -0.6564
  763MPD2    H111271   0.172   1.613  15.851  0.9557  1.1977 -0.4149
  763MPD2    H211272   0.237   1.541  15.452  1.5145  0.3511 -0.0235
  763MPD2    H311273   0.128   1.649  15.617 -0.4880 -0.1671  1.1511
  763MPD2     N11274   0.386   1.464  15.948 -0.3289 -0.4780  0.1479
  763MPD2    H511275   0.337   1.510  16.024  1.0763 -1.2510  1.5496
  763MPD2    N111276   0.459   1.377  15.466  0.1171 -0.0287  0.8753
  763MPD2    H711277   0.534   1.311  15.483  1.5453  1.1898 -0.6901
  764MPD2     C11278   3.798   2.663  17.110  0.6225  0.3362 -0.0011
  764MPD2    C111279   3.705   2.564  17.093  0.4903  0.3368 -0.0681
  764MPD2    C211280   3.679   2.463  17.192 -0.0009 -0.4248  0.1625
  764MPD2    C311281   3.751   2.466  17.310  0.0404 -0.3228  0.2658
  764MPD2    C411282   3.851   2.560  17.324  0.4591 -0.2838 -0.1444
  764MPD2    C511283   3.873   2.654  17.226  0.3121 -0.0163 -0.3316
  764MPD2     H11284   3.603   2.388  17.172  0.8265 -0.9636 -1.0168
  764MPD2    H111285   3.919   2.558  17.409  1.0556  0.4655 -0.6098
  764MPD2    H211286   3.827   2.732  17.032 -1.8686  0.1552 -1.0876
  764MPD2    H311287   3.965   2.711  17.236  1.1526 -1.6159  1.1227
  764MPD2     N11288   3.718   2.355  17.391  0.7355 -0.2566 -0.0505
  764MPD2    H511289   3.645   2.289  17.365  1.0674 -1.6337  2.5281
  764MPD2    N111290   3.624   2.548  16.978  0.7267  0.0469  0.5591
  764MPD2    H711291   3.550   2.479  16.981 -1.2368  2.0918 -1.4268
  765MPD2     C11292   3.293   0.485  15.890 -0.3236 -0.1766 -0.3548
  765MPD2    C111293   3.362   0.578  15.812 -0.4031 -0.3435 -0.1982
  765MPD2    C211294   3.488   0.557  15.770  0.0786 -0.1812  0.3874
  765MPD2    C311295   3.545   0.437  15.811  0.1222 -0.7150 -0.1316
  765MPD2    C411296   3.487   0.350  15.895  0.3824 -0.3144 -0.7312
  765MPD2    C511297   3.360   0.375  15.937 -0.1436  0.0051 -0.4740
  765MPD2     H11298   3.549   0.630  15.719 -0.0423 -0.4453 -0.1343
  765MPD2    H111299   3.535   0.259  15.928 -0.0555  0.4188  1.9186
  765MPD2    H211300   3.186   0.496  15.909 -0.3325 -2.8797  1.1496
  765MPD2    H311301   3.311   0.297  15.995 -0.4341  0.8819  0.4603
  765MPD2     N11302   3.674   0.409  15.746 -0.0346  0.1452 -0.1529
  765MPD2    H511303   3.711   0.488  15.694 -0.1369  1.3800  1.6425
  765MPD2    N111304   3.295   0.700  15.793 -0.3872  0.0300  0.2365
  765MPD2    H711305   3.196   0.710  15.813 -0.9743 -2.4820 -1.3623
  766MPD2     C11306   2.861   0.755  15.266  0.5831  0.0920  1.0023
  766MPD2    C111307   3.001   0.751  15.277  0.8850  0.5079 -0.1593
  766MPD2    C211308   3.071   0.661  15.191  0.0813  0.3886 -0.5189
  766MPD2    C311309   3.010   0.596  15.094  0.1387  0.1601  0.6937
  766MPD2    C411310   2.871   0.601  15.083 -0.7779  0.6371  0.0468
  766MPD2    C511311   2.797   0.670  15.180 -0.0997  0.4067 -0.4047
  766MPD2     H11312   3.178   0.649  15.204  0.3378 -1.2652 -4.3065
  766MPD2    H111313   2.815   0.543  15.011  0.2151 -1.6712  1.1195
  766MPD2    H211314   2.800   0.819  15.329  0.9687  0.1002  1.3690
  766MPD2    H311315   2.688   0.668  15.177 -0.0634 -0.5459 -0.8259
  766MPD2     N11316   3.067   0.532  14.987 -0.1742 -0.2850  0.3906
  766MPD2    H511317   3.010   0.528  14.902 -0.7285 -0.3336  0.7647
  766MPD2    N111318   3.070   0.821  15.380  0.9960  0.3739 -0.2896
  766MPD2    H711319   3.158   0.781  15.411  0.8980  0.3514 -0.0447
  767MPD2     C11320   2.610   0.869  14.945 -0.0830  0.8835  0.5214
  767MPD2    C111321   2.741   0.851  14.911  0.1451  0.8456 -0.1542
  767MPD2    C211322   2.758   0.754  14.810 -0.1894  1.2523 -0.2586
  767MPD2    C311323   2.651   0.695  14.748  0.0700 -0.2159 -0.2186
  767MPD2    C411324   2.520   0.717  14.784 -0.9075  0.0056  0.3132
  767MPD2    C511325   2.507   0.812  14.882 -0.0562 -0.4638 -0.0182
  767MPD2     H11326   2.854   0.736  14.763 -1.3997 -3.0564 -1.1417
  767MPD2    H111327   2.436   0.660  14.746  0.8661 -2.5341  0.1887
  767MPD2    H211328   2.592   0.952  15.011  1.4551 -0.4149  2.5850
  767MPD2    H311329   2.408   0.828  14.925 -0.0695  0.8926 -0.5500
  767MPD2     N11330   2.681   0.619  14.634 -0.1965  0.5957  0.9111
  767MPD2    H511331   2.779   0.593  14.630 -0.6132 -1.2213  2.8282
  767MPD2    N111332   2.842   0.928  14.971  0.0264  0.7172 -0.1658
  767MPD2    H711333   2.806   0.984  15.047 -0.8944 -0.0505 -0.0306
  768MPD2     C11334   3.884   3.480  10.481 -0.3222 -0.5633 -0.2272
  768MPD2    C111335   3.818   3.455  10.602 -0.2095  0.1542  0.0580
  768MPD2    C211336   3.880   3.488  10.720  0.0829  0.8183 -0.2994
  768MPD2    C311337   4.010   3.542  10.723  0.1238 -0.6948 -0.2601
  768MPD2    C411338   4.072   3.571  10.602  0.6066 -0.0746  0.2619
  768MPD2    C511339   4.010   3.536  10.480 -0.2618 -0.4416 -0.8827
  768MPD2     H11340   3.824   3.468  10.811  1.3395 -1.7933 -0.1139
  768MPD2    H111341   4.174   3.606  10.610  1.4213 -2.5130  0.6521
  768MPD2    H211342   3.844   3.452  10.384 -1.7883  0.4573  0.0865
  768MPD2    H311343   4.062   3.554  10.387  0.3536  1.0378 -0.2487
  768MPD2     N11344   4.085   3.550  10.837  0.4028  0.2990 -0.0556
  768MPD2    H511345   4.178   3.589  10.827  0.6917 -0.0056  1.4590
  768MPD2    N111346   3.687   3.398  10.604  0.3456  0.2494  0.0955
  768MPD2    H711347   3.639   3.396  10.694  1.6655 -1.6536  0.7544
  769MPD2     C11348   0.074   1.952  14.838 -0.4795 -0.1844  0.0386
  769MPD2    C111349   4.700   2.030  14.897  0.0613 -0.0520 -0.2838
  769MPD2    C211350   0.001   2.132  14.987  0.3685 -0.5785 -0.7569
  769MPD2    C311351   0.138   2.160  15.010  0.0600  0.2711 -0.1857
  769MPD2    C411352   0.236   2.084  14.952 -0.4191  0.6751 -0.9345
  769MPD2    C511353   0.204   1.982  14.867  0.1897  0.3719  0.3342
  769MPD2     H11354   4.651   2.199  15.021  0.4386 -0.4299 -0.8922
  769MPD2    H111355   0.342   2.103  14.968 -0.2161  0.1012 -1.5555
  769MPD2    H211356   0.048   1.863  14.781 -0.6238  0.1223 -0.3733
  769MPD2    H311357   0.286   1.918  14.836  2.0775  2.4951  0.9613
  769MPD2     N11358   0.170   2.251  15.111 -0.2990 -0.3654  0.1700
  769MPD2    H511359   0.085   2.296  15.142 -0.2449 -2.4640  3.3494
  769MPD2    N111360   4.576   1.991  14.853 -0.2595 -0.2613  0.1402
  769MPD2    H711361   4.575   1.916  14.785 -0.9863 -0.7525  0.6898
  770MPD2     C11362   3.689   1.842  15.206 -0.3178 -0.9380 -1.2219
  770MPD2    C111363   3.825   1.816  15.230  0.0270 -0.1184  0.0037
  770MPD2    C211364   3.922   1.878  15.149  0.9031  0.8120  0.2995
  770MPD2    C311365   3.892   1.959  15.042 -0.2689 -0.2202 -0.3399
  770MPD2    C411366   3.761   1.979  15.011 -0.1362  0.0417 -0.2838
  770MPD2    C511367   3.668   1.925  15.099 -0.0482  0.4526 -0.0887
  770MPD2     H11368   4.029   1.862  15.158  1.2077  1.6730 -1.6314
  770MPD2    H111369   3.727   2.033  14.923 -2.6325  1.6786  1.6839
  770MPD2    H211370   3.606   1.804  15.264  0.4533 -0.4599  0.2209
  770MPD2    H311371   3.570   1.963  15.074  0.4666  0.6351 -1.8177
  770MPD2     N11372   4.003   2.005  14.967  0.0805  0.1838 -0.1630
  770MPD2    H511373   4.091   1.962  14.991 -1.1814 -1.0783  2.1789
  770MPD2    N111374   3.855   1.742  15.347  0.0540 -0.4157 -0.9631
  770MPD2    H711375   3.776   1.711  15.402 -0.0044  1.0696 -0.2176
  771MPD2     C11376   0.714   4.185  13.461  0.9473 -0.3400  0.5000
  771MPD2    C111377   0.695   4.281  13.360  0.1435  0.5030  0.3553
  771MPD2    C211378   0.661   4.240  13.227 -0.3233  0.2143 -0.1886
  771MPD2    C311379   0.647   4.105  13.191  0.8216 -0.0194  0.0333
  771MPD2    C411380   0.659   4.015  13.294  0.5834 -0.4171 -0.3600
  771MPD2    C511381   0.706   4.055  13.419 -0.6729 -0.0125 -0.4426
  771MPD2     H11382   0.653   4.324  13.159 -1.5029  0.2391 -0.0198
  771MPD2    H111383   0.629   3.911  13.285 -2.7071  0.6719 -2.1363
  771MPD2    H211384   0.747   4.208  13.561 -1.7620  2.0809  0.8273
  771MPD2    H311385   0.722   3.975  13.490  1.4981  0.6173 -0.2266
  771MPD2     N11386   0.630   4.064  13.060  0.0815  0.2886 -0.3959
  771MPD2    H511387   0.635   4.138  12.991 -1.4347  1.3087  0.5915
  771MPD2    N111388   0.703   4.422  13.390 -0.3379  0.1805 -0.1117
  771MPD2    H711389   0.652   4.484  13.328 -0.2314  0.9170  0.5254
  772MPD2     C11390   0.366   0.335  13.311 -0.4432 -0.3958 -0.1777
  772MPD2    C111391   0.379   0.195  13.291  0.1469  0.2298 -0.0703
  772MPD2    C211392   0.272   0.121  13.257 -0.2967  0.0447  0.6395
  772MPD2    C311393   0.143   0.176  13.254  0.6023  0.1312 -0.2962
  772MPD2    C411394   0.127   0.315  13.267 -0.5095  0.1822 -0.5890
  772MPD2    C511395   0.238   0.390  13.295 -0.0120 -0.2166  0.1049
  772MPD2     H11396   0.283   0.014  13.254 -0.7859 -0.0279  1.6172
  772MPD2    H111397   0.038   0.376  13.269  0.3021  1.3341 -0.0513
  772MPD2    H211398   0.445   0.398  13.351 -3.3756  1.1867  3.1183
  772MPD2    H311399   0.223   0.497  13.305  0.7773 -0.0138 -0.8347
  772MPD2     N11400   0.030   0.098  13.224  0.2383  0.4160 -0.4257
  772MPD2    H511401   4.670   0.147  13.238 -0.4811 -0.2499 -2.6675
  772MPD2    N111402   0.500   0.127  13.323  0.1982  0.0119  0.4470
  772MPD2    H711403   0.498   0.026  13.313 -1.9081  0.1377 -0.3246
  773MPD2     C11404   3.983   1.330   0.249 -0.2949 -0.0079 -0.4816
  773MPD2    C111405   3.902   1.233   0.304  0.6331 -0.1391  0.3395
  773MPD2    C211406   3.964   1.118   0.349  0.0682 -0.0929  0.1522
  773MPD2    C311407   4.105   1.108   0.340 -0.3540 -0.6816 -0.4466
  773MPD2    C411408   4.182   1.206   0.289 -1.0959  0.3354  0.5601
  773MPD2    C511409   4.118   1.320   0.243 -0.4744 -0.2399  0.4138
  773MPD2     H11410   3.898   1.035   0.371  0.6778  0.1945  3.0186
  773MPD2    H111411   4.290   1.209   0.282 -1.2535  0.4192 -1.8929
  773MPD2    H211412   3.931   1.419   0.216 -0.4022  1.1910  2.9431
  773MPD2    H311413   4.171   1.401   0.195 -1.9358 -1.1437 -2.7174
  773MPD2     N11414   4.165   0.983   0.374  0.3053 -0.7114  0.6751
  773MPD2    H511415   4.098   0.910   0.393 -0.1382 -0.4072  0.2704
  773MPD2    N111416   3.760   1.251   0.314  0.3066 -0.4884 -0.2933
  773MPD2    H711417   3.714   1.173   0.359  0.4742 -0.3585  0.0979
  774MPD2     C11418   3.249   0.160  12.822 -0.3541  0.6016 -0.8518
  774MPD2    C111419   3.271   0.143  12.960 -0.8608  0.4326  0.1814
  774MPD2    C211420   3.372   0.210  13.022 -0.8049 -0.1839  0.2897
  774MPD2    C311421   3.459   0.289  12.950 -0.3676 -0.7797  0.3061
  774MPD2    C411422   3.437   0.306  12.814 -0.1950  0.9217 -0.3790
  774MPD2    C511423   3.325   0.247  12.751  0.1303  0.4303 -0.4928
  774MPD2     H11424   3.384   0.208  13.129 -2.3258  1.0844  0.4916
  774MPD2    H111425   3.498   0.379  12.762  0.1379  1.4226  0.7160
  774MPD2    H211426   3.160   0.115  12.779  0.0863 -1.7370  0.6795
  774MPD2    H311427   3.305   0.272  12.648  1.8640 -1.3534 -1.2680
  774MPD2     N11428   3.548   0.369  13.028  0.3789  0.6590  0.0314
  774MPD2    H511429   3.539   0.377  13.129 -0.7195 -3.2028  0.2562
  774MPD2    N111430   3.178   0.049  13.020 -0.2348  0.5026 -0.1203
  774MPD2    H711431   3.104   0.009  12.964  1.2614 -1.0040 -1.0029
  775MPD2     C11432   0.254   2.009  15.651 -0.2823 -0.9057  0.3748
  775MPD2    C111433   0.287   2.106  15.744 -0.1859 -0.0077  0.5914
  775MPD2    C211434   0.416   2.154  15.744 -0.2225 -0.6969 -0.0798
  775MPD2    C311435   0.502   2.128  15.642 -1.1028  0.3086 -0.5420
  775MPD2    C411436   0.466   2.037  15.548 -0.5562  0.5321  0.1534
  775MPD2    C511437   0.346   1.974  15.559 -0.4449 -0.2825 -0.2213
  775MPD2     H11438   0.443   2.227  15.819 -2.3709 -0.3998  0.4054
  775MPD2    H111439   0.532   2.027  15.462 -0.6225 -0.2765  0.1960
  775MPD2    H211440   0.160   1.956  15.654 -0.1753 -1.1176  0.0062
  775MPD2    H311441   0.328   1.898  15.484  0.1706 -4.0836  3.4600
  775MPD2     N11442   0.620   2.201  15.622  0.0099 -0.1057 -0.5450
  775MPD2    H511443   0.677   2.183  15.540 -0.9841 -1.2611 -0.9797
  775MPD2    N111444   0.188   2.172  15.823 -0.0407 -0.6911  0.1208
  775MPD2    H711445   0.090   2.146  15.822 -0.5445  1.3021 -1.9388
  776MPD2     C11446   4.318   1.923  11.698  0.1861  0.2215 -0.1067
  776MPD2    C111447   4.219   1.969  11.614  0.4714 -0.7469  0.7845
  776MPD2    C211448   4.210   2.101  11.582  0.6991 -0.0413 -0.1149
  776MPD2    C311449   4.308   2.187  11.629 -0.1911 -0.5799  0.1425
  776MPD2    C411450   4.399   2.137  11.713 -0.4355 -0.4829  0.7859
  776MPD2    C511451   4.404   2.014  11.754 -0.4126 -0.9644 -0.1273
  776MPD2     H11452   4.143   2.128  11.502  3.7742 -0.0497 -2.7228
  776MPD2    H111453   4.464   2.211  11.759  1.7172 -1.5566 -0.5294
  776MPD2    H211454   4.314   1.821  11.733  0.0636  0.0169 -0.7159
  776MPD2    H311455   4.476   1.979  11.828 -0.3381  0.2886  0.3922
  776MPD2     N11456   4.317   2.318  11.583 -0.0825  0.1744  0.2425
  776MPD2    H511457   4.407   2.364  11.599  0.8299 -1.4702 -0.1381
  776MPD2    N111458   4.121   1.873  11.574  0.4976 -0.2765 -0.0682
  776MPD2    H711459   4.133   1.778  11.608  0.1534  0.4463  2.0172
  777MPD2     C11460   4.398   4.418   0.554 -0.5014  0.3116 -0.7361
  777MPD2    C111461   4.416   4.299   0.619  0.5403 -0.1629  0.1980
  777MPD2    C211462   4.404   4.181   0.548 -0.6546  0.6560 -0.1489
  777MPD2    C311463   4.357   4.183   0.416 -0.2017 -0.2252  0.5442
  777MPD2    C411464   4.317   4.302   0.360 -0.8575  0.6856 -0.2724
  777MPD2    C511465   4.340   4.420   0.425 -0.5362  0.1031  0.4005
  777MPD2     H11466   4.418   4.086   0.598 -3.9873 -0.1081 -0.6484
  777MPD2    H111467   4.267   4.313   0.264  1.0981 -0.5451 -1.4608
  777MPD2    H211468   4.420   4.507   0.612 -3.2363  0.6833 -0.2601
  777MPD2    H311469   4.325   4.509   0.365  0.7334  0.5741  0.7769
  777MPD2     N11470   4.333   4.059   0.350  0.0513  0.3045  0.4177
  777MPD2    H511471   4.346   3.970   0.396 -3.4678 -0.1336  0.6022
  777MPD2    N111472   4.439   4.308   0.762 -0.5496  0.7004 -1.1546
  777MPD2    H711473   4.427   4.400   0.802 -0.4594 -1.0821  2.9889
  778MPD2     C11474   0.700   0.535  14.500 -0.1361  0.3102 -0.2375
  778MPD2    C111475   0.681   0.421  14.422  0.6610 -0.6937 -0.2460
  778MPD2    C211476   0.772   0.391  14.324 -0.4147  0.4194 -0.4042
  778MPD2    C311477   0.885   0.462  14.311  0.9209  0.3680  0.6587
  778MPD2    C411478   0.905   0.565  14.391  0.4800  0.2754 -0.6508
  778MPD2    C511479   0.814   0.607  14.480  0.7962 -0.2030  0.6297
  778MPD2     H11480   0.765   0.308  14.254  2.9610 -0.0817 -0.1324
  778MPD2    H111481   0.996   0.623  14.382 -0.4713  1.7795 -0.4844
  778MPD2    H211482   0.616   0.567  14.560  0.9242  1.4814  0.6329
  778MPD2    H311483   0.829   0.694  14.544  1.2594  1.4156 -1.6700
  778MPD2     N11484   0.985   0.417  14.222  0.0782  0.2645 -0.0621
  778MPD2    H511485   0.973   0.333  14.167 -0.5369  0.1208  0.2915
  778MPD2    N111486   0.569   0.349  14.454  0.0326 -0.3856  0.3002
  778MPD2    H711487   0.516   0.390  14.530  3.6361 -0.4405  2.7902
  779MPD2     C11488   0.550   3.671  14.289 -0.8649 -0.0272  0.2219
  779MPD2    C111489   0.621   3.644  14.177 -0.4694  0.2861  0.2639
  779MPD2    C211490   0.623   3.736  14.078 -0.0297 -0.1606 -0.3788
  779MPD2    C311491   0.540   3.849  14.077  0.3111 -0.1490 -0.6166
  779MPD2    C411492   0.463   3.866  14.189 -0.0173  0.0145 -0.3631
  779MPD2    C511493   0.462   3.778  14.296  0.1431 -0.5025 -0.6166
  779MPD2     H11494   0.689   3.726  13.992 -0.9395 -0.2079 -1.0633
  779MPD2    H111495   0.389   3.945  14.199 -2.0318 -1.8783 -0.3048
  779MPD2    H211496   0.540   3.602  14.372  1.9418  0.6400  1.1163
  779MPD2    H311497   0.393   3.798  14.377  2.7324 -0.4961  1.5729
  779MPD2     N11498   0.558   3.947  13.970  0.7289 -0.2807 -0.5329
  779MPD2    H511499   0.638   3.947  13.908  1.5873  2.3802  0.5880
  779MPD2    N111500   0.700   3.521  14.173  0.0773  0.1756 -0.0930
  779MPD2    H711501   0.734   3.495  14.080  0.2887  2.9624 -0.7761
  780MPD2     C11502   0.023   2.349   0.938 -0.0551  0.2744 -0.0776
  780MPD2    C111503   4.672   2.407   0.841 -0.3877  0.3354 -0.8199
  780MPD2    C211504   4.719   2.530   0.794 -0.6485 -0.2383 -0.5597
  780MPD2    C311505   0.105   2.591   0.850 -0.3272 -0.0529  0.1932
  780MPD2    C411506   0.177   2.525   0.941 -0.3186 -0.0564 -0.2984
  780MPD2    C511507   0.134   2.407   0.983 -0.4320  0.2928  0.0910
  780MPD2     H11508   4.672   2.586   0.714  1.3151 -1.7202 -2.7541
  780MPD2    H111509   0.271   2.551   0.989 -0.0813  0.0398 -0.8186
  780MPD2    H211510   0.002   2.250   0.977  0.7653 -0.2949 -1.0717
  780MPD2    H311511   0.182   2.353   1.064  1.3285 -1.6677 -2.2743
  780MPD2     N11512   0.147   2.707   0.776 -0.1994 -0.1285  0.5318
  780MPD2    H511513   0.100   2.713   0.687  1.1714  2.5864  0.0059
  780MPD2    N111514   4.553   2.340   0.799  0.0203  0.4252  0.5509
  780MPD2    H711515   4.534   2.245   0.830 -0.9039  0.5861  0.4813
  781MPD2     C11516   1.821   0.116  11.945  0.0862  0.1383 -0.3424
  781MPD2    C111517   1.944   0.153  11.996 -0.5494  0.3426  0.6054
  781MPD2    C211518   2.045   0.205  11.915 -0.7136 -0.2002 -0.2603
  781MPD2    C311519   2.027   0.192  11.779  0.4061 -0.6219  0.1347
  781MPD2    C411520   1.903   0.145  11.731  0.0199 -0.0128 -0.2374
  781MPD2    C511521   1.803   0.110  11.815  0.3883 -0.5634  0.5576
  781MPD2     H11522   2.142   0.221  11.959 -1.3251  0.9960  0.6407
  781MPD2    H111523   1.875   0.142  11.627  0.5514  0.9999 -0.4161
  781MPD2    H211524   1.741   0.089  12.014  1.3142 -1.7024  0.3670
  781MPD2    H311525   1.704   0.077  11.784  0.9448 -3.0614  1.5205
  781MPD2     N11526   2.120   0.230  11.675 -1.2268  0.3869  0.5504
  781MPD2    H511527   2.090   0.216  11.578  0.2012  0.3048  0.1281
  781MPD2    N111528   1.979   0.144  12.129 -0.1864  0.5338  0.6605
  781MPD2    H711529   2.076   0.169  12.146 -0.5597  0.1741  3.3290
  782MPD2     C11530   4.605   0.846  10.170  0.5378  0.6661 -0.4894
  782MPD2    C111531   0.008   0.835  10.212  0.4022 -0.1350  0.4824
  782MPD2    C211532   0.072   0.945  10.271  0.0753  0.0571 -0.2071
  782MPD2    C311533   4.724   1.061  10.299  0.2310  0.2476 -0.7223
  782MPD2    C411534   4.603   1.067  10.244 -0.4521  0.2979  0.3111
  782MPD2    C511535   4.538   0.967  10.186  0.6592 -0.1331 -0.0513
  782MPD2     H11536   0.171   0.939  10.316  0.7371 -1.4076 -1.8663
  782MPD2    H111537   4.538   1.153  10.259  1.3198  1.3667  1.8948
  782MPD2    H211538   4.543   0.760  10.147  1.3416  0.3558 -1.5410
  782MPD2    H311539   4.435   0.969  10.154  0.9212  1.5090 -0.7602
  782MPD2     N11540   0.051   1.161  10.380  0.4033 -0.0980  0.2969
  782MPD2    H511541   0.143   1.143  10.419 -0.0082 -1.8526  0.4491
  782MPD2    N111542   0.068   0.706  10.216 -0.0186  0.1570  0.4211
  782MPD2    H711543   0.007   0.625  10.207  3.1459 -2.2688  0.7190
  783MPD2     C11544   4.423   0.300  10.866  0.5152  0.2443  0.2695
  783MPD2    C111545   4.432   0.429  10.825 -0.2834  0.4777  0.2514
  783MPD2    C211546   4.541   0.471  10.755  0.2290  0.1951 -0.8423
  783MPD2    C311547   4.637   0.383  10.708  0.6079  1.0863 -0.2253
  783MPD2    C411548   4.627   0.254  10.755 -0.3593 -0.8743  0.3344
  783MPD2    C511549   4.521   0.214  10.829 -1.2537 -0.2623 -0.8954
  783MPD2     H11550   4.536   0.573  10.719  1.1150  1.8141  3.6051
  783MPD2    H111551   4.702   0.182  10.724 -0.4922 -0.8466 -0.0511
  783MPD2    H211552   4.345   0.276  10.937  0.2678 -0.8774 -0.3718
  783MPD2    H311553   4.514   0.108  10.849 -0.6222 -0.1520 -0.0933
  783MPD2     N11554   0.014   0.420  10.623  0.0265 -0.2208 -0.0353
  783MPD2    H511555   0.013   0.512  10.581  0.6950 -0.6337 -0.9598
  783MPD2    N111556   4.328   0.520  10.867 -0.3065 -0.2930 -0.5621
  783MPD2    H711557   4.242   0.479  10.903 -0.4392  0.6786  0.2307
  784MPD2     C11558   1.778   1.890   0.827 -0.0528 -0.4885 -0.8045
  784MPD2    C111559   1.770   1.903   0.962 -1.3425  0.2160 -0.3359
  784MPD2    C211560   1.673   1.989   1.018 -0.5381  1.3064 -0.2592
  784MPD2    C311561   1.584   2.058   0.932 -0.0786  0.4133  0.0870
  784MPD2    C411562   1.588   2.027   0.797 -0.2238 -1.1019 -0.6074
  784MPD2    C511563   1.691   1.957   0.746 -0.1479 -0.3934  0.2709
  784MPD2     H11564   1.677   1.999   1.126 -0.9882  4.0298 -0.5150
  784MPD2    H111565   1.511   2.068   0.731 -1.1268  0.1485  1.2202
  784MPD2    H211566   1.852   1.828   0.778  1.8869  0.7769  0.5081
  784MPD2    H311567   1.709   1.951   0.639 -0.4980 -1.9766  0.2990
  784MPD2     N11568   1.490   2.153   0.977  0.0692  0.4093 -0.3722
  784MPD2    H511569   1.480   2.163   1.077  1.3731  0.4258 -0.2358
  784MPD2    N111570   1.872   1.863   1.051  1.5209 -0.0403 -0.3202
  784MPD2    H711571   1.864   1.891   1.148 -0.5031 -0.0572 -0.4859
  785MPD2     C11572   2.297   4.029  10.717  0.2411  0.0247 -0.4866
  785MPD2    C111573   2.373   4.102  10.618 -0.3132  0.3480  0.7495
  785MPD2    C211574   2.313   4.144  10.505 -0.2778 -0.0769 -0.0882
  785MPD2    C311575   2.181   4.105  10.472 -0.0470  0.1228  0.2234
  785MPD2    C411576   2.113   4.019  10.553 -0.2521  0.2763  0.9714
  785MPD2    C511577   2.167   3.991  10.672  0.2546 -0.4634 -0.1065
  785MPD2     H11578   2.360   4.210  10.432 -1.2526  0.9390  0.2026
  785MPD2    H111579   2.011   3.987  10.538 -0.2149 -0.0675  1.4690
  785MPD2    H211580   2.342   3.994  10.809  1.2483  2.2413 -0.1444
  785MPD2    H311581   2.106   3.927  10.735 -0.9428 -0.8825 -1.6763
  785MPD2     N11582   2.125   4.160  10.356 -0.4038 -0.2486 -0.5042
  785MPD2    H511583   2.186   4.226  10.308  3.3434 -1.0724  3.0608
  785MPD2    N111584   2.498   4.150  10.661  0.2223 -0.3096 -0.0186
  785MPD2    H711585   2.513   4.140  10.761 -1.1163  0.2783  0.2403
  786MPD2     C11586   1.191   2.592  14.466  0.1013 -0.5822 -0.3310
  786MPD2    C111587   1.308   2.571  14.388 -0.0601  0.3386  0.2797
  786MPD2    C211588   1.429   2.608  14.450  0.5881 -0.3715 -0.3192
  786MPD2    C311589   1.443   2.668  14.574 -0.4671 -0.4682 -0.1604
  786MPD2    C411590   1.322   2.691  14.637  0.1031 -0.2556  0.4204
  786MPD2    C511591   1.207   2.647  14.587  0.3118  0.4614 -0.2198
  786MPD2     H11592   1.521   2.596  14.395  1.4508 -2.3035  1.5095
  786MPD2    H111593   1.325   2.742  14.733 -0.2059 -1.8997  1.2933
  786MPD2    H211594   1.094   2.552  14.436 -0.3616  0.3032 -0.0115
  786MPD2    H311595   1.121   2.648  14.652  0.3844  2.5040 -0.1436
  786MPD2     N11596   1.568   2.676  14.645  0.1105  0.0048  0.9823
  786MPD2    H511597   1.559   2.720  14.736 -0.9909  0.0447  0.8525
  786MPD2    N111598   1.300   2.544  14.247  0.0991  0.1286 -0.0767
  786MPD2    H711599   1.391   2.538  14.202  1.3324 -0.1855  2.4863
  787MPD2     C11600   1.317   2.053  13.585  0.2769 -0.6183  0.3834
  787MPD2    C111601   1.391   2.087  13.701  0.2030  0.0181  0.2567
  787MPD2    C211602   1.490   1.998  13.732 -0.8767  0.0580  0.0870
  787MPD2    C311603   1.516   1.879  13.661 -0.0913  0.0004 -0.5255
  787MPD2    C411604   1.431   1.851  13.551  0.1202 -0.7417  0.9152
  787MPD2    C511605   1.338   1.936  13.514 -0.7576 -0.4333 -0.2684
  787MPD2     H11606   1.554   2.027  13.815  1.2931  0.5330 -1.7448
  787MPD2    H111607   1.448   1.766  13.485  3.9721  0.1945  0.7014
  787MPD2    H211608   1.235   2.114  13.550  0.6503 -0.6092 -0.4642
  787MPD2    H311609   1.282   1.919  13.422 -1.1046  1.0210 -0.3303
  787MPD2     N11610   1.622   1.792  13.698  0.1221 -0.9018 -0.3609
  787MPD2    H511611   1.681   1.831  13.771  2.5057 -1.8598 -1.7834
  787MPD2    N111612   1.371   2.214  13.757 -0.2085  0.8257  0.4012
  787MPD2    H711613   1.308   2.271  13.701  1.6914  2.4862 -0.0383
  788MPD2     C11614   2.953   0.642   0.681 -0.1999  0.0618 -0.4528
  788MPD2    C111615   2.926   0.516   0.627 -0.0540 -0.2702  0.0958
  788MPD2    C211616   2.887   0.504   0.493 -0.1096  0.6393 -0.1059
  788MPD2    C311617   2.869   0.626   0.425  0.1700 -1.0978 -0.2869
  788MPD2    C411618   2.876   0.751   0.488 -0.7474 -0.3127  0.1152
  788MPD2    C511619   2.918   0.755   0.613 -1.0333  0.1444 -0.1701
  788MPD2     H11620   2.884   0.404   0.452 -0.8708  0.5925  0.0800
  788MPD2    H111621   2.850   0.845   0.442 -1.7730 -0.8035 -0.3008
  788MPD2    H211622   2.980   0.660   0.785  0.9884 -3.1457 -0.2023
  788MPD2    H311623   2.934   0.852   0.658 -0.9879  0.3739 -0.6792
  788MPD2     N11624   2.840   0.631   0.285 -0.0667  0.4403  0.6506
  788MPD2    H511625   2.813   0.717   0.239 -1.1733 -0.9356 -1.2739
  788MPD2    N111626   2.944   0.394   0.697 -0.2825 -0.2374  0.3513
  788MPD2    H711627   2.904   0.312   0.653  0.9785 -0.7890  0.2610
  789MPD2     C11628   3.339   0.684  16.191 -0.2540 -0.4051 -0.9049
  789MPD2    C111629   3.282   0.615  16.290  0.3386  0.6731 -0.4419
  789MPD2    C211630   3.150   0.631  16.315  0.2469  0.4367 -0.1748
  789MPD2    C311631   3.067   0.724  16.254  0.0997  0.2635 -0.6535
  789MPD2    C411632   3.132   0.795  16.155  0.7479  0.3364 -0.2419
  789MPD2    C511633   3.261   0.778  16.129  0.4574 -0.6608 -0.4662
  789MPD2     H11634   3.110   0.576  16.400  0.9043 -0.8777 -0.7168
  789MPD2    H111635   3.080   0.875  16.103  0.2684 -0.3461 -0.8147
  789MPD2    H211636   3.441   0.664  16.161  0.3234  1.9864 -0.4979
  789MPD2    H311637   3.311   0.840  16.055 -1.2674 -0.7693 -1.7166
  789MPD2     N11638   2.934   0.755  16.287 -0.5644  0.4475  0.6152
  789MPD2    H511639   2.882   0.819  16.229  0.1420  2.4958  2.2348
  789MPD2    N111640   3.354   0.514  16.358 -0.4944  0.0440  0.1191
  789MPD2    H711641   3.289   0.443  16.391  0.6532 -0.9149  0.3241
  790MPD2     C11642   4.423   2.354  13.382  0.1082  0.4191  0.0383
  790MPD2    C111643   4.364   2.235  13.426  0.6516 -0.7151  0.0347
  790MPD2    C211644   4.286   2.167  13.341 -0.3306  0.6017  0.2714
  790MPD2    C311645   4.270   2.206  13.213  0.8137  0.6895  0.8663
  790MPD2    C411646   4.337   2.316  13.166 -0.0968  0.1226  0.2087
  790MPD2    C511647   4.404   2.396  13.253  0.6765 -0.0901 -0.2261
  790MPD2     H11648   4.246   2.070  13.367 -2.2242  0.7912 -1.9308
  790MPD2    H111649   4.321   2.347  13.063 -0.3058 -1.4335 -0.2239
  790MPD2    H211650   4.480   2.415  13.452 -1.5622  1.0905  0.8022
  790MPD2    H311651   4.452   2.485  13.216 -0.5053  0.6056 -0.0867
  790MPD2     N11652   4.187   2.125  13.135 -0.5178  0.2121  0.5336
  790MPD2    H511653   4.144   2.042  13.174 -1.2192 -0.8398 -2.4617
  790MPD2    N111654   4.399   2.188  13.559  0.2806 -0.9222  0.1581
  790MPD2    H711655   4.460   2.247  13.615  0.2934  0.2587 -1.1179
  791MPD2     C11656   3.599   2.260  12.684  0.0297  0.1687  0.2884
  791MPD2    C111657   3.625   2.130  12.681 -0.6529  0.1764 -0.1647
  791MPD2    C211658   3.523   2.037  12.636  0.0078 -0.1469 -0.4607
  791MPD2    C311659   3.402   2.083  12.593  0.0287 -0.4709  0.4485
  791MPD2    C411660   3.379   2.218  12.586  0.0201  0.0578 -1.0200
  791MPD2    C511661   3.476   2.308  12.625  0.0827 -0.8567 -0.2842
  791MPD2     H11662   3.544   1.931  12.625  1.0914  0.0838 -0.6322
  791MPD2    H111663   3.286   2.258  12.547 -1.5796 -2.3134  0.3476
  791MPD2    H211664   3.667   2.339  12.715 -1.1760  0.5220  2.0469
  791MPD2    H311665   3.451   2.412  12.609 -0.5835 -1.3628 -2.5510
  791MPD2     N11666   3.315   1.991  12.528  0.4112  0.3766  0.9119
  791MPD2    H511667   3.342   1.896  12.548 -0.1051 -0.2751 -1.5009
  791MPD2    N111668   3.754   2.088  12.728 -1.0451 -0.0390  0.1812
  791MPD2    H711669   3.804   2.165  12.770 -0.5629  0.8452 -2.0134
  792MPD2     C11670   4.379   1.787  11.302  0.5673  0.6544  0.1957
  792MPD2    C111671   4.295   1.883  11.269  0.6066 -0.2116 -0.5133
  792MPD2    C211672   4.179   1.857  11.208  0.2575  0.1586  0.1037
  792MPD2    C311673   4.145   1.730  11.173 -0.1080  0.1966 -0.4232
  792MPD2    C411674   4.232   1.622  11.203 -0.5731  0.9827 -0.4632
  792MPD2    C511675   4.345   1.654  11.272  0.5086  0.3710  0.2004
  792MPD2     H11676   4.112   1.933  11.170 -2.1047 -0.2817  3.3967
  792MPD2    H111677   4.212   1.519  11.176 -0.6636  1.0934 -0.8147
  792MPD2    H211678   4.478   1.805  11.342  0.7065 -0.1472  0.2279
  792MPD2    H311679   4.406   1.578  11.320 -1.2394 -1.0198  0.2083
  792MPD2     N11680   4.021   1.698  11.105  0.5407  0.1102 -0.0013
  792MPD2    H511681   4.004   1.602  11.074  0.2285 -0.4890  2.0177
  792MPD2    N111682   4.357   2.014  11.275 -0.5583 -0.3137  0.3469
  792MPD2    H711683   4.450   2.022  11.314 -0.6812 -0.3740  0.6566
  793MPD2     C11684   4.057   1.836  10.162 -0.6478  0.0491 -0.3343
  793MPD2    C111685   4.139   1.758  10.240  0.0826 -1.4643 -0.3853
  793MPD2    C211686   4.108   1.734  10.376  0.2994 -0.5843 -0.2878
  793MPD2    C311687   3.986   1.770  10.423 -0.0969 -1.0561  0.0448
  793MPD2    C411688   3.902   1.839  10.340  0.6388 -0.2573  0.6566
  793MPD2    C511689   3.937   1.873  10.216 -0.3844  0.3110  0.1467
  793MPD2     H11690   4.175   1.684  10.444 -0.1644 -2.0631 -0.9005
  793MPD2    H111691   3.798   1.861  10.362 -0.1906 -1.7710 -1.7390
  793MPD2    H211692   4.090   1.871  10.065 -1.0374 -1.6084 -1.0751
  793MPD2    H311693   3.867   1.941  10.169 -0.2019 -0.8997 -1.8527
  793MPD2     N11694   3.944   1.723  10.549  0.2946  0.3022  0.6291
  793MPD2    H511695   4.009   1.662  10.598  0.1131 -1.1915 -1.0032
  793MPD2    N111696   4.261   1.710  10.199 -0.1571 -0.1944  0.0009
  793MPD2    H711697   4.318   1.658  10.264 -1.2970  0.9711  1.9523
  794MPD2     C11698   3.240   1.072  17.523  0.2302  1.1124  0.0401
  794MPD2    C111699   3.274   1.208  17.529 -0.6764 -0.5338 -0.4230
  794MPD2    C211700   3.302   1.273  17.408 -0.2390  0.0625  0.5296
  794MPD2    C311701   3.297   1.207  17.285 -0.4307 -0.4332 -0.7119
  794MPD2    C411702   3.260   1.077  17.287  0.2483  0.2521  0.3140
  794MPD2    C511703   3.228   1.009  17.405  0.7426 -0.3656 -0.3797
  794MPD2     H11704   3.323   1.379  17.410  0.0230  0.0006  1.2368
  794MPD2    H111705   3.255   1.016  17.198  0.5095  0.1829  0.3481
  794MPD2    H211706   3.212   1.010  17.608  0.0426  1.5003  0.2633
  794MPD2    H311707   3.196   0.906  17.398  0.5444 -0.4346  1.5590
  794MPD2     N11708   3.312   1.266  17.159 -1.1717 -0.1206  0.6834
  794MPD2    H511709   3.313   1.198  17.083  2.0301  1.1454 -0.4039
  794MPD2    N111710   3.298   1.282  17.647 -0.4402 -0.4304  0.5703
  794MPD2    H711711   3.345   1.371  17.632 -0.9425 -0.1679  0.5461
  795MPD2     C11712   1.851   3.845  13.676  0.1587  0.4167  0.2394
  795MPD2    C111713   1.872   3.734  13.594  0.0739  0.2731  0.1621
  795MPD2    C211714   1.996   3.671  13.593  0.5764 -0.6142  0.8456
  795MPD2    C311715   2.097   3.717  13.669 -0.0709  0.0611  0.9306
  795MPD2    C411716   2.083   3.832  13.743  0.3823 -0.4177 -0.6774
  795MPD2    C511717   1.958   3.882  13.748  0.0092 -0.0734  0.3836
  795MPD2     H11718   2.001   3.592  13.519  1.5679  0.8369 -0.6366
  795MPD2    H111719   2.167   3.874  13.797 -1.3650  0.0125  1.6913
  795MPD2    H211720   1.765   3.910  13.667  0.2874  0.5607  0.0476
  795MPD2    H311721   1.941   3.971  13.808  0.2542 -0.5896  1.2194
  795MPD2     N11722   2.225   3.652  13.678 -0.4590  0.2317 -0.3521
  795MPD2    H511723   2.289   3.684  13.750 -1.4996  1.7230 -0.0819
  795MPD2    N111724   1.786   3.686  13.493 -0.0222 -0.2353  0.2937
  795MPD2    H711725   1.820   3.624  13.420  3.2627 -0.0311  1.6257
  796MPD2     C11726   0.935   0.655  15.828 -0.5800 -0.0083 -0.4431
  796MPD2    C111727   1.070   0.681  15.823 -0.0099  0.1061 -0.6544
  796MPD2    C211728   1.118   0.768  15.734 -0.9722  0.3189 -0.3142
  796MPD2    C311729   1.038   0.845  15.653  0.4448  0.2806 -0.0384
  796MPD2    C411730   0.901   0.822  15.661 -0.2193 -0.4130 -0.3428
  796MPD2    C511731   0.849   0.728  15.745 -0.3916  0.0392  0.0454
  796MPD2     H11732   1.223   0.797  15.736 -1.0139  0.3824  1.1310
  796MPD2    H111733   0.837   0.879  15.594 -0.7549  0.0104  0.5293
  796MPD2    H211734   0.897   0.586  15.903 -0.6305 -0.9708 -1.3491
  796MPD2    H311735   0.744   0.702  15.741 -0.7333  1.2608  0.9544
  796MPD2     N11736   1.105   0.953  15.584 -0.0652  0.6318  0.4464
  796MPD2    H511737   1.206   0.946  15.587 -0.1279 -0.9533 -1.7248
  796MPD2    N111738   1.151   0.610  15.914 -0.4046  0.6561 -0.4845
  796MPD2    H711739   1.100   0.548  15.976 -1.2847  2.4682  0.6221
  797MPD2     C11740   2.684   0.005  17.051  0.0198 -0.6734  0.9941
  797MPD2    C111741   2.556   0.038  17.075  0.1366  0.2011  0.5706
  797MPD2    C211742   2.476   0.097  16.981 -0.5472  0.1171  0.8066
  797MPD2    C311743   2.519   0.113  16.847 -0.3562  0.1052  0.2778
  797MPD2    C411744   2.652   0.080  16.819  0.5932  0.1361 -0.4154
  797MPD2    C511745   2.729   0.028  16.919  0.6738  0.0392 -0.7202
  797MPD2     H11746   2.375   0.129  17.004 -0.8407 -0.9558  1.0057
  797MPD2    H111747   2.682   0.104  16.718 -0.6666 -0.4509 -0.9282
  797MPD2    H211748   2.750   4.694  17.128  0.9853  1.0991  1.0474
  797MPD2    H311749   2.828   4.727  16.887  0.6584  0.2186 -0.9272
  797MPD2     N11750   2.427   0.158  16.748 -0.1381 -0.0364  0.3761
  797MPD2    H511751   2.474   0.185  16.662  0.6402 -0.4310  0.6808
  797MPD2    N111752   2.500   0.025  17.205  0.0347 -0.1634 -0.5142
  797MPD2    H711753   2.414   0.076  17.224  0.6135  1.0803 -1.2112
  798MPD2     C11754   2.023   0.509  17.136 -0.0799 -0.1677 -0.6198
  798MPD2    C111755   2.057   0.394  17.068  0.8621  0.4265  0.6064
  798MPD2    C211756   2.115   0.291  17.139  0.5549  0.2552 -0.0328
  798MPD2    C311757   2.118   0.296  17.272  0.5276 -0.3986 -0.5028
  798MPD2    C411758   2.077   0.406  17.344 -0.5500 -0.6402 -0.1935
  798MPD2    C511759   2.035   0.512  17.273  0.3648  0.2993  0.0418
  798MPD2     H11760   2.157   0.204  17.089 -0.3182 -0.9284  1.2936
  798MPD2    H111761   2.074   0.422  17.451  2.3172 -1.6684  0.0282
  798MPD2    H211762   1.974   0.598  17.098  0.4105 -0.9729 -3.0926
  798MPD2    H311763   1.988   0.597  17.322  0.9164  0.2871  0.5988
  798MPD2     N11764   2.166   0.176  17.338  0.7315 -0.4832  0.5824
  798MPD2    H511765   2.168   0.090  17.285  0.7460  0.4967 -1.0056
  798MPD2    N111766   2.056   0.373  16.930  0.3009 -0.4408 -0.2835
  798MPD2    H711767   2.089   0.286  16.890 -1.0641 -0.8544 -0.5151
  799MPD2     C11768   1.123   1.928  14.049 -0.6661  0.1346 -0.8911
  799MPD2    C111769   1.075   1.809  13.998  0.1554 -0.0524 -0.0919
  799MPD2    C211770   1.019   1.809  13.873 -0.0690 -0.4618 -0.1558
  799MPD2    C311771   1.003   1.930  13.801  0.5444 -0.0335  0.6741
  799MPD2    C411772   1.058   2.046  13.845 -0.1724 -0.3095 -0.4523
  799MPD2    C511773   1.118   2.048  13.970  1.0708  0.1383  0.1900
  799MPD2     H11774   0.985   1.718  13.826 -0.2335 -0.7057  0.4331
  799MPD2    H111775   1.062   2.135  13.783 -0.7650  0.6594  0.8819
  799MPD2    H211776   1.182   1.943  14.139  1.4070 -1.2566 -1.9922
  799MPD2    H311777   1.162   2.138  14.012 -0.9705  1.6986 -1.0041
  799MPD2     N11778   0.945   1.942  13.673  0.5292 -0.6800  0.7886
  799MPD2    H511779   0.948   2.032  13.626 -1.1359 -0.3208  1.3638
  799MPD2    N111780   1.089   1.683  14.066 -0.5958 -0.0841  0.2691
  799MPD2    H711781   1.046   1.606  14.015 -2.4740  0.7152  0.6688
  800MPD2     C11782   1.587   3.157  14.034 -0.1299  0.0617  0.5275
  800MPD2    C111783   1.724   3.151  14.059 -0.5115  0.1174  0.3223
  800MPD2    C211784   1.799   3.068  13.981 -0.3705  0.7718  1.0027
  800MPD2    C311785   1.745   2.979  13.892 -0.4486 -0.4022  0.3967
  800MPD2    C411786   1.609   2.983  13.870 -0.3182 -0.2048  0.1296
  800MPD2    C511787   1.538   3.085  13.933 -0.4836  0.2903  0.0024
  800MPD2     H11788   1.907   3.065  13.986 -0.2724  2.9477  0.0834
  800MPD2    H111789   1.555   2.904  13.818  1.8383 -0.8888 -1.0669
  800MPD2    H211790   1.530   3.234  14.085 -0.8699 -2.1692  3.1070
  800MPD2    H311791   1.430   3.085  13.925 -0.6843 -0.8479  2.5056
  800MPD2     N11792   1.835   2.887  13.829  0.2428  0.0073 -0.1313
  800MPD2    H511793   1.935   2.898  13.844  0.0124 -1.0153  2.3133
  800MPD2    N111794   1.775   3.227  14.170  0.0986  0.1711 -0.2718
  800MPD2    H711795   1.719   3.300  14.211  0.8220 -0.3761  1.6672
  801MPD2     C11796   1.646   3.794  14.611 -0.8379 -0.2803  0.2552
  801MPD2    C111797   1.637   3.723  14.493  0.6213  0.3601 -0.3848
  801MPD2    C211798   1.548   3.769  14.395 -0.7213 -0.1753 -0.4878
  801MPD2    C311799   1.473   3.886  14.411  0.1817 -0.1961  0.4967
  801MPD2    C411800   1.480   3.951  14.532 -0.2966  0.8086  0.1321
  801MPD2    C511801   1.565   3.910  14.624 -0.2445 -0.0707  0.4041
  801MPD2     H11802   1.542   3.719  14.299  3.1139  0.1139 -0.8462
  801MPD2    H111803   1.418   4.038  14.550 -0.3304  1.1261 -1.5006
  801MPD2    H211804   1.719   3.773  14.689  1.0737  1.5528 -1.0506
  801MPD2    H311805   1.572   3.963  14.718 -0.6884  1.4355 -0.4071
  801MPD2     N11806   1.372   3.939  14.326 -0.1063  0.5362  0.3212
  801MPD2    H511807   1.311   4.008  14.369 -2.2027 -1.3553  0.4352
  801MPD2    N111808   1.729   3.620  14.459  0.0859 -0.3034 -0.2120
  801MPD2    H711809   1.704   3.568  14.375  2.9247 -0.2619 -1.0975
  802MPD2     C11810   0.610   3.517  17.142  0.0122  0.1347 -1.0983
  802MPD2    C111811   0.716   3.520  17.224  0.0750  0.7135  0.4849
  802MPD2    C211812   0.838   3.498  17.175 -0.4229  0.3480 -0.1092
  802MPD2    C311813   0.858   3.487  17.040  0.4606 -0.3111  0.6331
  802MPD2    C411814   0.750   3.495  16.957  0.2188  0.1624  0.2670
  802MPD2    C511815   0.621   3.508  17.010 -0.6693  0.7798  0.0718
  802MPD2     H11816   0.921   3.497  17.245 -1.4486 -1.8196  1.0646
  802MPD2    H111817   0.754   3.498  16.849 -2.1713  1.1596  0.1999
  802MPD2    H211818   0.514   3.544  17.185  0.5724 -0.1779  0.3794
  802MPD2    H311819   0.541   3.530  16.939  0.4410  0.9614 -1.1235
  802MPD2     N11820   0.993   3.472  16.991  0.1421  0.5551  0.3710
  802MPD2    H511821   1.063   3.474  17.065 -0.8291  1.1487  1.2662
  802MPD2    N111822   0.715   3.553  17.359  0.6581 -0.0862 -0.3449
  802MPD2    H711823   0.808   3.562  17.397  0.9012 -0.3949 -0.8611
  803MPD2     C11824   2.152   2.076  11.412  0.2669  0.1820 -0.1158
  803MPD2    C111825   2.233   2.122  11.523  0.6599 -0.2515  0.5243
  803MPD2    C211826   2.172   2.149  11.645  0.2815 -0.5794  0.1283
  803MPD2    C311827   2.038   2.133  11.661 -0.7323  0.0689  0.7636
  803MPD2    C411828   1.956   2.100  11.550 -0.1209 -0.2176 -0.4206
  803MPD2    C511829   2.013   2.066  11.432  0.6234 -0.0200 -0.5813
  803MPD2     H11830   2.234   2.152  11.734  1.3744 -1.7976 -0.5787
  803MPD2    H111831   1.848   2.107  11.557 -0.1700 -0.9111 -0.5077
  803MPD2    H211832   2.189   2.048  11.314  3.6166 -0.2220  1.2426
  803MPD2    H311833   1.959   2.045  11.340  0.3852 -0.2856 -0.3821
  803MPD2     N11834   1.971   2.144  11.782  0.0144 -0.0385 -0.1032
  803MPD2    H511835   1.874   2.115  11.796 -0.5337  0.4771 -2.7894
  803MPD2    N111836   2.378   2.120  11.523  0.0549 -0.1946  0.1343
  803MPD2    H711837   2.419   2.165  11.604 -1.2082 -1.8581  1.6916
  804MPD2     C11838   1.808   3.453  16.850  0.5990  0.6931 -0.6786
  804MPD2    C111839   1.805   3.498  16.980 -0.1693 -0.5087  0.3344
  804MPD2    C211840   1.818   3.630  17.016 -0.3028  0.5119  0.0012
  804MPD2    C311841   1.829   3.726  16.911 -0.0112 -0.4948  0.1777
  804MPD2    C411842   1.830   3.678  16.779 -1.4727 -0.5554  0.3563
  804MPD2    C511843   1.819   3.543  16.747 -0.4914  0.3146 -0.0078
  804MPD2     H11844   1.830   3.667  17.117  1.1925  2.2306 -0.7922
  804MPD2    H111845   1.829   3.745  16.694  2.1770  1.5966  2.0120
  804MPD2    H211846   1.816   3.349  16.822 -0.9861  0.4929 -0.3820
  804MPD2    H311847   1.839   3.503  16.648  0.5907 -0.9896  0.7291
  804MPD2     N11848   1.847   3.865  16.934  0.4542  0.5277 -0.0508
  804MPD2    H511849   1.880   3.922  16.857  0.1099  1.8241  0.7663
  804MPD2    N111850   1.807   3.408  17.090  0.1434  0.2095  0.2895
  804MPD2    H711851   1.809   3.448  17.183  1.8078 -1.8775  1.1603
  805MPD2     C11852   0.696   2.083  14.942 -1.3457  0.2979 -1.2608
  805MPD2    C111853   0.821   2.086  14.881  0.3167 -0.1356 -0.5989
  805MPD2    C211854   0.937   2.073  14.955 -0.3623 -0.3070 -0.1886
  805MPD2    C311855   0.926   2.041  15.088  0.3641  0.1504  0.0543
  805MPD2    C411856   0.804   2.043  15.149 -0.0428 -0.2511 -0.3078
  805MPD2    C511857   0.688   2.063  15.075  0.3023 -0.1766 -0.5531
  805MPD2     H11858   1.035   2.078  14.910 -0.3602 -1.4903 -0.2949
  805MPD2    H111859   0.797   2.025  15.255  0.7129 -0.8009 -0.3587
  805MPD2    H211860   0.606   2.108  14.888 -2.1035  0.0676 -0.1173
  805MPD2    H311861   0.587   2.062  15.115  1.1653 -0.0956  1.6022
  805MPD2     N11862   1.044   2.018  15.156  0.5234  0.0848  0.0184
  805MPD2    H511863   1.128   2.033  15.101  0.4566  0.8185  0.1127
  805MPD2    N111864   0.834   2.111  14.739 -0.0836  0.0571  0.0671
  805MPD2    H711865   0.932   2.117  14.713 -1.0525  2.9244 -2.9099
  806MPD2     C11866   1.193   1.453   0.568  0.9621  0.3915  0.0551
  806MPD2    C111867   1.262   1.337   0.542 -0.3432 -0.6325  0.3871
  806MPD2    C211868   1.314   1.319   0.415  0.8792  0.0627 -0.1058
  806MPD2    C311869   1.307   1.423   0.322  0.5021 -0.3788 -0.3926
  806MPD2    C411870   1.242   1.541   0.359  0.1443  0.0222  0.2732
  806MPD2    C511871   1.180   1.553   0.475 -0.6912  0.4134 -0.1557
  806MPD2     H11872   1.360   1.223   0.393 -0.3907 -0.8076  1.0092
  806MPD2    H111873   1.236   1.624   0.289  0.0374 -0.7091 -0.5826
  806MPD2    H211874   1.144   1.468   0.664 -0.2312 -0.2978 -0.4537
  806MPD2    H311875   1.125   1.644   0.495 -0.2791  0.6640 -0.1560
  806MPD2     N11876   1.383   1.408   0.206 -0.0596  0.0289  0.7200
  806MPD2    H511877   1.437   1.323   0.190 -1.7658 -0.7363 -0.9951
  806MPD2    N111878   1.272   1.238   0.644  0.1574  0.2177  0.4597
  806MPD2    H711879   1.230   1.261   0.733 -2.6308  0.7534 -0.9983
  807MPD2     C11880   0.930   0.675   1.050  0.6666 -0.4053 -0.2711
  807MPD2    C111881   1.055   0.693   1.099  0.0191  0.3193  0.5364
  807MPD2    C211882   1.103   0.604   1.188  0.3516  0.3263  0.7047
  807MPD2    C311883   1.020   0.509   1.244  0.5154 -0.1872  0.0474
  807MPD2    C411884   0.896   0.483   1.189  0.5191  0.2312  0.4596
  807MPD2    C511885   0.851   0.568   1.094 -0.5759  0.8665  0.6681
  807MPD2     H11886   1.209   0.597   1.211  0.1273  0.0169  1.6009
  807MPD2    H111887   0.832   0.402   1.223  1.5586 -1.7684 -2.3088
  807MPD2    H211888   0.885   0.748   0.983 -1.2901 -0.7006  0.7132
  807MPD2    H311889   0.748   0.549   1.066  0.5106 -0.8242 -2.1748
  807MPD2     N11890   1.082   0.440   1.349  0.8562 -0.6744  0.1107
  807MPD2    H511891   1.175   0.473   1.373 -0.3548  0.2931  3.6013
  807MPD2    N111892   1.142   0.798   1.065 -0.1058  0.1142  0.0774
  807MPD2    H711893   1.237   0.790   1.101 -0.1899 -1.5522 -0.0591
  808MPD2     C11894   2.076   1.884   9.746 -0.2613 -0.3119  0.2567
  808MPD2    C111895   2.022   2.014   9.761  0.1095  0.3448  0.2834
  808MPD2    C211896   2.099   2.107   9.830  0.1409  0.8947  0.0198
  808MPD2    C311897   2.226   2.078   9.868  0.1681 -0.0587 -0.1247
  808MPD2    C411898   2.279   1.951   9.846 -0.4004 -0.8574 -0.7549
  808MPD2    C511899   2.200   1.854   9.796 -0.2862 -0.1464  0.1694
  808MPD2     H11900   2.050   2.202   9.850 -1.2033  0.0690  0.6574
  808MPD2    H111901   2.386   1.937   9.864 -1.2335 -3.9866  1.8416
  808MPD2    H211902   2.041   1.798   9.690  2.0254 -2.1871  1.6866
  808MPD2    H311903   2.252   1.760   9.780 -0.0911 -0.2803  1.5959
  808MPD2     N11904   2.315   2.179   9.904 -0.1206  0.0461 -0.5994
  808MPD2    H511905   2.408   2.139   9.915 -0.4037 -1.0027 -1.9422
  808MPD2    N111906   1.886   2.040   9.734  0.2127 -0.7935 -0.2851
  808MPD2    H711907   1.850   2.129   9.767 -0.1781 -0.5646 -1.3336
  809MPD2     C11908   3.073   2.003   9.788 -0.0166  0.4507 -0.5942
  809MPD2    C111909   3.077   2.136   9.755 -0.4125  0.2954  0.0199
  809MPD2    C211910   2.986   2.216   9.810 -0.9631 -0.2057  0.1709
  809MPD2    C311911   2.901   2.173   9.905 -0.2582 -0.1820  0.4196
  809MPD2    C411912   2.899   2.044   9.936  0.6309 -0.2324 -0.4687
  809MPD2    C511913   2.985   1.954   9.879 -0.4015  0.2991 -0.5751
  809MPD2     H11914   3.006   2.321   9.790  1.9380 -0.8068 -0.0370
  809MPD2    H111915   2.828   2.005  10.009 -0.3875  4.9536  1.3841
  809MPD2    H211916   3.148   1.934   9.752  0.3142  0.8694 -0.7088
  809MPD2    H311917   2.992   1.849   9.906 -1.4993 -0.6085 -3.8356
  809MPD2     N11918   2.789   2.249   9.958  0.4128 -1.0145  0.4584
  809MPD2    H511919   2.720   2.199  10.012 -2.6891  1.8727 -0.7747
  809MPD2    N111920   3.177   2.193   9.672 -0.1402  0.4687  0.1757
  809MPD2    H711921   3.172   2.294   9.669  0.5052  0.5550  1.9144
  810MPD2     C11922   1.908   1.745  10.099  0.2527 -0.5648 -0.0697
  810MPD2    C111923   1.804   1.824  10.059 -0.4746 -0.6343  0.0096
  810MPD2    C211924   1.820   1.959  10.068  0.2765  1.0229  0.3425
  810MPD2    C311925   1.933   2.017  10.128  0.2358  0.2168 -0.7538
  810MPD2    C411926   2.027   1.939  10.186 -0.6210  0.0588 -0.1327
  810MPD2    C511927   2.018   1.805  10.167 -0.2599 -0.7462 -0.0695
  810MPD2     H11928   1.737   2.015  10.026 -0.0022  0.0448 -0.4141
  810MPD2    H111929   2.117   1.975  10.235 -0.6342  0.1726 -0.1925
  810MPD2    H211930   1.905   1.637  10.093  1.3218 -0.5462 -0.8687
  810MPD2    H311931   2.103   1.741  10.185 -0.2209 -1.1039 -1.5365
  810MPD2     N11932   1.949   2.158  10.135  0.1763  0.2391  0.6380
  810MPD2    H511933   2.033   2.194  10.180  0.9372  2.1665 -2.3494
  810MPD2    N111934   1.689   1.751  10.018 -0.0651 -0.1370 -0.2489
  810MPD2    H711935   1.689   1.649  10.016  0.1657 -0.1439  0.0978
  811MPD2     C11936   0.878   1.982   9.707 -0.3556  0.4397  0.3313
  811MPD2    C111937   1.010   1.985   9.749 -0.2059 -0.6576  0.1312
  811MPD2    C211938   1.079   2.103   9.743 -0.1532 -0.2004 -0.0050
  811MPD2    C311939   1.010   2.222   9.719  0.0290  0.2411 -0.3473
  811MPD2    C411940   0.876   2.218   9.696  0.5130 -0.1383 -0.3639
  811MPD2    C511941   0.815   2.100   9.686  0.3233  0.6093  0.3033
  811MPD2     H11942   1.186   2.107   9.762  0.0282  1.7134 -1.4084
  811MPD2    H111943   0.816   2.302   9.664 -2.5040 -1.6299  1.4160
  811MPD2    H211944   0.817   1.893   9.695  0.1093 -0.0523  1.6312
  811MPD2    H311945   0.717   2.103   9.639  0.8149  0.9948 -0.7066
  811MPD2     N11946   1.085   2.338   9.744  0.0689  0.0999 -0.0971
  811MPD2    H511947   1.184   2.325   9.763  0.3315  4.0664  1.2830
  811MPD2    N111948   1.064   1.866   9.804 -0.5183 -0.6133  0.0004
  811MPD2    H711949   1.012   1.781   9.785 -1.1429  0.3216 -2.4860
  812MPD2     C11950   0.573   1.903  12.045 -1.0429 -0.3202 -0.0855
  812MPD2    C111951   0.475   1.946  12.125  0.0681  0.4007 -0.3574
  812MPD2    C211952   0.417   1.858  12.220  0.2387  0.1520 -0.9140
  812MPD2    C311953   0.441   1.718  12.218 -0.3951 -0.2130 -0.1191
  812MPD2    C411954   0.533   1.677  12.124  0.0898 -0.4821  0.0810
  812MPD2    C511955   0.594   1.768  12.043 -0.3949 -0.4180  0.0125
  812MPD2     H11956   0.335   1.895  12.282  0.4835 -2.4304  0.9312
  812MPD2    H111957   0.566   1.575  12.107  0.2500 -0.5493  0.7905
  812MPD2    H211958   0.633   1.964  11.979  0.7604 -1.3889  0.5594
  812MPD2    H311959   0.670   1.730  11.977  0.3847 -1.3412  1.4637
  812MPD2     N11960   0.378   1.633  12.319 -0.4812  0.1977  0.0321
  812MPD2    H511961   0.313   1.674  12.385  0.5392  0.4743  0.8507
  812MPD2    N111962   0.458   2.090  12.127 -0.0651  0.5402  0.6220
  812MPD2    H711963   0.511   2.140  12.056 -2.7684  0.9207 -1.1211
  813MPD2     C11964   4.528   3.695  12.781 -0.1314 -0.0005 -0.1304
  813MPD2    C111965   4.471   3.817  12.800  0.8075 -0.6489 -0.8571
  813MPD2    C211966   4.340   3.828  12.810 -0.5647  0.2236  0.4584
  813MPD2    C311967   4.268   3.709  12.820  0.1278 -0.2960 -0.3682
  813MPD2    C411968   4.321   3.583  12.802 -0.1682 -0.8413  0.1200
  813MPD2    C511969   4.458   3.581  12.778  0.5804 -0.4245  0.7112
  813MPD2     H11970   4.292   3.924  12.827  0.8409  1.0066 -0.0560
  813MPD2    H111971   4.266   3.490  12.808  0.4793 -1.2802 -0.7565
  813MPD2    H211972   4.636   3.695  12.788 -0.3493 -0.5316  3.2318
  813MPD2    H311973   4.512   3.488  12.764  1.2613 -0.2211  1.9656
  813MPD2     N11974   4.127   3.722  12.855  0.3256  0.2343 -0.1944
  813MPD2    H511975   4.089   3.813  12.879  0.0975 -0.6899  2.9345
  813MPD2    N111976   4.563   3.923  12.823 -0.0279 -0.4911  0.0968
  813MPD2    H711977   4.660   3.894  12.830 -0.1505 -0.6870  0.9301
  814MPD2     C11978   4.637   0.303  12.033  0.1483 -0.8424  0.1115
  814MPD2    C111979   4.647   0.378  11.916  0.3967  0.0818  0.1828
  814MPD2    C211980   4.710   0.498  11.925  0.7155 -0.4298 -0.5342
  814MPD2    C311981   0.016   0.564  12.048 -0.0971 -0.2712 -0.2747
  814MPD2    C411982   4.715   0.490  12.161 -0.3841 -0.2418  0.0887
  814MPD2    C511983   4.671   0.362  12.152  0.6338 -0.1220 -0.1432
  814MPD2     H11984   0.014   0.546  11.834  0.7143 -2.2124 -1.4689
  814MPD2    H111985   0.015   0.534  12.256 -0.9980 -1.3667  0.7887
  814MPD2    H211986   4.609   0.198  12.036 -1.6559 -0.4323 -2.7879
  814MPD2    H311987   4.658   0.312  12.248  0.5502 -0.7267 -0.4707
  814MPD2     N11988   0.097   0.679  12.058 -0.5992  0.1442 -0.2359
  814MPD2    H511989   0.106   0.724  12.149 -3.6706 -1.4341  0.8340
  814MPD2    N111990   4.606   0.325  11.787  0.1928 -0.3688  0.1988
  814MPD2    H711991   4.607   0.389  11.708 -0.7432 -0.6422 -0.0297
  815MPD2     C11992   0.389   3.576  11.998  0.8306  0.3902 -0.2451
  815MPD2    C111993   0.385   3.437  11.993 -0.5090  0.0193 -0.9264
  815MPD2    C211994   0.267   3.373  12.041  0.4371 -0.3662 -0.2171
  815MPD2    C311995   0.156   3.448  12.073  0.6081  0.1569 -0.4981
  815MPD2    C411996   0.169   3.586  12.080 -0.1328  0.6814  0.0718
  815MPD2    C511997   0.288   3.649  12.052 -0.1515  0.2481  0.4970
  815MPD2     H11998   0.244   3.268  12.029  0.6047 -0.2122 -1.8881
  815MPD2    H111999   0.093   3.644  12.131 -1.8127  0.5715 -2.3255
  815MPD2    H212000   0.486   3.620  11.976  0.2854  0.4503 -2.4987
  815MPD2    H312001   0.311   3.753  12.072 -1.3124  0.6722 -0.3469
  815MPD2     N12002   0.030   3.400  12.114 -0.5364  0.0455 -0.3967
  815MPD2    H512003   4.679   3.464  12.119 -1.2234 -0.9059  0.8289
  815MPD2    N112004   0.474   3.365  11.911 -0.5584  0.0487 -0.1784
  815MPD2    H712005   0.540   3.422  11.859 -0.1147  0.9828  1.4202
  816MPD2     C12006   0.918   3.282  17.634 -0.1677  0.3142  0.2349
  816MPD2    C112007   0.812   3.247  17.553 -0.5721 -0.1609  0.5916
  816MPD2    C212008   0.843   3.218  17.418  0.3447  0.0540 -0.5006
  816MPD2    C312009   0.979   3.207  17.382  1.0395 -0.1266 -0.1385
  816MPD2    C412010   1.086   3.230  17.468  0.0097  0.2806  0.0468
  816MPD2    C512011   1.051   3.267  17.594 -0.2252  0.1783  0.0404
  816MPD2     H12012   0.770   3.203  17.339  0.6148  0.1266 -0.7653
  816MPD2    H112013   1.190   3.213  17.441  0.0141 -1.3273  1.0749
  816MPD2    H212014   0.902   3.302   0.028  2.3360 -0.1709  0.7075
  816MPD2    H312015   1.124   3.279  17.673  1.1605  0.3723 -1.2842
  816MPD2     N12016   0.990   3.170  17.250  0.0296  0.0042 -0.8401
  816MPD2    H512017   0.904   3.142  17.205 -1.9287  0.2268  2.7632
  816MPD2    N112018   0.686   3.258  17.599 -0.5490 -0.4322 -0.2795
  816MPD2    H712019   0.671   3.303  17.688  1.3900 -0.9177  0.2989
  817MPD2     C12020   0.551   4.400   9.495  0.2233  0.0825  0.3140
  817MPD2    C112021   0.437   4.327   9.516 -0.7446 -0.4773 -0.7928
  817MPD2    C212022   0.319   4.400   9.523 -0.1662  0.5085 -1.0301
  817MPD2    C312023   0.318   4.542   9.508 -0.1188 -0.3104  0.4077
  817MPD2    C412024   0.434   4.608   9.484 -0.2814  0.0298  0.7450
  817MPD2    C512025   0.549   4.531   9.473 -0.9704 -0.3334  0.0162
  817MPD2     H12026   0.224   4.354   9.550 -0.0176  1.2460  0.7901
  817MPD2    H112027   0.447   4.715   9.494  0.2885 -0.0176  0.5112
  817MPD2    H212028   0.651   4.359   9.496  0.4968  0.7309 -0.2454
  817MPD2    H312029   0.641   4.586   9.451 -0.9087 -0.7259 -0.7227
  817MPD2     N12030   0.204   4.626   9.535  0.2098  0.1792  0.1343
  817MPD2    H512031   0.221   4.726   9.528  0.2290  0.1594 -0.0937
  817MPD2    N112032   0.439   4.190   9.525  0.6409  0.3333  0.3275
  817MPD2    H712033   0.354   4.138   9.512 -0.0512  1.5413 -0.0228
  818MPD2     C12034   4.364   4.308  10.233  0.1607  0.7612 -0.0147
  818MPD2    C112035   4.288   4.234  10.143 -0.0813  0.7020  0.2659
  818MPD2    C212036   4.343   4.152  10.055 -0.1085  0.4293 -0.3832
  818MPD2    C312037   4.477   4.132  10.042  0.0065 -0.2704 -0.2904
  818MPD2    C412038   4.560   4.208  10.125 -0.2545 -0.4619 -0.0709
  818MPD2    C512039   4.506   4.292  10.216  0.5417 -0.4177  0.2306
  818MPD2     H12040   4.280   4.081  10.002 -1.7131  1.3215  0.3259
  818MPD2    H112041   4.668   4.199  10.124 -0.3389 -1.3991 -3.2558
  818MPD2    H212042   4.334   4.375  10.313  1.5257  0.6846  0.5580
  818MPD2    H312043   4.574   4.344  10.283  3.3632  0.4526 -3.3266
  818MPD2     N12044   4.540   4.041   9.957  0.5575  1.0615 -0.2881
  818MPD2    H512045   4.641   4.030   9.956  0.4008 -0.4183 -0.3835
  818MPD2    N112046   4.152   4.237  10.147  0.9661 -0.3642 -0.1617
  818MPD2    H712047   4.107   4.163  10.094 -0.3373  1.7054 -1.9854
  819MPD2     C12048   1.768   1.912  15.387  0.8513 -0.1450 -0.6562
  819MPD2    C112049   1.707   1.788  15.410  0.2979 -0.2200 -0.5162
  819MPD2    C212050   1.747   1.720  15.518  0.0645  0.2279 -0.4399
  819MPD2    C312051   1.848   1.766  15.602 -0.2979  0.8310  0.5989
  819MPD2    C412052   1.900   1.899  15.589  0.0559  0.0253 -0.2295
  819MPD2    C512053   1.855   1.968  15.478  0.3273 -0.6071 -0.1823
  819MPD2     H12054   1.698   1.624  15.530 -1.1811  0.8320 -0.7018
  819MPD2    H112055   1.958   1.954  15.662 -1.0186  0.5387  0.2267
  819MPD2    H212056   1.746   1.969  15.297  1.9104  1.4382  0.1000
  819MPD2    H312057   1.899   2.062  15.447 -2.4258  0.1002 -1.9432
  819MPD2     N12058   1.881   1.681  15.713 -0.2351 -0.3910  0.6675
  819MPD2    H512059   1.818   1.603  15.732  1.6862 -1.1491  3.8692
  819MPD2    N112060   1.610   1.746  15.319  0.1377  0.5451  0.2538
  819MPD2    H712061   1.581   1.811  15.247  0.4303  0.6394  0.2199
  820MPD2     C12062   1.445   1.885  14.472 -0.3237  0.0809 -0.0997
  820MPD2    C112063   1.348   1.934  14.546 -0.4413  0.0964 -0.2151
  820MPD2    C212064   1.352   1.916  14.682  0.6213  0.3641 -0.5454
  820MPD2    C312065   1.431   1.819  14.739  0.2292 -0.1466  0.6103
  820MPD2    C412066   1.520   1.749  14.659 -0.5054 -0.6057 -0.0760
  820MPD2    C512067   1.527   1.797  14.529 -0.4234  0.4632 -0.0018
  820MPD2     H12068   1.275   1.970  14.735  0.8298 -0.3657  0.4856
  820MPD2    H112069   1.589   1.680  14.707  0.1711 -0.4926 -0.8870
  820MPD2    H212070   1.460   1.900  14.365 -0.7173  0.1812 -0.1411
  820MPD2    H312071   1.602   1.757  14.462  1.2968 -0.8627  2.6920
  820MPD2     N12072   1.412   1.775  14.870 -0.4204 -0.4883 -0.0816
  820MPD2    H512073   1.472   1.699  14.900 -0.2320  0.1702  1.2367
  820MPD2    N112074   1.234   1.991  14.475 -0.2257 -0.2168 -0.2569
  820MPD2    H712075   1.244   1.969  14.377 -0.6076 -0.0609 -0.3289
  821MPD2     C12076   2.173   2.543  13.146  0.1886  0.1250 -0.3164
  821MPD2    C112077   2.226   2.490  13.264  0.2684 -0.3508  0.0624
  821MPD2    C212078   2.356   2.455  13.264 -0.2386 -0.0093 -0.1109
  821MPD2    C312079   2.429   2.481  13.145 -0.3546  0.1802 -0.3462
  821MPD2    C412080   2.374   2.539  13.038  0.5673  0.2146 -0.1625
  821MPD2    C512081   2.245   2.563  13.036  0.2400 -0.0559  0.3925
  821MPD2     H12082   2.404   2.419  13.354 -1.5542  2.8549  1.7805
  821MPD2    H112083   2.432   2.547  12.947  0.0475 -0.8616 -0.5881
  821MPD2    H212084   2.067   2.565  13.135  0.4681  1.6843  0.0155
  821MPD2    H312085   2.199   2.610  12.950 -0.7690 -1.1924  0.3129
  821MPD2     N12086   2.571   2.476  13.149  0.3700 -0.4219 -0.2682
  821MPD2    H512087   2.617   2.526  13.073 -1.4507 -0.0734 -1.1549
  821MPD2    N112088   2.155   2.494  13.383 -0.1769  0.4374  0.2007
  821MPD2    H712089   2.208   2.484  13.469  3.8670 -0.8229 -2.4317
  822MPD2     C12090   2.164   3.121  15.769 -0.3345 -0.6451  0.0767
  822MPD2    C112091   2.275   3.146  15.846 -0.0797 -0.3638  0.3751
  822MPD2    C212092   2.257   3.247  15.942  0.1625  0.1760 -0.5440
  822MPD2    C312093   2.136   3.306  15.963  0.1073  0.0883  0.4855
  822MPD2    C412094   2.023   3.261  15.896 -0.4723  0.2208 -0.6022
  822MPD2    C512095   2.040   3.175  15.787 -0.1230 -0.7419  0.2588
  822MPD2     H12096   2.348   3.281  15.991 -0.4590 -0.3929  1.0154
  822MPD2    H112097   1.927   3.307  15.915  0.4263  2.9388 -2.5723
  822MPD2    H212098   2.165   3.039  15.698  0.1607  0.7233 -1.4928
  822MPD2    H312099   1.952   3.129  15.743 -1.0241  1.1619  0.0740
  822MPD2     N12100   2.118   3.397  16.069  1.5042 -0.5325 -0.2981
  822MPD2    H512101   2.023   3.427  16.091  1.9474  0.6944 -0.0622
  822MPD2    N112102   2.405   3.099  15.822 -0.8084  0.2154  0.0734
  822MPD2    H712103   2.477   3.131  15.887 -0.5419 -0.6367  0.1927
  823MPD2     C12104   2.141   3.379  16.925 -0.3803 -0.2492 -0.1754
  823MPD2    C112105   2.189   3.353  16.796 -0.2661  0.1832 -0.6036
  823MPD2    C212106   2.240   3.228  16.762  0.4391 -0.1891  0.0088
  823MPD2    C312107   2.267   3.140  16.865  0.8363  0.3068  0.0457
  823MPD2    C412108   2.217   3.166  16.991  0.6556  0.4936 -0.0135
  823MPD2    C512109   2.159   3.284  17.024 -0.3664  0.0767 -0.0785
  823MPD2     H12110   2.261   3.206  16.658 -0.8026  1.4596 -0.5997
  823MPD2    H112111   2.244   3.102  17.074 -0.8170  0.0018  0.0779
  823MPD2    H212112   2.109   3.476  16.960 -2.0129 -0.4915 -0.9835
  823MPD2    H312113   2.131   3.300  17.127  0.3407  1.4733 -0.1024
  823MPD2     N12114   2.324   3.011  16.844  0.1505  0.1474  0.4496
  823MPD2    H512115   2.319   2.938  16.915  1.1752 -0.9027 -0.5419
  823MPD2    N112116   2.164   3.447  16.696  0.6129 -0.3720 -0.0488
  823MPD2    H712117   2.157   3.542  16.731  0.9000  0.3766 -2.0189
  824MPD2     C12118   2.881   2.515  15.371  0.0390 -0.5194  0.5985
  824MPD2    C112119   2.937   2.541  15.497  0.6675  0.4511  0.5924
  824MPD2    C212120   3.050   2.475  15.532  0.5157 -0.5920  0.3049
  824MPD2    C312121   3.098   2.372  15.454  0.8251 -0.4184 -0.6092
  824MPD2    C412122   3.036   2.341  15.331 -0.7599 -0.4134  0.0354
  824MPD2    C512123   2.933   2.416  15.289 -1.1440 -0.1856 -0.2767
  824MPD2     H12124   3.091   2.485  15.632 -0.1027  0.5799  0.4524
  824MPD2    H112125   3.068   2.256  15.272  0.5837 -0.0479  0.2357
  824MPD2    H212126   2.788   2.560  15.337  0.8852  0.4400 -0.4652
  824MPD2    H312127   2.882   2.392  15.196 -0.1037  2.0962 -1.4654
  824MPD2     N12128   3.211   2.299  15.499  0.1800 -0.2279  0.4775
  824MPD2    H512129   3.269   2.326  15.579  3.1271 -0.8176 -1.4469
  824MPD2    N112130   2.895   2.642  15.582 -0.6343 -0.3464 -0.2160
  824MPD2    H712131   2.955   2.660  15.662  1.3624 -0.9602 -1.5790
  825MPD2     C12132   4.044   2.186  15.247  0.4630 -0.2339  0.5214
  825MPD2    C112133   3.929   2.252  15.244 -0.1901  0.5327  0.5478
  825MPD2    C212134   3.925   2.385  15.194 -0.5700  0.1112 -0.7460
  825MPD2    C312135   4.044   2.434  15.150  0.4633  0.0963  0.4307
  825MPD2    C412136   4.155   2.352  15.134  0.3394 -0.5167  0.9490
  825MPD2    C512137   4.151   2.222  15.181  0.0303 -0.4270 -0.4917
  825MPD2     H12138   3.836   2.446  15.195 -0.0195  0.8952  0.6806
  825MPD2    H112139   4.244   2.378  15.077 -0.4009 -1.1128 -0.4889
  825MPD2    H212140   4.054   2.090  15.296 -2.6126 -0.5504  0.5221
  825MPD2    H312141   4.240   2.160  15.190  0.7898  0.5750 -1.1880
  825MPD2     N12142   4.052   2.566  15.103 -0.4275 -0.4645 -0.2328
  825MPD2    H512143   4.140   2.610  15.080  0.5277 -1.0634  2.2673
  825MPD2    N112144   3.822   2.179  15.305  0.5685  0.2416 -0.3472
  825MPD2    H712145   3.836   2.080  15.326 -1.0966 -0.0221 -0.4426
  826MPD2     C12146   3.777   2.106  13.896 -0.5404  0.4611 -0.6665
  826MPD2    C112147   3.690   2.037  13.813  0.7625  0.5099  0.1107
  826MPD2    C212148   3.571   2.090  13.783  0.2746 -0.1694  0.2060
  826MPD2    C312149   3.526   2.212  13.840 -0.3134  0.0733  0.5137
  826MPD2    C412150   3.613   2.286  13.917  0.5439 -0.6022  0.5102
  826MPD2    C512151   3.734   2.231  13.950  0.4114 -0.4448 -0.3959
  826MPD2     H12152   3.501   2.030  13.725  3.7637 -1.8254 -2.2821
  826MPD2    H112153   3.590   2.377  13.972 -2.1234 -1.4500  0.8333
  826MPD2    H212154   3.863   2.052  13.934 -2.5042  0.0248  3.1650
  826MPD2    H312155   3.799   2.292  14.013 -1.5847  2.9748 -1.6626
  826MPD2     N12156   3.401   2.273  13.833 -0.1805  0.2285  0.3932
  826MPD2    H512157   3.405   2.374  13.843  0.8983  0.1913  0.3328
  826MPD2    N112158   3.734   1.912  13.765  0.6862  0.8063 -0.0493
  826MPD2    H712159   3.836   1.907  13.766  0.5807 -1.5604 -1.6444
  827MPD2     C12160   4.229   2.354  10.231  1.1657 -0.0858  0.2911
  827MPD2    C112161   4.119   2.433  10.248 -0.4310 -0.3519  0.3599
  827MPD2    C212162   4.000   2.402  10.190 -0.0531 -0.5090  0.4522
  827MPD2    C312163   3.991   2.293  10.103 -0.2085  0.3399  0.1373
  827MPD2    C412164   4.101   2.214  10.083  0.2625 -0.0633 -0.2725
  827MPD2    C512165   4.211   2.248  10.152 -0.8844  0.0946 -0.0893
  827MPD2     H12166   3.910   2.460  10.211  1.1735  1.9356 -1.0814
  827MPD2    H112167   4.105   2.117  10.035  0.3251  0.2020 -0.8025
  827MPD2    H212168   4.323   2.367  10.283  1.2751 -0.6690  0.2415
  827MPD2    H312169   4.297   2.181  10.154 -0.8472  0.1420 -0.1121
  827MPD2     N12170   3.869   2.269  10.037 -0.2395  0.0272 -0.1549
  827MPD2    H512171   3.795   2.338  10.041 -0.9391 -0.9228  3.1170
  827MPD2    N112172   4.126   2.529  10.349  0.4361 -0.0214  0.0234
  827MPD2    H712173   4.198   2.515  10.419  1.1502 -0.7261 -0.8474
  828MPD2     C12174   2.520   2.884  12.278  0.3311  0.0775  0.6183
  828MPD2    C112175   2.485   2.833  12.155  0.1673 -0.4341 -0.6139
  828MPD2    C212176   2.571   2.750  12.089  0.1822 -0.2879 -0.0835
  828MPD2    C312177   2.699   2.723  12.140  0.3139  0.5566  0.2259
  828MPD2    C412178   2.732   2.771  12.260  0.5574  0.0789  0.0164
  828MPD2    C512179   2.645   2.846  12.333 -0.0198  0.8951  0.4401
  828MPD2     H12180   2.543   2.720  11.988 -0.5981 -0.9501  0.3309
  828MPD2    H112181   2.828   2.746  12.304  0.5062  0.0966  0.1397
  828MPD2    H212182   2.454   2.932  12.349  0.2649 -1.3374  1.5064
  828MPD2    H312183   2.672   2.888  12.429 -0.5584  1.8898  0.1539
  828MPD2     N12184   2.804   2.664  12.069 -0.3313 -0.7288  0.1628
  828MPD2    H512185   2.891   2.641  12.117  0.6136  0.8500 -0.8077
  828MPD2    N112186   2.359   2.851  12.101 -0.4178 -0.5274  0.1587
  828MPD2    H712187   2.344   2.808  12.011 -0.2343  0.9474 -0.5702
  829MPD2     C12188   2.215   2.780  11.285 -0.6957 -0.1844  0.0930
  829MPD2    C112189   2.085   2.776  11.325 -0.1220  0.0962  0.8890
  829MPD2    C212190   2.056   2.812  11.454 -0.1145 -0.0042 -0.6544
  829MPD2    C312191   2.147   2.861  11.543  0.4122  0.0569  0.0946
  829MPD2    C412192   2.276   2.878  11.493  0.2889 -1.1801 -0.9205
  829MPD2    C512193   2.315   2.838  11.367  0.5069  0.4798  0.2777
  829MPD2     H12194   1.953   2.803  11.486  0.1021 -0.9506 -0.2042
  829MPD2    H112195   2.348   2.909  11.567 -2.0689 -1.6470  1.5822
  829MPD2    H212196   2.251   2.740  11.190  0.2366  0.8233  0.0231
  829MPD2    H312197   2.417   2.822  11.335  0.5935  1.2622  0.1694
  829MPD2     N12198   2.124   2.902  11.676 -0.1902  0.3317 -0.2125
  829MPD2    H512199   2.199   2.954  11.721  0.9153 -0.1116 -1.5633
  829MPD2    N112200   1.993   2.734  11.231  0.0993 -0.3513  0.1967
  829MPD2    H712201   2.036   2.700  11.146 -3.1047  0.2163 -1.6650
  830MPD2     C12202   2.086   1.007  16.160  0.1233 -0.2202 -0.7515
  830MPD2    C112203   2.039   1.081  16.048  0.4625  0.0794 -0.4923
  830MPD2    C212204   2.083   1.042  15.923  0.5757 -0.2108 -0.8301
  830MPD2    C312205   2.178   0.945  15.908 -0.5052 -0.0228 -0.3155
  830MPD2    C412206   2.222   0.881  16.025 -0.5722  0.0720  0.7528
  830MPD2    C512207   2.173   0.907  16.145  0.1452 -0.3353 -0.7347
  830MPD2     H12208   2.068   1.111  15.841  1.0444  0.1208 -0.6396
  830MPD2    H112209   2.293   0.800  16.020 -0.9271 -0.3623  2.8002
  830MPD2    H212210   2.061   1.041  16.259 -2.8236  0.6417 -1.7625
  830MPD2    H312211   2.216   0.866  16.236 -2.3419 -0.6508  0.3102
  830MPD2     N12212   2.234   0.916  15.780  0.0535 -0.6372  0.0289
  830MPD2    H512213   2.297   0.836  15.787  2.2791  1.2451  1.3965
  830MPD2    N112214   1.972   1.202  16.070  0.2752 -0.2093 -0.1437
  830MPD2    H712215   1.958   1.228  16.167  1.9485  0.3400 -0.0695
  831MPD2     C12216   2.631   3.439  16.335  0.7245 -0.4033  0.1950
  831MPD2    C112217   2.619   3.354  16.224  0.3580 -0.2161  0.5881
  831MPD2    C212218   2.519   3.258  16.219  0.6902  0.2826 -0.0629
  831MPD2    C312219   2.432   3.248  16.326 -0.0183 -0.1959 -0.8459
  831MPD2    C412220   2.445   3.331  16.432 -0.3260 -0.2442 -0.0445
  831MPD2    C512221   2.551   3.416  16.441 -0.0695 -0.2113 -0.8966
  831MPD2     H12222   2.500   3.197  16.131 -0.0270 -0.1586  0.4064
  831MPD2    H112223   2.374   3.323  16.514 -0.7013  1.9481 -0.1787
  831MPD2    H212224   2.706   3.516  16.347  1.0328 -0.8122  0.9542
  831MPD2    H312225   2.562   3.477  16.530 -1.2791  0.1344 -0.9921
  831MPD2     N12226   2.315   3.157  16.332 -0.0546  0.7502  0.0023
  831MPD2    H512227   2.249   3.177  16.406  0.3547 -1.1954  0.8917
  831MPD2    N112228   2.720   3.361  16.121 -0.0827  0.5004 -0.0481
  831MPD2    H712229   2.804   3.407  16.153 -0.7868  2.4704 -1.0529
  832MPD2     C12230   1.164   4.325  17.385  0.1723  0.2426  0.1938
  832MPD2    C112231   1.058   4.406  17.366  0.1484  0.3633  0.8224
  832MPD2    C212232   0.958   4.373  17.267 -0.5073  0.4917 -0.3983
  832MPD2    C312233   0.964   4.247  17.209 -0.1621 -0.1105  0.5764
  832MPD2    C412234   1.075   4.163  17.238 -0.1090  0.4767 -0.7525
  832MPD2    C512235   1.170   4.208  17.319  0.4180  0.4866 -0.0792
  832MPD2     H12236   0.873   4.439  17.251  0.2493  1.7831  0.9460
  832MPD2    H112237   1.074   4.063  17.197 -0.2157  1.1231 -2.3418
  832MPD2    H212238   1.245   4.359  17.449 -1.1464  3.0309  0.3593
  832MPD2    H312239   1.258   4.148  17.343  0.5779  0.2378 -1.2908
  832MPD2     N12240   0.868   4.199  17.120  0.0062  0.7408 -0.3858
  832MPD2    H512241   0.871   4.099  17.100 -0.0094  0.0678  3.0113
  832MPD2    N112242   1.065   4.530  17.439  0.4881 -0.4017  0.3818
  832MPD2    H712243   1.151   4.549  17.488  0.4030 -0.0640  0.3993
  833MPD2     C12244   3.241   0.905  12.094 -0.3642  0.3426 -0.2513
  833MPD2    C112245   3.260   0.980  11.981 -0.1423  0.6109 -0.8398
  833MPD2    C212246   3.328   0.932  11.872 -0.4788  0.7480  0.4796
  833MPD2    C312247   3.361   0.800  11.860  0.2771 -0.4399 -0.3569
  833MPD2    C412248   3.339   0.720  11.973  0.3509  0.6664  0.1215
  833MPD2    C512249   3.286   0.777  12.087 -0.0100 -0.5699 -0.0480
  833MPD2     H12250   3.340   1.002  11.790 -0.7917  1.2262  0.8401
  833MPD2    H112251   3.370   0.617  11.985 -0.2516  0.7652  2.4679
  833MPD2    H212252   3.190   0.937  12.184  0.2068  0.4093  0.0487
  833MPD2    H312253   3.287   0.716  12.177  0.8139  0.0991  0.3953
  833MPD2     N12254   3.418   0.734  11.748  0.0534  0.8402  0.1078
  833MPD2    H512255   3.456   0.643  11.769  0.8630  1.0579 -0.3963
  833MPD2    N112256   3.203   1.110  11.985  0.1575  0.2339  0.2053
  833MPD2    H712257   3.154   1.147  12.066  0.3960  0.7187  0.1283
  834MPD2     C12258   3.115   4.650  11.383  0.7221 -0.3632 -0.2272
  834MPD2    C112259   3.089   0.005  11.282  0.6998  0.6009 -0.0177
  834MPD2    C212260   3.145   0.129  11.277 -0.3212 -0.0183  0.2222
  834MPD2    C312261   3.233   0.172  11.369 -0.1920 -0.5083  0.1519
  834MPD2    C412262   3.263   0.086  11.476 -0.0069 -0.2936  0.6598
  834MPD2    C512263   3.206   4.689  11.479 -0.4194  0.0444  0.0643
  834MPD2     H12264   3.113   0.201  11.202  2.5669  1.5343  0.4550
  834MPD2    H112265   3.325   0.111  11.561  0.9745 -1.3319  0.2517
  834MPD2    H212266   3.077   4.549  11.382 -2.2356  0.7438 -1.3167
  834MPD2    H312267   3.228   4.622  11.562 -0.1650 -0.9477 -0.8052
  834MPD2     N12268   3.285   0.306  11.358 -0.1645  0.2190  0.1383
  834MPD2    H512269   3.280   0.359  11.272  1.5541 -0.4833 -0.4055
  834MPD2    N112270   3.004   4.674  11.178  0.4232  0.0681  0.4759
  834MPD2    H712271   2.973   4.578  11.189 -0.2246  0.2041 -0.1399
  835MPD2     C12272   3.390   2.599  11.300  0.2545  1.0327 -0.1855
  835MPD2    C112273   3.342   2.713  11.353 -0.0732 -0.0106 -0.4839
  835MPD2    C212274   3.399   2.765  11.461  0.2373  0.2777  0.9430
  835MPD2    C312275   3.510   2.707  11.517 -0.5473  0.5132  0.6951
  835MPD2    C412276   3.563   2.588  11.465  0.0826 -0.0086  0.5674
  835MPD2    C512277   3.497   2.533  11.359  0.7900  0.1737  0.4968
  835MPD2     H12278   3.355   2.849  11.513  0.2583  0.6645  0.3317
  835MPD2    H112279   3.641   2.530  11.512  1.1667  1.6981  0.8873
  835MPD2    H212280   3.345   2.548  11.215  0.2708 -1.0127  1.0563
  835MPD2    H312281   3.540   2.445  11.311  3.2190  1.1680  0.8317
  835MPD2     N12282   3.559   2.753  11.639  0.0995 -0.3704 -0.3715
  835MPD2    H512283   3.624   2.694  11.689  1.7718  0.8813 -1.0671
  835MPD2    N112284   3.217   2.766  11.312 -0.4991 -0.3611 -0.3611
  835MPD2    H712285   3.182   2.841  11.371  0.4556 -0.1393 -0.0841
  836MPD2     C12286   3.145   2.987  12.131 -0.3892  1.3459  0.0764
  836MPD2    C112287   3.260   3.053  12.166 -0.0571  0.6012  0.3752
  836MPD2    C212288   3.268   3.116  12.290 -0.3172  1.0919  0.4820
  836MPD2    C312289   3.172   3.114  12.387  0.1225 -0.4665  0.0584
  836MPD2    C412290   3.060   3.036  12.355 -0.5999 -0.6213 -0.9898
  836MPD2    C512291   3.047   2.974  12.235  0.0846 -0.7946  0.1528
  836MPD2     H12292   3.358   3.176  12.302  0.5580  0.1933 -1.5484
  836MPD2    H112293   2.982   3.021  12.428  0.6176  0.5157  0.5372
  836MPD2    H212294   3.140   2.929  12.039 -0.8053  0.4280  0.6810
  836MPD2    H312295   2.964   2.907  12.217 -0.5378  0.4583 -1.6421
  836MPD2     N12296   3.181   3.188  12.509 -0.0111 -0.0227 -0.1401
  836MPD2    H512297   3.117   3.161  12.583 -0.8813  1.5880 -0.3133
  836MPD2    N112298   3.361   3.051  12.074 -0.0312  0.5814  0.0081
  836MPD2    H712299   3.343   2.992  11.993  0.3640 -1.0423  1.1147
  837MPD2     C12300   1.556   2.837   9.409  0.7739 -0.4348  0.1175
  837MPD2    C112301   1.449   2.876   9.488  0.1415 -0.1020  0.2270
  837MPD2    C212302   1.390   3.001   9.462 -0.2645  0.1431 -0.7280
  837MPD2    C312303   1.435   3.078   9.361 -0.3185  0.4260  0.7717
  837MPD2    C412304   1.540   3.037   9.275 -0.3853 -0.1284 -0.0114
  837MPD2    C512305   1.595   2.918   9.300  0.7654  0.1914  0.4302
  837MPD2     H12306   1.310   3.037   9.527  1.8195 -0.0825  1.9849
  837MPD2    H112307   1.566   3.097   9.189 -2.0341 -0.5294 -0.7888
  837MPD2    H212308   1.605   2.741   9.406  0.5458 -0.5527  0.0943
  837MPD2    H312309   1.663   2.878   9.225 -0.7570 -0.1700 -0.7407
  837MPD2     N12310   1.372   3.201   9.352 -0.6230 -0.3130  0.4607
  837MPD2    H512311   1.287   3.218   9.406 -0.9070 -0.2167 -0.0183
  837MPD2    N112312   1.400   2.804   9.599 -0.1686  0.0530  0.3269
  837MPD2    H712313   1.342   2.865   9.656  0.8692  0.4225  0.9970
  838MPD2     C12314   4.382   1.425  11.889  0.0544 -0.0406  0.0621
  838MPD2    C112315   4.387   1.287  11.892 -0.2550 -0.1477 -0.6938
  838MPD2    C212316   4.267   1.220  11.920 -0.0006  0.0022  0.0845
  838MPD2    C312317   4.158   1.287  11.970 -0.0605  0.0614  0.0211
  838MPD2    C412318   4.171   1.423  11.998 -0.8957  0.2184  0.2576
  838MPD2    C512319   4.284   1.489  11.950 -0.5855 -0.2966 -0.4535
  838MPD2     H12320   4.275   1.113  11.908  1.7167  0.0066  1.1170
  838MPD2    H112321   4.089   1.485  12.033  0.8667  2.8432 -0.2941
  838MPD2    H212322   4.471   1.480  11.861 -0.6289  1.4467  0.7996
  838MPD2    H312323   4.297   1.591  11.985  0.3301 -0.5315 -0.0876
  838MPD2     N12324   4.032   1.222  11.989  0.2310 -0.7274  0.3861
  838MPD2    H512325   3.952   1.279  12.016 -2.3416 -4.1113 -0.0461
  838MPD2    N112326   4.492   1.211  11.833  0.0074 -0.1022  0.5273
  838MPD2    H712327   4.488   1.111  11.847 -2.7863 -0.3282 -1.9840
  839MPD2     C12328   4.206   0.499  11.717  0.1365 -0.0104 -0.4843
  839MPD2    C112329   4.245   0.533  11.590 -0.2776 -0.0096 -0.5304
  839MPD2    C212330   4.362   0.602  11.571  1.2299  0.2745  0.6552
  839MPD2    C312331   4.438   0.654  11.675  0.4852 -0.3938  0.6653
  839MPD2    C412332   4.400   0.608  11.802  0.2246  0.1107  0.5110
  839MPD2    C512333   4.290   0.536  11.820  0.0058 -0.0564  0.6509
  839MPD2     H12334   4.384   0.628  11.468 -0.6481 -2.9028 -0.5423
  839MPD2    H112335   4.454   0.652  11.885  0.8798  1.5392 -0.6685
  839MPD2    H212336   4.118   0.436  11.731 -0.1256  0.7928  1.4472
  839MPD2    H312337   4.259   0.502  11.918  0.7229 -0.4003  0.7598
  839MPD2     N12338   4.532   0.756  11.667 -0.6987 -0.9769 -0.1471
  839MPD2    H512339   4.568   0.803  11.750 -1.2457  0.4610 -0.7308
  839MPD2    N112340   4.155   0.503  11.483 -0.3701 -0.2681 -0.3068
  839MPD2    H712341   4.085   0.432  11.503  0.5494 -1.5038 -1.4767
  840MPD2     C12342   4.503   3.086  10.392  0.2505 -0.3764 -0.6163
  840MPD2    C112343   4.482   3.028  10.516 -0.4106  0.2914 -0.1318
  840MPD2    C212344   4.566   3.083  10.623  0.2229 -0.8854  0.0259
  840MPD2    C312345   4.671   3.173  10.591  0.2769 -0.8167 -0.0000
  840MPD2    C412346   4.670   3.220  10.466 -0.1292 -0.1038  0.1153
  840MPD2    C512347   4.591   3.186  10.366  0.0357  0.0606  0.3575
  840MPD2     H12348   4.547   3.050  10.724 -3.3602 -0.0677 -0.3880
  840MPD2    H112349   0.016   3.297  10.445 -1.3905  1.2236  0.5760
  840MPD2    H212350   4.443   3.047  10.311 -0.2296  0.3436 -0.6085
  840MPD2    H312351   4.594   3.242  10.273  0.3189  1.9306  1.4996
  840MPD2     N12352   0.024   3.247  10.680 -0.0649  0.4766 -0.4038
  840MPD2    H512353   0.101   3.306  10.649  0.6348 -0.5882 -0.6917
  840MPD2    N112354   4.386   2.934  10.522 -0.6936  0.1660 -0.1018
  840MPD2    H712355   4.335   2.907  10.439  0.1203  0.0285 -0.5471
  841MPD2     C12356   4.163   3.512  14.345 -0.3691  0.6667  0.2974
  841MPD2    C112357   4.232   3.460  14.454 -0.4844 -0.5523 -0.1355
  841MPD2    C212358   4.289   3.541  14.545  0.2331 -0.0286  0.0625
  841MPD2    C312359   4.281   3.671  14.538  0.4092 -0.2434 -0.0329
  841MPD2    C412360   4.202   3.729  14.440  0.1110  0.5232 -0.5394
  841MPD2    C512361   4.157   3.651  14.336  0.1493 -0.4821  0.5511
  841MPD2     H12362   4.325   3.493  14.635 -1.5479 -0.1820  0.6942
  841MPD2    H112363   4.172   3.833  14.439 -0.4633  0.3690  0.3765
  841MPD2    H212364   4.129   3.451  14.263 -0.2663 -0.9368  1.4452
  841MPD2    H312365   4.097   3.695  14.256 -0.2849 -0.4327  0.9022
  841MPD2     N12366   4.342   3.753  14.642 -0.0406  0.0248 -0.4580
  841MPD2    H512367   4.398   3.712  14.717 -1.6693 -0.4979  0.4936
  841MPD2    N112368   4.232   3.320  14.496  0.0202 -0.0750 -0.6918
  841MPD2    H712369   4.260   3.300  14.592 -0.4622  3.4427  0.2162
  842MPD2     C12370   4.628   0.003  16.488 -0.0613  0.8317  1.2310
  842MPD2    C112371   4.569   4.613  16.440  0.1405  0.7915  0.3299
  842MPD2    C212372   4.619   4.496  16.493  0.0486  0.4547 -0.0729
  842MPD2    C312373   4.678   4.489  16.617  0.3317 -0.3578 -0.1284
  842MPD2    C412374   4.718   4.608  16.672  0.8556  0.0148  0.1939
  842MPD2    C512375   4.701   4.728  16.604 -0.2731  0.0791 -0.4600
  842MPD2     H12376   4.587   4.404  16.447  0.4224 -0.0223  0.6216
  842MPD2    H112377   0.036   4.615  16.770 -0.5339 -0.4312  0.8806
  842MPD2    H212378   4.602   0.097  16.440  2.0730  0.5036 -0.6353
  842MPD2    H312379   0.006   0.092  16.652 -3.0920  0.8724 -0.0679
  842MPD2     N12380   4.706   4.368  16.682  0.7341  0.1557 -0.5220
  842MPD2    H512381   0.027   4.382  16.771 -1.3601  0.8228  0.5272
  842MPD2    N112382   4.475   4.619  16.338 -0.2340  0.5106  0.2317
  842MPD2    H712383   4.454   4.713  16.304  0.1026  0.9513  1.2183
  843MPD2     C12384   2.243   4.310   0.100  0.2522 -0.5084  0.4447
  843MPD2    C112385   2.223   4.354   0.229  0.0865 -0.0090 -0.1236
  843MPD2    C212386   2.132   4.461   0.260 -0.9005  0.0597  0.3597
  843MPD2    C312387   2.067   4.519   0.147 -0.1774  0.3657  0.6474
  843MPD2    C412388   2.089   4.475   0.018 -0.5674 -0.6323 -0.0629
  843MPD2    C512389   2.178   4.373  17.703  0.1807  0.0802 -0.2354
  843MPD2     H12390   2.114   4.492   0.363  2.3188  1.3588  0.5142
  843MPD2    H112391   2.043   4.521  17.642  0.2064 -0.0054 -0.1420
  843MPD2    H212392   2.313   4.233   0.072  0.7315  0.2716 -0.5172
  843MPD2    H312393   2.193   4.342  17.600  1.2204 -2.3770  0.6346
  843MPD2     N12394   1.982   4.635   0.170  0.5903 -0.1676 -0.0316
  843MPD2    H512395   1.974   4.671   0.265 -0.2739 -0.4850  0.0141
  843MPD2    N112396   2.317   4.296   0.323 -0.3706  0.2186 -0.0935
  843MPD2    H712397   2.382   4.226   0.289 -0.5698  1.5956 -3.3104
  844MPD2     C12398   0.684   4.294  16.458 -0.0964 -0.5658  0.0183
  844MPD2    C112399   0.742   4.177  16.507 -0.3837  0.3283  0.9525
  844MPD2    C212400   0.843   4.190  16.600  0.1258  0.8414  1.1892
  844MPD2    C312401   0.872   4.308  16.652 -0.2585 -0.5946 -0.0272
  844MPD2    C412402   0.798   4.420  16.623  0.0710  0.6918 -0.2428
  844MPD2    C512403   0.705   4.409  16.525  0.1265 -0.7952 -0.3343
  844MPD2     H12404   0.886   4.095  16.632 -1.4830 -0.3837 -0.2672
  844MPD2    H112405   0.806   4.518  16.668  0.5288  0.2817  0.5608
  844MPD2    H212406   0.615   4.297  16.375  2.1741 -1.7387 -1.9530
  844MPD2    H312407   0.662   4.504  16.499 -0.5065 -1.0819 -0.3271
  844MPD2     N12408   0.973   4.311  16.749 -0.2213 -0.4721 -0.0532
  844MPD2    H512409   1.009   4.219  16.770 -0.4119 -1.0139 -2.0998
  844MPD2    N112410   0.712   4.054  16.444 -0.3436  0.6069  0.8342
  844MPD2    H712411   0.766   3.976  16.479 -1.1866  0.7223  2.3962
  845MPD2     C12412   1.269   0.373  17.226 -1.0931  0.4126 -0.6581
  845MPD2    C112413   1.157   0.306  17.259 -0.3648  0.2660  0.2662
  845MPD2    C212414   1.147   0.169  17.237  0.5401  0.2628 -0.2287
  845MPD2    C312415   1.251   0.104  17.179 -0.2670  0.5110  0.3048
  845MPD2    C412416   1.360   0.171  17.145 -0.2070 -0.4459  0.5279
  845MPD2    C512417   1.378   0.308  17.168  0.1805  0.0466 -0.2792
  845MPD2     H12418   1.062   0.113  17.274 -1.1611  3.5238  0.8063
  845MPD2    H112419   1.443   0.123  17.094 -0.8127 -0.4909 -0.4199
  845MPD2    H212420   1.285   0.477  17.253 -0.4823  0.3520 -0.7975
  845MPD2    H312421   1.465   0.368  17.141  1.8126 -2.5322 -0.6701
  845MPD2     N12422   1.224   4.697  17.146 -0.0527  0.4426 -0.4600
  845MPD2    H512423   1.130   4.660  17.136  0.3258 -1.4631  3.3413
  845MPD2    N112424   1.065   0.384  17.335 -0.4237  0.8012 -0.4219
  845MPD2    H712425   1.084   0.483  17.334 -1.7541  1.0630  0.5031
  846MPD2     C12426   2.614   0.355  13.568  0.8035  0.5499 -0.0096
  846MPD2    C112427   2.499   0.437  13.555  0.3207  0.3282 -0.1324
  846MPD2    C212428   2.426   0.444  13.673 -0.2988  0.4614 -0.9734
  846MPD2    C312429   2.456   0.380  13.794 -0.0571  0.0854 -1.0405
  846MPD2    C412430   2.568   0.301  13.791 -0.2708 -0.3715  0.1075
  846MPD2    C512431   2.644   0.296  13.683 -0.3452 -0.1598 -0.4009
  846MPD2     H12432   2.342   0.513  13.673  0.4257  1.3425  0.4409
  846MPD2    H112433   2.603   0.248  13.879  1.4859 -1.1377 -1.0583
  846MPD2    H212434   2.683   0.339  13.486 -0.5792 -0.9236 -0.8906
  846MPD2    H312435   2.736   0.239  13.697  1.6902  3.4029  0.6544
  846MPD2     N12436   2.369   0.394  13.909  0.4412  0.0205 -0.1922
  846MPD2    H512437   2.289   0.455  13.896  0.2715 -0.1958 -0.1706
  846MPD2    N112438   2.458   0.506  13.443  0.7209  0.1285 -0.2748
  846MPD2    H712439   2.386   0.575  13.461 -0.6730 -1.3326 -0.2589
  847MPD2     C12440   2.114   1.161  14.298 -0.1661  1.0850  0.2870
  847MPD2    C112441   2.176   1.156  14.420 -0.1541  0.1055  0.0601
  847MPD2    C212442   2.296   1.086  14.430 -0.0624 -0.2644 -0.2797
  847MPD2    C312443   2.357   1.039  14.313 -0.2964  0.3015  0.1222
  847MPD2    C412444   2.292   1.042  14.196 -0.2878  1.1948 -0.8142
  847MPD2    C512445   2.169   1.102  14.183 -0.1170  0.3027  0.3020
  847MPD2     H12446   2.348   1.095  14.525 -1.6527  1.5717  0.4383
  847MPD2    H112447   2.335   1.013  14.101  0.7993  0.0155  0.0335
  847MPD2    H212448   2.022   1.217  14.285 -1.1443 -0.4253  0.5723
  847MPD2    H312449   2.110   1.118  14.094  1.8781  1.3169 -0.8134
  847MPD2     N12450   2.490   0.983  14.323 -0.1741 -0.1960 -0.0442
  847MPD2    H512451   2.523   0.957  14.231  0.4644  0.9522 -0.1492
  847MPD2    N112452   2.134   1.235  14.537  0.2026  0.2593  0.2046
  847MPD2    H712453   2.185   1.212  14.622  0.1841 -1.2026 -0.1770
  848MPD2     C12454   0.306   4.380  16.476  0.1789  0.6985 -0.7388
  848MPD2    C112455   0.373   4.449  16.572  0.3836  0.6289  0.4888
  848MPD2    C212456   0.391   4.588  16.563  0.8939  0.6568  0.1524
  848MPD2    C312457   0.318   4.658  16.464 -0.2734 -0.0002 -0.6311
  848MPD2    C412458   0.239   4.582  16.381  0.5825  0.1914  0.4710
  848MPD2    C512459   0.237   4.444  16.375  0.0918 -0.4073 -0.2315
  848MPD2     H12460   0.447   4.631  16.644 -0.4363  0.5249  1.1430
  848MPD2    H112461   0.194   4.642  16.302  0.8246  1.0117  0.9471
  848MPD2    H212462   0.304   4.272  16.483  0.7949  0.8780  2.3680
  848MPD2    H312463   0.168   4.398  16.306  0.8560 -1.7522 -0.0921
  848MPD2     N12464   0.306   0.076  16.450 -0.7176  0.4568  0.0196
  848MPD2    H512465   0.257   0.099  16.365  2.8308  0.9228 -1.8977
  848MPD2    N112466   0.430   4.389  16.687  1.0870  0.0702 -0.0079
  848MPD2    H712467   0.475   4.454  16.750 -0.0959  0.4134  0.4915
  849MPD2     C12468   4.396   3.777  13.857 -0.1221 -0.7738  0.1909
  849MPD2    C112469   4.490   3.696  13.914 -0.9850 -0.3091 -0.4237
  849MPD2    C212470   4.538   3.721  14.043  1.0250  0.1641  0.3246
  849MPD2    C312471   4.479   3.829  14.114 -0.5542 -0.0977  0.1131
  849MPD2    C412472   4.388   3.910  14.057  0.1748 -0.4379  0.0113
  849MPD2    C512473   4.338   3.884  13.930  0.1429 -0.0308 -0.2013
  849MPD2     H12474   4.615   3.662  14.090  0.8112  0.1159  0.6103
  849MPD2    H112475   4.341   3.984  14.120 -0.7363 -0.7141 -0.3558
  849MPD2    H212476   4.367   3.761  13.753  1.6577  1.4481 -0.6498
  849MPD2    H312477   4.273   3.950  13.875 -1.2368  0.2293  1.7347
  849MPD2     N12478   4.516   3.862  14.246  0.4436 -0.0863  0.1904
  849MPD2    H512479   4.493   3.955  14.279  0.5122  0.5937 -1.6840
  849MPD2    N112480   4.553   3.584  13.851 -0.5815  0.3144 -0.5865
  849MPD2    H712481   4.612   3.520  13.904 -1.7145  0.1374  0.4720
  850MPD2     C12482   3.061   2.085  14.742 -0.2216 -0.3932 -0.0390
  850MPD2    C112483   3.050   2.107  14.876 -0.1066  0.0036 -0.8065
  850MPD2    C212484   3.149   2.168  14.949 -0.0173  0.3449  0.8429
  850MPD2    C312485   3.267   2.206  14.888  0.0865  0.6519 -0.1999
  850MPD2    C412486   3.272   2.179  14.748  1.0191  0.1109 -0.3847
  850MPD2    C512487   3.177   2.117  14.677  0.0380  0.0358  0.2890
  850MPD2     H12488   3.134   2.190  15.054  0.7882  0.0037  1.0336
  850MPD2    H112489   3.365   2.189  14.693  0.9293 -0.8599 -0.7050
  850MPD2    H212490   2.988   2.031  14.682 -1.1723 -0.2765  1.0125
  850MPD2    H312491   3.204   2.073  14.582  1.8819  5.6173 -1.7234
  850MPD2     N12492   3.371   2.271  14.954  0.4494 -0.1591 -0.4951
  850MPD2    H512493   3.445   2.298  14.890  0.9548  1.0528  0.6166
  850MPD2    N112494   2.938   2.045  14.936 -0.1102 -0.2720  0.3153
  850MPD2    H712495   2.862   2.016  14.876  1.2497 -1.4979 -0.8320
  851MPD2     C12496   2.871   1.479  15.411  0.3749  0.0423  0.0829
  851MPD2    C112497   2.759   1.508  15.345  0.3341  0.0540 -0.4957
  851MPD2    C212498   2.664   1.407  15.344  0.2132  0.1763 -0.0255
  851MPD2    C312499   2.678   1.285  15.420 -0.1230  0.6370  0.4008
  851MPD2    C412500   2.789   1.275  15.498 -0.2314  0.2392  0.1178
  851MPD2    C512501   2.883   1.370  15.496 -0.1454  0.4877 -0.0273
  851MPD2     H12502   2.571   1.427  15.291  0.2729 -2.9161 -1.2873
  851MPD2    H112503   2.812   1.185  15.553 -1.2243  0.1770  0.4429
  851MPD2    H212504   2.957   1.546  15.411  2.9296 -3.2196  1.0197
  851MPD2    H312505   2.971   1.352  15.557 -0.9080 -3.9046 -0.2467
  851MPD2     N12506   2.574   1.184  15.407  0.2758  0.2952  0.3507
  851MPD2    H512507   2.490   1.203  15.353  0.9062 -1.5635 -1.2740
  851MPD2    N112508   2.749   1.633  15.274  0.6540  0.0980 -0.1579
  851MPD2    H712509   2.813   1.705  15.304  0.7619  0.5499 -1.4781
  852MPD2     C12510   2.194   4.379   9.601  0.0911 -0.2405 -0.2090
  852MPD2    C112511   2.257   4.407   9.720 -0.3096 -0.1906 -0.0910
  852MPD2    C212512   2.386   4.454   9.714  0.4711  0.2859 -0.0761
  852MPD2    C312513   2.457   4.469   9.594 -0.6321  0.5294  0.2232
  852MPD2    C412514   2.394   4.443   9.476  0.3167 -0.7979  0.5114
  852MPD2    C512515   2.261   4.403   9.485 -0.3537 -0.8405  0.3148
  852MPD2     H12516   2.437   4.488   9.803 -0.3514 -2.1358  1.2891
  852MPD2    H112517   2.451   4.446   9.384 -1.3087  0.7612 -0.4383
  852MPD2    H212518   2.093   4.346   9.582 -0.8440  1.6758  1.4466
  852MPD2    H312519   2.211   4.390   9.390 -0.9390 -0.8523  0.6265
  852MPD2     N12520   2.591   4.516   9.608 -0.2932  0.6574 -0.1641
  852MPD2    H512521   2.625   4.532   9.702  0.2823 -1.7454  0.0508
  852MPD2    N112522   2.191   4.397   9.846  0.2901  0.6440 -0.2721
  852MPD2    H712523   2.231   4.445   9.926 -0.0868 -1.1974  1.0272
  853MPD2     C12524   3.489   0.022  12.086  1.0737  0.3152 -0.0209
  853MPD2    C112525   3.625   0.001  12.089  0.0296  0.6833  0.1906
  853MPD2    C212526   3.695   4.697  11.978 -0.2443 -1.1553  0.2554
  853MPD2    C312527   3.625   4.679  11.860  0.4452  0.3802 -0.1049
  853MPD2    C412528   3.491   4.705  11.850 -0.7706 -0.6953 -0.6628
  853MPD2    C512529   3.421   0.008  11.962 -0.7868 -0.2908 -0.4558
  853MPD2     H12530   3.802   4.682  11.982 -0.1316 -0.6768 -1.1186
  853MPD2    H112531   3.433   4.694  11.760 -1.6681  1.6689 -0.3917
  853MPD2    H212532   3.427   0.034  12.175  0.2898  2.2335 -0.8496
  853MPD2    H312533   3.318   0.041  11.964 -1.0518 -1.2227  1.3892
  853MPD2     N12534   3.698   4.636  11.745 -0.3330  0.1327 -0.0061
  853MPD2    H512535   3.652   4.627  11.655 -0.8695 -1.1486  0.3862
  853MPD2    N112536   3.707   0.006  12.202 -0.7978 -0.0080 -0.2083
  853MPD2    H712537   3.804   4.705  12.196 -1.0023 -0.4358 -1.4246
  854MPD2     C12538   1.091   4.306  12.407  0.1578 -0.1157 -0.4071
  854MPD2    C112539   1.081   4.402  12.501 -0.4139 -0.3113 -0.2322
  854MPD2    C212540   1.122   4.371  12.632 -0.4725 -0.4222  0.1443
  854MPD2    C312541   1.167   4.243  12.664  0.1902 -0.5467 -0.1236
  854MPD2    C412542   1.154   4.141  12.573 -0.2850  0.4919 -0.2686
  854MPD2    C512543   1.132   4.180  12.442 -0.0892  0.5103  0.8043
  854MPD2     H12544   1.133   4.445  12.711 -0.8327 -0.9610  0.6996
  854MPD2    H112545   1.169   4.036  12.593 -0.9042 -0.1255 -3.0771
  854MPD2    H212546   1.054   4.320  12.306  0.5570 -3.9394 -1.1083
  854MPD2    H312547   1.130   4.104  12.365  1.2413 -0.0555  1.3266
  854MPD2     N12548   1.227   4.192  12.784  0.9161  0.1880 -0.1381
  854MPD2    H512549   1.249   4.093  12.782  1.7784  0.4069 -1.8196
  854MPD2    N112550   1.030   4.527  12.458  0.2906  0.0246  0.1773
  854MPD2    H712551   0.999   4.534  12.361  0.1542 -2.3063  0.0434
  855MPD2     C12552   1.296   4.325  13.817 -0.9488 -0.2613 -0.4117
  855MPD2    C112553   1.402   4.238  13.785 -0.3449  0.0325  0.1434
  855MPD2    C212554   1.414   4.201  13.650 -0.1441 -0.2361  0.1040
  855MPD2    C312555   1.319   4.250  13.557  0.2070 -0.1709  0.3885
  855MPD2    C412556   1.217   4.335  13.596  0.0585 -0.4979 -0.1921
  855MPD2    C512557   1.204   4.372  13.728 -0.3483 -0.5959 -0.3401
  855MPD2     H12558   1.493   4.136  13.616  0.6532  1.5153 -1.3864
  855MPD2    H112559   1.148   4.366  13.519  0.1841 -0.8381 -0.4403
  855MPD2    H212560   1.297   4.363  13.919 -2.0605  0.8578 -0.8142
  855MPD2    H312561   1.117   4.429  13.757  0.1666 -1.1331  2.2561
  855MPD2     N12562   1.328   4.218  13.414 -0.4452 -0.1634  0.2221
  855MPD2    H512563   1.255   4.253  13.353 -0.1409  1.0196  0.5508
  855MPD2    N112564   1.487   4.187  13.879 -0.5549 -0.0213  0.0384
  855MPD2    H712565   1.565   4.133  13.842 -0.0956  0.4106  0.3761
  856MPD2     C12566   3.353   0.382  13.405 -0.3302  0.0212  0.1665
  856MPD2    C112567   3.445   0.445  13.486 -0.1259  0.2138 -0.4526
  856MPD2    C212568   3.401   0.558  13.554  0.5724 -0.8190 -0.2557
  856MPD2    C312569   3.271   0.597  13.558 -0.4029 -0.2120 -0.7745
  856MPD2    C412570   3.176   0.524  13.492 -0.5816 -0.2424 -0.5837
  856MPD2    C512571   3.222   0.424  13.415 -0.8123 -0.4187 -0.0163
  856MPD2     H12572   3.469   0.616  13.615 -1.4579  0.4676  0.7808
  856MPD2    H112573   3.070   0.547  13.489 -0.1520  1.7492 -0.3911
  856MPD2    H212574   3.377   0.309  13.329 -0.1139  0.1846  0.0799
  856MPD2    H312575   3.152   0.376  13.347 -0.9034  0.4811 -0.5647
  856MPD2     N12576   3.226   0.715  13.624 -0.1753 -0.1423 -0.0583
  856MPD2    H512577   3.127   0.737  13.615  0.0135  0.2462 -1.1187
  856MPD2    N112578   3.584   0.417  13.493  0.6270 -0.0327  0.2022
  856MPD2    H712579   3.632   0.471  13.563  0.0302  0.2349  0.4088
  857MPD2     C12580   0.347   2.184  13.191 -0.3984  0.1014 -0.7430
  857MPD2    C112581   0.364   2.258  13.075 -0.0464 -0.3601  0.0486
  857MPD2    C212582   0.420   2.382  13.087 -0.2476 -0.1247 -0.0186
  857MPD2    C312583   0.459   2.438  13.208 -0.1808  0.4217 -0.4834
  857MPD2    C412584   0.453   2.363  13.321  0.4834  0.1354  0.3655
  857MPD2    C512585   0.389   2.239  13.312 -0.4127  0.5640 -0.3422
  857MPD2     H12586   0.440   2.445  13.001  1.9542 -2.0203 -0.9112
  857MPD2    H112587   0.494   2.400  13.414  0.4951 -1.0583  0.8393
  857MPD2    H212588   0.291   2.091  13.193 -0.6276  0.3648  3.6247
  857MPD2    H312589   0.372   2.179  13.401 -0.0442 -0.5161 -0.9965
  857MPD2     N12590   0.515   2.564  13.192 -0.0116  0.5382  0.4701
  857MPD2    H512591   0.499   2.605  13.101  0.5071  0.5071  0.3649
  857MPD2    N112592   0.323   2.190  12.955 -0.0234  0.4961  0.1862
  857MPD2    H712593   0.292   2.094  12.960  0.3113  0.3884  0.2035
  858MPD2     C12594   0.317   1.808  16.451 -0.1922  0.7842  0.4376
  858MPD2    C112595   0.449   1.775  16.458  0.2707  0.0771  0.4884
  858MPD2    C212596   0.522   1.829  16.564  0.1779  0.6478 -0.0084
  858MPD2    C312597   0.472   1.916  16.655  0.7370 -0.4392  0.4726
  858MPD2    C412598   0.338   1.955  16.639  0.5970 -0.9072 -0.1144
  858MPD2    C512599   0.260   1.898  16.539 -0.4801 -0.2097  0.6854
  858MPD2     H12600   0.621   1.790  16.583 -0.4889  0.0560  2.2200
  858MPD2    H112601   0.282   2.011  16.713  0.0844 -1.3967 -0.1351
  858MPD2    H212602   0.259   1.764  16.371  2.7762  0.5993 -1.5971
  858MPD2    H312603   0.153   1.910  16.531 -0.8168 -2.4360  1.8052
  858MPD2     N12604   0.536   1.975  16.764 -0.0497  0.2781  0.2657
  858MPD2    H512605   0.482   2.041  16.818 -1.8766 -0.6464 -0.4457
  858MPD2    N112606   0.490   1.664  16.379  1.0547  0.0505 -0.2980
  858MPD2    H712607   0.424   1.641  16.305  0.9630 -0.8551  0.0608
  859MPD2     C12608   4.168   0.025  15.687  0.4447 -0.1942  0.2655
  859MPD2    C112609   4.232   4.654  15.614 -0.0101  0.1549  0.7869
  859MPD2    C212610   4.224   4.524  15.654 -0.2566 -0.5587  0.5283
  859MPD2    C312611   4.144   4.483  15.756 -0.2459 -0.4210 -0.0177
  859MPD2    C412612   4.068   4.585  15.829 -0.4457  0.1637 -0.0213
  859MPD2    C512613   4.089   4.714  15.798  0.2019  0.0018 -0.4272
  859MPD2     H12614   4.268   4.454  15.585  0.9625 -1.0829  1.8273
  859MPD2    H112615   4.003   4.561  15.912 -2.5487  0.7126 -1.5207
  859MPD2    H212616   4.178   0.130  15.663  0.4041 -0.5073 -1.1089
  859MPD2    H312617   4.022   0.062  15.837 -0.2786  0.4588 -2.1204
  859MPD2     N12618   4.132   4.345  15.789  0.0742  0.5540  0.3722
  859MPD2    H512619   4.064   4.324  15.863 -0.5007 -0.1070 -0.3464
  859MPD2    N112620   4.304   4.694  15.498  0.0692 -0.4493  0.3051
  859MPD2    H712621   4.282   0.056  15.456 -1.7379 -0.7915  0.5229
  860MPD2     C12622   2.184   3.992  11.450  0.4570  0.5817 -0.0323
  860MPD2    C112623   2.201   4.095  11.543  0.4006  0.2764  1.3085
  860MPD2    C212624   2.121   4.088  11.655  0.1983  0.2882  1.0061
  860MPD2    C312625   2.050   3.976  11.690  0.1683  0.4443  0.4754
  860MPD2    C412626   2.047   3.870  11.604  0.4525  0.2080  0.5205
  860MPD2    C512627   2.112   3.883  11.482 -0.5479 -0.5610  0.7062
  860MPD2     H12628   2.123   4.176  11.719 -1.3478 -0.3607  1.9560
  860MPD2    H112629   1.986   3.780  11.612  1.2198 -0.1155  2.5777
  860MPD2    H212630   2.239   3.983  11.357 -1.0147 -0.6563 -0.7831
  860MPD2    H312631   2.114   3.808  11.405  1.8258  0.3568 -0.1449
  860MPD2     N12632   1.980   3.973  11.818 -0.0829 -0.9282  0.5070
  860MPD2    H512633   1.967   4.064  11.862  0.2233 -0.3811 -0.5485
  860MPD2    N112634   2.279   4.208  11.507  0.3647 -1.0535  0.4812
  860MPD2    H712635   2.287   4.282  11.575  0.0636 -0.7289  0.1588
  861MPD2     C12636   0.808   2.137  11.006 -0.2109 -0.6223 -0.2146
  861MPD2    C112637   0.694   2.193  11.055  0.0933 -0.0377 -0.3559
  861MPD2    C212638   0.632   2.291  10.986 -0.0178  0.5293  0.5962
  861MPD2    C312639   0.686   2.353  10.875 -0.0561  0.0710 -0.1113
  861MPD2    C412640   0.796   2.285  10.821  0.4753  0.7477 -0.0885
  861MPD2    C512641   0.852   2.174  10.889  0.4384  0.5417 -0.1221
  861MPD2     H12642   0.550   2.341  11.036 -0.4942  0.3348  0.0025
  861MPD2    H112643   0.845   2.326  10.734 -0.2906  0.6027 -0.5907
  861MPD2    H212644   0.855   2.045  11.041  0.6847  0.2866  0.9839
  861MPD2    H312645   0.939   2.125  10.845  0.4427  0.7810 -0.3842
  861MPD2     N12646   0.643   2.471  10.817  0.4924  0.0266 -0.2462
  861MPD2    H512647   0.695   2.491  10.732 -2.4002 -2.1940 -2.5513
  861MPD2    N112648   0.652   2.167  11.188  0.4367 -0.1105  0.5931
  861MPD2    H712649   0.558   2.197  11.211  0.8441  1.3557  0.3383
  862MPD2     C12650   0.457   2.463  10.216  0.4780  0.3029 -0.1787
  862MPD2    C112651   0.551   2.467  10.307 -0.8508  0.4025 -0.6298
  862MPD2    C212652   0.609   2.352  10.353 -0.7018  0.3778  0.5695
  862MPD2    C312653   0.562   2.226  10.307  0.0269 -0.0924 -0.0534
  862MPD2    C412654   0.461   2.226  10.216 -0.7831  0.3997 -0.2632
  862MPD2    C512655   0.408   2.348  10.173  0.5549  0.0410 -0.1863
  862MPD2     H12656   0.687   2.360  10.428  0.9148  1.1055 -1.2086
  862MPD2    H112657   0.421   2.135  10.172  1.6418 -0.6516 -0.2888
  862MPD2    H212658   0.409   2.550  10.174  1.0727 -0.3624 -2.2126
  862MPD2    H312659   0.330   2.346  10.098  2.3010  1.5854 -2.0520
  862MPD2     N12660   0.606   2.104  10.367 -0.0006  0.3223  0.5240
  862MPD2    H512661   0.551   2.019  10.358  0.6500  0.0728 -1.1200
  862MPD2    N112662   0.607   2.586  10.369  0.2616 -0.1042 -0.3627
  862MPD2    H712663   0.694   2.561  10.415  2.1833  2.1403 -2.7939
  863MPD2     C12664   3.309   0.754  17.014  0.3352  0.5797  0.3731
  863MPD2    C112665   3.438   0.788  16.983  0.6720  0.9395 -0.1636
  863MPD2    C212666   3.535   0.788  17.083  0.1639 -1.1360 -0.7688
  863MPD2    C312667   3.509   0.748  17.215  0.1164 -0.7905  0.1685
  863MPD2    C412668   3.382   0.718  17.246  0.1195 -0.2569  0.2168
  863MPD2    C512669   3.284   0.722  17.148  0.0754  0.0782  0.3651
  863MPD2     H12670   3.632   0.821  17.049 -0.3378 -2.2598 -3.2713
  863MPD2    H112671   3.354   0.700  17.349  0.2635 -1.0385  0.1180
  863MPD2    H212672   3.234   0.733  16.939  0.2053  0.6566  0.4836
  863MPD2    H312673   3.187   0.677  17.169  0.0100  0.0444 -0.0082
  863MPD2     N12674   3.601   0.754  17.326 -0.4450 -0.0205 -0.4769
  863MPD2    H512675   3.569   0.707  17.410  1.7666 -3.1774 -1.4166
  863MPD2    N112676   3.461   0.826  16.847  0.1196 -0.3838  0.1749
  863MPD2    H712677   3.381   0.836  16.786  0.0670 -4.2161 -0.3781
  864MPD2     C12678   4.483   2.802  17.224  0.2772  0.2327 -0.0678
  864MPD2    C112679   4.517   2.690  17.155 -0.1839  0.0628 -0.1828
  864MPD2    C212680   4.644   2.673  17.114 -0.0917 -0.0219  0.2881
  864MPD2    C312681   0.004   2.778  17.120  0.1205 -0.1366  0.2930
  864MPD2    C412682   4.695   2.900  17.180  0.7638 -0.7795 -0.2551
  864MPD2    C512683   4.569   2.909  17.233  0.4138  0.2183 -0.7606
  864MPD2     H12684   4.672   2.579  17.068 -0.1918  0.9242 -1.6810
  864MPD2    H112685   0.039   2.981  17.195  0.5842 -0.1895 -2.5949
  864MPD2    H212686   4.388   2.801  17.275 -0.3317  0.3943 -1.2091
  864MPD2    H312687   4.548   2.998  17.291 -1.8591 -1.5622  1.0962
  864MPD2     N12688   0.130   2.769  17.057  0.5423  0.0561 -0.6707
  864MPD2    H512689   0.177   2.857  17.040 -1.2632  1.5538  2.0421
  864MPD2    N112690   4.430   2.579  17.149 -0.1157 -0.0483 -0.3085
  864MPD2    H712691   4.337   2.589  17.190 -0.6667  2.3176 -2.1652
  865MPD2     C12692   0.320   2.893  16.098 -0.1049  0.5479  0.1852
  865MPD2    C112693   0.226   2.821  16.167  0.6013  0.0786  0.4397
  865MPD2    C212694   0.231   2.829  16.307 -0.1170  0.4854 -0.6954
  865MPD2    C312695   0.333   2.896  16.366  0.2540  0.1329 -0.2138
  865MPD2    C412696   0.427   2.975  16.292 -0.7840 -0.8611 -0.7357
  865MPD2    C512697   0.410   2.976  16.156  0.0609 -0.1775 -0.4726
  865MPD2     H12698   0.162   2.775  16.372  1.7028 -1.5656 -0.4634
  865MPD2    H112699   0.508   3.032  16.334  0.1714 -2.3644 -0.5188
  865MPD2    H212700   0.338   2.876  15.993 -0.1444 -0.8296  0.4007
  865MPD2    H312701   0.490   3.015  16.094 -0.9673 -0.6585 -2.1090
  865MPD2     N12702   0.374   2.874  16.498 -0.8155  0.6532  0.2771
  865MPD2    H512703   0.470   2.890  16.524  0.0030  0.1836 -2.4659
  865MPD2    N112704   0.151   2.722  16.097 -0.5278  0.4555 -0.3224
  865MPD2    H712705   0.155   2.717  15.996  1.2075 -1.8506 -0.1497
  866MPD2     C12706   1.341   1.909  11.151  0.3301  0.2317 -0.0229
  866MPD2    C112707   1.399   2.039  11.120 -0.1746 -0.0883 -0.0338
  866MPD2    C212708   1.314   2.150  11.123  0.1974 -0.2245  0.2654
  866MPD2    C312709   1.180   2.131  11.134 -0.3589 -0.0090 -0.2148
  866MPD2    C412710   1.127   2.004  11.134 -0.4004 -0.3110  0.1969
  866MPD2    C512711   1.207   1.894  11.135  0.6235 -0.7590 -0.0736
  866MPD2     H12712   1.361   2.248  11.115 -0.5502  0.0134 -1.2439
  866MPD2    H112713   1.020   1.987  11.127 -0.5197  0.2604  0.6429
  866MPD2    H212714   1.395   1.815  11.155 -0.0876 -0.0439 -1.1515
  866MPD2    H312715   1.167   1.794  11.118 -0.7812 -0.1358 -0.4589
  866MPD2     N12716   1.089   2.242  11.156  0.3673 -0.1154 -0.4587
  866MPD2    H512717   0.999   2.226  11.201 -1.1293  2.2476 -2.6537
  866MPD2    N112718   1.537   2.045  11.110 -0.0968  0.2692 -0.7537
  866MPD2    H712719   1.590   1.959  11.123 -1.1894 -0.4051 -0.7239
  867MPD2     C12720   3.314   1.809  16.414 -1.0055  0.2186 -0.7265
  867MPD2    C112721   3.333   1.833  16.548 -0.0185  0.4294  0.4827
  867MPD2    C212722   3.381   1.962  16.594 -0.2778  0.3968  0.6727
  867MPD2    C312723   3.398   2.057  16.497 -0.1043 -0.0080  0.1715
  867MPD2    C412724   3.373   2.029  16.369 -0.0269  0.0720  0.0101
  867MPD2    C512725   3.347   1.906  16.325  0.3596 -0.3103 -0.4702
  867MPD2     H12726   3.395   1.982  16.700  1.2819 -2.8396  1.1048
  867MPD2    H112727   3.389   2.099  16.288  0.0098 -0.3829 -0.3758
  867MPD2    H212728   3.281   1.712  16.377  3.3552 -0.2029 -3.4832
  867MPD2    H312729   3.332   1.881  16.221 -0.8553  2.6496 -1.0100
  867MPD2     N12730   3.440   2.189  16.527 -0.1042 -0.8793  0.1966
  867MPD2    H512731   3.473   2.248  16.450  0.0872 -0.3281  0.7032
  867MPD2    N112732   3.318   1.717  16.627 -0.0341 -0.3216 -0.5206
  867MPD2    H712733   3.307   1.626  16.583  1.5354  0.2505 -2.1094
  868MPD2     C12734   0.420   0.562  12.773  0.0943 -0.8613  0.5818
  868MPD2    C112735   0.527   0.644  12.792  0.3340 -0.2157 -0.4518
  868MPD2    C212736   0.509   0.752  12.881  0.0438 -0.4712  0.2062
  868MPD2    C312737   0.382   0.780  12.929 -0.1400 -0.2270 -0.2946
  868MPD2    C412738   0.274   0.706  12.886  0.2415  0.3041 -0.6729
  868MPD2    C512739   0.300   0.595  12.819 -0.2019 -0.0244  0.1514
  868MPD2     H12740   0.598   0.800  12.921  1.4899 -2.7216 -0.2338
  868MPD2    H112741   0.172   0.734  12.910  0.3293  0.3806 -0.3829
  868MPD2    H212742   0.437   0.468  12.722 -2.3011  0.0002 -1.8111
  868MPD2    H312743   0.227   0.519  12.796 -2.0747  1.7740  0.1702
  868MPD2     N12744   0.345   0.891  13.015 -0.2184  0.5338  0.0141
  868MPD2    H512745   0.245   0.910  13.025 -0.3490 -0.1916  0.1441
  868MPD2    N112746   0.649   0.606  12.749  0.2651 -0.1682 -0.4274
  868MPD2    H712747   0.654   0.526  12.687 -3.9417 -0.1982 -0.7066
  869MPD2     C12748   2.494   3.540   2.097  0.3227 -0.5501  0.5056
  869MPD2    C112749   2.361   3.531   2.086  0.1019 -0.0342  0.1340
  869MPD2    C212750   2.294   3.591   1.982 -0.2314  0.6280  0.2921
  869MPD2    C312751   2.360   3.669   1.889 -0.7545  0.0131 -0.3344
  869MPD2    C412752   2.496   3.670   1.897 -0.2910  0.1994 -1.3744
  869MPD2    C512753   2.558   3.604   1.999 -0.2153 -0.5254 -0.1576
  869MPD2     H12754   2.187   3.600   1.974 -0.3858 -0.1957  1.3995
  869MPD2    H112755   2.551   3.713   1.814 -2.4962  2.6468 -1.6007
  869MPD2    H212756   2.549   3.491   2.177  0.6182 -1.7198 -0.4177
  869MPD2    H312757   2.666   3.601   2.004 -0.1626 -0.7478 -1.4782
  869MPD2     N12758   2.297   3.740   1.789  0.4843  0.1119 -0.5351
  869MPD2    H512759   2.351   3.770   1.708 -1.1119  0.1719 -1.5738
  869MPD2    N112760   2.294   3.444   2.177  0.4781 -0.0852  0.5696
  869MPD2    H712761   2.356   3.402   2.246  0.8079  2.8442  2.0842
  870MPD2     C12762   0.992   3.187   1.530 -0.0086 -0.0999 -0.0394
  870MPD2    C112763   1.129   3.196   1.501 -0.2331 -0.3806  0.5206
  870MPD2    C212764   1.182   3.288   1.416  0.0815 -0.1421  0.0717
  870MPD2    C312765   1.089   3.387   1.367 -0.0786  1.4141 -0.0965
  870MPD2    C412766   0.964   3.393   1.423 -0.4424 -0.6312  1.3441
  870MPD2    C512767   0.917   3.298   1.504  0.1531  0.6156  0.3546
  870MPD2     H12768   1.289   3.285   1.399  0.2003 -2.4669  1.2977
  870MPD2    H112769   0.891   3.468   1.396 -2.7421 -2.2845  2.9111
  870MPD2    H212770   0.957   3.103   1.589  2.1275 -0.8414  0.1834
  870MPD2    H312771   0.813   3.297   1.536  0.3317  2.5180  0.9794
  870MPD2     N12772   1.139   3.496   1.287  0.2030  0.1119 -0.4040
  870MPD2    H512773   1.231   3.486   1.245  1.3572  0.3402  2.0867
  870MPD2    N112774   1.206   3.101   1.576 -0.0012  0.4356 -0.4786
  870MPD2    H712775   1.155   3.037   1.636 -0.5156  1.1281 -0.1633
  871MPD2     C12776   2.492   2.700  16.128 -0.7406  0.5851 -0.1311
  871MPD2    C112777   2.497   2.609  16.233  0.1704 -0.1636  0.2356
  871MPD2    C212778   2.512   2.472  16.202  0.0065  0.6424  0.2897
  871MPD2    C312779   2.524   2.435  16.064  0.3531  0.0593 -0.1653
  871MPD2    C412780   2.509   2.531  15.965 -0.4769 -0.0244 -0.2483
  871MPD2    C512781   2.494   2.660  16.002 -0.0196  0.2497 -0.3056
  871MPD2     H12782   2.512   2.388  16.271  4.3279 -0.2576 -0.7778
  871MPD2    H112783   2.505   2.500  15.861 -2.0153 -2.4808  0.5387
  871MPD2    H212784   2.484   2.806  16.145 -1.2375  0.5493 -0.1475
  871MPD2    H312785   2.479   2.732  15.922  1.1333  0.5214 -0.2761
  871MPD2     N12786   2.553   2.300  16.030 -0.2457  0.3716  0.0975
  871MPD2    H512787   2.551   2.238  16.110  1.2593  2.6415  1.8500
  871MPD2    N112788   2.496   2.653  16.371 -0.3280 -0.1063 -0.2614
  871MPD2    H712789   2.511   2.753  16.379  1.1538 -0.2903 -0.7002
  872MPD2     C12790   3.374   0.271  13.792 -0.7162  0.4678  0.1726
  872MPD2    C112791   3.281   0.171  13.748  0.0863 -0.0603 -0.0996
  872MPD2    C212792   3.167   0.142  13.820  0.6466  0.1379  0.2317
  872MPD2    C312793   3.152   0.207  13.937 -0.1287  0.5210  0.6921
  872MPD2    C412794   3.240   0.293  13.981  0.3206 -0.9203 -0.1085
  872MPD2    C512795   3.352   0.325  13.914 -0.5132  0.2223  0.3089
  872MPD2     H12796   3.096   0.067  13.789 -0.9036  2.3498 -1.6066
  872MPD2    H112797   3.219   0.349  14.072  0.4422  0.6378 -1.0454
  872MPD2    H212798   3.461   0.299  13.734  0.6150  1.9059  2.8852
  872MPD2    H312799   3.420   0.397  13.958 -0.9868  0.0350  1.3245
  872MPD2     N12800   3.043   0.177  14.018 -0.5911  0.4984 -0.6660
  872MPD2    H512801   3.037   0.215  14.112  0.0962 -0.5140 -0.2085
  872MPD2    N112802   3.296   0.107  13.628  0.1173 -0.1433 -0.3225
  872MPD2    H712803   3.220   0.047  13.597 -0.1681  1.0190 -1.8714
  873MPD2     C12804   0.001   4.322   0.396  0.1405  0.1488 -0.0175
  873MPD2    C112805   0.046   4.267   0.516  0.0446 -0.6042 -0.2292
  873MPD2    C212806   0.051   4.130   0.523 -0.3171 -0.0570  1.1229
  873MPD2    C312807   0.018   4.052   0.415 -0.4815 -0.4305 -0.3546
  873MPD2    C412808   4.683   4.109   0.303 -0.0234  1.2796  0.1817
  873MPD2    C512809   4.686   4.244   0.293  0.1150  0.0657 -0.1509
  873MPD2     H12810   0.076   4.091   0.621  0.6451 -2.6828 -0.1519
  873MPD2    H112811   4.651   4.048   0.219 -0.2197  1.6790 -0.0379
  873MPD2    H212812   0.010   4.429   0.391 -0.4443  0.2057  0.1499
  873MPD2    H312813   4.651   4.291   0.202  0.0258  0.6336  0.1747
  873MPD2     N12814   0.021   3.908   0.413  0.3975 -0.8449  0.1850
  873MPD2    H512815   4.727   3.861   0.326  0.5232  0.2960 -0.4631
  873MPD2    N112816   0.064   4.360   0.622  0.5429  0.1461  0.5206
  873MPD2    H712817   0.042   4.457   0.600  1.7389  0.1865 -0.4996
  874MPD2     C12818   4.468   0.344  15.948 -0.2172  0.2772  1.0617
  874MPD2    C112819   4.444   0.313  16.077 -0.6553 -0.1447  0.2229
  874MPD2    C212820   4.545   0.342  16.166  0.0517 -0.2703  0.1261
  874MPD2    C312821   4.666   0.403  16.129  0.2174  0.9208 -0.5202
  874MPD2    C412822   4.679   0.451  16.001  1.0006  0.4433  0.0912
  874MPD2    C512823   4.575   0.423  15.914  0.4353  0.5463  0.0445
  874MPD2     H12824   4.537   0.312  16.270  0.6357  0.8101  0.4793
  874MPD2    H112825   0.035   0.507  15.961  0.4982  0.7726 -0.4966
  874MPD2    H212826   4.406   0.316  15.864  0.2081 -0.2741  0.9315
  874MPD2    H312827   4.584   0.471  15.817 -1.8563  0.7974 -0.0377
  874MPD2     N12828   0.037   0.413  16.228 -0.9769  0.0674  0.6653
  874MPD2    H512829   0.019   0.370  16.318 -3.3344 -0.7637 -0.1952
  874MPD2    N112830   4.333   0.235  16.099  0.3839  0.1186 -0.6092
  874MPD2    H712831   4.263   0.224  16.026  1.6727  0.5285 -1.9309
  875MPD2     C12832   1.068   2.961  14.720 -0.0723 -0.6622 -0.0522
  875MPD2    C112833   1.010   3.081  14.688  0.4198 -0.3847 -0.2140
  875MPD2    C212834   0.988   3.163  14.796  0.4307  0.5172  0.5045
  875MPD2    C312835   1.013   3.129  14.927  0.3139  0.2676  0.3300
  875MPD2    C412836   1.075   3.010  14.953  0.1547  0.1065 -1.1283
  875MPD2    C512837   1.099   2.925  14.848  1.1021  0.1900 -0.4675
  875MPD2     H12838   0.938   3.259  14.786 -0.8130 -0.0988  0.8172
  875MPD2    H112839   1.093   2.984  15.057  1.5630  0.7875 -1.2076
  875MPD2    H212840   1.089   2.888  14.642  0.9107  0.3758 -0.7587
  875MPD2    H312841   1.135   2.825  14.872 -0.0508  0.0352  0.6238
  875MPD2     N12842   0.987   3.207  15.041  0.1346  0.5774  0.3054
  875MPD2    H512843   1.009   3.162  15.129  1.5331  1.3332  0.3253
  875MPD2    N112844   0.977   3.127  14.560  0.1075 -0.2872  0.0917
  875MPD2    H712845   0.947   3.223  14.547  0.6159 -0.0329  0.8078
  876MPD2     C12846   4.456   4.532  15.889  0.1033 -0.2757 -0.2003
  876MPD2    C112847   4.584   4.582  15.903  0.1173 -0.5038 -0.2577
  876MPD2    C212848   4.678   4.510  15.986 -0.3799 -0.1415  0.5380
  876MPD2    C312849   4.633   4.405  16.058  0.0111  0.3214  0.0239
  876MPD2    C412850   4.511   4.353  16.043  0.2394  0.3453 -0.4673
  876MPD2    C512851   4.422   4.414  15.957 -0.5589 -0.5050  0.4200
  876MPD2     H12852   0.054   4.536  16.004  0.5112 -1.8970 -2.0308
  876MPD2    H112853   4.471   4.259  16.080 -0.7667  1.1141  0.3988
  876MPD2    H212854   4.381   4.580  15.827  0.9095  1.0936 -0.1316
  876MPD2    H312855   4.324   4.372  15.941 -0.4091 -0.3896 -0.7617
  876MPD2     N12856   0.008   4.328  16.125  0.4120 -0.8382 -0.1396
  876MPD2    H512857   0.106   4.351  16.111 -0.2481  1.9995  0.0005
  876MPD2    N112858   4.610   4.692  15.826 -0.7171 -0.6535 -0.0201
  876MPD2    H712859   4.537   4.722  15.761 -1.1926  0.3179  0.9625
  877MPD2     C12860   4.369   0.378  15.234  0.2411  0.0456  0.5527
  877MPD2    C112861   4.508   0.358  15.221  0.1476 -0.3897 -0.7161
  877MPD2    C212862   4.561   0.382  15.101 -0.3787 -0.2108 -0.2902
  877MPD2    C312863   4.483   0.413  14.995  0.4204 -1.1105 -0.4852
  877MPD2    C412864   4.353   0.447  15.003 -0.0841  0.4189 -0.0659
  877MPD2    C512865   4.300   0.430  15.130  0.1601  0.0966 -1.0066
  877MPD2     H12866   4.668   0.365  15.094  0.2316  1.4091  5.2361
  877MPD2    H112867   4.288   0.480  14.922  1.4070  0.8159 -1.1056
  877MPD2    H212868   4.321   0.368  15.330  1.0978  1.4019  1.1337
  877MPD2    H312869   4.196   0.461  15.132 -0.1988 -1.2012  0.9759
  877MPD2     N12870   4.529   0.389  14.856  0.7306 -0.1860 -0.3431
  877MPD2    H512871   4.460   0.408  14.785  0.9677  0.7655 -0.3212
  877MPD2    N112872   4.585   0.325  15.331 -0.1119  0.5055 -0.3343
  877MPD2    H712873   4.685   0.315  15.317  0.2596  3.0577  0.5235
  878MPD2     C12874   0.329   4.090  13.375 -0.4971 -0.3799 -0.0105
  878MPD2    C112875   0.262   3.992  13.300 -0.7098  0.4153 -0.5594
  878MPD2    C212876   0.241   3.867  13.355  0.3347  0.3275 -0.2619
  878MPD2    C312877   0.276   3.839  13.488 -0.1099 -0.1181  0.4169
  878MPD2    C412878   0.344   3.929  13.563 -0.5015 -0.3264 -0.2109
  878MPD2    C512879   0.367   4.048  13.505  0.6756 -0.7456 -0.0652
  878MPD2     H12880   0.168   3.803  13.306 -1.1664  1.6922  0.1955
  878MPD2    H112881   0.393   3.900  13.655 -0.1490  2.2685  0.4120
  878MPD2    H212882   0.352   4.191  13.343 -1.3487  0.2861  1.4704
  878MPD2    H312883   0.427   4.113  13.568 -1.1308 -0.6969  1.6239
  878MPD2     N12884   0.231   3.715  13.543  0.2677 -0.6172  0.5359
  878MPD2    H512885   0.180   3.659  13.474  0.7681 -2.2792  1.5069
  878MPD2    N112886   0.199   4.032  13.172 -0.2414 -0.1310 -0.4524
  878MPD2    H712887   0.123   3.969  13.148 -0.6762  0.1245  0.2462
  879MPD2     C12888   0.503   0.936  17.451  0.3454  0.4043 -0.6291
  879MPD2    C112889   0.487   0.813  17.506  0.2163  0.3329 -0.5901
  879MPD2    C212890   0.408   0.726  17.434 -0.1560 -0.5166  0.0123
  879MPD2    C312891   0.343   0.764  17.317  0.1147 -0.2375 -0.0024
  879MPD2    C412892   0.375   0.884  17.261 -0.0928 -0.3426 -0.2245
  879MPD2    C512893   0.450   0.979  17.335  0.0430  0.2503 -0.0420
  879MPD2     H12894   0.388   0.630  17.479 -1.7538 -0.2848 -0.2155
  879MPD2    H112895   0.327   0.917  17.169  0.2610  0.7344 -0.0297
  879MPD2    H212896   0.561   1.004  17.512  0.6471 -0.5157  0.1230
  879MPD2    H312897   0.471   1.080  17.301  0.3160  0.0268 -0.5451
  879MPD2     N12898   0.258   0.675  17.248  0.3272  0.2205 -0.1571
  879MPD2    H512899   0.214   0.705  17.161 -2.7518  1.5138  1.8533
  879MPD2    N112900   0.558   0.791  17.625  0.2263 -0.3211 -0.7769
  879MPD2    H712901   0.616   0.870  17.650  0.0191 -0.3184 -0.3043
  880MPD2     C12902   1.381   3.135   0.753 -0.0684  0.1875  0.2741
  880MPD2    C112903   1.506   3.071   0.772 -0.3552 -0.5156  0.2818
  880MPD2    C212904   1.508   2.947   0.826  0.1051 -0.5336 -0.5813
  880MPD2    C312905   1.393   2.893   0.887 -0.2838  0.5187 -0.2516
  880MPD2    C412906   1.277   2.975   0.884 -0.6119  0.3466  0.5766
  880MPD2    C512907   1.272   3.094   0.823 -0.2025  0.3193  0.0213
  880MPD2     H12908   1.601   2.891   0.833 -0.8214 -2.1405 -0.9841
  880MPD2    H112909   1.185   2.933   0.922 -1.6566  0.8429 -1.4018
  880MPD2    H212910   1.380   3.226   0.695  3.1966 -0.7998 -1.3103
  880MPD2    H312911   1.177   3.146   0.814  0.1501  0.9803  0.1273
  880MPD2     N12912   1.398   2.764   0.948 -0.3901  0.1334 -0.1183
  880MPD2    H512913   1.483   2.711   0.930 -0.0362 -0.0576  2.1009
  880MPD2    N112914   1.614   3.134   0.712 -0.4569 -0.2007 -0.0079
  880MPD2    H712915   1.609   3.234   0.692 -1.9749 -0.2217  0.2733
  881MPD2     C12916   2.076   3.564  17.614 -0.7145 -0.4496  0.2078
  881MPD2    C112917   2.038   3.433  17.627 -0.0307  0.0658  0.4403
  881MPD2    C212918   2.034   3.373   0.041  0.2451 -0.1808  0.0937
  881MPD2    C312919   2.048   3.454   0.154  0.0509  0.1420 -0.3468
  881MPD2    C412920   2.097   3.581   0.133 -0.5375  0.6224 -0.6531
  881MPD2    C512921   2.106   3.638   0.010 -1.0692  0.1509 -0.3386
  881MPD2     H12922   2.013   3.268   0.055 -1.7513  0.0977 -0.8613
  881MPD2    H112923   2.115   3.634   0.226 -0.7517  1.6055 -1.1712
  881MPD2    H212924   2.113   3.599  17.519  0.4700  0.3758  0.9703
  881MPD2    H312925   2.133   3.741  17.701  0.1782 -0.0389  0.3439
  881MPD2     N12926   2.026   3.420   0.291 -0.3089 -0.1599  0.0169
  881MPD2    H512927   2.069   3.481   0.360 -0.6509  0.4724 -0.3310
  881MPD2    N112928   2.038   3.356  17.505 -0.3363 -0.0008 -0.1445
  881MPD2    H712929   2.063   3.401  17.418 -0.0526  0.3156  0.1009
  882MPD2     C12930   4.638   0.364  13.990 -0.1249  0.1119 -0.4281
  882MPD2    C112931   4.551   0.371  14.095 -0.3291  0.0582  0.2145
  882MPD2    C212932   4.416   0.375  14.063 -0.3062  0.4212 -0.4646
  882MPD2    C312933   4.377   0.378  13.927  0.1382 -0.1109 -0.6999
  882MPD2    C412934   4.467   0.378  13.826  0.3039 -1.1798 -0.6851
  882MPD2    C512935   4.596   0.375  13.860 -0.4964  0.0359  0.3429
  882MPD2     H12936   4.339   0.383  14.140 -2.6656 -1.2240 -2.6388
  882MPD2    H112937   4.439   0.372  13.722 -0.5073  1.5530 -0.6136
  882MPD2    H212938   0.018   0.355  13.999 -0.1402  1.1984  0.9751
  882MPD2    H312939   4.673   0.361  13.785 -1.3652  1.3520 -0.7960
  882MPD2     N12940   4.243   0.384  13.891  0.7535  0.1574 -0.3547
  882MPD2    H512941   4.184   0.362  13.970  1.9621 -0.5434  0.3562
  882MPD2    N112942   4.601   0.355  14.220 -0.1267  0.3904  0.0056
  882MPD2    H712943   4.702   0.352  14.224  0.0130  3.2930 -1.2887
  883MPD2     C12944   1.745   0.099  16.073  0.2998 -0.1288 -0.1066
  883MPD2    C112945   1.840   0.115  15.974  0.4710 -0.0584  0.0128
  883MPD2    C212946   1.973   0.130  15.996 -0.2006 -0.3011  0.1942
  883MPD2    C312947   2.020   0.108  16.128  1.0184 -0.0274  0.6927
  883MPD2    C412948   1.928   0.098  16.232 -0.1266  0.4336 -0.5787
  883MPD2    C512949   1.798   0.082  16.200 -0.3443 -0.4582 -0.2726
  883MPD2     H12950   2.039   0.137  15.910 -1.2215 -1.7929 -0.7163
  883MPD2    H112951   1.949   0.085  16.337 -0.9535  0.7664 -0.3659
  883MPD2    H212952   1.639   0.088  16.058  0.6868 -2.1563 -1.3055
  883MPD2    H312953   1.727   0.066  16.280  0.2051  2.1596  0.7677
  883MPD2     N12954   2.161   0.112  16.155 -0.2076 -0.0586 -0.1462
  883MPD2    H512955   2.222   0.123  16.075 -1.1214 -1.5914 -1.0626
  883MPD2    N112956   1.806   0.130  15.838 -0.1514 -0.0739  0.4805
  883MPD2    H712957   1.879   0.158  15.773  0.4993 -2.2707  0.2725
  884MPD2     C12958   3.742   1.093  15.563  0.1960  0.4150 -0.1133
  884MPD2    C112959   3.684   1.212  15.523  0.6547 -0.0861 -0.1549
  884MPD2    C212960   3.581   1.209  15.433 -0.7455 -0.5200  0.5690
  884MPD2    C312961   3.526   1.088  15.402 -0.4176  0.3105 -0.0481
  884MPD2    C412962   3.579   0.969  15.438  0.6785  1.1052  0.6089
  884MPD2    C512963   3.682   0.971  15.525 -0.2865  0.4743  0.0497
  884MPD2     H12964   3.536   1.295  15.386 -2.0819 -0.8602  1.2297
  884MPD2    H112965   3.522   0.879  15.416  1.8721  0.8880 -1.5999
  884MPD2    H212966   3.832   1.085  15.623 -0.2434  1.0987  0.6375
  884MPD2    H312967   3.729   0.880  15.560 -0.2607  0.6352  0.4386
  884MPD2     N12968   3.407   1.105  15.328  0.2654  0.3523  0.0176
  884MPD2    H512969   3.382   1.195  15.289  1.2149 -0.1734 -1.7830
  884MPD2    N112970   3.740   1.336  15.557 -0.7476 -0.5073  0.1248
  884MPD2    H712971   3.709   1.412  15.498 -1.1981  0.7479  1.9577
  885MPD2     C12972   1.874   1.033   0.181  0.6680 -0.1033 -0.2812
  885MPD2    C112973   1.987   0.970   0.136  0.3084  0.0743  0.2354
  885MPD2    C212974   2.041   1.015   0.013  0.3875 -0.6532 -0.0986
  885MPD2    C312975   1.994   1.120  17.646  0.0593  0.2925  0.7915
  885MPD2    C412976   1.893   1.187  17.710  0.2626 -0.2452 -0.0111
  885MPD2    C512977   1.830   1.143   0.112 -0.4390 -0.2286 -0.1662
  885MPD2     H12978   2.128   0.963  17.685  0.4039 -1.3624  0.8764
  885MPD2    H112979   1.833   1.262  17.659 -0.1687 -1.9521 -2.0114
  885MPD2    H212980   1.822   0.996   0.268  1.7409 -2.0427 -0.4582
  885MPD2    H312981   1.756   1.211   0.154  0.7540  1.2109 -0.4010
  885MPD2     N12982   2.032   1.152  17.514 -0.1784  0.2185 -0.2383
  885MPD2    H512983   2.087   1.084  17.463  0.9117  0.7965  0.1601
  885MPD2    N112984   2.033   0.860   0.204  0.7938 -0.0824 -1.1860
  885MPD2    H712985   1.984   0.820   0.283 -0.5192 -1.3716 -2.6621
  886MPD2     C12986   3.456   4.507  15.814  0.3016  0.0137 -0.4157
  886MPD2    C112987   3.474   4.448  15.684 -0.0769 -0.0793 -0.6467
  886MPD2    C212988   3.441   4.537  15.584 -0.1850 -0.2046  0.4232
  886MPD2    C312989   3.414   4.668  15.597  0.3253  0.2482 -0.3059
  886MPD2    C412990   3.411   4.721  15.724  0.5143 -0.0523  0.0416
  886MPD2    C512991   3.432   4.641  15.835 -0.5964 -0.5591 -0.1933
  886MPD2     H12992   3.452   4.499  15.483  0.3944  0.4779  0.2316
  886MPD2    H112993   3.396   0.099  15.742  0.0126  0.1895 -1.8115
  886MPD2    H212994   3.475   4.442  15.898  0.8927  2.4162  1.3260
  886MPD2    H312995   3.422   4.695  15.929  2.5034 -3.5177  1.8050
  886MPD2     N12996   3.397   0.028  15.488 -0.3593  0.5019  0.2398
  886MPD2    H512997   3.400   0.127  15.512  1.9941  1.1763 -2.7897
  886MPD2    N112998   3.513   4.316  15.651 -0.3856 -0.2148 -0.2660
  886MPD2    H712999   3.503   4.293  15.553 -2.1032  2.1475 -0.6176
  887MPD2     C13000   3.985   4.330  15.251  0.2722 -0.5707  0.2288
  887MPD2    C113001   3.890   4.353  15.349  0.7683  0.5279 -0.1437
  887MPD2    C213002   3.879   4.481  15.398  0.3451 -0.2567 -0.0907
  887MPD2    C313003   3.953   4.586  15.353  0.5262 -0.0486 -0.7353
  887MPD2    C413004   4.038   4.566  15.252  0.2763 -0.6570 -0.4575
  887MPD2    C513005   4.054   4.440  15.202  0.0337  0.1327  0.2777
  887MPD2     H13006   3.791   4.499  15.459 -0.4984  1.8426 -1.9134
  887MPD2    H113007   4.093   4.646  15.204  1.4438 -1.0103  0.2761
  887MPD2    H213008   4.007   4.232  15.211 -1.8318 -0.8370 -0.2602
  887MPD2    H313009   4.120   4.422  15.117  0.4744 -0.3042  0.7142
  887MPD2     N13010   3.936   4.719  15.414 -0.6267 -0.1821 -0.8481
  887MPD2    H513011   3.864   4.723  15.486 -1.0158  0.9131 -1.2907
  887MPD2    N113012   3.808   4.249  15.402  0.6141  0.2753 -0.6708
  887MPD2    H713013   3.759   4.275  15.488 -0.4588 -0.4005 -1.0832
  888MPD2     C13014   1.003   4.526  15.170 -0.5202  0.0246 -0.2282
  888MPD2    C113015   0.898   4.594  15.106  0.0452 -0.3419  0.7027
  888MPD2    C213016   0.933   4.711  15.032  0.3033 -0.1046  0.3748
  888MPD2    C313017   1.062   0.031  15.020 -0.3724 -0.9907  0.2756
  888MPD2    C413018   1.161   4.689  15.087  0.9167  0.1876 -0.1115
  888MPD2    C513019   1.126   4.581  15.163 -0.7906 -0.1481 -0.1954
  888MPD2     H13020   0.853   0.043  14.990  2.4531  1.1520 -1.9930
  888MPD2    H113021   1.265   4.716  15.074  0.7667  0.4652 -0.7502
  888MPD2    H213022   0.990   4.440  15.235 -1.3578  2.0729  2.2821
  888MPD2    H313023   1.207   4.528  15.210 -1.5750 -1.3844 -0.2407
  888MPD2     N13024   1.084   0.137  14.935 -0.4234  0.1947 -0.1106
  888MPD2    H513025   1.001   0.189  14.908 -1.1527 -0.4833  0.8449
  888MPD2    N113026   0.762   4.557  15.117  0.7148  1.0646  0.0672
  888MPD2    H713027   0.701   4.592  15.044 -1.7715 -0.5898  1.3562
  889MPD2     C13028   0.487   3.151  12.719 -0.2240 -0.0898 -1.0265
  889MPD2    C113029   0.568   3.196  12.818 -0.1530  0.0353 -0.4720
  889MPD2    C213030   0.589   3.333  12.837 -0.2400 -0.8554  0.1569
  889MPD2    C313031   0.547   3.424  12.738  0.5910  0.2721 -0.7162
  889MPD2    C413032   0.472   3.377  12.629  0.3377 -0.3747  0.1790
  889MPD2    C513033   0.441   3.240  12.629 -0.6132  0.1485  0.3598
  889MPD2     H13034   0.641   3.367  12.925  0.2367 -0.8843 -0.1138
  889MPD2    H113035   0.415   3.435  12.557 -0.8315 -0.5246  0.9725
  889MPD2    H213036   0.459   3.046  12.714  0.3337 -0.3404  0.9033
  889MPD2    H313037   0.385   3.190  12.551 -2.1946 -1.8343  2.7800
  889MPD2     N13038   0.565   3.562  12.754  0.0597  0.1653 -0.0864
  889MPD2    H513039   0.629   3.590  12.827  0.4774 -0.1598 -0.3330
  889MPD2    N113040   0.621   3.108  12.920 -0.3011 -1.1346 -0.5042
  889MPD2    H713041   0.689   3.150  12.981 -1.5327 -0.7523  0.6037
  890MPD2     C13042   4.616   0.743  14.350  0.5923 -0.1674  0.3806
  890MPD2    C113043   0.003   0.802  14.390  0.7201 -0.3158  0.0238
  890MPD2    C213044   0.023   0.808  14.522  0.0618 -0.4613 -1.0211
  890MPD2    C313045   4.669   0.757  14.621  0.0046 -0.3551 -0.5246
  890MPD2    C413046   4.552   0.699  14.580 -0.2535  0.4715 -0.7514
  890MPD2    C513047   4.526   0.691  14.447  0.2572 -0.4896 -0.0160
  890MPD2     H13048   0.121   0.833  14.559 -0.7442 -0.5812  1.1497
  890MPD2    H113049   4.473   0.658  14.643 -0.9708  1.5395 -0.9488
  890MPD2    H213050   4.602   0.736  14.242 -1.3483  2.4160  0.4614
  890MPD2    H313051   4.437   0.639  14.415 -0.8089  0.1676  1.8969
  890MPD2     N13052   4.713   0.780  14.755 -0.6572  0.0727  0.5916
  890MPD2    H513053   0.071   0.830  14.776 -0.6040  0.3131 -0.1923
  890MPD2    N113054   0.074   0.877  14.293  0.2216 -0.3533 -0.4350
  890MPD2    H713055   0.053   0.859  14.196  0.9902  1.0991 -0.8763
  891MPD2     C13056   2.780   4.245  16.479  0.7513 -0.2191  0.1982
  891MPD2    C113057   2.689   4.186  16.566  0.1875  1.0234 -0.0810
  891MPD2    C213058   2.742   4.141  16.686 -0.0600  0.7213  0.3276
  891MPD2    C313059   2.874   4.131  16.714  0.3914 -0.0947 -0.3555
  891MPD2    C413060   2.960   4.188  16.628 -0.2482  0.2912  0.0096
  891MPD2    C513061   2.911   4.251  16.512 -0.2060  0.4147 -0.3551
  891MPD2     H13062   2.682   4.093  16.762 -1.5831  1.9840 -0.0893
  891MPD2    H113063   3.066   4.182  16.646  0.3388  3.1542 -2.3798
  891MPD2    H213064   2.761   4.302  16.389  2.4775 -1.4436 -0.9454
  891MPD2    H313065   2.978   4.299  16.442  0.4725  2.2287  1.5259
  891MPD2     N13066   2.900   4.067  16.835  0.5256  0.7168  0.1994
  891MPD2    H513067   2.821   4.036  16.891  0.5563  2.9651  1.4838
  891MPD2    N113068   2.553   4.183  16.527 -0.6445  0.1828  0.0938
  891MPD2    H713069   2.546   4.220  16.433  1.1673 -0.3866 -0.2700
  892MPD2     C13070   3.829   0.393  14.542 -1.0003 -0.1050  0.4354
  892MPD2    C113071   3.720   0.406  14.465 -0.5605  0.0197 -0.1020
  892MPD2    C213072   3.725   0.389  14.326 -0.3024 -0.3754 -0.9233
  892MPD2    C313073   3.852   0.362  14.269 -1.1255  0.2534  0.4721
  892MPD2    C413074   3.968   0.349  14.348 -0.2132 -0.1503  0.6137
  892MPD2    C513075   3.951   0.364  14.484  0.1323  0.5397 -0.1146
  892MPD2     H13076   3.639   0.386  14.259 -0.7845  0.7122 -0.3553
  892MPD2    H113077   4.065   0.326  14.306 -0.0420 -0.7723  1.3517
  892MPD2    H213078   3.828   0.404  14.650  1.7070 -2.0481  0.6667
  892MPD2    H313079   4.033   0.362  14.555  1.2112  0.2916 -1.3633
  892MPD2     N13080   3.870   0.348  14.129 -0.2886  0.7771 -0.0779
  892MPD2    H513081   3.962   0.322  14.095 -0.8124 -0.0486 -0.8604
  892MPD2    N113082   3.595   0.428  14.520 -0.2588  0.0035  0.1439
  892MPD2    H713083   3.523   0.425  14.448  1.0830  0.8709 -1.2124
  893MPD2     C13084   0.714   3.693   1.653 -0.2223 -0.2103  0.5403
  893MPD2    C113085   0.768   3.589   1.728 -0.2564 -0.1546  1.0681
  893MPD2    C213086   0.685   3.477   1.747 -0.7141  0.7708 -0.2021
  893MPD2    C313087   0.555   3.480   1.700  0.3574  0.1553 -0.3477
  893MPD2    C413088   0.502   3.596   1.651 -0.0234 -0.0443  0.3427
  893MPD2    C513089   0.591   3.693   1.616  0.0630  0.1297 -0.2239
  893MPD2     H13090   0.722   3.391   1.801  1.6691  1.2520 -1.0791
  893MPD2    H113091   0.400   3.602   1.614  0.7898  1.2297 -1.6286
  893MPD2    H213092   0.766   3.780   1.616 -1.3348  0.5531  0.7572
  893MPD2    H313093   0.559   3.780   1.560  0.3835  0.5163  0.1936
  893MPD2     N13094   0.470   3.366   1.706 -0.4208  0.3880 -0.1355
  893MPD2    H513095   0.374   3.377   1.674 -0.7872 -2.7070 -0.1052
  893MPD2    N113096   0.909   3.589   1.750  0.0389  0.4419 -0.4342
  893MPD2    H713097   0.967   3.661   1.708  0.4274  1.1004  1.2045
  894MPD2     C13098   3.649   1.182   0.734  0.4386  0.6320 -0.5396
  894MPD2    C113099   3.638   1.319   0.729 -0.4846  0.1926 -0.1165
  894MPD2    C213100   3.739   1.391   0.686  0.0120  0.0108 -0.0202
  894MPD2    C313101   3.860   1.334   0.669 -0.4060 -0.1891  0.5455
  894MPD2    C413102   3.875   1.200   0.690  0.6329  0.0116  0.4060
  894MPD2    C513103   3.770   1.122   0.722  0.1489 -0.1490 -0.7445
  894MPD2     H13104   3.729   1.498   0.672 -2.0342 -0.1050  0.5244
  894MPD2    H113105   3.967   1.143   0.679  1.3168  0.6745  2.7860
  894MPD2    H213106   3.565   1.118   0.759 -0.1313  1.4754 -0.3029
  894MPD2    H313107   3.783   1.015   0.710 -1.1533 -0.4590  0.4740
  894MPD2     N13108   3.973   1.420   0.654  0.1341  0.0506 -0.4168
  894MPD2    H513109   3.961   1.521   0.660 -1.2885 -0.2106  1.3774
  894MPD2    N113110   3.517   1.391   0.757 -0.3595 -0.6744 -0.0446
  894MPD2    H713111   3.531   1.487   0.725 -0.5559 -0.5199  0.3336
  895MPD2     C13112   3.281   4.463  13.537  0.1683 -0.0488 -0.4490
  895MPD2    C113113   3.187   4.430  13.446 -0.0062 -0.2728  0.6149
  895MPD2    C213114   3.203   4.320  13.363 -0.0095 -0.0905  0.5163
  895MPD2    C313115   3.307   4.233  13.390  0.4251 -0.3048  0.1527
  895MPD2    C413116   3.397   4.274  13.484  0.8993 -0.6589 -0.6355
  895MPD2    C513117   3.390   4.384  13.555  0.3443  0.8951  0.4396
  895MPD2     H13118   3.130   4.287  13.290 -0.8372  0.8675  0.9023
  895MPD2    H113119   3.485   4.215  13.507  1.4238  0.5712  0.4902
  895MPD2    H213120   3.262   4.550  13.598 -0.9036 -0.9792  0.5537
  895MPD2    H313121   3.462   4.396  13.635  2.5928 -0.2338 -1.3882
  895MPD2     N13122   3.335   4.113  13.320  0.6341  0.2609  0.8099
  895MPD2    H513123   3.422   4.062  13.335  1.3948  1.5770  0.8505
  895MPD2    N113124   3.061   4.492  13.431 -0.0433 -0.0716 -0.3270
  895MPD2    H713125   3.006   4.450  13.357 -1.4533  1.5865 -0.2433
  896MPD2     C13126   0.609   1.953   1.155  0.4687  0.8153  0.3061
  896MPD2    C113127   0.607   1.996   1.021 -0.0986 -0.1514  0.0658
  896MPD2    C213128   0.543   1.925   0.924 -0.3343  0.2002 -0.0255
  896MPD2    C313129   0.477   1.807   0.951 -0.0588  0.3437 -0.4128
  896MPD2    C413130   0.485   1.768   1.084 -0.4191  0.2299  0.4203
  896MPD2    C513131   0.543   1.840   1.182  0.9595 -0.3227  0.2867
  896MPD2     H13132   0.550   1.957   0.820  0.0245  0.6820  0.1494
  896MPD2    H113133   0.447   1.672   1.120 -0.3492 -1.1420 -3.1393
  896MPD2    H213134   0.663   2.004   1.235  0.9961 -0.6984  0.9090
  896MPD2    H313135   0.542   1.798   1.282  2.5818 -0.7390  0.1309
  896MPD2     N13136   0.406   1.738   0.849  0.0469 -0.1702 -0.0014
  896MPD2    H513137   0.384   1.792   0.766  0.5273  2.3639  1.5273
  896MPD2    N113138   0.685   2.109   0.996  0.0909  0.2863 -0.0058
  896MPD2    H713139   0.756   2.139   1.062  0.0033  0.9690 -0.2163
  897MPD2     C13140   1.471   3.061  10.214  0.0085 -0.4711 -0.2197
  897MPD2    C113141   1.504   3.094  10.341 -0.1676  0.2532 -0.1020
  897MPD2    C213142   1.406   3.141  10.430 -0.1382 -0.4041  0.4457
  897MPD2    C313143   1.272   3.159  10.388  0.6126 -0.0332 -0.0845
  897MPD2    C413144   1.236   3.103  10.266 -0.5362  0.7484 -0.0541
  897MPD2    C513145   1.335   3.060  10.174  0.5275 -0.4854 -0.4397
  897MPD2     H13146   1.436   3.176  10.528 -0.1552  2.6588 -0.6335
  897MPD2    H113147   1.138   3.119  10.224  0.2896  0.4222 -2.1046
  897MPD2    H213148   1.552   3.041  10.145 -0.5623 -0.7559 -0.8093
  897MPD2    H313149   1.316   3.039  10.070  0.7489  0.9441 -0.7704
  897MPD2     N13150   1.177   3.214  10.478 -0.4809  0.2397 -0.1853
  897MPD2    H513151   1.213   3.225  10.572  0.1027  1.3748 -0.5424
  897MPD2    N113152   1.641   3.091  10.365 -0.2160 -0.0760 -0.2303
  897MPD2    H713153   1.701   3.087  10.283 -0.1886  0.9607 -0.2629
  898MPD2     C13154   3.277   4.425   0.338 -0.2491 -0.1126  0.1590
  898MPD2    C113155   3.356   4.381   0.231 -0.0566 -0.3728  0.0366
  898MPD2    C213156   3.308   4.387   0.103  0.5468 -0.3043  0.2473
  898MPD2    C313157   3.189   4.454   0.082  0.2011 -0.4558  0.5468
  898MPD2    C413158   3.115   4.505   0.188 -0.4383  0.5118  0.0272
  898MPD2    C513159   3.154   4.480   0.321 -0.4674 -0.0747  0.3751
  898MPD2     H13160   3.370   4.356   0.019  0.3425 -1.0913  0.3824
  898MPD2    H113161   3.015   4.545   0.172 -0.8939 -0.4183  0.5508
  898MPD2    H213162   3.306   4.417   0.442 -1.3830 -3.5608  0.2243
  898MPD2    H313163   3.099   4.512   0.409  0.7655 -2.9206  2.1741
  898MPD2     N13164   3.156   4.483  17.663 -0.4105 -0.5218  0.3828
  898MPD2    H513165   3.206   4.429  17.593  0.3857  0.5990  0.0875
  898MPD2    N113166   3.490   4.332   0.254  0.2172 -0.1195  0.3133
  898MPD2    H713167   3.539   4.283   0.180  0.3565 -1.8489  1.5650
  899MPD2     C13168   3.477   0.380   0.100 -0.2367  0.9032  0.0493
  899MPD2    C113169   3.600   0.423   0.127 -0.2618  0.2312  0.2113
  899MPD2    C213170   3.657   0.380   0.243 -0.0566 -0.0705 -0.4576
  899MPD2    C313171   3.585   0.309   0.341 -0.3111 -0.8895 -0.2674
  899MPD2    C413172   3.458   0.273   0.311  0.0096  0.1058  0.4236
  899MPD2    C513173   3.411   0.297   0.187  0.2067 -0.0300  0.3823
  899MPD2     H13174   3.761   0.405   0.256  0.4451 -2.5610  0.2190
  899MPD2    H113175   3.391   0.225   0.382  0.0950  0.9995  1.1151
  899MPD2    H213176   3.433   0.402   0.003  1.4256  0.3206 -0.8356
  899MPD2    H313177   3.313   0.259   0.159 -0.2429  0.8132  0.8120
  899MPD2     N13178   3.624   0.304   0.470  0.6026 -0.9747  0.3963
  899MPD2    H513179   3.553   0.264   0.530 -0.5687  1.7980  0.8245
  899MPD2    N113180   3.666   0.510   0.028  0.7670 -0.1013  0.1384
  899MPD2    H713181   3.613   0.525  17.654 -2.5179  0.6014  2.3380
  900MPD2     C13182   4.089   2.073  12.458 -0.0203 -0.1905  0.2956
  900MPD2    C113183   4.027   1.971  12.379  0.7974  0.4534 -0.4586
  900MPD2    C213184   3.899   2.001  12.324  0.6831  0.4534 -0.1639
  900MPD2    C313185   3.842   2.125  12.345  0.0721  1.1742  0.5496
  900MPD2    C413186   3.903   2.215  12.431 -1.0661 -0.2997 -0.5652
  900MPD2    C513187   4.025   2.188  12.488 -0.6906 -0.3306  0.6026
  900MPD2     H13188   3.846   1.936  12.255 -0.9959 -1.1980  2.6864
  900MPD2    H113189   3.853   2.310  12.446  1.1246  0.8802 -0.8298
  900MPD2    H213190   4.187   2.066  12.504  0.5876  1.9007 -0.6377
  900MPD2    H313191   4.072   2.254  12.561  0.7487 -3.2149  2.2538
  900MPD2     N13192   3.722   2.147  12.277  0.1841  0.0859 -0.2519
  900MPD2    H513193   3.692   2.069  12.219  1.6298 -1.1189  0.6244
  900MPD2    N113194   4.086   1.842  12.368  0.3698 -0.2194  0.2219
  900MPD2    H713195   4.175   1.831  12.416 -0.4986  0.6147  2.0374
  901MPD2     C13196   4.015   0.772  12.368  1.2921  0.6793  0.2637
  901MPD2    C113197   4.137   0.809  12.422 -0.3940  0.1512  0.4515
  901MPD2    C213198   4.167   0.945  12.431 -0.4407 -0.3646  0.3108
  901MPD2    C313199   4.071   1.040  12.404  0.1683  0.1832 -0.2493
  901MPD2    C413200   3.943   0.999  12.367 -0.0939 -0.1566 -0.0167
  901MPD2    C513201   3.918   0.863  12.342 -1.0043  0.2129 -0.3797
  901MPD2     H13202   4.258   0.982  12.477  0.7590 -2.3646 -0.4210
  901MPD2    H113203   3.858   1.065  12.362  0.6861  0.7207 -1.9502
  901MPD2    H213204   3.995   0.671  12.336 -2.5772  1.4871  0.1290
  901MPD2    H313205   3.829   0.836  12.287 -2.7520  0.7389  2.1630
  901MPD2     N13206   4.100   1.174  12.424 -0.1473 -0.2624 -0.2216
  901MPD2    H513207   4.190   1.194  12.466  0.2958 -0.6731 -0.9683
  901MPD2    N113208   4.230   0.703  12.449  0.4021 -0.4502 -0.3836
  901MPD2    H713209   4.189   0.610  12.444 -0.4279 -0.0291 -1.5142
  902MPD2     C13210   3.262   4.655  12.487  0.0171 -0.6381  0.1085
  902MPD2    C113211   3.186   4.639  12.365  0.0537  0.1350 -0.1798
  902MPD2    C213212   3.116   4.518  12.356 -0.2369 -0.6930  0.1091
  902MPD2    C313213   3.131   4.414  12.444  0.5208  0.1903 -0.7284
  902MPD2    C413214   3.218   4.422  12.547 -0.3506  0.7357  0.2380
  902MPD2    C513215   3.275   4.546  12.572  0.5502  0.7042  0.1746
  902MPD2     H13216   3.041   4.514  12.278  2.0186  0.0289 -2.0945
  902MPD2    H113217   3.230   4.332  12.605 -1.1744  1.3405  1.3578
  902MPD2    H213218   3.319   0.017  12.508 -0.6325 -0.0126 -0.7847
  902MPD2    H313219   3.338   4.551  12.660  1.1852  0.6856 -0.2787
  902MPD2     N13220   3.065   4.285  12.422  0.0097  0.3625 -0.1881
  902MPD2    H513221   3.080   4.217  12.496 -0.4662  1.2000  0.6781
  902MPD2    N113222   3.164   0.027  12.282 -0.1182  0.2725  0.4004
  902MPD2    H713223   3.219   0.108  12.310 -2.2256  1.0465  2.2572
  903MPD2     C13224   3.172   4.093  11.650  0.1071  0.1813 -0.2259
  903MPD2    C113225   3.051   4.073  11.716  0.2228 -0.6119  0.1296
  903MPD2    C213226   2.941   4.124  11.658  0.2467 -0.1143  0.2250
  903MPD2    C313227   2.948   4.196  11.540  0.6278 -0.2217 -0.3196
  903MPD2    C413228   3.069   4.214  11.478  0.0996  0.8195  0.4833
  903MPD2    C513229   3.186   4.153  11.530  0.1534 -0.2056  0.2653
  903MPD2     H13230   2.845   4.103  11.706  1.2686  1.2830  2.8678
  903MPD2    H113231   3.077   4.273  11.387 -2.1865  0.8688  0.3045
  903MPD2    H213232   3.259   4.038  11.682  0.7527  0.5682 -1.3103
  903MPD2    H313233   3.277   4.177  11.476  1.4887  0.0650  2.6590
  903MPD2     N13234   2.827   4.242  11.493 -0.2359 -0.2354  0.0642
  903MPD2    H513235   2.749   4.219  11.555 -0.4821 -2.0676 -0.9362
  903MPD2    N113236   3.047   4.022  11.846 -0.4979 -0.4909  0.4590
  903MPD2    H713237   3.141   3.998  11.876  0.3630  0.3772 -1.5462
  904MPD2     C13238   2.879   4.263  13.675 -0.0077  0.0616  0.2805
  904MPD2    C113239   2.837   4.143  13.735 -0.0734 -0.6972  0.0579
  904MPD2    C213240   2.926   4.063  13.798  0.2627 -0.9651  0.1927
  904MPD2    C313241   3.064   4.090  13.790 -0.2502  0.4464 -0.3970
  904MPD2    C413242   3.102   4.206  13.743  0.0184 -0.9134 -0.2880
  904MPD2    C513243   3.011   4.288  13.686  0.2920 -0.3107 -0.0667
  904MPD2     H13244   2.903   3.971  13.850 -2.7114  0.3930  1.3262
  904MPD2    H113245   3.206   4.234  13.738  0.0206 -0.7183  0.7858
  904MPD2    H213246   2.815   4.342  13.637 -3.6859 -1.4113  3.3873
  904MPD2    H313247   3.041   4.390  13.660  0.2515 -0.5574 -1.0731
  904MPD2     N13248   3.153   4.002  13.848 -0.3305 -0.4038  0.2268
  904MPD2    H513249   3.114   3.917  13.888  1.6768 -0.5190  1.9776
  904MPD2    N113250   2.695   4.114  13.722 -0.5988 -0.3075 -0.0234
  904MPD2    H713251   2.642   4.183  13.669  0.2550  0.9260  0.7306
  905MPD2     C13252   2.553   3.958  13.106  0.2242  0.1362 -0.1677
  905MPD2    C113253   2.607   3.906  13.220 -0.0160 -0.2183 -0.0998
  905MPD2    C213254   2.741   3.868  13.218  0.1730 -0.0765  0.3388
  905MPD2    C313255   2.810   3.844  13.098 -0.6112 -1.1356  0.2688
  905MPD2    C413256   2.756   3.900  12.990 -0.4413 -0.0765  0.3988
  905MPD2    C513257   2.629   3.949  12.991 -0.1568 -0.3272  0.2424
  905MPD2     H13258   2.787   3.864  13.316 -2.2374  2.1231  1.5601
  905MPD2    H113259   2.810   3.894  12.897 -0.5971 -1.4653  0.3843
  905MPD2    H213260   2.453   4.001  13.107 -0.8751 -2.4766  0.5866
  905MPD2    H313261   2.583   3.988  12.901 -1.2682 -4.2311 -0.8502
  905MPD2     N13262   2.942   3.790  13.091 -0.0305  0.4352  0.5454
  905MPD2    H513263   2.991   3.797  13.002 -2.2402 -3.5658 -0.9562
  905MPD2    N113264   2.546   3.927  13.342  0.1293  0.5504  0.2388
  905MPD2    H713265   2.606   3.907  13.421 -0.8827 -0.7497  0.6855
  906MPD2     C13266   0.167   3.369  11.528  0.4956  0.2516  0.6406
  906MPD2    C113267   0.081   3.327  11.428 -0.6055  0.0084 -0.3247
  906MPD2    C213268   4.685   3.272  11.469  0.2081  0.1095  0.2226
  906MPD2    C313269   4.659   3.252  11.604 -0.0073 -0.2462  0.0860
  906MPD2    C413270   0.020   3.289  11.700  0.0088  0.5173  0.2764
  906MPD2    C513271   0.129   3.358  11.662 -0.4457  0.2764  0.8756
  906MPD2     H13272   4.613   3.240  11.395 -1.0869 -0.6960  1.8608
  906MPD2    H113273   4.718   3.262  11.801  0.5165  0.4677  0.4121
  906MPD2    H213274   0.259   3.418  11.499 -1.1297  2.2150 -1.2057
  906MPD2    H313275   0.196   3.389  11.741  1.8389 -0.6284 -0.7135
  906MPD2     N13276   4.550   3.177  11.648  0.0490 -0.0821  0.4467
  906MPD2    H513277   4.538   3.154  11.747 -0.1085 -0.4257  0.3462
  906MPD2    N113278   0.118   3.342  11.293 -0.6855 -0.1588 -0.7129
  906MPD2    H713279   0.055   3.297  11.228 -2.8318  1.7946  0.0001
  907MPD2     C13280   4.598   3.165  15.069  0.2732  0.1742  0.3022
  907MPD2    C113281   4.493   3.123  15.153  0.5204 -0.1760  0.2217
  907MPD2    C213282   4.500   3.145  15.288  0.4322  0.0508  0.0831
  907MPD2    C313283   4.613   3.212  15.340  0.5490  0.4198 -0.1848
  907MPD2    C413284   4.723   3.237  15.254 -0.3257  0.2138  0.3229
  907MPD2    C513285   4.717   3.211  15.122  0.0858  0.1038  0.2204
  907MPD2     H13286   4.417   3.118  15.353  0.1065  2.5301  0.7226
  907MPD2    H113287   0.087   3.264  15.305  0.8476 -2.0515 -0.5709
  907MPD2    H213288   4.594   3.151  14.962  1.9026 -0.1303  0.2855
  907MPD2    H313289   0.074   3.237  15.060 -0.2776  2.7279  0.8058
  907MPD2     N13290   4.637   3.259  15.469 -0.3842  0.2150 -0.3596
  907MPD2    H513291   0.000   3.300  15.487  0.1242 -1.0911  0.1027
  907MPD2    N113292   4.388   3.054  15.092  0.4805  0.0822  0.0658
  907MPD2    H713293   4.394   3.048  14.991  1.5740 -2.9570  0.3166
  908MPD2     C13294   1.760   2.800   9.738 -0.2264  0.5260 -0.2780
  908MPD2    C113295   1.881   2.762   9.797 -0.0247 -0.0680 -0.2824
  908MPD2    C213296   1.927   2.839   9.901 -0.0723  0.0386 -0.9062
  908MPD2    C313297   1.866   2.961   9.940  0.1954  0.4396 -0.7478
  908MPD2    C413298   1.751   2.997   9.874 -0.5125 -0.3449 -0.4552
  908MPD2    C513299   1.698   2.917   9.781 -0.6549  0.3882  0.1038
  908MPD2     H13300   2.022   2.827   9.952 -0.6855  0.1899  0.2628
  908MPD2    H113301   1.703   3.090   9.903 -3.2086 -1.7991 -0.2267
  908MPD2    H213302   1.728   2.735   9.658 -0.9690 -0.8083  1.1046
  908MPD2    H313303   1.605   2.953   9.739  0.0315  0.7006 -1.1207
  908MPD2     N13304   1.902   3.028  10.061  0.4059  0.5601  0.0436
  908MPD2    H513305   1.974   2.982  10.116 -0.4192 -1.2431 -0.3831
  908MPD2    N113306   1.956   2.656   9.733 -0.7851  0.2748 -0.1371
  908MPD2    H713307   1.919   2.616   9.648  2.3010  1.9734 -2.2943
  909MPD2     C13308   1.973   1.028  11.697 -0.6491 -0.2456 -0.0830
  909MPD2    C113309   1.966   1.148  11.629  0.6734 -0.2666 -0.0040
  909MPD2    C213310   1.888   1.250  11.678  0.2579 -0.3000  0.9347
  909MPD2    C313311   1.818   1.244  11.795  0.4897  0.2495  0.6374
  909MPD2    C413312   1.816   1.116  11.855  0.7257  0.5902 -0.3366
  909MPD2    C513313   1.892   1.011  11.805 -0.6025 -0.9439 -0.2936
  909MPD2     H13314   1.886   1.341  11.619  0.7339 -1.0775 -0.2761
  909MPD2    H113315   1.761   1.086  11.943  2.7494 -2.7232 -0.2006
  909MPD2    H213316   2.033   0.941  11.673  1.3823  1.5054 -1.3272
  909MPD2    H313317   1.894   0.916  11.857  0.2029 -0.1489  1.1198
  909MPD2     N13318   1.748   1.357  11.848  0.1621 -0.0696  0.4645
  909MPD2    H513319   1.749   1.446  11.800 -1.4358  0.5927  1.6574
  909MPD2    N113320   2.037   1.165  11.505  0.3834 -0.0505  0.4558
  909MPD2    H713321   2.027   1.256  11.461 -0.9586 -0.5306 -0.2366
  910MPD2     C13322   2.843   3.609  15.533 -0.4022  0.3477 -0.5552
  910MPD2    C113323   2.959   3.562  15.470 -0.0612 -0.3466 -0.2029
  910MPD2    C213324   2.976   3.564  15.335  0.7042 -0.8388 -0.2382
  910MPD2    C313325   2.869   3.617  15.258  0.1767 -0.0244 -0.9452
  910MPD2    C413326   2.752   3.657  15.316  0.8823  0.4318  0.3637
  910MPD2    C513327   2.741   3.648  15.451 -0.8205  0.1322 -0.4659
  910MPD2     H13328   3.070   3.528  15.296  0.7154 -0.5412 -0.4860
  910MPD2    H113329   2.670   3.705  15.265 -0.9944 -2.7575  0.4007
  910MPD2    H213330   2.837   3.625  15.640 -1.6115  1.3368 -0.7702
  910MPD2    H313331   2.647   3.689  15.488 -1.0784  1.3566 -2.4468
  910MPD2     N13332   2.866   3.610  15.116 -0.4523  0.7125 -0.2700
  910MPD2    H513333   2.772   3.636  15.088 -0.1500  0.7664 -1.2142
  910MPD2    N113334   3.068   3.516  15.545 -0.1979  0.3588 -0.3355
  910MPD2    H713335   3.143   3.471  15.493 -3.3781 -2.0274 -2.8670
  911MPD2     C13336   0.906   4.142  16.016  0.0871  0.0056  0.1170
  911MPD2    C113337   0.919   4.223  16.125  0.0423 -0.2444 -0.4809
  911MPD2    C213338   0.843   4.338  16.135 -0.2997  0.4724  0.1272
  911MPD2    C313339   0.748   4.371  16.042 -0.0070 -0.3623  0.2549
  911MPD2    C413340   0.724   4.280  15.942  0.4440  0.2207  0.1885
  911MPD2    C513341   0.809   4.170  15.926  0.9031 -0.5961  0.5204
  911MPD2     H13342   0.849   4.399  16.224 -0.9528  0.6655  0.0374
  911MPD2    H113343   0.659   4.294  15.855 -0.0499  1.3417  0.7385
  911MPD2    H213344   0.971   4.057  15.999  1.9355  1.4017  0.2264
  911MPD2    H313345   0.807   4.105  15.840  0.0548  0.9136 -0.5979
  911MPD2     N13346   0.666   4.488  16.046 -0.2696 -0.0853  0.0026
  911MPD2    H513347   0.593   4.500  15.976  2.3676  1.6824 -2.4356
  911MPD2    N113348   1.020   4.190  16.213 -0.3874  1.0112 -0.5455
  911MPD2    H713349   1.069   4.103  16.198  0.2591  1.1125  0.9743
  912MPD2     C13350   0.306   4.233  15.703  0.8710 -0.0017 -0.0004
  912MPD2    C113351   0.336   4.278  15.830 -0.0690 -0.8466  0.9471
  912MPD2    C213352   0.388   4.189  15.921 -0.0774 -0.0961  0.4143
  912MPD2    C313353   0.420   4.065  15.875 -0.2300  0.6439  0.1598
  912MPD2    C413354   0.387   4.015  15.754 -0.1144 -0.0460  0.0180
  912MPD2    C513355   0.331   4.103  15.666  0.2266  0.0766 -0.0108
  912MPD2     H13356   0.431   4.227  16.014  2.0703 -4.2767  1.1490
  912MPD2    H113357   0.407   3.911  15.732  0.6303  0.1216 -0.0899
  912MPD2    H213358   0.276   4.296  15.620 -2.0507 -1.9133 -0.4324
  912MPD2    H313359   0.313   4.070  15.564 -0.5129  1.3729 -0.3040
  912MPD2     N13360   0.496   3.985  15.960 -0.1283 -1.0721  0.2662
  912MPD2    H513361   0.524   4.023  16.050 -3.3503  3.4813 -0.6782
  912MPD2    N113362   0.337   4.417  15.861 -0.5694  0.2142  0.0626
  912MPD2    H713363   0.336   4.482  15.783 -3.4753  0.9697  0.7202
  913MPD2     C13364   1.725   4.226  10.486 -0.0832 -0.5816 -0.0914
  913MPD2    C113365   1.718   4.356  10.534 -1.0168  0.3712 -0.4594
  913MPD2    C213366   1.667   4.455  10.454 -0.2277  0.4558  0.0728
  913MPD2    C313367   1.609   4.423  10.335  1.2618 -0.0613  0.0219
  913MPD2    C413368   1.605   4.288  10.294 -0.4225  1.1204 -0.0752
  913MPD2    C513369   1.668   4.194  10.367 -0.2523 -0.9237  0.0824
  913MPD2     H13370   1.670   4.557  10.490 -0.2969  0.5035 -0.0549
  913MPD2    H113371   1.549   4.264  10.204  0.1086 -0.5774  0.0581
  913MPD2    H213372   1.788   4.165  10.549  1.5648  1.6058  0.3909
  913MPD2    H313373   1.677   4.090  10.338 -0.7449 -0.3236 -2.2018
  913MPD2     N13374   1.528   4.519  10.270 -0.0664  0.1632 -0.2798
  913MPD2    H513375   1.505   4.495  10.174  1.0237  1.3695 -0.8456
  913MPD2    N113376   1.775   4.378  10.664 -0.3078  0.1844 -0.4224
  913MPD2    H713377   1.797   4.288  10.706 -2.1373  0.9198  2.1202
  914MPD2     C13378   3.803   0.435  12.149  0.1646 -0.9765 -0.3500
  914MPD2    C113379   3.888   0.544  12.109 -0.4139 -0.4135  0.4374
  914MPD2    C213380   4.030   0.527  12.109 -0.4135 -0.1638  0.0065
  914MPD2    C313381   4.079   0.424  12.180 -0.2566  0.1913  0.1177
  914MPD2    C413382   4.001   0.321  12.219 -0.4610 -0.2793 -0.0874
  914MPD2    C513383   3.865   0.327  12.205 -0.9185  0.4995 -0.2517
  914MPD2     H13384   4.085   0.610  12.066 -2.7199  1.5446  0.3499
  914MPD2    H113385   4.039   0.243  12.284 -1.2847 -0.2478  0.4366
  914MPD2    H213386   3.695   0.436  12.156  0.4994  0.5018  4.3393
  914MPD2    H313387   3.809   0.241  12.241  1.7653 -1.2122 -0.1509
  914MPD2     N13388   4.211   0.431  12.229 -0.2270 -0.2050  0.5385
  914MPD2    H513389   4.264   0.518  12.227  2.7808 -1.9835  2.4424
  914MPD2    N113390   3.849   0.672  12.062  0.0696 -0.5975  0.4786
  914MPD2    H713391   3.927   0.726  12.025  0.5997 -2.8286 -1.6047
  915MPD2     C13392   1.810   0.744  15.600 -0.5194 -0.0928  0.6273
  915MPD2    C113393   1.687   0.804  15.572  0.1043 -0.2321 -0.2530
  915MPD2    C213394   1.618   0.871  15.675  0.7565  0.4658  0.3455
  915MPD2    C313395   1.665   0.876  15.802  0.3155 -0.0711  0.0652
  915MPD2    C413396   1.788   0.812  15.830 -0.2891  0.0688  0.4171
  915MPD2    C513397   1.858   0.761  15.723 -0.6206 -0.2126  0.4501
  915MPD2     H13398   1.525   0.918  15.645 -0.5789 -1.9941  0.6080
  915MPD2    H113399   1.834   0.816  15.927 -1.9053 -3.8735  1.3465
  915MPD2    H213400   1.878   0.704  15.526 -0.4559  1.4020 -0.1107
  915MPD2    H313401   1.958   0.720  15.733 -0.7719 -0.4668  0.8895
  915MPD2     N13402   1.585   0.938  15.896 -0.5856 -0.7584 -0.3661
  915MPD2    H513403   1.502   0.984  15.860  0.0846  1.1705  0.5464
  915MPD2    N113404   1.635   0.775  15.442 -0.4167  0.0258 -0.2692
  915MPD2    H713405   1.697   0.716  15.387  0.1255  0.5966 -0.2708
  916MPD2     C13406   4.698   3.761  15.781  0.0496 -0.2532 -0.7326
  916MPD2    C113407   0.086   3.752  15.856 -0.3862 -0.7596 -0.2594
  916MPD2    C213408   0.180   3.660  15.816 -0.4124  0.4358 -0.6013
  916MPD2    C313409   0.153   3.577  15.709 -0.7338  0.4112 -0.0485
  916MPD2    C413410   0.041   3.599  15.632 -0.7495  0.0517  0.2251
  916MPD2    C513411   4.670   3.683  15.675 -0.5682  0.6597 -0.1429
  916MPD2     H13412   0.277   3.655  15.865  0.1102 -1.1907 -1.8203
  916MPD2    H113413   0.022   3.544  15.540 -0.8399 -1.8685  1.3943
  916MPD2    H213414   4.627   3.842  15.798  1.9031  0.7670  2.1147
  916MPD2    H313415   4.578   3.682  15.617  0.6978  0.2173 -2.1716
  916MPD2     N13416   0.249   3.479  15.677  0.7568  0.5662 -0.0264
  916MPD2    H513417   0.330   3.480  15.737  1.4940  0.9378 -1.0231
  916MPD2    N113418   0.112   3.853  15.961  0.2625  0.5476 -0.1552
  916MPD2    H713419   0.042   3.926  15.965  0.6858  0.8928  0.8921
  917MPD2     C13420   0.791   0.772  10.914  0.1769  0.5281 -0.2607
  917MPD2    C113421   0.811   0.852  11.026  0.6198  0.2922 -0.4883
  917MPD2    C213422   0.942   0.895  11.053 -0.0343  0.3501 -0.4312
  917MPD2    C313423   1.047   0.896  10.957 -0.5384 -0.2780 -0.1974
  917MPD2    C413424   1.015   0.823  10.845 -0.2209  0.4728  0.3771
  917MPD2    C513425   0.893   0.770  10.825  0.3523 -0.4367 -0.3844
  917MPD2     H13426   0.957   0.938  11.152  0.2160 -1.7357  0.4485
  917MPD2    H113427   1.089   0.798  10.770 -1.2175 -2.2598  0.3052
  917MPD2    H213428   0.695   0.724  10.896 -0.4239  1.8568 -0.5592
  917MPD2    H313429   0.886   0.716  10.731  1.6477  1.8567 -1.7985
  917MPD2     N13430   1.171   0.967  10.958 -0.0537  0.6205 -0.2329
  917MPD2    H513431   1.218   0.978  10.868 -2.1681 -0.7826 -1.5244
  917MPD2    N113432   0.705   0.876  11.112  0.7278 -0.1907  0.6474
  917MPD2    H713433   0.613   0.845  11.082  1.4415 -0.9300 -0.7795
  918MPD2     C13434   0.741   1.335  11.993  0.3247  0.4574  0.3693
  918MPD2    C113435   0.825   1.255  11.918  0.2261 -0.2018  0.1758
  918MPD2    C213436   0.780   1.173  11.819 -0.3418 -0.0239 -0.6030
  918MPD2    C313437   0.648   1.169  11.781 -0.1618 -0.4195 -0.5641
  918MPD2    C413438   0.563   1.251  11.852  0.0108  0.3641 -0.0294
  918MPD2    C513439   0.607   1.321  11.960  0.1235  0.2554  0.4632
  918MPD2     H13440   0.852   1.121  11.757 -1.5071 -0.2599 -1.7674
  918MPD2    H113441   0.455   1.250  11.836 -0.0497  1.2262  0.3050
  918MPD2    H213442   0.772   1.397  12.076  0.5026 -0.1752  0.7790
  918MPD2    H313443   0.533   1.385  12.008 -0.7908 -1.2505  1.0504
  918MPD2     N13444   0.616   1.098  11.669  0.2807  0.0164  0.4816
  918MPD2    H513445   0.697   1.058  11.624 -0.9888 -0.9933 -0.9058
  918MPD2    N113446   0.966   1.254  11.943 -0.5590  0.4792  0.0971
  918MPD2    H713447   1.015   1.182  11.891 -0.9141  1.1963 -1.2236
  919MPD2     C13448   1.433   0.203  11.601  0.3178 -0.2206  0.2144
  919MPD2    C113449   1.436   0.071  11.574 -0.0123 -0.3413  0.4338
  919MPD2    C213450   1.440   0.032  11.442 -0.1803 -0.3371  0.5823
  919MPD2    C313451   1.444   0.114  11.334  0.2006  0.0539 -0.0875
  919MPD2    C413452   1.445   0.251  11.365  0.4179 -0.0084  0.3845
  919MPD2    C513453   1.448   0.294  11.498 -0.2314 -0.3949 -0.3915
  919MPD2     H13454   1.433   4.653  11.423 -0.6189 -0.0295 -0.9841
  919MPD2    H113455   1.442   0.325  11.286 -0.1771 -0.1815  0.2426
  919MPD2    H213456   1.415   0.240  11.701  0.0441 -0.5774  0.2962
  919MPD2    H313457   1.417   0.393  11.530 -3.2445 -1.0444 -1.2433
  919MPD2     N13458   1.441   0.074  11.196  0.1048 -0.6615  0.3517
  919MPD2    H513459   1.452   0.145  11.125  2.0508 -2.2720 -0.9619
  919MPD2    N113460   1.425   4.696  11.669 -0.8392  0.9372  0.5927
  919MPD2    H713461   1.427   4.601  11.634 -1.5300  0.5053  1.7143
  920MPD2     C13462   1.409   0.437  10.315  0.4136  0.0362 -0.2045
  920MPD2    C113463   1.312   0.338  10.325 -0.0956 -0.2708  1.1100
  920MPD2    C213464   1.332   0.244  10.426 -0.2053  0.3839 -0.2095
  920MPD2    C313465   1.432   0.254  10.516 -0.4287 -0.3349  0.1368
  920MPD2    C413466   1.524   0.361  10.510  0.1668 -0.6030 -0.0585
  920MPD2    C513467   1.510   0.445  10.404 -0.0313 -0.7296  0.3560
  920MPD2     H13468   1.268   0.159  10.445 -2.0595  1.7142 -0.5551
  920MPD2    H113469   1.598   0.371  10.589  1.8280 -1.2384 -1.5242
  920MPD2    H213470   1.406   0.512  10.237 -2.6221  1.4563  1.2751
  920MPD2    H313471   1.583   0.524  10.396  2.1027 -2.5705  1.7051
  920MPD2     N13472   1.437   0.152  10.609  0.5542 -0.4242 -0.0172
  920MPD2    H513473   1.369   0.077  10.618  0.7638 -0.7046 -0.7868
  920MPD2    N113474   1.195   0.332  10.243  0.0893  0.0735  0.4970
  920MPD2    H713475   1.131   0.259  10.273 -1.1420  0.5248 -1.0026
  921MPD2     C13476   1.871   4.395  16.785  0.0562 -0.2768  0.4520
  921MPD2    C113477   1.864   4.273  16.719  0.2119  0.1201  0.2272
  921MPD2    C213478   1.741   4.219  16.690  0.0118  0.2828  0.0874
  921MPD2    C313479   1.629   4.285  16.720 -0.0598  0.0476  0.0187
  921MPD2    C413480   1.636   4.396  16.804 -0.3913  0.3000 -0.4548
  921MPD2    C513481   1.757   4.453  16.835 -0.1311 -0.8266 -0.6881
  921MPD2     H13482   1.734   4.127  16.633  1.6581 -0.1544  0.5747
  921MPD2    H113483   1.551   4.455  16.835 -1.6861  0.4175 -4.2873
  921MPD2    H213484   1.964   4.449  16.801 -0.6921  1.2026 -0.3209
  921MPD2    H313485   1.761   4.550  16.884  2.5519 -1.3968  0.1946
  921MPD2     N13486   1.508   4.228  16.665  0.0498 -0.6432 -0.6359
  921MPD2    H513487   1.524   4.144  16.609  0.7853 -0.6881 -0.3570
  921MPD2    N113488   1.981   4.215  16.674 -0.5286  0.4026  0.2756
  921MPD2    H713489   2.064   4.270  16.656 -1.7055  1.4995 -1.7635
  922MPD2     C13490   2.736   1.915  16.437 -0.3202  0.6755 -0.0853
  922MPD2    C113491   2.766   1.896  16.575 -0.5990 -0.3939 -0.0631
  922MPD2    C213492   2.671   1.831  16.647 -0.0418 -0.0992  0.1160
  922MPD2    C313493   2.556   1.775  16.590  0.4538  0.1976  0.1439
  922MPD2    C413494   2.535   1.775  16.456 -0.3768 -0.0075 -0.3232
  922MPD2    C513495   2.630   1.846  16.382 -0.2652  0.4632  0.2680
  922MPD2     H13496   2.681   1.827  16.755 -0.0544  1.1702  0.1730
  922MPD2    H113497   2.456   1.729  16.398 -0.7597  0.2906 -0.0296
  922MPD2    H213498   2.804   1.976  16.378 -2.3004  1.0231 -1.9903
  922MPD2    H313499   2.610   1.857  16.276  0.0364 -1.6062 -0.0049
  922MPD2     N13500   2.467   1.721  16.681  0.3714 -0.3981  0.0182
  922MPD2    H513501   2.492   1.729  16.779 -0.6357 -0.1967  0.2618
  922MPD2    N113502   2.882   1.944  16.638 -0.0232  0.1065  0.5958
  922MPD2    H713503   2.889   1.931  16.738 -0.4509 -0.6700  0.5231
  923MPD2     C13504   0.075   2.650   9.493  0.6231 -0.6014 -0.6105
  923MPD2    C113505   0.030   2.770   9.531 -0.0490  0.1408  0.5716
  923MPD2    C213506   0.038   2.807   9.668 -0.9741 -0.4955  0.3352
  923MPD2    C313507   0.093   2.713   9.759  0.3182  0.0598  0.0958
  923MPD2    C413508   0.135   2.593   9.715 -0.2388  0.1885 -0.0729
  923MPD2    C513509   0.125   2.562   9.584  0.6416 -0.5473 -0.3502
  923MPD2     H13510   4.723   2.903   9.692 -0.7209 -0.0888 -0.8408
  923MPD2    H113511   0.189   2.529   9.783  0.3835 -2.3787 -3.0052
  923MPD2    H213512   0.073   2.612   9.392  1.0424  1.7904 -1.5149
  923MPD2    H313513   0.164   2.466   9.553 -1.8469 -2.2021  1.7537
  923MPD2     N13514   0.106   2.760   9.894  0.3419  0.0794  0.1476
  923MPD2    H513515   0.070   2.853   9.913  1.1446  0.1567  1.2422
  923MPD2    N113516   4.692   2.845   9.431 -0.2661  0.3511 -0.1181
  923MPD2    H713517   4.711   2.819   9.335 -0.2041 -1.4366  0.3668
  924MPD2     C13518   0.003   2.725  15.733 -0.8253 -0.3763  0.4326
  924MPD2    C113519   4.683   2.810  15.832  0.0697  0.2976  0.0877
  924MPD2    C213520   0.031   2.918  15.867  0.3253  0.1563  0.0249
  924MPD2    C313521   0.144   2.955  15.791 -0.0823  0.2741  0.0122
  924MPD2    C413522   0.190   2.869  15.688  0.3634 -0.0120  0.1826
  924MPD2    C513523   0.116   2.757  15.667 -0.0399  0.2751 -0.8035
  924MPD2     H13524   0.006   2.986  15.948  0.0899 -2.2537  1.9738
  924MPD2    H113525   0.287   2.886  15.642  0.4056  1.5355  0.8428
  924MPD2    H213526   4.682   2.631  15.712  1.3992 -1.5216  0.4518
  924MPD2    H313527   0.154   2.683  15.598  3.1785  1.8855 -0.7338
  924MPD2     N13528   0.226   3.070  15.824 -0.2216  0.3070 -0.3445
  924MPD2    H513529   0.326   3.056  15.813 -0.0161  1.8092 -0.3062
  924MPD2    N113530   4.556   2.775  15.882  0.2632  0.1928  0.2463
  924MPD2    H713531   4.499   2.704  15.838 -0.7536  0.4948  1.0987
  925MPD2     C13532   2.887   4.351  14.507 -0.1746 -0.0815  1.0836
  925MPD2    C113533   2.768   4.424  14.516 -0.2534 -0.1345  0.3898
  925MPD2    C213534   2.655   4.369  14.572  0.6422 -0.2133  0.0228
  925MPD2    C313535   2.660   4.248  14.641  0.1008 -0.1137  0.2295
  925MPD2    C413536   2.776   4.174  14.641  0.2921  0.7013  0.0587
  925MPD2    C513537   2.885   4.227  14.571  0.3436  0.5256 -0.1906
  925MPD2     H13538   2.566   4.430  14.580 -0.1445 -1.3520 -0.1011
  925MPD2    H113539   2.777   4.073  14.679 -0.7027  1.1970  1.3893
  925MPD2    H213540   2.971   4.386  14.448 -0.0911 -1.2581  0.5237
  925MPD2    H313541   2.974   4.166  14.564  0.2628  0.3890 -0.0199
  925MPD2     N13542   2.547   4.194  14.713  0.3428 -0.1576 -0.0072
  925MPD2    H513543   2.561   4.108  14.765  1.3786 -0.8582 -1.4425
  925MPD2    N113544   2.762   4.547  14.452 -0.5660  0.1498  0.4573
  925MPD2    H713545   2.669   4.588  14.454  0.4398  2.4139  1.3038
  926MPD2     C13546   1.901   2.893  13.113  0.1100  0.2802 -0.0947
  926MPD2    C113547   1.831   3.014  13.121  0.2375  0.2042  0.0105
  926MPD2    C213548   1.796   3.077  13.002 -0.2504 -0.1782  0.1843
  926MPD2    C313549   1.826   3.026  12.880  0.1593 -0.1441  0.1686
  926MPD2    C413550   1.895   2.904  12.872 -0.8726  0.0382 -0.1936
  926MPD2    C513551   1.930   2.842  12.989 -0.2574 -0.5907 -0.6588
  926MPD2     H13552   1.733   3.164  13.017 -0.8849 -0.8034  1.1043
  926MPD2    H113553   1.909   2.855  12.777  1.1279  2.2209 -1.0275
  926MPD2    H213554   1.947   2.850  13.201  0.4770  0.6182 -0.1219
  926MPD2    H313555   1.976   2.744  12.988  0.0822 -0.4317 -0.5208
  926MPD2     N13556   1.801   3.096  12.753  0.4696  0.1509 -0.1921
  926MPD2    H513557   1.837   3.053  12.668 -3.6086 -1.0593 -1.2817
  926MPD2    N113558   1.810   3.087  13.241  0.5803 -0.5369 -0.2153
  926MPD2    H713559   1.751   3.170  13.235 -1.5786 -2.0167  0.8527
  927MPD2     C13560   1.110   0.989   0.398 -0.5577 -0.5784  0.5143
  927MPD2    C113561   1.198   0.893   0.424  0.0653 -0.0855 -0.3495
  927MPD2    C213562   1.315   0.875   0.351  0.3815 -0.5570  0.1013
  927MPD2    C313563   1.336   0.962   0.238 -0.2007 -0.9117 -0.2984
  927MPD2    C413564   1.235   1.059   0.215 -0.3879 -0.2137  0.4550
  927MPD2    C513565   1.124   1.073   0.294 -0.1049  1.3997 -0.0511
  927MPD2     H13566   1.375   0.785   0.361 -0.1809 -0.7431  1.8639
  927MPD2    H113567   1.245   1.120   0.126 -0.2368 -0.1519  0.5145
  927MPD2    H213568   1.016   0.995   0.452 -0.6061  1.4941  0.2223
  927MPD2    H313569   1.045   1.139   0.260 -0.6987  1.2841  1.1092
  927MPD2     N13570   1.448   0.941   0.152 -0.1064 -0.3633  0.2128
  927MPD2    H513571   1.514   0.865   0.154 -0.1486 -0.4248 -1.0708
  927MPD2    N113572   1.159   0.805   0.527 -0.1607  0.7164  0.4762
  927MPD2    H713573   1.073   0.834   0.573 -0.6396  0.4085 -0.2423
  928MPD2     C13574   3.511   3.605   0.443  0.7872 -0.2110  0.6097
  928MPD2    C113575   3.621   3.604   0.521  0.0018 -0.3772  0.2209
  928MPD2    C213576   3.747   3.629   0.461  0.2567  0.4838  0.2048
  928MPD2    C313577   3.764   3.654   0.326 -0.7186  0.2825 -0.0101
  928MPD2    C413578   3.649   3.643   0.249  0.4042 -0.4099  0.2105
  928MPD2    C513579   3.527   3.629   0.308  0.2948 -0.2560  0.3574
  928MPD2     H13580   3.835   3.627   0.524 -0.4886  1.1130  1.2627
  928MPD2    H113581   3.651   3.665   0.143 -2.9243  0.8545  0.4287
  928MPD2    H213582   3.411   3.579   0.477  0.9568 -0.2790  1.0636
  928MPD2    H313583   3.436   3.625   0.249  0.7380  0.0278 -0.3344
  928MPD2     N13584   3.887   3.679   0.257 -0.6070  0.2976  0.1363
  928MPD2    H513585   3.891   3.665   0.156 -0.0529 -3.2049  0.6325
  928MPD2    N113586   3.606   3.580   0.660 -0.3257 -0.0986  0.1358
  928MPD2    H713587   3.511   3.570   0.694 -1.3682  1.3201 -2.3864
  929MPD2     C13588   4.641   3.559  10.509 -0.5101 -0.5831  0.4500
  929MPD2    C113589   4.538   3.516  10.429 -0.0746  0.2789  0.0137
  929MPD2    C213590   4.537   3.548  10.293 -0.6863 -0.1271 -0.1422
  929MPD2    C313591   4.659   3.593  10.242 -0.0170  0.2927 -0.2434
  929MPD2    C413592   0.029   3.648  10.322  0.6729  0.0896 -0.7775
  929MPD2    C513593   0.017   3.629  10.457 -0.0347  0.1680  0.1772
  929MPD2     H13594   4.460   3.515  10.224 -0.8300  3.6952 -1.8229
  929MPD2    H113595   0.119   3.697  10.288  1.2518  0.2231  0.9458
  929MPD2    H213596   4.637   3.526  10.612  0.6399 -0.1722  0.6194
  929MPD2    H313597   0.091   3.668  10.526 -0.5069  0.1867  0.6802
  929MPD2     N13598   4.677   3.611  10.104  0.3187  0.0308  0.0055
  929MPD2    H513599   0.041   3.647  10.079  0.2152  1.8214  2.2173
  929MPD2    N113600   4.424   3.451  10.497 -0.1037  0.2935 -0.0643
  929MPD2    H713601   4.427   3.450  10.599 -0.1396  1.3833 -0.0574
  930MPD2     C13602   0.808   1.010  13.775 -0.0110  0.6241  0.0632
  930MPD2    C113603   0.883   1.081  13.680  0.1178  0.5606  0.7291
  930MPD2    C213604   0.912   1.020  13.556  0.8360  0.1056  0.1078
  930MPD2    C313605   0.858   0.900  13.512  0.1540 -0.1205  0.1007
  930MPD2    C413606   0.788   0.833  13.607 -0.1688  0.1966 -0.6829
  930MPD2    C513607   0.762   0.884  13.735  0.0604 -0.2459  0.3083
  930MPD2     H13608   0.990   1.072  13.501 -0.9926  2.7043 -0.0453
  930MPD2    H113609   0.726   0.751  13.571  0.6752 -0.5770 -0.3939
  930MPD2    H213610   0.795   1.025  13.881 -2.8197  0.5560 -0.2790
  930MPD2    H313611   0.712   0.820  13.806 -0.9995  0.6785  0.3905
  930MPD2     N13612   0.882   0.851  13.382  0.5981 -0.1288  0.0387
  930MPD2    H513613   0.864   0.754  13.358  0.2048  0.0847 -0.5479
  930MPD2    N113614   0.928   1.212  13.707 -0.8639 -0.5810  0.1826
  930MPD2    H713615   0.917   1.235  13.805 -2.2740 -2.6527  0.5055
  931MPD2     C13616   1.464   0.406   1.170 -0.8650  0.3458 -0.1396
  931MPD2    C113617   1.353   0.350   1.103  0.5161  0.4823  0.3757
  931MPD2    C213618   1.308   0.220   1.132  0.0723 -0.7591 -0.2306
  931MPD2    C313619   1.361   0.158   1.248  0.4258  0.2922  0.9054
  931MPD2    C413620   1.472   0.207   1.310 -0.6732 -0.9310  0.5190
  931MPD2    C513621   1.515   0.337   1.289  0.5422  0.4152  0.3165
  931MPD2     H13622   1.221   0.169   1.093 -1.6672 -0.3207  3.0134
  931MPD2    H113623   1.526   0.154   1.388  1.4150  0.5771  0.0920
  931MPD2    H213624   1.500   0.505   1.144 -1.3514  1.3551  3.0099
  931MPD2    H313625   1.598   0.369   1.351  0.1851 -0.9165  1.4791
  931MPD2     N13626   1.329   0.027   1.293 -0.7326  0.4406 -0.3118
  931MPD2    H513627   1.400   4.718   1.354 -1.9234 -2.7056 -0.8346
  931MPD2    N113628   1.309   0.414   0.993  0.0226 -0.0824 -0.1568
  931MPD2    H713629   1.344   0.509   0.983  1.7173 -0.5676  1.1379
  932MPD2     C13630   2.879   4.015  11.204 -0.5619 -0.6909  0.1875
  932MPD2    C113631   2.986   4.095  11.178 -0.3259  0.2643  0.2250
  932MPD2    C213632   3.107   4.043  11.204 -0.1863  0.5466 -0.0408
  932MPD2    C313633   3.125   3.909  11.253  0.1788  0.3795  0.1437
  932MPD2    C413634   3.017   3.836  11.280 -0.0231  0.2077 -0.0306
  932MPD2    C513635   2.889   3.880  11.252  0.1470  0.4742 -0.3090
  932MPD2     H13636   3.191   4.108  11.180  1.5064 -1.7364 -0.3824
  932MPD2    H113637   3.032   3.740  11.327 -1.3554 -1.1410 -2.3988
  932MPD2    H213638   2.777   4.049  11.189 -1.5095 -3.8785 -0.6198
  932MPD2    H313639   2.806   3.812  11.266 -0.6192  1.0693 -2.0014
  932MPD2     N13640   3.250   3.855  11.294 -0.3441  0.2003 -0.7599
  932MPD2    H513641   3.259   3.758  11.323 -1.3429  0.3143 -0.0788
  932MPD2    N113642   2.979   4.217  11.113  0.1878 -0.5147 -0.1019
  932MPD2    H713643   3.069   4.257  11.091  1.4377 -1.4952  3.2519
  933MPD2     C13644   3.206   3.495   1.397  0.2532 -0.1529  0.1179
  933MPD2    C113645   3.255   3.607   1.321 -0.2610 -0.2679 -0.2210
  933MPD2    C213646   3.197   3.729   1.348 -0.1827 -0.4322 -0.2166
  933MPD2    C313647   3.105   3.750   1.455  0.3111  0.6011 -0.1749
  933MPD2    C413648   3.061   3.635   1.525 -0.1277 -0.1450 -0.7930
  933MPD2    C513649   3.108   3.510   1.490  0.4347 -0.2455  0.4424
  933MPD2     H13650   3.229   3.811   1.284 -1.0354 -0.0721 -0.1728
  933MPD2    H113651   2.983   3.639   1.599 -0.0701 -0.1730 -0.7313
  933MPD2    H213652   3.239   3.393   1.380  1.3608  0.4751 -1.4932
  933MPD2    H313653   3.064   3.425   1.540 -1.1916  0.7881  0.7779
  933MPD2     N13654   3.061   3.878   1.488 -0.1793 -0.0436  0.1364
  933MPD2    H513655   3.108   3.951   1.436 -1.2964  0.3234 -0.3567
  933MPD2    N113656   3.353   3.590   1.225 -0.4055  0.0945 -0.3813
  933MPD2    H713657   3.387   3.494   1.217  0.4444  0.4510 -1.0552
  934MPD2     C13658   1.167   1.153   1.300  0.5183  0.4110  1.1758
  934MPD2    C113659   1.093   1.263   1.248  0.3336  0.7452 -0.0841
  934MPD2    C213660   0.959   1.236   1.211 -0.4189  0.7288  0.4235
  934MPD2    C313661   0.898   1.114   1.238 -0.1414  1.1693  0.6319
  934MPD2    C413662   0.968   1.016   1.298 -0.2023  0.2062 -0.4460
  934MPD2    C513663   1.095   1.037   1.330  1.0867 -0.8794  0.0283
  934MPD2     H13664   0.919   1.320   1.156 -1.8050  0.8372  1.6132
  934MPD2    H113665   0.914   0.925   1.320  2.1102 -1.1159 -0.2382
  934MPD2    H213666   1.270   1.163   1.331  0.8239  3.1222 -0.6493
  934MPD2    H313667   1.141   0.951   1.376  3.0841 -1.0553 -2.2764
  934MPD2     N13668   0.769   1.079   1.204  0.5055  0.0770 -0.0136
  934MPD2    H513669   0.740   0.983   1.215 -0.3978  0.5993  2.1937
  934MPD2    N113670   1.142   1.395   1.243 -0.2926 -0.3041 -0.2414
  934MPD2    H713671   1.078   1.467   1.210  0.7842  0.9917  0.5099
  935MPD2     C13672   0.453   0.311   1.181 -0.7424 -0.2253  0.0144
  935MPD2    C113673   0.348   0.383   1.128  0.4529 -0.4217  0.7739
  935MPD2    C213674   0.356   0.520   1.134 -0.3811  0.6123  0.0468
  935MPD2    C313675   0.455   0.584   1.207  0.8646 -0.0318 -0.5250
  935MPD2    C413676   0.557   0.506   1.263  0.4020 -0.0486 -0.1737
  935MPD2    C513677   0.551   0.370   1.250  0.1447  0.3457 -0.2816
  935MPD2     H13678   0.280   0.573   1.079 -0.2105 -0.0783 -0.8521
  935MPD2    H113679   0.647   0.541   1.313  0.0750  0.8648 -0.2215
  935MPD2    H213680   0.453   0.203   1.169 -0.5503 -0.3612  1.1906
  935MPD2    H313681   0.644   0.315   1.266  0.5818  0.8978 -0.9153
  935MPD2     N13682   0.454   0.723   1.225 -0.1918 -0.5908 -0.5110
  935MPD2    H513683   0.534   0.763   1.274 -1.0705 -0.5248  0.8569
  935MPD2    N113684   0.252   0.324   1.040  0.2219  0.8787 -0.3030
  935MPD2    H713685   0.177   0.381   1.003 -0.9650 -0.4986  0.0310
  936MPD2     C13686   3.899   2.453  12.833 -0.5925  0.3294 -0.2687
  936MPD2    C113687   3.788   2.510  12.900  0.2799 -0.1860  0.0678
  936MPD2    C213688   3.705   2.589  12.824 -0.3584 -0.2951  0.3198
  936MPD2    C313689   3.713   2.595  12.688 -0.0414  0.2511 -0.7081
  936MPD2    C413690   3.822   2.535  12.624 -0.5156 -0.0148  0.0987
  936MPD2    C513691   3.917   2.469  12.699  0.0486  0.4997 -0.3764
  936MPD2     H13692   3.627   2.639  12.880 -1.7651 -1.5010 -0.5816
  936MPD2    H113693   3.832   2.553  12.518  1.8738 -0.9278  0.1706
  936MPD2    H213694   3.979   2.405  12.888 -1.0824 -2.0085 -1.5841
  936MPD2    H313695   4.008   2.432  12.654  1.1944  1.5353  1.1005
  936MPD2     N13696   3.620   2.668  12.614  0.3318 -0.8386 -0.8181
  936MPD2    H513697   3.643   2.671  12.515  0.2868 -1.5931 -0.8490
  936MPD2    N113698   3.785   2.514  13.043  0.0001  0.0039  0.7325
  936MPD2    H713699   3.712   2.570  13.085 -0.2103  1.4394 -1.5228
  937MPD2     C13700   1.490   3.956  11.739  0.1798 -0.0812 -0.2603
  937MPD2    C113701   1.536   4.087  11.720 -0.0183 -0.3420  0.2398
  937MPD2    C213702   1.646   4.102  11.632  0.5987 -0.2657  0.5467
  937MPD2    C313703   1.696   3.996  11.564  0.8200 -0.4818  0.3002
  937MPD2    C413704   1.648   3.870  11.590  0.3998  0.4964 -1.0123
  937MPD2    C513705   1.552   3.848  11.684 -1.2148 -0.6328  0.1580
  937MPD2     H13706   1.664   4.204  11.602 -1.3783 -0.2798 -0.6649
  937MPD2    H113707   1.677   3.787  11.527  1.1563  0.1233 -0.1811
  937MPD2    H213708   1.406   3.939  11.805  1.4914 -1.0966  1.1349
  937MPD2    H313709   1.524   3.746  11.708 -0.5362 -0.7650  0.3918
  937MPD2     N13710   1.772   4.036  11.452 -0.3502  0.1658  0.1050
  937MPD2    H513711   1.778   4.134  11.424 -1.0783  0.0085 -0.5901
  937MPD2    N113712   1.468   4.211  11.762  0.8305 -0.0596  0.1570
  937MPD2    H713713   1.516   4.294  11.729  0.0263  0.8690  1.2988
  938MPD2     C13714   3.694   0.852   1.324  0.3274  0.7881  0.1390
  938MPD2    C113715   3.749   0.752   1.245 -0.1071 -0.3428 -0.2543
  938MPD2    C213716   3.750   0.619   1.290  0.1161 -0.1607 -0.0360
  938MPD2    C313717   3.681   0.588   1.409  0.6712 -0.3300  0.6111
  938MPD2    C413718   3.610   0.694   1.477 -0.3441 -0.1567 -0.3989
  938MPD2    C513719   3.620   0.820   1.432  0.5201 -0.1870 -0.3820
  938MPD2     H13720   3.794   0.540   1.230 -3.6480 -1.8580 -0.5602
  938MPD2    H113721   3.546   0.665   1.559 -1.6681 -0.3257 -1.4831
  938MPD2    H213722   3.714   0.956   1.301  0.0931  0.9708  0.7402
  938MPD2    H313723   3.582   0.905   1.488 -0.0772 -1.0274  0.4668
  938MPD2     N13724   3.672   0.454   1.464  1.2438  0.1543  0.4277
  938MPD2    H513725   3.613   0.444   1.546  0.6650 -0.0321 -0.0082
  938MPD2    N113726   3.822   0.785   1.129  0.2352  0.2585  0.6540
  938MPD2    H713727   3.857   0.707   1.074  0.2251 -0.0575  1.0874
  939MPD2     C13728   0.435   2.804   0.138  0.6147 -0.1035  0.5403
  939MPD2    C113729   0.539   2.775   0.227  0.2337 -0.1216  0.0658
  939MPD2    C213730   0.670   2.822   0.196 -0.5827  0.2594  0.8019
  939MPD2    C313731   0.697   2.858   0.062 -0.3061 -0.5987 -0.5923
  939MPD2    C413732   0.591   2.865  17.684 -0.2792 -0.1970  0.1116
  939MPD2    C513733   0.463   2.840   0.013 -0.0963  0.7395  0.1603
  939MPD2     H13734   0.749   2.815   0.270  0.3425 -1.6098 -0.3900
  939MPD2    H113735   0.608   2.887  17.579 -0.0676 -1.9039 -0.2212
  939MPD2    H213736   0.330   2.799   0.164 -0.0290 -2.1379 -2.4728
  939MPD2    H313737   0.378   2.856  17.659 -0.8190 -1.1298  0.6155
  939MPD2     N13738   0.828   2.888   0.022 -0.3795 -0.1044 -0.6497
  939MPD2    H513739   0.896   2.894   0.097 -1.0744  0.2985 -0.0645
  939MPD2    N113740   0.512   2.719   0.352  0.4347 -0.8092 -0.2386
  939MPD2    H713741   0.424   2.672   0.371  0.1192 -0.0731  0.0994
  940MPD2     C13742   4.181   2.794  13.429  0.0084  0.2602  0.1296
  940MPD2    C113743   4.173   2.667  13.372  0.1571 -0.8053  0.0273
  940MPD2    C213744   4.195   2.656  13.237 -0.8602 -0.4240 -0.5362
  940MPD2    C313745   4.237   2.763  13.163  0.4417 -0.4154  0.8255
  940MPD2    C413746   4.231   2.890  13.216 -0.3673  0.0754 -0.0852
  940MPD2    C513747   4.204   2.906  13.351  0.1635 -1.1117  1.0417
  940MPD2     H13748   4.180   2.556  13.198  0.7446 -1.1024  0.6232
  940MPD2    H113749   4.272   2.974  13.162 -0.2001  0.1442  0.1432
  940MPD2    H213750   4.160   2.812  13.534 -0.8346  1.7456 -0.3033
  940MPD2    H313751   4.209   3.004  13.396  0.4632 -1.7795  2.4588
  940MPD2     N13752   4.272   2.742  13.030 -0.5355 -0.3729 -0.2023
  940MPD2    H513753   4.331   2.816  12.996 -0.0551 -1.9737 -2.8202
  940MPD2    N113754   4.144   2.545  13.440 -0.0583 -0.6424  0.0126
  940MPD2    H713755   4.167   2.459  13.391 -0.0305 -0.6460  0.0323
  941MPD2     C13756   4.436   1.373   9.104 -0.0888 -0.5713 -0.4437
  941MPD2    C113757   4.374   1.347   9.223  0.0451  0.1846  0.2201
  941MPD2    C213758   4.323   1.221   9.251 -0.2058  0.5619  0.5971
  941MPD2    C313759   4.326   1.120   9.159  0.2454 -0.1258 -0.2632
  941MPD2    C413760   4.386   1.149   9.039  0.0235  0.3937  0.4710
  941MPD2    C513761   4.448   1.271   9.014  0.6512 -0.1392 -0.0196
  941MPD2     H13762   4.274   1.200   9.346  1.7117  0.7310  1.6143
  941MPD2    H113763   4.384   1.076   8.959  1.8856  0.8067  0.0463
  941MPD2    H213764   4.475   1.472   9.083 -0.6092 -0.1271  0.6545
  941MPD2    H313765   4.505   1.285   8.923  2.5714 -1.7975  0.9482
  941MPD2     N13766   4.290   0.988   9.184  0.1177  0.1634  0.3029
  941MPD2    H513767   4.318   0.923   9.111 -1.0447  1.3525 -1.1838
  941MPD2    N113768   4.365   1.455   9.320 -0.2467  0.2101 -0.0448
  941MPD2    H713769   4.302   1.427   9.395  0.1389  0.1154  0.2402
  942MPD2     C13770   3.583   2.817   9.598  1.0538 -0.1657  0.3876
  942MPD2    C113771   3.646   2.745   9.497  0.3657  0.5833 -0.3998
  942MPD2    C213772   3.783   2.741   9.497  0.1121 -0.3660  1.2721
  942MPD2    C313773   3.861   2.794   9.595 -0.3076 -0.2259  0.7318
  942MPD2    C413774   3.796   2.853   9.704 -0.4760  0.5339 -0.0425
  942MPD2    C513775   3.661   2.863   9.700 -0.0570  0.0438 -0.5363
  942MPD2     H13776   3.834   2.701   9.410 -1.5729  0.7209 -0.2183
  942MPD2    H113777   3.843   2.885   9.797  1.2719 -1.8697 -0.1213
  942MPD2    H213778   3.476   2.830   9.607  0.9723 -0.9614  0.5576
  942MPD2    H313779   3.606   2.914   9.778  1.5879  0.2063  0.5069
  942MPD2     N13780   3.999   2.779   9.602 -0.4368 -0.6549  0.2045
  942MPD2    H513781   4.039   2.814   9.688 -1.1132 -0.2947  0.3782
  942MPD2    N113782   3.570   2.688   9.396 -0.1827  0.3932 -0.0783
  942MPD2    H713783   3.619   2.655   9.313  1.2763  1.1973  0.4734
  943MPD2     C13784   1.314   0.161   9.041  0.5086  0.4367  0.2501
  943MPD2    C113785   1.274   0.290   9.072 -0.1040 -0.6117  0.5724
  943MPD2    C213786   1.151   0.342   9.030  0.2212  0.1167 -0.7695
  943MPD2    C313787   1.054   0.253   8.985  0.4316 -0.3573 -0.4229
  943MPD2    C413788   1.091   0.122   8.961  0.0121  0.2075 -0.8611
  943MPD2    C513789   1.217   0.075   8.995  0.8615  0.1596 -0.0884
  943MPD2     H13790   1.112   0.439   9.060 -0.6823 -0.8299  1.1404
  943MPD2    H113791   1.022   0.047   8.924  1.1215 -1.3479  0.2152
  943MPD2    H213792   1.414   0.123   9.057  0.2269 -0.5117 -0.2440
  943MPD2    H313793   1.248   4.707   8.953 -0.1054  0.1789 -0.8523
  943MPD2     N13794   0.916   0.279   8.958  0.5128  0.2800  0.6160
  943MPD2    H513795   0.863   0.206   8.910 -0.8296  1.2741  0.6048
  943MPD2    N113796   1.364   0.374   9.141  0.1152  0.3311 -0.3116
  943MPD2    H713797   1.442   0.334   9.190 -0.7484 -0.3892  0.4614
  944MPD2     C13798   2.076   0.452  10.722 -0.2211 -0.2144  0.0664
  944MPD2    C113799   2.193   0.515  10.772  0.4449  0.6443  0.3455
  944MPD2    C213800   2.179   0.610  10.879  0.0893 -0.0145 -0.2174
  944MPD2    C313801   2.051   0.638  10.926 -0.1650  0.5012  1.0243
  944MPD2    C413802   1.942   0.576  10.868  0.4992 -0.4833  1.0194
  944MPD2    C513803   1.955   0.496  10.760  0.0426 -0.8523  0.2904
  944MPD2     H13804   2.268   0.647  10.929 -0.5859  0.8920  0.3129
  944MPD2    H113805   1.839   0.595  10.896  0.9738  0.9417  1.7989
  944MPD2    H213806   2.087   0.386  10.637  0.4244  1.2072 -0.9518
  944MPD2    H313807   1.871   0.474  10.695  0.0511  4.0831 -1.4210
  944MPD2     N13808   2.036   0.742  11.022 -0.3556 -0.0039  0.1900
  944MPD2    H513809   2.120   0.793  11.048 -0.7429  0.5078  0.4484
  944MPD2    N113810   2.313   0.474  10.714  0.2077 -0.0969 -0.3366
  944MPD2    H713811   2.316   0.410  10.636 -2.3912  1.9215 -2.1133
    1TCq1    O113812   4.496   1.326  13.785 -0.0671  0.1888 -0.0919
    1TCq1    C113813   4.438   1.423  13.861  0.3931 -0.1531  0.1599
    1TCq1    O213814   4.402   1.532  13.814  0.4792 -0.5818 -0.9805
    1TCq1    C213815   4.488   1.399  14.001  0.2242  1.0003 -0.5606
    1TCq1    C313816   4.491   1.274  14.039 -0.6720  0.3712 -0.1104
    1TCq1    C413817   4.554   1.237  14.154  0.3286 -0.3859 -0.2403
    1TCq1    C513818   4.632   1.325  14.221  0.3785  0.2556 -0.3135
    1TCq1    C613819   4.630   1.457  14.182 -0.1522 -0.1220 -0.8184
    1TCq1    C713820   4.562   1.492  14.070 -0.6795 -0.1651 -1.1290
    1TCq1    C813821   4.721   1.552  14.242  0.4636  0.2976  0.0429
    1TCq1    O413822   0.078   1.502  14.318  0.9635  0.4270  0.0986
    1TCq1    C913823   4.542   1.101  14.201  0.2090 -0.3151  0.8929
    1TCq1    O513824   4.500   1.020  14.112 -0.2134 -0.4585 -0.3077
    1TCq1    O613825   4.507   1.100  14.318  0.1248 -0.2432  0.2803
    1TCq1    H113826   4.504   1.238  13.829  1.0851  0.7079  0.7387
    1TCq1    H213827   4.444   1.198  13.977  1.0679  0.1402 -1.1493
    1TCq1    H313828   4.688   1.291  14.308  1.2825 -0.8433 -1.3286
    1TCq1    H413829   4.577   1.587  14.020 -0.0468 -0.4700 -1.5170
    2MPD2     C13830   0.133   2.028  14.396 -0.4785  0.3594  0.5660
    2MPD2    C113831   0.024   2.032  14.313 -0.7147 -0.7492  0.3937
    2MPD2    C213832   4.697   1.914  14.267  0.2096 -0.5091  0.7572
    2MPD2    C313833   0.016   1.792  14.294  0.0637 -0.2409  0.4293
    2MPD2    C413834   0.128   1.786  14.376  0.2977  0.5139  0.1293
    2MPD2    C513835   0.175   1.905  14.434 -0.3561 -0.5840  0.5451
    2MPD2     H13836   4.596   1.909  14.226 -0.2477  0.9260  1.7015
    2MPD2    H113837   0.167   1.694  14.418  1.4508  1.7369  1.7469
    2MPD2    H213838   0.179   2.111  14.448  0.6184 -0.0290  0.2164
    2MPD2    H313839   0.268   1.899  14.490 -0.5989 -3.2134  0.6738
    2MPD2     N13840   4.675   1.683  14.244  0.1436  0.0489 -0.2302
    2MPD2    H513841   4.590   1.706  14.192  0.1005  0.4044 -0.0014
    2MPD2    N113842   4.700   2.161  14.271  0.2920 -0.4935 -0.7158
    2MPD2    H713843   0.034   2.240  14.290  0.3360 -0.5549 -0.6037
    3TMC2    C113844   4.553   2.311  14.167  0.1387  0.5062 -0.1798
    3TMC2    C213845   4.582   2.410  14.262  0.1397 -0.4464 -0.4041
    3TMC2    C313846   4.573   2.539  14.219 -0.0153  0.1493 -0.5565
    3TMC2    C413847   4.501   2.338  14.041  0.5544 -0.6863  0.7061
    3TMC2    C513848   4.507   2.466  13.998 -0.6699 -0.3977  0.6976
    3TMC2    C613849   4.536   2.567  14.091  1.0623 -0.4030  0.5560
    3TMC2     C13850   4.581   2.174  14.202 -0.2137  0.2367  0.5068
    3TMC2     O13851   4.493   2.093  14.176  0.0797 -0.0674 -0.3500
    3TMC2     H13852   4.609   2.380  14.363 -1.4561 -2.3788 -0.5484
    3TMC2    H113853   4.472   2.266  13.965  0.8876  0.5968 -0.6471
    3TMC2    H213854   4.517   2.669  14.058 -0.4391 -0.0910  2.3840
    3TMC2    C713855   4.503   2.500  13.858 -0.9158 -0.5896 -0.1608
    3TMC2    C813856   4.535   2.626  14.321  0.3041 -0.2407  1.1193
    3TMC2    O113857   4.458   2.418  13.779 -0.1025  0.0133  0.6584
    3TMC2    O213858   4.498   2.580  14.429 -0.1334 -0.0874  0.3029
    3TMC2    O513859   4.562   2.755  14.291 -0.4369 -0.1901 -0.5366
    3TMC2    H513860   4.581   2.781  14.198 -3.3452  3.2042 -0.1829
    4MPD2     C13861   4.418   3.599  13.122  0.0417 -0.1546  0.5657
    4MPD2    C113862   4.403   3.466  13.150 -0.7205  0.2817  0.9171
    4MPD2    C213863   4.505   3.399  13.219  0.2484  0.4955 -0.3205
    4MPD2    C313864   4.626   3.459  13.247  0.5147 -0.7470 -0.6141
    4MPD2    C413865   4.638   3.598  13.238 -0.1863  0.4034 -0.2367
    4MPD2    C513866   4.538   3.657  13.164 -0.3920 -0.0549  0.5094
    4MPD2     H13867   4.499   3.291  13.227 -0.5986  0.6375  0.9215
    4MPD2    H113868   4.724   3.653  13.275  0.3767 -2.1765  2.3270
    4MPD2    H213869   4.346   3.659  13.067 -1.1413 -2.1201 -0.0346
    4MPD2    H313870   4.569   3.757  13.138 -0.4364  0.1021  1.0672
    4MPD2     N13871   4.718   3.380  13.316  0.5181  0.1320 -0.3123
    4MPD2    H513872   4.694   3.284  13.338  1.3664 -0.6846 -2.9688
    4MPD2    N113873   4.292   3.395  13.099  0.2810 -0.7589  0.0815
    4MPD2    H713874   4.237   3.445  13.030  1.8660 -0.8048 -1.2344
    5TCq2    C113875   0.114   3.415  13.355  0.1944  0.0054  0.0702
    5TCq2    O213876   0.179   3.516  13.335  0.0657  0.4555 -0.4331
    5TCq2    C213877   0.170   3.323  13.446  0.0418 -0.0113  0.4045
    5TCq2    C313878   0.300   3.348  13.474 -0.2501 -0.6097  0.6839
    5TCq2    C413879   0.361   3.278  13.573  0.6643 -0.8375  0.7787
    5TCq2    C513880   0.294   3.176  13.644  0.9227 -0.9160 -0.1387
    5TCq2    C613881   0.163   3.154  13.603  0.3127 -0.9517  0.1558
    5TCq2    C713882   0.093   3.227  13.511 -0.6010 -0.0203  0.2924
    5TCq2    C813883   0.098   3.031  13.655 -0.6832  0.3776 -0.0979
    5TCq2    O413884   0.127   2.984  13.767 -0.6186  0.1136 -0.5625
    5TCq2    C913885   0.485   3.328  13.619  0.6296 -0.3793 -0.2327
    5TCq2    O513886   0.531   3.440  13.580  0.3970  0.2164  0.5200
    5TCq2    O613887   0.550   3.275  13.709 -0.3048  0.6497  0.0592
    5TCq2    H213888   0.349   3.426  13.416  1.1483 -1.0524  1.2502
    5TCq2    H313889   0.337   3.111  13.719  2.9788 -0.4172 -0.9045
    5TCq2    H413890   4.720   3.204  13.478 -0.0839 -0.5043 -0.9720
    6MPD1     C13891   3.476   4.393  12.104 -1.0987 -0.3814  0.0060
    6MPD1    C113892   3.364   4.354  12.177 -0.2864  0.4530  0.3311
    6MPD1    C213893   3.381   4.272  12.286 -0.2637 -0.1850  0.0314
    6MPD1    C313894   3.509   4.248  12.333 -0.3909 -0.4058 -0.2044
    6MPD1    C413895   3.613   4.301  12.261  0.2737  0.4417 -0.4162
    6MPD1    C513896   3.603   4.376  12.150 -0.7907  0.6440 -0.0714
    6MPD1     H13897   3.304   4.224  12.345  0.0323  0.9204  1.3202
    6MPD1    H113898   3.711   4.279  12.301 -0.0836 -1.0040 -0.3582
    6MPD1    H213899   3.455   4.439  12.008 -0.6426  2.3790  1.2105
    6MPD1    H313900   3.686   4.425  12.101 -0.7504  0.3554 -0.2944
    6MPD1     N13901   3.539   4.165  12.442 -0.4157 -0.4616 -0.4982
    6MPD1    H513902   3.638   4.153  12.463 -0.8295 -0.4353  1.4401
    6MPD1    N113903   3.238   4.355  12.122  0.0390  0.0391  0.5578
    6MPD1    H613904   3.225   4.443  12.073  1.2895  0.0181  0.2038
    6MPD1    H713905   3.171   4.352  12.199 -0.3120 -0.1190  0.2471
    7MPD2     C13906   3.453   3.518  13.042  0.3152  0.1754  0.6133
    7MPD2    C113907   3.513   3.488  12.919  0.3603 -0.4269  0.2873
    7MPD2    C213908   3.604   3.388  12.903  0.6948 -0.7115  0.1945
    7MPD2    C313909   3.644   3.315  13.012 -0.0710  0.0775  0.7960
    7MPD2    C413910   3.591   3.347  13.135 -0.0329 -0.3334  0.0887
    7MPD2    C513911   3.494   3.444  13.153 -0.3690  0.4389  0.8296
    7MPD2     H13912   3.665   3.382  12.813 -0.3266 -3.1265 -0.3323
    7MPD2    H113913   3.606   3.283  13.221  0.3066 -2.1160 -1.2997
    7MPD2    H213914   3.388   3.603  13.061 -0.8289 -0.4044 -0.6917
    7MPD2    H313915   3.443   3.451  13.249 -0.0961 -1.1265  1.1021
    7MPD2     N13916   3.747   3.212  13.015  0.1188 -0.2158  0.0889
    7MPD2    H513917   3.786   3.183  12.926  0.8305 -2.5425  1.1925
    7MPD2    N113918   3.508   3.574  12.810 -1.1770  0.4455  0.5024
    7MPD2    H713919   3.547   3.537  12.723  0.3129  2.8299  0.1297
    8TMC3    C113920   3.943   3.099  13.076 -0.0629  0.4565 -0.1166
    8TMC3    C213921   4.048   3.164  13.148 -0.7016 -0.5152 -0.6589
    8TMC3    C313922   4.144   3.226  13.069 -0.1316  0.2073  0.2456
    8TMC3    C413923   3.958   3.072  12.942  0.4508 -0.0556  0.1254
    8TMC3    C513924   4.048   3.145  12.871 -0.0184 -0.7705 -0.3051
    8TMC3    C613925   4.144   3.218  12.932 -0.2444 -0.4679 -0.2852
    8TMC3     C13926   3.817   3.160  13.113 -1.1738 -1.0532  0.3191
    8TMC3     O13927   3.812   3.203  13.225 -0.3650  0.5405  0.2126
    8TMC3     H13928   4.033   3.202  13.248 -0.5540 -1.6464 -0.2136
    8TMC3    H113929   3.869   3.026  12.900  0.7159 -0.7042  0.2770
    8TMC3    H213930   4.222   3.264  12.874 -0.0745 -2.0236 -1.3086
    8TMC3    C713931   3.991   3.201  12.753 -0.2497  0.5939  0.1387
    8TMC3    C813932   4.255   3.272  13.152 -0.2286 -0.7032  0.2522
    8TMC3    O113933   3.868   3.213  12.747  0.5953 -0.5773 -0.1375
    8TMC3    O213934   4.285   3.217  13.256 -0.3499 -0.1774 -0.1919
    9TMC3    C113935   3.520   3.977  12.570 -0.0290  0.1845 -0.2329
    9TMC3    C213936   3.639   3.935  12.513  0.5066 -0.3688 -0.2148
    9TMC3    C313937   3.685   3.809  12.546  0.7015  0.1295 -0.2800
    9TMC3    C413938   3.447   3.900  12.656  0.1867 -0.9638  0.5790
    9TMC3    C513939   3.494   3.774  12.685  0.3374  0.2633 -0.1337
    9TMC3    C613940   3.616   3.735  12.633 -0.4450  0.2037  0.7767
    9TMC3     C13941   3.455   4.095  12.518  0.4230  0.1585 -0.1218
    9TMC3     O13942   3.338   4.128  12.549  0.3480  0.2010 -0.8349
    9TMC3     H13943   3.702   3.988  12.442  2.3445 -1.2834  0.7410
    9TMC3    H113944   3.348   3.929  12.690 -2.0226 -4.0891 -3.1283
    9TMC3    H213945   3.657   3.638  12.658 -0.7627 -0.1278  0.0028
    9TMC3    C713946   3.463   3.710  12.813 -0.5027  0.1386 -0.8325
    9TMC3    C813947   3.811   3.762  12.490  0.4324  0.0008  0.3182
    9TMC3    O113948   3.413   3.774  12.902 -0.4838 -0.2780 -0.0824
    9TMC3    O213949   3.889   3.832  12.421 -0.3491  0.1054 -0.3529
   10MPD2     C13950   4.185   3.426  12.521 -0.0478  0.4958 -0.4234
   10MPD2    C113951   4.079   3.372  12.582 -0.2758 -0.0161  0.0177
   10MPD2    C213952   3.956   3.432  12.550  0.0138 -0.7895 -0.2764
   10MPD2    C313953   3.952   3.555  12.489 -0.1012  0.1428  0.0004
   10MPD2    C413954   4.065   3.615  12.435 -0.1288  0.0220 -0.4985
   10MPD2    C513955   4.184   3.547  12.446  0.3604  0.2612  0.0002
   10MPD2     H13956   3.864   3.391  12.591  0.0362  0.8744  1.4647
   10MPD2    H113957   4.071   3.706  12.377  0.7344 -0.3777 -1.0476
   10MPD2    H213958   4.277   3.372  12.543  0.4386  2.0913  1.4761
   10MPD2    H313959   4.275   3.593  12.410 -0.7510  3.1804  0.8556
   10MPD2     N13960   3.829   3.629  12.507 -0.6049  0.1483 -0.2990
   10MPD2    H513961   3.765   3.578  12.568 -0.3108 -0.5933 -0.6039
   10MPD2    N113962   4.087   3.265  12.673  0.9436 -0.1400  0.9425
   10MPD2    H713963   4.181   3.227  12.684  1.4602 -0.3114 -3.8976
   11MPD2     C13964   4.493   2.650  13.599  0.6727 -0.1999  0.3264
   11MPD2    C113965   4.575   2.681  13.704  0.1929  0.1785  0.0628
   11MPD2    C213966   4.661   2.793  13.694  0.2736  0.2326  0.1336
   11MPD2    C313967   4.660   2.872  13.580 -0.5925  0.5523 -0.0568
   11MPD2    C413968   4.571   2.837  13.481 -0.1311  0.0541 -0.9667
   11MPD2    C513969   4.494   2.724  13.493 -0.5754 -0.1369  0.5520
   11MPD2     H13970   4.725   2.811  13.779  1.1523 -2.9362  0.1220
   11MPD2    H113971   4.572   2.899  13.392  1.7937  1.1505 -0.1911
   11MPD2    H213972   4.428   2.562  13.601  0.8077 -0.3153 -0.5047
   11MPD2    H313973   4.422   2.713  13.413 -1.2899 -0.7579  1.2812
   11MPD2     N13974   0.019   2.982  13.557  0.4232 -0.0728  0.8449
   11MPD2    H513975   0.017   3.029  13.468 -0.1518 -0.2435  0.7615
   11MPD2    N113976   4.567   2.616  13.826  0.1148 -0.2118 -0.4111
   11MPD2    H713977   4.638   2.647  13.891  0.4652 -1.4773 -0.1793
    1MPD1     C13978   1.809   0.029  17.218 -1.0372 -0.3196 -0.1649
    1MPD1    C113979   1.889   4.663  17.276 -0.3125  0.0724 -0.3059
    1MPD1    C213980   2.013   4.631  17.221  0.3992 -0.1309  0.0993
    1MPD1    C313981   2.052   4.676  17.099 -0.0020  0.0989  0.4965
    1MPD1    C413982   1.962   0.027  17.031  0.4954 -0.2147 -0.6913
    1MPD1    C513983   1.841   0.061  17.089 -0.2398 -0.2534 -0.8857
    1MPD1     H13984   2.068   4.561  17.283  2.0230  0.8861 -0.1983
    1MPD1    H113985   1.976   0.061  16.930 -0.2026 -0.7092 -0.9619
    1MPD1    H213986   1.713   0.054  17.262 -0.0710  0.5912  1.3987
    1MPD1    H313987   1.781   0.111  17.014 -0.2827  0.1144 -0.6097
    1MPD1     N13988   2.156   4.645  17.027 -0.3741 -0.0361 -0.2845
    1MPD1    H513989   2.162   4.687  16.935 -2.1837  1.3489  0.2297
    1MPD1    N113990   1.857   4.620  17.405  0.2037  0.6238 -0.5278
    1MPD1    H613991   1.906   4.682  17.470  1.0640  0.1380 -0.7073
    1MPD1    H713992   1.897   4.527  17.416  0.6494  0.9128  0.3272
    2MPD1     C13993   3.070   4.284  17.207 -0.8569  0.5249 -0.3583
    2MPD1    C113994   2.956   4.294  17.281 -0.4418  0.3052  0.5672
    2MPD1    C213995   2.842   4.335  17.208 -0.2479 -0.3822 -0.2531
    2MPD1    C313996   2.842   4.361  17.072 -0.4110  0.1038 -0.5167
    2MPD1    C413997   2.959   4.356  17.001 -0.1645 -0.2254 -0.1764
    2MPD1    C513998   3.070   4.315  17.071  0.0831 -0.5886  0.4599
    2MPD1     H13999   2.749   4.357  17.259  0.8117 -0.0056  1.4879
    2MPD1    H114000   2.962   4.362  16.893 -0.6192 -0.1276 -0.1835
    2MPD1    H214001   3.166   4.279  17.258  0.8856 -0.6783 -3.7950
    2MPD1    H314002   3.157   4.297  17.009 -0.0365 -2.4686  0.8339
    2MPD1     N14003   2.710   4.396  17.025  0.1842 -0.8757 -0.1830
    2MPD1    H514004   2.642   4.405  17.099 -4.1791  2.1627 -4.5289
    2MPD1    N114005   2.975   4.276  17.427  0.2762 -0.6222  0.0076
    2MPD1    H614006   2.907   4.215  17.471  0.4016  0.3886  1.5695
    2MPD1    H714007   3.066   4.235  17.448  0.0792 -0.1221  1.7688
    3TMC3    C114008   2.533   4.441  16.877 -0.6556 -0.8227 -0.2096
    3TMC3    C214009   2.493   4.463  16.747 -0.6109  0.3021 -0.5272
    3TMC3    C314010   2.367   4.508  16.725 -0.4853  0.9003  0.6411
    3TMC3    C414011   2.455   4.472  16.985  0.1224  0.2852  0.9191
    3TMC3    C514012   2.335   4.519  16.959  0.1735  0.5157  0.4203
    3TMC3    C614013   2.283   4.526  16.831  0.2154 -0.5951  0.1880
    3TMC3     C14014   2.677   4.419  16.893 -0.2699  0.4931 -0.4973
    3TMC3     O14015   2.749   4.408  16.799  0.0506  0.8734 -0.2126
    3TMC3     H14016   2.555   4.436  16.662 -0.3458  1.6020 -0.7351
    3TMC3    H114017   2.480   4.461  17.090 -3.3104  0.3502  1.7235
    3TMC3    H214018   2.178   4.537  16.804  0.3676  1.1709  0.3371
    3TMC3    C714019   2.246   4.555  17.066  0.0873  0.2543  0.3137
    3TMC3    C814020   2.310   4.475  16.590 -0.4341 -0.1122  0.5904
    3TMC3    O114021   2.268   4.508  17.176 -0.1315  0.1038 -0.6122
    3TMC3    O214022   2.193   4.435  16.592 -0.0356  0.5937  0.0682
    4MPD1     C14023   2.323   4.393  16.087 -0.0696 -0.0330  0.2584
    4MPD1    C114024   2.434   4.458  16.130  0.4158 -0.5190  0.0956
    4MPD1    C214025   2.455   4.482  16.263  0.3810 -0.7808 -0.0367
    4MPD1    C314026   2.356   4.460  16.350  0.2169  0.1983  0.5345
    4MPD1    C414027   2.246   4.385  16.311 -0.2895 -0.5241 -0.2047
    4MPD1    C514028   2.235   4.357  16.176 -0.2265 -0.1338 -0.4782
    4MPD1     H14029   2.539   4.539  16.301 -0.3787 -0.2899  0.8940
    4MPD1    H114030   2.166   4.355  16.378  1.4647 -0.2186  2.0296
    4MPD1    H214031   2.307   4.385  15.980  1.9455  0.1102 -0.0497
    4MPD1    H314032   2.140   4.312  16.152 -1.0439  1.0090  0.6242
    4MPD1     N14033   2.393   4.497  16.482  0.7253 -0.0115 -0.0720
    4MPD1    H514034   2.479   4.549  16.495  0.5414  0.5997 -1.2995
    4MPD1    N114035   2.507   4.537  16.046 -0.3563 -0.5187  0.6200
    4MPD1    H614036   2.526   4.496  15.955 -1.0474  1.1914 -0.2981
    4MPD1    H714037   2.600   4.561  16.079 -0.3279 -0.9785  0.8751
    1TCq1    O114038   3.485   3.862  10.469  0.1772 -0.4363 -0.2205
    1TCq1    C114039   3.596   3.809  10.515 -0.2388  0.6020 -0.1864
    1TCq1    O214040   3.619   3.690  10.505 -0.6125  0.2292  0.1419
    1TCq1    C214041   3.682   3.909  10.568  0.8909 -0.1985  0.5378
    1TCq1    C314042   3.626   4.030  10.605  0.6989  0.3848 -0.4859
    1TCq1    C414043   3.713   4.135  10.620  0.8256  1.2149 -0.2282
    1TCq1    C514044   3.846   4.120  10.579  0.6844 -0.0645  0.0744
    1TCq1    C614045   3.899   3.998  10.557  0.4142  0.6403  0.1191
    1TCq1    C714046   3.817   3.886  10.552 -0.5590  0.7890  1.2930
    1TCq1    C814047   4.024   3.991  10.483 -0.0768  0.1912 -0.8313
    1TCq1    O414048   4.101   4.091  10.481 -0.1600 -0.5728 -0.4914
    1TCq1    C914049   3.661   4.266  10.595  0.1675  0.2157 -1.4875
    1TCq1    O514050   3.541   4.279  10.560 -0.1349  0.0109  0.0316
    1TCq1    O614051   3.745   4.364  10.609 -0.2386  0.9131 -0.6271
    1TCq1    H114052   3.488   3.958  10.450 -1.3388 -0.6414 -1.4916
    1TCq1    H214053   3.526   4.039  10.646  1.3156 -1.5183  1.4574
    1TCq1    H314054   3.902   4.207  10.550 -1.4237  1.0778 -0.5261
    1TCq1    H414055   3.845   3.790  10.511 -1.3060  0.7952  0.7493
    2MPD1     C14056   4.345   3.802  10.144  0.2880  0.3207  0.1420
    2MPD1    C114057   4.222   3.732  10.126 -0.3371  0.5599 -0.6061
    2MPD1    C214058   4.127   3.753  10.224  0.1577 -0.3350  0.4116
    2MPD1    C314059   4.145   3.846  10.322 -0.1603  0.6736  0.0427
    2MPD1    C414060   4.267   3.902  10.342  0.4095 -0.1768  0.3416
    2MPD1    C514061   4.367   3.873  10.255 -0.0340 -0.3739 -0.3014
    2MPD1     H14062   4.036   3.695  10.224 -0.8619  1.2610 -3.3493
    2MPD1    H114063   4.282   3.968  10.427  0.9213 -0.0390  0.1472
    2MPD1    H214064   4.424   3.785  10.071 -0.2107  0.2624 -0.3798
    2MPD1    H314065   4.465   3.920  10.260  0.8286 -2.3127  0.8594
    2MPD1     N14066   4.035   3.872  10.408  0.0414  0.1145  0.3577
    2MPD1    H514067   3.956   3.809  10.398  0.1507 -0.2339  1.6217
    2MPD1    N114068   4.201   3.652  10.016  0.2032 -0.0894  0.1192
    2MPD1    H614069   4.140   3.697   9.948 -0.4805 -0.9989  0.1382
    2MPD1    H714070   4.292   3.633   9.974 -0.2316 -2.2786  0.1721
    1TCq1    O114071   4.132   3.482   1.917 -0.1966 -0.1504  0.0742
    1TCq1    C114072   4.057   3.587   1.897  0.0332 -0.1250 -0.0235
    1TCq1    O214073   3.935   3.593   1.918 -0.1558  0.3971 -0.2173
    1TCq1    C214074   4.122   3.656   1.791 -0.0566  0.2388  0.2348
    1TCq1    C314075   4.256   3.653   1.798 -0.6614  0.0814  0.4572
    1TCq1    C414076   4.314   3.726   1.702 -0.9071  0.8556  0.2198
    1TCq1    C514077   4.260   3.753   1.577  0.2424 -0.1942 -0.1306
    1TCq1    C614078   4.122   3.719   1.569  0.4917  0.2064  0.0904
    1TCq1    C714079   4.050   3.694   1.679  0.2530 -0.6746  0.0202
    1TCq1    C814080   4.060   3.745   1.438  0.4595  0.5199 -0.2810
    1TCq1    O414081   4.137   3.759   1.349 -0.3216  0.2115 -0.2374
    1TCq1    C914082   4.455   3.730   1.705 -0.6739 -0.4985 -0.3681
    1TCq1    O514083   4.510   3.654   1.790 -0.2925  0.2259 -0.1083
    1TCq1    O614084   4.516   3.797   1.621 -0.2702  0.0717 -0.2396
    1TCq1    H114085   4.217   3.484   1.868 -1.7174 -2.1658 -2.6543
    1TCq1    H214086   4.302   3.644   1.895 -1.0067  1.5371  0.7634
    1TCq1    H314087   4.312   3.792   1.490  1.0641  1.3343  1.0358
    1TCq1    H414088   3.947   3.662   1.682 -0.6705  2.2697 -0.9671
    2MPD1     C14089   3.711   3.933   1.114 -0.2188 -0.2934  0.2497
    2MPD1    C114090   3.655   3.933   1.236 -0.6940 -0.0557  0.3846
    2MPD1    C214091   3.723   3.870   1.341 -0.2249  0.6928 -0.2321
    2MPD1    C314092   3.854   3.824   1.326  0.8986  0.0554  0.2829
    2MPD1    C414093   3.906   3.825   1.201  0.2528 -0.1084 -0.4492
    2MPD1    C514094   3.833   3.874   1.096  0.7936  0.0122  0.3873
    2MPD1     H14095   3.688   3.867   1.444  0.4211 -1.4914 -0.0695
    2MPD1    H114096   3.994   3.765   1.183  1.2712  0.1908  3.6247
    2MPD1    H214097   3.661   3.964   1.023  3.5284  1.7429 -1.1111
    2MPD1    H314098   3.872   3.880   0.995 -0.6772 -0.5792 -0.2048
    2MPD1     N14099   3.929   3.782   1.442 -0.6775 -0.0404 -0.0935
    2MPD1    H514100   3.897   3.785   1.539  2.2119 -0.4544  0.8739
    2MPD1    N114101   3.520   3.961   1.250  0.3725  0.4553 -0.1985
    2MPD1    H614102   3.479   4.021   1.178  0.8077 -0.9506 -1.6227
    2MPD1    H714103   3.474   3.876   1.218 -2.6737  1.6191  1.0475
    1MPD1     C14104   4.631   4.558  11.427  0.1053  0.8250 -0.7243
    1MPD1    C114105   0.010   4.601  11.353  0.1573  0.1453 -1.3706
    1MPD1    C214106   0.135   4.595  11.408 -0.2251 -0.8392 -0.1385
    1MPD1    C314107   0.150   4.554  11.543  0.8530  0.8238 -0.6201
    1MPD1    C414108   0.035   4.516  11.621  0.2757  0.2201 -0.0169
    1MPD1    C514109   4.644   4.520  11.557 -0.0963 -1.1817  0.2136
    1MPD1     H14110   0.224   4.616  11.350 -0.8340 -0.5939 -0.9707
    1MPD1    H114111   0.044   4.454  11.709  0.4053 -0.8270 -0.7725
    1MPD1    H214112   4.532   4.575  11.385 -0.1244  0.8290 -0.1805
    1MPD1    H314113   4.558   4.485  11.613 -1.1496 -0.2748 -0.8228
    1MPD1     N14114   0.277   4.533  11.595  0.6365 -0.5281  0.2885
    1MPD1    H514115   0.358   4.554  11.538  0.3650  1.1084  0.4994
    1MPD1    N114116   4.719   4.626  11.220  0.2235 -0.6420 -0.1058
    1MPD1    H614117   0.062   4.690  11.184 -0.8843  1.1296  0.8859
    1MPD1    H714118   4.631   4.667  11.188  0.5103 -0.3545 -0.5236
    2MPD1     C14119   0.277   0.203  11.048  0.2260 -0.1562  0.3386
    2MPD1    C114120   0.178   0.121  11.002 -0.1461 -0.6813  0.9499
    2MPD1    C214121   0.215   4.724  10.967  0.3121 -0.6297 -0.0692
    2MPD1    C314122   0.347   4.697  10.932 -0.4210  0.3135  0.0036
    2MPD1    C414123   0.443   0.058  10.964 -0.6179  0.1962 -0.5313
    2MPD1    C514124   0.410   0.161  11.041 -0.1794 -0.8351  0.6383
    2MPD1     H14125   0.135   4.656  10.941 -0.7539  0.3474  0.6358
    2MPD1    H114126   0.550   0.042  10.958 -0.6783 -0.2878 -0.3060
    2MPD1    H214127   0.271   0.296  11.104  0.8949 -1.1894  2.1326
    2MPD1    H314128   0.486   0.228  11.080  1.1076 -1.6486 -0.4586
    2MPD1     N14129   0.384   4.573  10.869 -0.0407 -0.2146  0.2123
    2MPD1    H514130   0.483   4.554  10.861 -0.4782 -2.2489 -0.3659
    2MPD1    N114131   0.045   0.143  11.039  0.6596 -0.2674 -0.1325
    2MPD1    H614132   0.022   0.237  11.008 -2.9209 -1.2712 -0.4595
    2MPD1    H714133   4.711   0.076  10.994 -0.6587  0.3184  0.7850
    3MPD1     C14134   0.427   4.208   9.905  0.4695 -0.3025  0.9761
    3MPD1    C114135   0.545   4.179   9.971  0.3926  0.2120  0.0507
    3MPD1    C214136   0.546   4.182  10.107 -0.1366 -0.6190 -0.1655
    3MPD1    C314137   0.446   4.228  10.186  0.7755 -0.0920  0.5480
    3MPD1    C414138   0.338   4.280  10.120  0.4692  1.1789 -0.4100
    3MPD1    C514139   0.330   4.272   9.979 -0.1781 -0.5106 -0.2020
    3MPD1     H14140   0.640   4.155  10.153  0.1106 -2.8722 -1.9887
    3MPD1    H114141   0.257   4.333  10.169 -0.3161  1.8372 -2.4321
    3MPD1    H214142   0.409   4.190   9.800 -1.3739 -0.8191  1.3870
    3MPD1    H314143   0.235   4.298   9.933  0.1173  0.6630 -0.1566
    3MPD1     N14144   0.460   4.222  10.331  0.1712 -0.4209 -0.7908
    3MPD1    H514145   0.541   4.177  10.371  0.7781  1.3077 -0.0797
    3MPD1    N114146   0.651   4.105   9.909  0.9008 -0.3619 -0.6825
    3MPD1    H614147   0.684   4.157   9.827 -1.4449  2.7242  0.3529
    3MPD1    H714148   0.726   4.125   9.974 -1.9016 -1.9428  2.9813
    4MPD2     C14149   0.923   0.106  11.468  0.4858  0.3135 -0.3217
    4MPD2    C114150   0.916   4.722  11.552 -0.7327  0.2664  0.0938
    4MPD2    C214151   1.009   4.623  11.542 -0.4174 -0.6505  0.5362
    4MPD2    C314152   1.106   4.631  11.446  0.3088  0.2947  0.2136
    4MPD2    C414153   1.113   0.011  11.357  0.0040  0.2505  0.2845
    4MPD2    C514154   1.021   0.104  11.375 -0.4549 -0.9684 -0.1557
    4MPD2     H14155   0.996   4.537  11.606 -3.6763 -0.4394  0.1479
    4MPD2    H114156   1.169   0.013  11.264  1.2726 -0.1106  1.0399
    4MPD2    H214157   0.858   0.191  11.482 -0.8244 -0.7587  0.0226
    4MPD2    H314158   1.017   0.176  11.294 -0.8313 -0.9837 -0.1529
    4MPD2     N14159   1.199   4.529  11.426 -0.2704 -0.0637 -0.0138
    4MPD2    H514160   1.262   4.532  11.346 -1.1313 -0.6625 -0.7138
    4MPD2    N114161   0.808   4.699  11.645  0.6278 -0.2154 -0.7403
    4MPD2    H714162   0.817   4.612  11.697 -2.3617  0.3981  0.8033
    5TMC3    C114163   0.610   4.695  11.752 -0.5809  0.1321  0.3130
    5TMC3    C214164   0.494   4.653  11.695 -0.5792  0.4789  0.3210
    5TMC3    C314165   0.445   4.538  11.756  0.8882  0.4486  0.1609
    5TMC3    C414166   0.671   4.625  11.853  0.0511 -0.8563 -0.6866
    5TMC3    C514167   0.632   4.501  11.890 -0.0177 -0.1737 -0.4413
    5TMC3    C614168   0.502   4.460  11.845  0.4768 -0.5602  0.1929
    5TMC3     C14169   0.687   0.035  11.652 -0.6180 -0.5626  0.2486
    5TMC3     O14170   0.638   0.110  11.566  0.2306 -0.4968  0.3399
    5TMC3     H14171   0.443   4.710  11.619  1.7650  1.7183 -0.3228
    5TMC3    H114172   0.763   4.665  11.894 -1.1184 -0.8929  1.9425
    5TMC3    H214173   0.467   4.362  11.875 -1.9205 -0.1439 -1.2439
    5TMC3    C714174   0.737   4.408  11.848  0.0908  0.0756 -0.1775
    5TMC3    C814175   0.307   4.504  11.722 -0.0612 -1.2023  0.1674
    5TMC3    O114176   0.821   4.457  11.777 -0.6005 -0.2543  0.1464
    5TMC3    O214177   0.247   4.433  11.802 -0.3527 -0.1585 -0.1265
    6TMC3    C114178   0.354   4.354  10.783  1.1202 -0.8146 -0.0843
    6TMC3    C214179   0.320   4.323  10.652  0.3479 -0.5483  0.0418
    6TMC3    C314180   0.407   4.280  10.563 -0.3099 -0.6426 -0.7216
    6TMC3    C414181   0.485   4.336  10.822 -0.0350 -0.1597 -0.5409
    6TMC3    C514182   0.576   4.297  10.731  0.6894  0.3217  0.6911
    6TMC3    C614183   0.542   4.273  10.602  0.0630 -0.4268  0.3152
    6TMC3     C14184   0.292   4.474  10.837  0.3183 -0.0644 -0.0893
    6TMC3     O14185   0.171   4.472  10.816  0.1652 -0.2005  0.4854
    6TMC3     H14186   0.218   4.344  10.621  0.1183 -0.6204  0.7568
    6TMC3    H114187   0.515   4.364  10.923 -1.7454 -0.1068 -0.0380
    6TMC3    H214188   0.612   4.258  10.521  0.1403  0.2388  0.2578
    6TMC3    C714189   0.703   4.257  10.786 -0.1736  0.6294 -0.0074
    6TMC3    C814190   0.366   4.268  10.422 -0.2917  0.1766  0.0655
    6TMC3    O114191   0.724   4.301  10.900  0.2816  0.1341  0.7381
    6TMC3    O214192   0.257   4.318  10.399  1.1805 -0.3779 -0.3048
    7MPD2     C14193   0.902   3.937  11.725 -0.3191  0.4598 -0.6296
    7MPD2    C114194   0.951   4.064  11.698 -0.1424 -0.2863 -0.3014
    7MPD2    C214195   0.896   4.175  11.753 -1.2519  0.0990 -0.1749
    7MPD2    C314196   0.789   4.166  11.840  0.4637  0.0567  0.3872
    7MPD2    C414197   0.732   4.046  11.859  0.1821  0.1888 -0.3383
    7MPD2    C514198   0.782   3.930  11.796  0.1460  0.0351  0.2655
    7MPD2     H14199   0.943   4.272  11.742 -1.7609  0.3141 -0.4061
    7MPD2    H114200   0.637   4.036  11.912  1.8509 -3.5597  1.9267
    7MPD2    H214201   0.948   3.849  11.683 -1.5945 -0.2616 -0.5033
    7MPD2    H314202   0.733   3.835  11.815 -1.2973  0.5840 -0.6839
    7MPD2     N14203   0.710   4.281  11.881 -0.0196  0.2400 -0.1203
    7MPD2    H514204   0.629   4.258  11.938 -0.1284  2.3392  0.5891
    7MPD2    N114205   1.060   4.081  11.608 -0.1216  0.5714  0.3063
    7MPD2    H714206   1.080   4.180  11.613  2.2328  0.2177 -1.9101
    8TMC3    C114207   1.203   4.074  11.440 -0.0710 -0.5097  0.5968
    8TMC3    C214208   1.178   4.068  11.306  0.2952  0.4448 -0.7513
    8TMC3    C314209   1.199   4.183  11.235 -0.0363  0.2497  0.1782
    8TMC3    C414210   1.258   4.188  11.499  0.8600 -0.6082  0.5050
    8TMC3    C514211   1.262   4.304  11.429  0.8200 -0.7531 -0.5101
    8TMC3    C614212   1.232   4.295  11.295 -0.1846 -0.0880  0.2223
    8TMC3     C14213   1.115   3.996  11.516 -0.7197 -0.1672 -0.0728
    8TMC3     O14214   1.074   3.885  11.484  0.3349  1.0254  0.3256
    8TMC3     H14215   1.146   3.975  11.262  1.8266 -0.3158 -0.2757
    8TMC3    H114216   1.274   4.192  11.606  1.3333  1.3095  0.3603
    8TMC3    H214217   1.236   4.385  11.234 -0.1810 -0.0519  0.2764
    8TMC3    C714218   1.196   4.409  11.495  0.1860 -0.0460 -0.3543
    8TMC3    C814219   1.136   4.194  11.102  0.0918  0.2303  0.0025
    8TMC3    O114220   1.141   4.380  11.599 -0.3188 -0.2849 -0.0545
    8TMC3    O214221   1.070   4.289  11.071  0.5347  0.2452  0.6039
    9MPD2     C14222   1.136   3.965  10.798 -0.2734  0.2052  0.4828
    9MPD2    C114223   1.087   4.062  10.891  0.6463 -0.6869 -0.3464
    9MPD2    C214224   0.967   4.128  10.865  0.3338  0.3428 -0.0364
    9MPD2    C314225   0.903   4.112  10.743 -0.6525  0.2794 -0.3087
    9MPD2    C414226   0.950   4.014  10.661  0.0902 -0.0698 -0.0541
    9MPD2    C514227   1.065   3.945  10.682  0.1937  0.3817 -0.4525
    9MPD2     H14228   0.928   4.198  10.938  1.4318  2.4558 -1.5050
    9MPD2    H114229   0.898   3.991  10.569 -1.1099  3.0263 -0.1340
    9MPD2    H214230   1.224   3.906  10.819 -1.1639 -1.5140 -0.6092
    9MPD2    H314231   1.097   3.870  10.611 -0.2243 -0.0929 -0.1360
    9MPD2     N14232   0.782   4.175  10.704 -0.7410 -0.1251 -0.5469
    9MPD2    H514233   0.736   4.150  10.617 -0.2419  0.6732 -1.0407
    9MPD2    N114234   1.154   4.085  11.018 -0.0635  0.1266 -0.8593
    9MPD2    H714235   1.218   4.012  11.048 -2.1932 -2.5151 -2.7258
    1MPD1     C14236   2.834   3.439   0.375  0.3753  0.1537  0.0376
    1MPD1    C114237   2.790   3.409   0.251 -0.1208  0.1251 -0.2377
    1MPD1    C214238   2.768   3.282   0.210  0.0309 -0.3929  0.3179
    1MPD1    C314239   2.791   3.178   0.299 -0.1833 -0.2351 -0.5249
    1MPD1    C414240   2.848   3.208   0.419 -0.7799  0.2606  0.2843
    1MPD1    C514241   2.849   3.342   0.461  0.4329 -0.6113 -0.8596
    1MPD1     H14242   2.731   3.266   0.110 -1.1097  0.4254  0.6152
    1MPD1    H114243   2.880   3.125   0.481 -1.3233  0.2144  0.5007
    1MPD1    H214244   2.856   3.544   0.390  1.0899  0.0320 -0.1927
    1MPD1    H314245   2.881   3.365   0.562 -0.4244 -0.8030 -0.5444
    1MPD1     N14246   2.766   3.050   0.267  0.1787 -0.0166  0.5107
    1MPD1    H514247   2.766   2.981   0.342  0.4631  0.7445  1.2185
    1MPD1    N114248   2.744   3.512   0.169  0.2533  0.0538 -0.0232
    1MPD1    H614249   2.768   3.500   0.071 -0.9095  1.7145 -0.5062
    1MPD1    H714250   2.763   3.608   0.197  1.7501  0.6473 -3.1234
    2MPD1     C14251   2.189   2.324  17.410 -0.0184  0.2332 -0.7271
    2MPD1    C114252   2.222   2.276  17.535 -0.1925  0.7161  0.4388
    2MPD1    C214253   2.323   2.333  17.603 -0.9882 -0.0337 -0.3392
    2MPD1    C314254   2.390   2.448  17.551 -0.5128 -0.1126 -0.6412
    2MPD1    C414255   2.349   2.498  17.430 -0.1080  0.6644 -0.1743
    2MPD1    C514256   2.251   2.440  17.365  0.0625  0.4248 -0.5674
    2MPD1     H14257   2.354   2.290  17.697  1.0332  3.6933  0.6994
    2MPD1    H114258   2.384   2.585  17.376 -1.3854  1.5716  0.4680
    2MPD1    H214259   2.105   2.285  17.355  1.5938 -1.6923 -1.8301
    2MPD1    H314260   2.221   2.479  17.268 -1.8243  0.9616  0.2221
    2MPD1     N14261   2.486   2.511  17.631 -1.0476 -0.1097  0.0638
    2MPD1    H514262   2.529   2.459  17.707 -0.1337  0.3167 -0.1639
    2MPD1    N114263   2.155   2.163  17.588  0.0601  0.0708  0.4066
    2MPD1    H614264   2.061   2.156  17.550 -0.3488 -0.3150  1.5126
    2MPD1    H714265   2.172   2.138  17.685  1.4416 -0.1321  0.1217
    3TCq2    C114266   2.523   2.640  17.614 -0.4524  0.8895  0.2818
    3TCq2    O214267   2.477   2.729  17.544  0.0312 -0.0699 -0.0457
    3TCq2    C214268   2.597   2.683   0.022 -0.6953  0.2942 -0.5122
    3TCq2    C314269   2.626   2.597   0.127  0.1968 -0.3534  0.3815
    3TCq2    C414270   2.690   2.641   0.234 -0.3473  0.2752  0.6861
    3TCq2    C514271   2.721   2.773   0.243 -0.0275  0.6891 -0.0166
    3TCq2    C614272   2.675   2.865   0.151  0.3141  1.0027 -0.7863
    3TCq2    C714273   2.620   2.819   0.033  0.8173  0.3723 -0.1014
    3TCq2    C814274   2.719   3.003   0.145  0.6220  0.3811  0.4276
    3TCq2    O414275   2.686   3.060   0.041 -0.0973 -0.7399  0.2255
    3TCq2    C914276   2.720   2.548   0.338  0.5130 -0.0861 -0.5607
    3TCq2    O514277   2.681   2.427   0.324 -1.0837 -0.6964 -0.1444
    3TCq2    O614278   2.791   2.590   0.434 -0.0816  0.0749  0.2476
    3TCq2    H214279   2.601   2.491   0.123 -1.5116  0.1550 -2.4413
    3TCq2    H314280   2.768   2.817   0.330  3.0738 -0.4788 -1.1161
    3TCq2    H414281   2.579   2.882  17.665 -1.1439  0.1469  0.7397
    1TCq1    O114282   2.364   1.743  12.618 -0.0679 -0.0394 -0.1013
    1TCq1    C114283   2.453   1.838  12.647  0.2422 -0.5341  0.2271
    1TCq1    O214284   2.459   1.950  12.603 -0.0304  0.6445 -0.3023
    1TCq1    C214285   2.576   1.779  12.696  0.4722 -0.3814  0.4392
    1TCq1    C314286   2.585   1.641  12.695 -0.2262 -0.4376  0.4709
    1TCq1    C414287   2.702   1.578  12.742  0.1302  0.0913 -0.2412
    1TCq1    C514288   2.801   1.652  12.796 -0.8647  0.2089 -0.4574
    1TCq1    C614289   2.789   1.793  12.787  0.4644 -0.8271 -0.5243
    1TCq1    C714290   2.681   1.858  12.735  0.4609 -0.7296 -0.4098
    1TCq1    C814291   2.896   1.879  12.821  0.4487  0.4641 -0.5674
    1TCq1    O414292   2.874   1.998  12.833 -0.0767 -0.3898 -0.7176
    1TCq1    C914293   2.711   1.431  12.744  0.3507  0.0054 -0.5218
    1TCq1    O514294   2.814   1.378  12.794 -0.0289  0.0140  0.5077
    1TCq1    O614295   2.623   1.363  12.687 -0.4826  0.4832 -0.1420
    1TCq1    H114296   2.371   1.659  12.670  1.2588  0.9023  1.2394
    1TCq1    H214297   2.505   1.570  12.677 -0.6081 -0.0304  0.5631
    1TCq1    H314298   2.882   1.605  12.851  0.8695  3.4538 -0.2915
    1TCq1    H414299   2.676   1.966  12.727  0.8120 -0.5009  2.5294
    2MPD2     C14300   3.156   2.007  12.911  0.4242  0.1153 -0.4405
    2MPD2    C114301   3.145   1.880  12.851  0.3878 -0.1393 -0.3426
    2MPD2    C214302   3.267   1.820  12.823 -0.0206 -0.2958  1.2573
    2MPD2    C314303   3.388   1.869  12.876  0.4564  0.0341  0.1273
    2MPD2    C414304   3.392   2.000  12.916  0.4456 -0.0079 -0.7414
    2MPD2    C514305   3.278   2.069  12.934  0.0816 -0.1871 -0.0981
    2MPD2     H14306   3.268   1.726  12.770  0.6668 -0.3207  1.3237
    2MPD2    H114307   3.491   2.043  12.928  0.6071 -0.6204  0.1994
    2MPD2    H214308   3.066   2.063  12.931  0.4858 -0.6808  2.0598
    2MPD2    H314309   3.282   2.175  12.953 -0.9406  0.2037 -2.0523
    2MPD2     N14310   3.500   1.785  12.874 -0.5567 -0.8651 -0.5945
    2MPD2    H514311   3.487   1.694  12.831 -0.1513 -0.9550 -0.5287
    2MPD2    N114312   3.020   1.824  12.807 -0.0762 -0.1480  0.2396
    2MPD2    H714313   3.035   1.731  12.769  0.9055  0.6358 -1.2909
    3TCq1    O114314   3.973   1.494  12.653 -0.3004 -0.0572  0.1649
    3TCq1    C114315   3.842   1.509  12.677 -0.2585  0.0809  0.4185
    3TCq1    O214316   3.761   1.514  12.587 -0.2344  0.0973  0.2745
    3TCq1    C214317   3.833   1.568  12.806 -0.0753 -0.7994  0.5746
    3TCq1    C314318   3.924   1.556  12.901 -0.4989 -0.0766 -0.6397
    3TCq1    C414319   3.911   1.630  13.021 -0.0285  0.1794  0.4490
    3TCq1    C514320   3.806   1.713  13.043 -0.2098 -0.4340 -0.2766
    3TCq1    C614321   3.703   1.704  12.951 -0.2794  0.0364 -0.4124
    3TCq1    C714322   3.718   1.632  12.836 -0.2274  0.3348  0.4624
    3TCq1    C814323   3.611   1.810  12.952  0.0941 -0.1626 -0.4132
    3TCq1    O414324   3.638   1.904  13.028 -0.3181  0.2996 -0.2498
    3TCq1    C914325   4.005   1.610  13.128  0.4211 -0.2299 -0.1653
    3TCq1    O514326   3.992   1.681  13.229 -0.2460  0.1680 -0.4045
    3TCq1    O614327   4.070   1.503  13.121 -0.9695  0.0613  0.5794
    3TCq1    H114328   4.037   1.541  12.711 -0.1852  1.0953 -0.8833
    3TCq1    H214329   4.013   1.494  12.898 -0.3665  0.0708  0.2081
    3TCq1    H314330   3.794   1.772  13.133 -0.2904 -2.2656  0.9056
    3TCq1    H414331   3.638   1.619  12.764  0.3798  1.5319 -0.4374
    1MPD2     C14332   2.441   2.639  15.051  0.1269 -0.1014  0.0791
    1MPD2    C114333   2.510   2.545  14.969 -0.6137 -0.6959  0.0580
    1MPD2    C214334   2.644   2.553  14.967 -0.3254 -0.3527  0.1611
    1MPD2    C314335   2.709   2.633  15.058 -0.3451 -1.0302 -0.3590
    1MPD2    C414336   2.639   2.720  15.147 -0.5424  0.2082  0.4602
    1MPD2    C514337   2.503   2.721  15.137  0.1817 -0.3930 -0.1789
    1MPD2     H14338   2.710   2.486  14.913  0.4184  1.3028 -0.9692
    1MPD2    H114339   2.674   2.791  15.221  1.2398 -1.5822  1.3341
    1MPD2    H214340   2.333   2.652  15.054  0.3519  1.7720 -0.1957
    1MPD2    H314341   2.454   2.800  15.192  1.2505 -0.7625  1.2854
    1MPD2     N14342   2.847   2.648  15.044 -0.3173 -0.6321 -0.3051
    1MPD2    H514343   2.881   2.583  14.973 -0.6998 -0.3925 -0.7053
    1MPD2    N114344   2.437   2.462  14.880 -0.1340  0.1791 -0.4812
    1MPD2    H714345   2.337   2.472  14.888  0.0158  0.7928  0.5250
    2TMC3    C114346   2.411   2.315  14.692  0.6535  0.4481 -0.5075
    2TMC3    C214347   2.491   2.235  14.609 -0.1702 -0.0803  0.0074
    2TMC3    C314348   2.479   2.243  14.471  0.4668 -0.1713  0.0887
    2TMC3    C414349   2.331   2.408  14.634 -0.3778  0.0945  1.1043
    2TMC3    C514350   2.314   2.406  14.502  0.0736  0.0939  0.1891
    2TMC3    C614351   2.387   2.320  14.420 -0.1205 -0.3199  0.1373
    2TMC3     C14352   2.496   2.372  14.795 -0.2972 -0.2390 -0.7691
    2TMC3     O14353   2.612   2.351  14.771 -0.1282 -0.4424 -0.0473
    2TMC3     H14354   2.549   2.160  14.661  0.8374  0.9607  0.3903
    2TMC3    H114355   2.267   2.469  14.696 -0.4935 -1.2114  2.2698
    2TMC3    H214356   2.355   2.309  14.317 -0.0609  1.6484 -0.0911
    2TMC3    C714357   2.204   2.476  14.446  0.0454  0.2661 -0.7224
    2TMC3    C814358   2.607   2.257  14.405 -0.0745 -0.0387 -0.5604
    2TMC3    O114359   2.146   2.422  14.349 -0.2475 -0.0170 -0.3990
    2TMC3    O214360   2.612   2.243  14.284 -0.5288  0.3456 -0.2690
    3TCq1    O114361   2.139   3.365  15.039  0.2789  0.2106 -0.1938
    3TCq1    C114362   2.120   3.385  14.911 -0.1570  0.4763 -0.0852
    3TCq1    O214363   2.210   3.375  14.827 -0.1203  0.7438 -1.1654
    3TCq1    C214364   1.992   3.323  14.877 -0.6392 -0.2983 -0.3662
    3TCq1    C314365   1.881   3.386  14.911  0.0848 -0.6927  0.7509
    3TCq1    C414366   1.763   3.344  14.865  0.2499  0.1348  0.7881
    3TCq1    C514367   1.754   3.244  14.770  0.3491 -0.5476  0.1551
    3TCq1    C614368   1.867   3.181  14.732 -0.6039  0.3447 -0.0446
    3TCq1    C714369   1.990   3.223  14.778  0.2466  0.0644  0.3004
    3TCq1    C814370   1.859   3.086  14.626 -0.4503 -0.4594  0.4642
    3TCq1    O414371   1.754   3.090  14.574  0.0604 -0.5967  0.6170
    3TCq1    C914372   1.642   3.405  14.902  0.1880 -0.1018  0.2306
    3TCq1    O514373   1.641   3.505  14.980  0.4076 -0.1594  0.2518
    3TCq1    O614374   1.540   3.364  14.838  0.6739  0.5467 -0.3189
    3TCq1    H114375   2.056   3.330  15.078 -0.7331  1.8183 -0.9193
    3TCq1    H214376   1.879   3.467  14.983  0.8318  0.0026 -0.0138
    3TCq1    H314377   1.658   3.212  14.730  0.9299 -0.8979 -0.9502
    3TCq1    H414378   2.081   3.190  14.730  0.4277  2.0316 -0.6742
    4MPD2     C14379   1.880   2.868  14.431 -0.3554 -0.3433 -0.7728
    4MPD2    C114380   1.970   2.887  14.526  0.0687 -0.0257  0.2917
    4MPD2    C214381   2.076   2.801  14.546  0.2991 -0.7735 -0.2690
    4MPD2    C314382   2.077   2.684  14.478 -1.0005  0.2962 -0.7662
    4MPD2    C414383   1.975   2.658  14.391  0.6802  0.3053  0.4499
    4MPD2    C514384   1.889   2.759  14.357 -0.2957 -0.2143  0.4550
    4MPD2     H14385   2.139   2.818  14.632  0.7937 -1.3299 -0.5134
    4MPD2    H114386   1.965   2.567  14.333 -1.3800  2.3548 -2.4526
    4MPD2    H214387   1.807   2.942  14.400  1.0984  0.8194 -1.4153
    4MPD2    H314388   1.812   2.737  14.282 -1.1463 -0.1870  1.3220
    4MPD2     N14389   2.183   2.596  14.512  0.3519 -0.0741 -0.2518
    4MPD2    H514390   2.255   2.630  14.575  0.7604  0.0807 -0.7988
    4MPD2    N114391   1.967   2.994  14.615 -0.3145 -0.2232 -0.3505
    4MPD2    H714392   2.036   3.009  14.687 -1.7581 -0.6949  1.1313
    5TMC2    C114393   3.162   2.579  14.861  0.5627 -0.5122  0.1013
    5TMC2    C214394   3.217   2.688  14.798 -0.2095 -0.2065 -0.7430
    5TMC2    C314395   3.188   2.811  14.852  0.1428 -0.8938  0.5384
    5TMC2    C414396   3.092   2.592  14.981 -0.0281 -0.2487  0.0599
    5TMC2    C514397   3.068   2.718  15.031  0.3552  0.6662  0.3914
    5TMC2    C614398   3.118   2.827  14.975  0.9169 -0.1916 -0.2261
    5TMC2     C14399   3.070   2.512  14.771  0.1723  0.0109  0.4304
    5TMC2     O14400   2.955   2.512  14.816  0.4467  0.2344  0.2416
    5TMC2     H14401   3.285   2.682  14.714 -0.9035 -0.2033 -1.3071
    5TMC2    H114402   3.045   2.504  15.023  0.7938 -1.7613 -2.2256
    5TMC2    H214403   3.094   2.924  15.019  0.7804 -0.8436  1.1512
    5TMC2    C714404   2.940   2.732  15.104  0.2924  0.3581 -0.0755
    5TMC2    C814405   3.199   2.925  14.764  0.1914 -0.7305  0.4786
    5TMC2    O114406   2.917   2.813  15.193 -0.2080  0.5539 -0.1095
    5TMC2    O214407   3.100   2.988  14.726  0.3145 -0.4958 -0.1183
    5TMC2    O514408   3.320   2.924  14.702 -0.3339  0.1023  0.0574
    5TMC2    H514409   3.381   2.879  14.764  0.7965  0.1719 -1.0058
    6MPD2     C14410   2.905   2.274  14.351 -0.0742  0.7683 -0.3287
    6MPD2    C114411   2.838   2.320  14.464  0.1697  0.3116 -0.7574
    6MPD2    C214412   2.914   2.369  14.566  0.6869  0.5554 -0.5641
    6MPD2    C314413   3.051   2.400  14.549  0.5722  0.4046 -0.4477
    6MPD2    C414414   3.119   2.350  14.438  0.7278 -0.3998 -0.0419
    6MPD2    C514415   3.041   2.287  14.341  0.3301 -0.6017  0.0046
    6MPD2     H14416   2.859   2.389  14.657 -1.8171 -0.1703 -1.9055
    6MPD2    H114417   3.227   2.346  14.436  0.7954  0.7875  1.2365
    6MPD2    H214418   2.850   2.226  14.271 -0.8609  0.6730  0.2666
    6MPD2    H314419   3.092   2.242  14.257  0.2550 -1.5277  0.4558
    6MPD2     N14420   3.122   2.460  14.656  0.8963  0.2452  0.4439
    6MPD2    H514421   3.223   2.468  14.652  1.0437 -1.2451  0.8964
    6MPD2    N114422   2.701   2.307  14.490 -0.3279 -0.1593 -0.1425
    6MPD2    H714423   2.663   2.324  14.583  0.6098  0.8347  0.0581
  945NH4     N114424   4.257   1.233  17.061 -0.1975 -0.5619  0.4282
  945NH4     H214425   4.318   1.149  17.052 -1.0537 -1.1351  0.0176
  945NH4     H314426   4.160   1.214  17.029 -0.6664  2.9957 -0.2585
  945NH4     H414427   4.311   1.306  17.010  1.9543 -1.8101  0.9194
  945NH4     H514428   4.251   1.248  17.163 -0.3712  1.4260  0.1301
  946SOD     NA14429   3.895   4.041   9.009  0.2639  0.3813 -0.2916
  947SOD     NA14430   1.071   4.079  15.521  0.0183 -0.2180  0.0577
  948SOD     NA14431   1.796   1.410   1.311 -0.0251  0.0426 -0.4524
  949SOD     NA14432   0.091   1.263   0.264  0.1280 -0.5643  0.0145
  950SOD     NA14433   3.900   2.252  11.466 -0.0736  0.5761  0.5036
  951SOD     NA14434   2.783   3.132  10.594  0.3913 -0.1661 -0.2137
  952SOD     NA14435   2.532   0.429   2.088  0.5862 -0.3960  0.1136
  953SOD     NA14436   3.025   0.333  10.911  0.2400 -0.0279 -0.3853
  954SOD     NA14437   0.744   1.228  13.408  0.2677  0.4419  0.6188
  955SOD     NA14438   1.251   0.486   7.914 -0.4938  0.0485  0.7465
  956SOD     NA14439   1.173   1.045  12.528 -0.4984  0.1561 -0.2018
  957SOD     NA14440   2.224   2.474  10.819 -0.3788 -0.3177  0.2837
  958SOD     NA14441   2.687   3.270   2.339  0.4905  0.2369  0.6990
  959SOD     NA14442   0.416   3.973   6.507  0.1679 -0.1470  0.2697
  960SOD     NA14443   2.770   3.141  15.271  0.2242 -0.2346  0.1114
  961SOD     NA14444   1.618   2.904   0.154 -0.0401  0.0789 -0.5049
  962SOD     NA14445   4.048   1.579   9.949  0.2368  0.0387 -0.4768
  963SOD     NA14446   4.392   4.178  16.371 -0.3569 -0.2543 -0.1814
  964SOD     NA14447   0.596   3.721   2.564  0.4230 -0.1285 -0.4132
  965SOD     NA14448   0.453   1.213   4.185 -0.2252  0.2974  0.0683
  966SOD     NA14449   0.054   2.534   1.437 -0.1408  0.1941 -1.1148
  967SOD     NA14450   0.126   1.230   1.998  0.1610 -0.2063  0.4267
  968SOD     NA14451   1.027   2.830   1.152  0.0046 -0.0657  0.1925
  969SOD     NA14452   4.567   4.501  12.084 -0.3635 -0.5250 -0.2061
  970SOD     NA14453   4.325   3.455  16.992  0.0359  0.2176 -0.0640
  971SOD     NA14454   3.053   0.841   9.943 -0.2631  0.1961  0.3737
  972SOD     NA14455   0.148   4.363  13.532 -0.4019  0.0855  0.2617
  973SOD     NA14456   1.581   1.099   9.491  0.1867  0.1008 -0.3567
  974SOD     NA14457   2.077   1.110  10.485 -0.1211 -0.0742 -0.3762
  975SOD     NA14458   4.703   3.826   1.712 -0.2638  0.3095  0.2163
  976SOD     NA14459   4.505   1.612  14.600  0.0456 -0.1109  0.0326
  977SOD     NA14460   1.562   1.983  13.026  0.0312  0.6470  0.3445
  978SOD     NA14461   3.927   2.307  10.841 -0.4934  0.6541 -0.6645
  979SOD     NA14462   2.549   0.719   6.953 -0.4934 -0.3920 -0.3127
  980SOD     NA14463   0.315   3.367  16.181  0.0304  0.2339  0.1177
  981SOD     NA14464   1.118   0.227   4.777  0.5393 -0.4298  0.2753
  982SOD     NA14465   3.189   2.122  11.177  0.6499 -0.6606  0.1114
  983SOD     NA14466   3.883   0.619   0.372  0.1077  0.0730 -0.0931
  984SOD     NA14467   2.614   4.449   3.812  0.2006 -0.3995 -0.3141
  985SOD     NA14468   1.384   2.138   9.966  0.1130 -0.3931 -0.5029
  986SOD     NA14469   0.360   0.770  15.768 -0.2002  0.0775 -0.2862
  987SOD     NA14470   2.218   3.056  12.478 -0.4022 -0.2185  0.1768
  988SOD     NA14471   4.181   4.484  17.482  0.2027  0.2446 -0.2238
  989SOD     NA14472   3.689   0.730   9.532 -0.2347 -0.0040 -0.4529
  990SOD     NA14473   3.681   1.698  12.245  0.0775  0.1914  0.1560
  991SOD     NA14474   3.599   4.011   1.917  0.1695  0.0739 -0.0816
  992SOD     NA14475   3.785   2.668   6.145  0.0220 -0.1127  0.1212
  993SOD     NA14476   4.336   1.726  14.286 -0.4919 -0.1629 -0.3918
  994SOD     NA14477   2.417   1.312  12.709 -0.3896 -0.0099  0.4285
  995SOD     NA14478   3.152   1.195   9.982 -0.2691  0.0815 -0.3796
  996SOD     NA14479   4.180   1.596  13.864 -0.4181  0.1724  0.9423
  997SOD     NA14480   1.248   1.900  16.617  0.0877  0.3395 -0.5465
  998SOD     NA14481   3.148   1.916  11.393  0.2788  0.0215 -0.1333
  999SOD     NA14482   2.145   4.413  13.376  0.4155 -0.1093  0.1632
 1000SOD     NA14483   2.811   1.327  13.001 -0.2864 -0.6977  0.6068
 1001SOD     NA14484   0.741   3.522  14.824  0.2444 -0.1392  0.0533
 1002SOD     NA14485   1.889   1.012   9.360 -0.0461 -0.2781 -0.3593
 1003SOD     NA14486   0.378   2.187   0.363  0.2419  0.2727 -0.3419
 1004SOD     NA14487   2.362   3.529  14.742 -0.1904 -0.1127 -0.3609
 1005SOD     NA14488   4.042   4.148  13.634 -0.1788 -0.1408 -0.1258
 1006SOD     NA14489   0.092   3.920  11.701  0.2130 -0.3834  0.0246
 1007SOD     NA14490   2.967   4.639   9.116  0.4189  0.4800  0.1920
 1008SOD     NA14491   3.386   3.323   9.528  0.3967  0.1756  0.2415
 1009SOD     NA14492   4.545   3.124  11.034 -0.2131  0.2696 -0.1210
 1010SOD     NA14493   2.813   0.006  14.993  0.2465  0.1184 -0.1883
 1011SOL     OW14494   2.581   1.750   3.209  0.4238  0.3521 -0.6085
 1011SOL    HW114495   2.673   1.769   3.225  0.0754  0.7526  0.8954
 1011SOL    HW214496   2.589   1.655   3.221 -0.9111  0.3097 -0.0927
 1012SOL     OW14497   2.576   2.133  13.742  0.3211 -0.0465 -0.3824
 1012SOL    HW114498   2.618   2.126  13.828  1.5717  0.1879 -0.9679
 1012SOL    HW214499   2.626   2.205  13.703  0.3151  2.3194  3.9283
 1013SOL     OW14500   2.014   3.113   3.746 -0.5478  0.9105  0.7143
 1013SOL    HW114501   2.106   3.139   3.734 -0.4130  1.0667  2.0902
 1013SOL    HW214502   2.016   3.039   3.685 -0.0986  0.5325  1.1864
 1014SOL     OW14503   0.086   4.525   9.901  0.1488  0.5014 -0.1205
 1014SOL    HW114504   0.129   4.606   9.927 -1.4011  0.6622  1.9377
 1014SOL    HW214505   4.727   4.565   9.885  0.1810  0.5145 -0.2669
 1015SOL     OW14506   3.077   1.536   2.950 -0.2078  0.1996 -0.6427
 1015SOL    HW114507   3.097   1.626   2.977 -0.0130 -0.0356  0.0033
 1015SOL    HW214508   2.986   1.544   2.920 -0.9663  0.3398  1.6493
 1016SOL     OW14509   4.436   2.757   6.897  0.2618 -0.1912 -0.1170
 1016SOL    HW114510   4.376   2.828   6.920  1.6685  0.6519  0.9637
 1016SOL    HW214511   4.472   2.751   6.986 -1.0212  0.2537  0.4250
 1017SOL     OW14512   3.990   3.067   2.797  0.4144  0.0492  0.3780
 1017SOL    HW114513   4.044   3.118   2.736  0.7681  0.4329  1.0131
 1017SOL    HW214514   4.059   3.024   2.848  2.0191  1.2250 -0.8127
 1018SOL     OW14515   2.498   1.031   2.987 -0.1135 -0.2442 -0.5432
 1018SOL    HW114516   2.454   0.946   2.990  0.0179 -0.3511 -1.7480
 1018SOL    HW214517   2.532   1.033   2.898 -0.8336  0.7989 -0.7877
 1019SOL     OW14518   0.193   0.790   1.460  0.2789 -0.5248 -0.7001
 1019SOL    HW114519   0.180   0.751   1.373 -2.3374 -2.4991  0.5706
 1019SOL    HW214520   0.114   0.770   1.511  0.3790  0.5533 -0.1180
 1020SOL     OW14521   2.651   1.515   3.731  0.1738  0.1118 -0.5721
 1020SOL    HW114522   2.681   1.426   3.710  1.0706  0.1923  0.3681
 1020SOL    HW214523   2.655   1.509   3.826 -1.5743  0.9033 -0.4468
 1021SOL     OW14524   2.931   1.338   2.224  0.0803 -0.2300  0.0772
 1021SOL    HW114525   2.909   1.430   2.232  1.2607  0.0332  0.2259
 1021SOL    HW214526   2.971   1.325   2.310 -1.2487  0.7294  0.8298
 1022SOL     OW14527   1.791   1.844   1.363 -0.1329  0.3927 -0.4258
 1022SOL    HW114528   1.858   1.850   1.431 -4.0012 -0.1105  3.4637
 1022SOL    HW214529   1.712   1.877   1.405  0.0048  1.5909 -1.1175
 1023SOL     OW14530   2.837   1.856   7.236 -0.0735  0.6528 -0.0739
 1023SOL    HW114531   2.907   1.891   7.290 -0.1922 -0.8989  1.0587
 1023SOL    HW214532   2.845   1.761   7.245 -1.4447  0.4560 -0.9267
 1024SOL     OW14533   0.710   3.840   3.024  0.3338  0.2764 -0.2467
 1024SOL    HW114534   0.798   3.838   3.060  0.7636 -1.2399 -1.3781
 1024SOL    HW214535   0.700   3.927   2.986 -2.4347 -0.6689 -1.7530
 1025SOL     OW14536   0.225   2.274  16.308 -0.2310  0.0649  0.1445
 1025SOL    HW114537   0.182   2.344  16.357  1.7349  1.0347  0.5305
 1025SOL    HW214538   0.298   2.328  16.276 -0.4749  0.0675 -0.4116
 1026SOL     OW14539   2.677   1.863   6.276  0.4719  0.1477 -0.0711
 1026SOL    HW114540   2.772   1.879   6.271  0.3287  0.9009 -0.2973
 1026SOL    HW214541   2.658   1.893   6.365  0.0569 -2.1890  0.6506
 1027SOL     OW14542   3.408   2.585   1.862 -0.1397  0.2063 -0.0738
 1027SOL    HW114543   3.386   2.668   1.819 -0.9782 -0.5829 -1.1534
 1027SOL    HW214544   3.492   2.610   1.901 -1.2624  4.1244 -0.1805
 1028SOL     OW14545   1.073   3.219   0.228  0.1972  0.5871 -0.1469
 1028SOL    HW114546   1.131   3.154   0.188 -1.0782 -0.9656  0.4997
 1028SOL    HW214547   1.085   3.183   0.316 -1.5289 -1.0913 -0.5993
 1029SOL     OW14548   4.110   0.973   1.669  0.3501  0.2246 -0.1615
 1029SOL    HW114549   4.157   1.011   1.743  1.6820 -0.8227 -0.4717
 1029SOL    HW214550   4.113   0.880   1.692 -0.1025  0.1468 -0.4196
 1030SOL     OW14551   0.872   2.796  12.270  0.2625  0.2786 -0.0637
 1030SOL    HW114552   0.928   2.718  12.275  0.1521  0.3851  3.3256
 1030SOL    HW214553   0.940   2.857  12.300 -0.4847  0.4896  1.2021
 1031SOL     OW14554   3.519   2.398   6.664  0.1788  0.0255 -0.1049
 1031SOL    HW114555   3.488   2.467   6.606 -0.1628 -0.0719 -0.0381
 1031SOL    HW214556   3.473   2.427   6.743  1.2383 -1.0798  0.9224
 1032SOL     OW14557   3.835   1.122   6.318  0.5095 -0.3615  0.7899
 1032SOL    HW114558   3.903   1.186   6.298  0.3390 -1.0626 -2.0564
 1032SOL    HW214559   3.821   1.154   6.407  2.4361  0.0410  0.9370
 1033SOL     OW14560   1.281   2.950   7.661 -0.7559 -0.5563 -0.2177
 1033SOL    HW114561   1.325   2.992   7.586  1.6363  0.7406  1.9046
 1033SOL    HW214562   1.188   2.969   7.648 -0.9482 -0.0985  1.9370
 1034SOL     OW14563   3.360   0.600   6.776  0.3540  0.2465 -0.1653
 1034SOL    HW114564   3.320   0.527   6.729  0.0047  0.3828 -0.0837
 1034SOL    HW214565   3.455   0.599   6.767  0.5088 -0.0080  1.5020
 1035SOL     OW14566   0.839   2.602   8.226  0.4394 -0.1714  0.2036
 1035SOL    HW114567   0.902   2.606   8.154 -1.6804  1.2426 -1.5859
 1035SOL    HW214568   0.831   2.695   8.247  1.3335  0.1246 -0.7583
 1036SOL     OW14569   2.494   4.686  14.510  0.1341 -0.7526  0.5522
 1036SOL    HW114570   2.409   4.717  14.479  0.9844 -0.7168 -1.6669
 1036SOL    HW214571   2.463   4.653  14.595 -0.0704  0.1467  0.8241
 1037SOL     OW14572   1.647   4.700   1.736  0.5616 -0.0759  0.2994
 1037SOL    HW114573   1.651   0.046   1.798  0.1461  1.5241 -1.5644
 1037SOL    HW214574   1.673   4.624   1.788 -1.0749 -0.5309  0.4311
 1038SOL     OW14575   0.461   2.747   4.126 -0.2679  0.3104  0.0606
 1038SOL    HW114576   0.382   2.772   4.079  0.2607  0.6595 -0.6481
 1038SOL    HW214577   0.450   2.656   4.152  1.1484 -0.2666 -1.2976
 1039SOL     OW14578   0.194   4.371   3.215 -0.0999 -0.2084 -0.0522
 1039SOL    HW114579   0.098   4.380   3.214 -0.2996 -2.3940 -1.3222
 1039SOL    HW214580   0.205   4.321   3.134 -2.0361 -3.3949  1.6500
 1040SOL     OW14581   4.147   4.297   6.128 -0.1404 -0.0528  0.6992
 1040SOL    HW114582   4.242   4.291   6.116  0.1388 -0.4558  3.0601
 1040SOL    HW214583   4.148   4.270   6.220  0.5001  2.8065  1.5245
 1041SOL     OW14584   0.422   2.757  14.854 -0.3363  0.2489  0.9673
 1041SOL    HW114585   0.395   2.666  14.845 -2.5075  0.9099  0.8144
 1041SOL    HW214586   0.507   2.753  14.899 -0.8377  1.4697  2.0421
 1042SOL     OW14587   0.731   2.813   4.075  0.3733  0.1494 -0.5354
 1042SOL    HW114588   0.753   2.849   3.989  0.3192 -2.9652 -1.8341
 1042SOL    HW214589   0.637   2.802   4.063  0.3501  1.1238 -1.2698
 1043SOL     OW14590   0.556   1.011  16.494 -0.3426  0.7283  0.6422
 1043SOL    HW114591   0.491   0.940  16.495 -0.8466  1.2133  2.0634
 1043SOL    HW214592   0.636   0.962  16.507 -0.4159  0.4043 -0.1109
 1044SOL     OW14593   2.571   1.267   5.257  0.0705  0.7396 -0.0330
 1044SOL    HW114594   2.528   1.352   5.260  0.4731  0.8861  1.7356
 1044SOL    HW214595   2.577   1.257   5.162  2.7034  4.2465 -0.2101
 1045SOL     OW14596   2.289   2.984   3.688 -0.3590  0.2576 -0.2514
 1045SOL    HW114597   2.343   2.934   3.626 -2.0341  0.5297 -1.9268
 1045SOL    HW214598   2.219   2.923   3.709 -0.3888  0.8556  1.3356
 1046SOL     OW14599   4.214   2.621  17.341 -0.4222 -0.1789 -0.2049
 1046SOL    HW114600   4.172   2.703  17.365  1.0140  0.1876  1.0530
 1046SOL    HW214601   4.167   2.555  17.391 -1.1245  0.7859  0.4003
 1047SOL     OW14602   4.193   3.144   8.604 -0.2889  0.3696  0.3576
 1047SOL    HW114603   4.115   3.091   8.587 -0.7792  1.8686 -2.0681
 1047SOL    HW214604   4.150   3.212   8.657  0.8105  2.4965 -1.5140
 1048SOL     OW14605   1.826   3.955   8.416 -0.1142 -0.1629 -0.1359
 1048SOL    HW114606   1.871   3.955   8.332 -0.7347  0.7365 -0.4681
 1048SOL    HW214607   1.768   3.879   8.413  0.1535 -0.3807  0.1394
 1049SOL     OW14608   0.426   0.839   6.749  0.0878  0.5684  0.3163
 1049SOL    HW114609   0.409   0.851   6.656 -3.1868  0.4387  0.9025
 1049SOL    HW214610   0.499   0.895   6.776 -0.2374  0.5578  1.2144
 1050SOL     OW14611   0.973   1.827   2.372  0.1107 -0.9063  0.6390
 1050SOL    HW114612   1.046   1.806   2.315 -1.3708 -1.7102 -0.9602
 1050SOL    HW214613   0.902   1.857   2.315  1.9495  1.4329 -0.4628
 1051SOL     OW14614   4.466   2.895   8.334  0.1714  0.1330  0.3584
 1051SOL    HW114615   4.416   2.849   8.402  0.7512 -3.0605 -1.3978
 1051SOL    HW214616   4.411   2.973   8.330 -0.0449 -0.0357  0.1192
 1052SOL     OW14617   0.932   4.296   3.270  0.4182  0.1019 -0.1280
 1052SOL    HW114618   0.846   4.327   3.241  1.3493 -0.0541 -3.0401
 1052SOL    HW214619   0.933   4.302   3.366 -0.4426 -0.9217 -0.0521
 1053SOL     OW14620   2.185   4.382  12.033 -0.1160 -0.4510  0.8602
 1053SOL    HW114621   2.186   4.472  12.065 -0.1378 -0.0143 -0.3798
 1053SOL    HW214622   2.274   4.348  12.028 -0.2257 -0.8206  1.5078
 1054SOL     OW14623   2.759   4.578  16.137 -0.2714 -0.8722 -0.1700
 1054SOL    HW114624   2.817   4.614  16.070  0.1373  0.0461  0.6809
 1054SOL    HW214625   2.800   4.612  16.216 -0.7918 -1.7140  0.4642
 1055SOL     OW14626   4.594   3.984   8.561 -0.1420 -0.2903  0.5580
 1055SOL    HW114627   4.682   3.984   8.523 -0.6098 -2.3360 -0.5026
 1055SOL    HW214628   4.586   4.058   8.621 -1.7842  0.1672 -0.2304
 1056SOL     OW14629   0.379   3.260   5.006  0.2408  0.1476 -0.2092
 1056SOL    HW114630   0.413   3.190   5.061 -0.3880  0.9612  1.2037
 1056SOL    HW214631   0.348   3.320   5.074 -0.1866  1.3749 -1.4812
 1057SOL     OW14632   1.452   2.165   4.532  0.1289  0.2887 -0.0108
 1057SOL    HW114633   1.424   2.219   4.606  0.9643 -0.7801  1.0687
 1057SOL    HW214634   1.396   2.201   4.462 -1.3982 -2.7585 -0.3595
 1058SOL     OW14635   2.184   1.221  12.347 -0.2331  0.6874 -0.4377
 1058SOL    HW114636   2.248   1.191  12.411 -0.5920  2.2888  0.6905
 1058SOL    HW214637   2.104   1.221  12.400  0.3162  2.2066  0.4072
 1059SOL     OW14638   2.086   4.222   6.591  0.5640 -0.1495 -0.3316
 1059SOL    HW114639   2.128   4.223   6.506 -1.0895  1.3169 -1.1224
 1059SOL    HW214640   2.011   4.165   6.575 -0.6447  0.8721  1.6459
 1060SOL     OW14641   2.771   3.256  11.464  0.0917 -0.1992 -0.5126
 1060SOL    HW114642   2.768   3.281  11.556 -1.0066  0.9937 -0.8736
 1060SOL    HW214643   2.690   3.206  11.460  0.2757 -0.4988 -0.5418
 1061SOL     OW14644   0.220   1.575  14.649  0.0014 -0.1308  0.0862
 1061SOL    HW114645   0.272   1.569  14.729 -1.3269  1.5441  1.0734
 1061SOL    HW214646   0.283   1.613  14.588 -1.5207 -0.0179 -1.4206
 1062SOL     OW14647   2.384   2.073   5.230 -0.1059 -0.0874 -0.0953
 1062SOL    HW114648   2.324   2.144   5.254 -0.0384  0.1128 -0.5217
 1062SOL    HW214649   2.396   2.093   5.137 -2.1553  0.7609 -0.1636
 1063SOL     OW14650   4.690   4.135   5.818 -0.5842  0.1639 -0.1950
 1063SOL    HW114651   4.686   4.065   5.752 -0.0378 -1.7845  1.8639
 1063SOL    HW214652   4.636   4.200   5.772 -0.7583  1.5426  1.9563
 1064SOL     OW14653   1.317   2.552   3.793 -0.3600 -0.2434  0.1772
 1064SOL    HW114654   1.266   2.633   3.783  2.4533  1.2210 -2.3171
 1064SOL    HW214655   1.271   2.501   3.727 -0.5866 -0.6959  0.6939
 1065SOL     OW14656   4.356   0.760   8.283 -0.5975  0.2127  0.5819
 1065SOL    HW114657   4.431   0.766   8.341 -0.2004 -0.1551  0.1086
 1065SOL    HW214658   4.278   0.773   8.338 -1.7977 -0.8922 -0.8630
 1066SOL     OW14659   4.561   1.113   7.732  0.5067  0.1316  0.1827
 1066SOL    HW114660   4.493   1.094   7.796 -0.7239  0.0243 -1.1527
 1066SOL    HW214661   4.623   1.041   7.748 -0.2239 -0.6906 -0.7163
 1067SOL     OW14662   4.227   1.224   9.899  0.8876  0.1340 -0.2020
 1067SOL    HW114663   4.154   1.221   9.838  0.3288 -0.6050  0.5076
 1067SOL    HW214664   4.192   1.268   9.976  1.7816  0.2493  0.1426
 1068SOL     OW14665   1.760   3.737  14.976  0.0202 -0.6082 -0.2089
 1068SOL    HW114666   1.704   3.660  14.971  0.1850 -0.7845  0.6160
 1068SOL    HW214667   1.708   3.798  15.028  0.7731 -0.2274  0.1012
 1069SOL     OW14668   1.867   2.634   6.286  0.4952  0.2782  0.4153
 1069SOL    HW114669   1.843   2.603   6.373 -2.4938  1.8620  0.1404
 1069SOL    HW214670   1.867   2.729   6.300 -0.8687 -0.1094  3.1321
 1070SOL     OW14671   1.908   1.376  15.502  0.1838 -1.1498  0.2476
 1070SOL    HW114672   1.900   1.288  15.463 -2.0648  0.0537 -2.0269
 1070SOL    HW214673   1.818   1.382  15.534  0.2613 -1.5332  0.5260
 1071SOL     OW14674   3.722   1.324   5.601 -0.6945  0.0133  0.2418
 1071SOL    HW114675   3.762   1.237   5.594 -2.5820 -0.8263 -0.2183
 1071SOL    HW214676   3.663   1.323   5.525  1.0871  0.3490 -1.1338
 1072SOL     OW14677   2.460   4.568   6.301  1.1808 -0.0452 -0.2555
 1072SOL    HW114678   2.547   4.529   6.301  0.0249 -2.6021 -1.1527
 1072SOL    HW214679   2.456   4.589   6.208  0.7126  0.0471 -0.2135
 1073SOL     OW14680   0.221   2.925   7.349 -0.0428  0.2131 -0.1172
 1073SOL    HW114681   0.203   2.923   7.255 -0.4374  2.8177 -0.1128
 1073SOL    HW214682   0.135   2.906   7.385 -0.6992 -0.8149 -2.2202
 1074SOL     OW14683   1.574   3.517   6.269  0.2658  0.1522 -0.2151
 1074SOL    HW114684   1.586   3.500   6.362 -2.2939  0.2682  0.1359
 1074SOL    HW214685   1.660   3.533   6.231  0.1187  1.1056 -0.1575
 1075SOL     OW14686   1.511   4.522   5.167 -0.2755  0.1785 -0.2635
 1075SOL    HW114687   1.542   4.556   5.083 -2.0755 -1.3494 -1.5688
 1075SOL    HW214688   1.467   4.439   5.145 -0.1613  0.4693 -1.5700
 1076SOL     OW14689   2.583   3.594   3.574  0.7815 -0.0494 -0.2582
 1076SOL    HW114690   2.553   3.545   3.650  1.9414 -1.8501 -0.9587
 1076SOL    HW214691   2.536   3.677   3.580  1.2185  0.0581  1.5335
 1077SOL     OW14692   2.142   1.897   7.225  0.0535 -0.1090  0.0487
 1077SOL    HW114693   2.071   1.906   7.161  0.5903  0.2009 -0.5145
 1077SOL    HW214694   2.209   1.955   7.189 -0.4167  0.0379 -0.5885
 1078SOL     OW14695   3.928   3.925   4.604 -0.6574  0.0270  0.1820
 1078SOL    HW114696   3.923   3.913   4.699 -2.2242  1.8109  0.3055
 1078SOL    HW214697   3.979   3.847   4.581  3.8432  2.7691  0.8170
 1079SOL     OW14698   0.344   4.084   7.560  0.7335 -0.1037 -0.1803
 1079SOL    HW114699   0.415   4.147   7.547  0.2329  0.5415  0.2329
 1079SOL    HW214700   0.361   4.071   7.653  1.0851 -0.2444 -0.2658
 1080SOL     OW14701   0.586   4.676   9.076  0.2584  0.1788  0.6968
 1080SOL    HW114702   0.554   4.705   8.990  1.5617  2.0129  0.8371
 1080SOL    HW214703   0.497   4.659   9.107 -0.4565  2.0328 -0.3722
 1081SOL     OW14704   3.840   1.525  10.042  0.0663  0.2419  0.0004
 1081SOL    HW114705   3.833   1.475  10.124 -0.7595 -0.8186 -0.7198
 1081SOL    HW214706   3.766   1.482   9.999  0.0674  1.5088 -1.2728
 1082SOL     OW14707   0.350   3.818   5.799 -0.0557  0.2617  0.0660
 1082SOL    HW114708   0.316   3.890   5.851  2.4058  0.4586  1.3979
 1082SOL    HW214709   0.432   3.861   5.773  1.5593 -2.8386  0.0338
 1083SOL     OW14710   4.510   0.962   4.031  0.1428 -0.6564  0.4506
 1083SOL    HW114711   4.473   0.930   4.113 -0.7011  0.1943  0.4096
 1083SOL    HW214712   4.523   1.056   4.044 -0.5304 -0.9521  3.1806
 1084SOL     OW14713   3.469   4.687   6.429 -0.0087  0.8255  0.0887
 1084SOL    HW114714   3.488   0.018   6.356  2.8205  0.3835  0.4971
 1084SOL    HW214715   3.473   0.022   6.502 -0.0130 -1.1390  1.7659
 1085SOL     OW14716   4.050   3.987  14.744  0.0851 -0.1121  0.2578
 1085SOL    HW114717   4.047   4.043  14.667  0.4638 -2.0942 -1.2215
 1085SOL    HW214718   4.011   4.036  14.816 -1.3997  0.9876 -1.2970
 1086SOL     OW14719   1.508   4.070   6.518 -0.4826  0.1816  0.1160
 1086SOL    HW114720   1.518   4.062   6.613 -2.2799 -2.5878  0.1010
 1086SOL    HW214721   1.570   4.005   6.485  0.6532  2.8393 -2.9669
 1087SOL     OW14722   2.972   1.086   7.703  0.0431  0.3474 -0.2756
 1087SOL    HW114723   2.985   0.992   7.686  1.1122  0.4798 -0.2393
 1087SOL    HW214724   2.988   1.086   7.797 -0.0751 -2.5665 -0.2578
 1088SOL     OW14725   1.583   4.122   5.460  0.0463  0.4091 -0.6281
 1088SOL    HW114726   1.491   4.100   5.445 -0.4933  0.7587  2.1308
 1088SOL    HW214727   1.618   4.126   5.372  0.7976  2.5699 -0.2296
 1089SOL     OW14728   0.709   1.308   2.343  0.4851 -0.2914  0.1348
 1089SOL    HW114729   0.801   1.302   2.316  0.5556  0.4798  0.1977
 1089SOL    HW214730   0.718   1.372   2.414  2.3104 -2.7433  2.1591
 1090SOL     OW14731   2.555   0.387   8.340 -0.0276 -0.2514 -0.3155
 1090SOL    HW114732   2.466   0.357   8.356  0.3733 -2.1381 -1.6797
 1090SOL    HW214733   2.526   0.475   8.317  0.9911 -0.2606 -1.6169
 1091SOL     OW14734   4.513   0.167   3.859  0.1358  0.5143 -0.1926
 1091SOL    HW114735   4.455   0.102   3.897 -0.5661  1.3903  0.2424
 1091SOL    HW214736   4.493   0.150   3.766 -0.1853  0.3231 -0.0893
 1092SOL     OW14737   1.226   3.681   1.991 -0.5397  0.0087  0.4557
 1092SOL    HW114738   1.320   3.687   2.006 -0.3742  3.6066 -2.0451
 1092SOL    HW214739   1.195   3.653   2.077  1.5168  0.0211  1.2049
 1093SOL     OW14740   1.897   3.399   9.665 -0.0087  0.6576  0.5685
 1093SOL    HW114741   1.836   3.415   9.736 -0.9617 -0.9982  0.1039
 1093SOL    HW214742   1.968   3.463   9.670 -0.3077  1.0386  0.0304
 1094SOL     OW14743   3.410   1.041  10.141 -0.2687 -0.0341 -0.2674
 1094SOL    HW114744   3.408   1.043  10.046 -0.3193 -0.0366 -0.2663
 1094SOL    HW214745   3.329   0.995  10.163  0.1040 -0.5865 -0.0488
 1095SOL     OW14746   3.888   0.577   8.879  0.1564  0.5392  0.3039
 1095SOL    HW114747   3.848   0.637   8.942  1.8127  1.9672  0.0107
 1095SOL    HW214748   3.816   0.567   8.817  0.3834 -0.8606  0.2724
 1096SOL     OW14749   2.628   1.944   1.431  0.4938 -0.2608 -0.5278
 1096SOL    HW114750   2.687   2.012   1.464  0.7088 -1.0450  0.6941
 1096SOL    HW214751   2.630   1.965   1.337 -1.3197  0.1796 -0.4823
 1097SOL     OW14752   0.542   2.535   6.623  0.0778  0.3695 -0.2069
 1097SOL    HW114753   0.592   2.464   6.662 -2.1247 -0.5631  0.9329
 1097SOL    HW214754   0.600   2.609   6.641 -0.7641  0.6941  1.2225
 1098SOL     OW14755   2.068   1.698   4.479  0.2842  0.4088 -0.1174
 1098SOL    HW114756   2.083   1.760   4.407 -0.7579  0.5552 -0.2163
 1098SOL    HW214757   2.140   1.636   4.466 -0.3444 -0.0137 -1.6445
 1099SOL     OW14758   4.261   4.697   0.167  0.3280 -0.4675  0.4068
 1099SOL    HW114759   4.216   0.044   0.205 -0.8757 -0.1665 -1.5989
 1099SOL    HW214760   4.345   0.006   0.142  0.3517  0.0777  1.2851
 1100SOL     OW14761   0.487   3.493  15.854  0.0637 -0.3080  0.5659
 1100SOL    HW114762   0.501   3.588  15.852 -2.3124 -0.0011 -0.9049
 1100SOL    HW214763   0.580   3.471  15.842  0.0599  0.8094 -1.4719
 1101SOL     OW14764   1.704   1.839   2.465 -0.2735  0.0820  0.7011
 1101SOL    HW114765   1.683   1.766   2.523  0.6622 -2.2422 -1.8419
 1101SOL    HW214766   1.686   1.786   2.387 -1.4830 -1.0665  1.7718
 1102SOL     OW14767   2.716   2.106   6.818  0.5564 -0.3975  0.2632
 1102SOL    HW114768   2.669   2.189   6.824  0.7930 -0.3884  2.0033
 1102SOL    HW214769   2.713   2.081   6.910 -0.8971  1.0924  0.6044
 1103SOL     OW14770   3.760   4.061  16.057 -0.2755 -0.3749 -0.7532
 1103SOL    HW114771   3.791   4.058  16.148  1.9648  0.6611 -1.4730
 1103SOL    HW214772   3.713   4.144  16.046 -1.7988 -1.0842  0.4644
 1104SOL     OW14773   3.359   4.523   7.109  0.2315  0.2349  0.3305
 1104SOL    HW114774   3.413   4.564   7.042  1.5393 -0.5332  0.9285
 1104SOL    HW214775   3.353   4.601   7.163  1.7460  0.6996 -0.1733
 1105SOL     OW14776   1.533   4.423  11.522 -0.6348  0.2082 -0.4129
 1105SOL    HW114777   1.512   4.407  11.430 -0.7654 -0.8324 -0.2073
 1105SOL    HW214778   1.628   4.426  11.515 -0.5945 -0.7247 -0.2764
 1106SOL     OW14779   3.767   0.934   3.913  0.1620  0.2336  0.5220
 1106SOL    HW114780   3.785   0.959   3.822  1.7616  0.4724  0.9121
 1106SOL    HW214781   3.715   0.855   3.894  0.5202  0.0327  0.3876
 1107SOL     OW14782   4.129   0.852   7.728  0.0246  0.1549  0.3636
 1107SOL    HW114783   4.139   0.824   7.819  2.2502  1.5300  0.5476
 1107SOL    HW214784   4.046   0.809   7.707  1.4738 -2.0170 -0.8164
 1108SOL     OW14785   1.012   1.611   6.708 -0.7157 -0.0443  0.6033
 1108SOL    HW114786   0.947   1.545   6.733 -1.9435  0.6005 -0.8978
 1108SOL    HW214787   1.032   1.582   6.619  0.5872  0.8280  0.6120
 1109SOL     OW14788   4.533   0.926   7.223 -0.4112  0.3266 -0.2077
 1109SOL    HW114789   4.541   1.002   7.166 -1.3406  0.5089 -0.0832
 1109SOL    HW214790   4.541   0.955   7.314 -1.7614  0.5377 -0.1673
 1110SOL     OW14791   4.279   0.864   6.582  0.3587  0.4380  0.4735
 1110SOL    HW114792   4.259   0.787   6.528  0.3739  0.0566  1.0116
 1110SOL    HW214793   4.370   0.845   6.604  0.4434  1.0841  0.6695
 1111SOL     OW14794   4.069   3.372   6.130 -0.4295  0.1384 -0.0810
 1111SOL    HW114795   4.154   3.330   6.125  0.0226  1.2109 -1.2327
 1111SOL    HW214796   4.081   3.432   6.204 -0.2138 -1.2216  0.9900
 1112SOL     OW14797   4.516   0.488   7.104 -1.2037 -0.2243 -0.8079
 1112SOL    HW114798   4.539   0.581   7.115 -1.0730 -0.4440  0.7098
 1112SOL    HW214799   4.434   0.493   7.055 -1.9307  0.0306  0.4343
 1113SOL     OW14800   3.546   0.791  14.968  0.0643  0.0515  0.4236
 1113SOL    HW114801   3.473   0.774  14.908  2.3633 -0.1210 -2.2656
 1113SOL    HW214802   3.508   0.872  15.003  0.8420  0.6541 -0.1644
 1114SOL     OW14803   0.864   2.614   4.179  0.1618 -0.0460  0.4301
 1114SOL    HW114804   0.914   2.660   4.247  0.0461 -1.7227  1.6520
 1114SOL    HW214805   0.830   2.687   4.126  1.3615 -2.4751 -3.6293
 1115SOL     OW14806   2.677   3.398   7.968 -0.1178 -0.1261  0.6770
 1115SOL    HW114807   2.723   3.348   8.035  2.4693  0.3493 -0.7433
 1115SOL    HW214808   2.592   3.355   7.977 -0.3305  0.1562  0.0453
 1116SOL     OW14809   4.105   4.613   0.508  0.0541 -0.3721 -0.4781
 1116SOL    HW114810   4.054   4.561   0.570  2.1507 -1.9207 -0.0603
 1116SOL    HW214811   4.183   4.630   0.562 -0.8747 -0.0939  0.7667
 1117SOL     OW14812   2.625   2.260   4.528  0.2727 -0.4283  0.5760
 1117SOL    HW114813   2.541   2.274   4.484  1.0933  1.0636 -0.5005
 1117SOL    HW214814   2.626   2.340   4.580 -0.9323  0.4481 -0.7490
 1118SOL     OW14815   3.463   0.921   7.247  0.0616 -0.4310  0.0337
 1118SOL    HW114816   3.492   1.006   7.214 -0.8187  0.1107  0.6611
 1118SOL    HW214817   3.550   0.888   7.271  0.2933  0.7680  0.8742
 1119SOL     OW14818   1.826   1.286   7.921 -0.3438  0.3038 -0.2255
 1119SOL    HW114819   1.889   1.341   7.968 -0.0383 -2.1776  2.2818
 1119SOL    HW214820   1.742   1.316   7.956 -0.8867 -2.7341  1.0814
 1120SOL     OW14821   2.544   4.637   5.261  0.0786  0.1678 -0.0908
 1120SOL    HW114822   2.557   4.546   5.236  0.5864 -0.2966  1.8819
 1120SOL    HW214823   2.635   4.666   5.271  0.0982  0.1216 -0.1332
 1121SOL     OW14824   2.294   3.079   9.017  0.1700 -0.0006 -0.4750
 1121SOL    HW114825   2.387   3.084   9.039  0.0094  3.9227 -0.6939
 1121SOL    HW214826   2.303   3.043   8.929 -1.2516 -0.1460 -0.5578
 1122SOL     OW14827   3.023   4.101   7.272  0.3471 -0.0262  0.3202
 1122SOL    HW114828   3.117   4.103   7.288  0.6549 -1.5201 -1.2693
 1122SOL    HW214829   3.000   4.090   7.364 -0.8253  2.0490  0.2752
 1123SOL     OW14830   4.026   0.053   5.364  0.5128 -0.1537  0.3903
 1123SOL    HW114831   3.943   0.068   5.319  0.2136  1.5984  1.5171
 1123SOL    HW214832   4.058   4.709   5.309  0.2701 -0.7221  0.9773
 1124SOL     OW14833   0.457   0.500   6.445 -0.0001  0.0070 -0.1754
 1124SOL    HW114834   0.440   0.489   6.352 -1.2300 -0.6913  0.1360
 1124SOL    HW214835   0.419   0.588   6.455 -0.7563 -0.3653  0.1834
 1125SOL     OW14836   0.657   3.209   1.273  0.7387 -0.2460 -0.0876
 1125SOL    HW114837   0.626   3.193   1.184  1.5026  0.4454 -0.4836
 1125SOL    HW214838   0.679   3.119   1.299  3.0345  0.4759  0.5423
 1126SOL     OW14839   2.793   4.196   4.388  0.3980 -0.5234 -0.6139
 1126SOL    HW114840   2.809   4.222   4.297 -0.2956  0.5995 -0.4157
 1126SOL    HW214841   2.732   4.266   4.410  0.8795 -0.1416 -0.5075
 1127SOL     OW14842   0.916   1.151   3.288 -0.3523  0.2806 -0.4977
 1127SOL    HW114843   0.876   1.238   3.295  0.2648  0.5980 -0.8562
 1127SOL    HW214844   0.952   1.152   3.199 -2.6977 -2.4927 -1.4874
 1128SOL     OW14845   2.761   2.697   3.030 -1.0626 -0.2621 -0.3952
 1128SOL    HW114846   2.739   2.673   3.119 -1.2273  0.9891 -0.1053
 1128SOL    HW214847   2.806   2.620   2.995  0.4645  0.6614 -0.5066
 1129SOL     OW14848   1.824   0.157   1.097  0.7623 -0.9847  0.1008
 1129SOL    HW114849   1.812   0.144   1.191 -3.3544  2.1101  0.0036
 1129SOL    HW214850   1.784   0.078   1.063  2.0414 -0.9253 -1.5449
 1130SOL     OW14851   4.064   4.342   9.473  0.2617 -0.3728 -0.1910
 1130SOL    HW114852   4.030   4.414   9.420  0.1331  0.7260  1.3808
 1130SOL    HW214853   4.009   4.271   9.441  0.5408 -0.5658 -0.2479
 1131SOL     OW14854   4.059   3.412  14.759  0.8397 -0.2176 -0.1399
 1131SOL    HW114855   4.042   3.410  14.853  0.9305  1.9692 -0.0727
 1131SOL    HW214856   4.028   3.323  14.743 -0.0219 -0.6301  3.9513
 1132SOL     OW14857   0.353   1.740   8.697  0.2648  0.2024  0.1067
 1132SOL    HW114858   0.393   1.786   8.622  0.6246 -2.4125 -1.3166
 1132SOL    HW214859   0.388   1.799   8.764  1.7478  0.2212 -0.6713
 1133SOL     OW14860   3.424   0.267   7.939 -0.2508  0.4253  0.6981
 1133SOL    HW114861   3.351   0.301   7.888 -0.1638  0.1112  0.3653
 1133SOL    HW214862   3.393   0.179   7.959 -0.9495  0.2890 -1.0854
 1134SOL     OW14863   0.827   4.131   2.513  0.1364  0.1095 -0.3782
 1134SOL    HW114864   0.813   4.123   2.418 -0.5453  0.2342 -0.2887
 1134SOL    HW214865   0.807   4.040   2.537  3.0770 -0.5380 -0.3572
 1135SOL     OW14866   0.873   1.065  10.563 -0.2577 -0.7442  0.1594
 1135SOL    HW114867   0.857   1.051  10.656  1.0046  0.0976  0.4980
 1135SOL    HW214868   0.957   1.110  10.565 -0.6302 -0.1420  1.9781
 1136SOL     OW14869   0.181   2.439   4.485 -0.3545  0.4328  0.0689
 1136SOL    HW114870   0.184   2.408   4.575 -3.7948  2.0980  0.7750
 1136SOL    HW214871   0.098   2.409   4.448 -0.1171  1.8243 -1.6157
 1137SOL     OW14872   1.941   0.303   2.787  0.2864 -0.2549 -0.5849
 1137SOL    HW114873   1.908   0.347   2.866 -0.1234  2.4513 -2.2817
 1137SOL    HW214874   1.936   0.211   2.814 -1.7097  0.3242  1.0841
 1138SOL     OW14875   2.871   4.195   7.794 -0.0936 -0.3810  0.1635
 1138SOL    HW114876   2.958   4.202   7.835  0.2072  2.1953 -0.9396
 1138SOL    HW214877   2.837   4.132   7.858 -0.0681  1.6875  2.1885
 1139SOL     OW14878   2.485   3.585   7.700 -0.1169 -0.1752 -0.1643
 1139SOL    HW114879   2.573   3.561   7.729 -0.6350 -0.3516  1.2668
 1139SOL    HW214880   2.453   3.622   7.782  0.0799  0.2758 -0.2939
 1140SOL     OW14881   1.875   2.329   4.836 -0.1660  0.1586  0.2473
 1140SOL    HW114882   1.781   2.317   4.849 -0.0623 -1.8747 -0.8346
 1140SOL    HW214883   1.911   2.240   4.826  0.4433  0.1469  2.3894
 1141SOL     OW14884   0.544   2.709   8.886  0.1222 -0.3085  0.5299
 1141SOL    HW114885   0.525   2.615   8.891  1.3027 -0.6823 -2.1159
 1141SOL    HW214886   0.475   2.731   8.823 -0.0171  1.4490  1.2772
 1142SOL     OW14887   0.808   3.273   2.071  0.0708  0.4325 -0.1498
 1142SOL    HW114888   0.719   3.306   2.055  0.2115  0.1538 -1.4969
 1142SOL    HW214889   0.849   3.301   1.989  0.8522  1.9534  0.7547
 1143SOL     OW14890   4.397   1.429  15.385  0.2449 -0.1049 -0.4272
 1143SOL    HW114891   4.416   1.339  15.411  0.2777  0.3732  1.1738
 1143SOL    HW214892   4.484   1.465  15.400  0.1469 -0.4936  1.0110
 1144SOL     OW14893   3.431   1.079  14.953  0.0889 -0.0209  0.4712
 1144SOL    HW114894   3.434   1.116  14.865 -1.1338 -0.0546  0.4045
 1144SOL    HW214895   3.459   1.156  15.002 -0.2989  0.8248 -0.6185
 1145SOL     OW14896   0.513   1.750   2.428 -0.4103 -0.5193 -0.1686
 1145SOL    HW114897   0.580   1.801   2.474  0.6018 -1.9167 -0.0979
 1145SOL    HW214898   0.540   1.757   2.337  0.3205 -0.1566  0.0734
 1146SOL     OW14899   2.170   2.674   6.597  0.0791 -0.0586  0.3738
 1146SOL    HW114900   2.212   2.654   6.513 -2.4163 -2.2418 -0.3376
 1146SOL    HW214901   2.185   2.768   6.609 -1.6108  0.2153  0.2902
 1147SOL     OW14902   3.093   4.143   3.652 -0.7624 -0.1270  0.2682
 1147SOL    HW114903   3.144   4.095   3.718 -2.4653 -0.3124  1.4409
 1147SOL    HW214904   3.145   4.128   3.573 -0.5976  2.8699 -0.2136
 1148SOL     OW14905   1.381   3.474   2.864 -0.4460 -0.2713 -0.5940
 1148SOL    HW114906   1.424   3.560   2.859 -3.2918  0.9982 -2.7259
 1148SOL    HW214907   1.421   3.431   2.940 -1.6121 -0.8523 -0.3044
 1149SOL     OW14908   1.051   2.903   2.077  0.5572  0.3969 -0.5122
 1149SOL    HW114909   1.099   2.820   2.076 -0.6115 -0.2771  0.6372
 1149SOL    HW214910   1.074   2.942   2.161  1.4314  0.1504 -0.6323
 1150SOL     OW14911   3.248   4.320  11.029 -0.5228 -0.4519  0.1762
 1150SOL    HW114912   3.313   4.307  10.960  0.2860  0.2894  0.7874
 1150SOL    HW214913   3.309   4.323  11.103  0.3974 -0.4440 -0.5876
 1151SOL     OW14914   3.776   0.960  10.462 -0.0302 -0.0764  0.0708
 1151SOL    HW114915   3.731   1.033  10.420 -0.7831 -1.2633 -1.1768
 1151SOL    HW214916   3.737   0.963  10.550  0.0685 -0.8972  0.1471
 1152SOL     OW14917   0.539   2.487   3.780  0.4469  0.3370 -0.4466
 1152SOL    HW114918   0.507   2.538   3.705  0.2784 -0.8793 -1.1982
 1152SOL    HW214919   0.465   2.476   3.839  0.9423  0.9784  0.3009
 1153SOL     OW14920   0.653   3.580   4.071  0.1734 -0.2697  0.3201
 1153SOL    HW114921   0.660   3.670   4.040 -1.5899 -0.4937 -0.6847
 1153SOL    HW214922   0.567   3.556   4.036 -0.2302 -3.2653  3.4103
 1154SOL     OW14923   2.795   4.701   3.465  0.5378  0.1183 -0.1612
 1154SOL    HW114924   2.818   4.706   3.558 -1.2960  0.4446  0.2778
 1154SOL    HW214925   2.708   0.013   3.466 -0.4297 -1.9980 -1.1285
 1155SOL     OW14926   4.680   1.267  15.301  0.2569  0.3550 -0.2092
 1155SOL    HW114927   0.035   1.254  15.255  0.9531 -0.7543  1.3509
 1155SOL    HW214928   4.631   1.322  15.240  0.3708  1.0664  0.3311
 1156SOL     OW14929   3.683   1.735  16.240 -0.4838 -0.5468  0.4565
 1156SOL    HW114930   3.733   1.654  16.236 -2.7682 -1.9452  0.4076
 1156SOL    HW214931   3.626   1.718  16.315 -0.8535  2.9895  0.9752
 1157SOL     OW14932   3.670   1.719  12.478 -0.2474  0.2304  0.5351
 1157SOL    HW114933   3.696   1.773  12.553  0.8540  0.4936 -0.0458
 1157SOL    HW214934   3.702   1.633  12.507 -0.9021  0.3211  1.5523
 1158SOL     OW14935   1.119   0.308   7.863  0.5686  0.2462  0.5137
 1158SOL    HW114936   1.117   0.232   7.804 -0.1320  0.1771  0.6191
 1158SOL    HW214937   1.032   0.338   7.837 -0.1190 -1.7122  0.5693
 1159SOL     OW14938   0.720   4.366   7.897  0.0923 -0.2009  0.1439
 1159SOL    HW114939   0.647   4.307   7.910  0.4199 -0.8813 -1.0524
 1159SOL    HW214940   0.799   4.311   7.899 -0.5848 -1.1854 -0.2523
 1160SOL     OW14941   2.340   2.660  11.870  0.3681 -0.2984  0.4843
 1160SOL    HW114942   2.379   2.626  11.790  1.2404 -0.9382  1.1788
 1160SOL    HW214943   2.351   2.584  11.928 -0.3470 -0.4055  0.4898
 1161SOL     OW14944   0.136   2.252   4.707 -0.2290  0.2484 -0.6423
 1161SOL    HW114945   0.114   2.177   4.652  0.2203  0.0769 -0.5928
 1161SOL    HW214946   0.208   2.215   4.759  0.7953 -0.9027 -2.8685
 1162SOL     OW14947   0.694   0.848   4.634  0.1102  0.2441  0.2098
 1162SOL    HW114948   0.640   0.809   4.702 -1.4307  1.1238 -0.5142
 1162SOL    HW214949   0.706   0.769   4.581 -3.7443 -1.1552  1.4590
 1163SOL     OW14950   3.102   2.119   5.692 -0.3361 -0.3035  0.3265
 1163SOL    HW114951   3.173   2.081   5.744  0.0921 -0.1195 -0.1265
 1163SOL    HW214952   3.028   2.112   5.752 -1.8276  2.1089 -1.2497
 1164SOL     OW14953   1.460   0.063   2.528 -0.9044 -0.2131 -0.4031
 1164SOL    HW114954   1.441   0.116   2.606 -0.2087 -1.1684  0.4227
 1164SOL    HW214955   1.540   0.104   2.495 -0.0489 -4.0343 -3.0020
 1165SOL     OW14956   2.751   3.602  11.568  0.3977 -0.2276 -0.0271
 1165SOL    HW114957   2.814   3.537  11.598  1.3192 -0.4332 -2.4110
 1165SOL    HW214958   2.784   3.681  11.610 -0.3880 -2.2914  4.4560
 1166SOL     OW14959   0.729   0.611   6.839 -0.0554  0.1178 -0.1245
 1166SOL    HW114960   0.796   0.666   6.800 -0.6681  0.0710 -1.2249
 1166SOL    HW214961   0.696   0.657   6.917 -1.0479 -2.0197  0.7248
 1167SOL     OW14962   1.752   1.642   2.953 -0.2567  0.3672 -0.1148
 1167SOL    HW114963   1.794   1.681   2.876 -1.8208  2.4157  0.0643
 1167SOL    HW214964   1.719   1.714   3.007 -1.6630 -1.0128  0.8680
 1168SOL     OW14965   4.482   3.785   2.240 -0.6551 -0.0972  0.7276
 1168SOL    HW114966   4.528   3.748   2.315  2.3802  1.0555 -0.5281
 1168SOL    HW214967   4.411   3.721   2.243  0.0431 -0.7737  2.8201
 1169SOL     OW14968   2.013   2.042   5.087  0.0092 -0.0316  0.5202
 1169SOL    HW114969   2.003   1.979   5.159  2.7228  0.4393  1.2808
 1169SOL    HW214970   1.949   2.107   5.116 -0.2189 -0.1795  0.3523
 1170SOL     OW14971   2.685   4.165   5.333 -0.1471 -0.0271  0.1832
 1170SOL    HW114972   2.664   4.091   5.276  1.0353 -0.7006  0.6167
 1170SOL    HW214973   2.612   4.162   5.395 -1.8986 -0.3846 -1.9104
 1171SOL     OW14974   0.156   1.143   3.320 -0.3652 -0.2884 -0.6521
 1171SOL    HW114975   0.123   1.154   3.231 -1.9622 -0.2450 -0.0549
 1171SOL    HW214976   0.106   1.217   3.355 -0.5053  0.3077 -2.1215
 1172SOL     OW14977   3.068   0.392   8.618  0.8289 -0.0401 -0.0954
 1172SOL    HW114978   3.061   0.437   8.533  1.5870 -0.7766 -0.5467
 1172SOL    HW214979   3.161   0.368   8.624  0.8656 -0.6271 -2.8637
 1173SOL     OW14980   3.960   1.023   6.995  0.2775 -0.0069 -0.1030
 1173SOL    HW114981   4.050   0.996   7.014 -1.4293 -2.8341  3.8446
 1173SOL    HW214982   3.957   1.096   7.057 -2.5196 -0.8294  0.7033
 1174SOL     OW14983   3.687   2.430   3.860  0.7887  0.2113  0.0587
 1174SOL    HW114984   3.687   2.521   3.831 -1.1624  0.9400  2.2694
 1174SOL    HW214985   3.779   2.420   3.885  1.1792 -1.4901 -2.0224
 1175SOL     OW14986   0.937   1.829   8.860 -0.3784  0.0251  0.1577
 1175SOL    HW114987   1.028   1.815   8.887  0.1749  1.7284 -0.8027
 1175SOL    HW214988   0.911   1.746   8.819 -1.2380  0.9734 -1.2195
 1176SOL     OW14989   3.585   3.296   0.110 -0.4849  0.3057  0.2024
 1176SOL    HW114990   3.515   3.276   0.171 -0.0790 -2.9673 -0.3750
 1176SOL    HW214991   3.537   3.325   0.032 -1.1351  1.6902  1.1291
 1177SOL     OW14992   4.723   2.748   4.596  0.2523  0.3700 -0.2665
 1177SOL    HW114993   0.075   2.709   4.560 -0.9210 -0.3320 -2.0796
 1177SOL    HW214994   4.707   2.678   4.659  0.6818  3.2666  3.0793
 1178SOL     OW14995   4.518   1.184  10.755 -0.9219  0.0162  0.1684
 1178SOL    HW114996   4.532   1.089  10.749  0.1473  0.3890 -3.2801
 1178SOL    HW214997   4.566   1.221  10.828  0.3784  1.1279 -1.2519
 1179SOL     OW14998   2.538   0.175  12.928  0.2114  0.1885 -0.1854
 1179SOL    HW114999   2.481   0.102  12.905  1.3295 -0.2792 -1.4352
 1179SOL    HW215000   2.606   0.125  12.973 -1.2595 -1.3915  0.2793
 1180SOL     OW15001   3.133   3.430   5.078 -0.1912 -0.1567 -0.4068
 1180SOL    HW115002   3.161   3.521   5.090 -0.3065 -0.2731  0.7764
 1180SOL    HW215003   3.144   3.423   4.983 -0.1559 -0.9042 -0.3482
 1181SOL     OW15004   2.517   2.125   7.389  0.2871 -0.0505  0.1239
 1181SOL    HW115005   2.469   2.191   7.438 -2.5458 -0.3812 -2.2537
 1181SOL    HW215006   2.609   2.152   7.394  0.0534  1.0153 -1.4181
 1182SOL     OW15007   1.111   3.749   8.548 -0.2715 -0.2589  0.8055
 1182SOL    HW115008   1.021   3.782   8.547  0.2236  1.0744  1.0759
 1182SOL    HW215009   1.096   3.654   8.549 -2.1258  0.0195 -0.2911
 1183SOL     OW15010   1.167   3.382   8.307 -0.2046  0.0860  0.3829
 1183SOL    HW115011   1.135   3.403   8.395 -1.1771  0.2572 -0.0033
 1183SOL    HW215012   1.126   3.459   8.268  1.5619  0.8848  0.1087
 1184SOL     OW15013   1.777   3.958   2.132 -0.1583 -0.0473  0.2217
 1184SOL    HW115014   1.714   3.991   2.196 -2.2092 -2.2383 -0.6891
 1184SOL    HW215015   1.773   4.030   2.069  0.4672 -0.4188 -0.2381
 1185SOL     OW15016   2.638   1.668  14.200  0.2159  0.1127  0.0107
 1185SOL    HW115017   2.634   1.714  14.116  3.2601 -0.9081 -0.7056
 1185SOL    HW215018   2.600   1.582  14.180  0.0413  0.7236 -2.2651
 1186SOL     OW15019   3.175   0.059  16.040  0.5990 -0.0772 -0.1240
 1186SOL    HW115020   3.179   0.072  15.946 -3.0036  0.0804 -0.2814
 1186SOL    HW215021   3.193   4.694  16.054  0.1690 -0.3323 -1.2814
 1187SOL     OW15022   3.818   0.726   2.232  0.0594  0.4527  0.1129
 1187SOL    HW115023   3.729   0.722   2.266  1.1109  0.2315  2.8216
 1187SOL    HW215024   3.837   0.638   2.201  1.4563  0.4612  0.9542
 1188SOL     OW15025   0.370   1.161   5.316  0.0021  0.3667  0.5405
 1188SOL    HW115026   0.322   1.123   5.243 -0.7315 -1.7635  2.1456
 1188SOL    HW215027   0.418   1.084   5.345  0.5228  0.1196 -0.9805
 1189SOL     OW15028   0.748   2.903   6.249  0.1778 -0.0302  0.9184
 1189SOL    HW115029   0.819   2.840   6.257 -0.6596 -0.7138  2.9508
 1189SOL    HW215030   0.674   2.856   6.211 -1.2027  3.0029 -0.1470
 1190SOL     OW15031   3.369   2.817   0.088 -0.0009  0.0012  0.8020
 1190SOL    HW115032   3.449   2.869   0.095 -0.2974  0.1792  2.9045
 1190SOL    HW215033   3.336   2.825  17.710 -1.6814  0.7722  1.4943
 1191SOL     OW15034   1.967   2.577   4.740 -0.2208  0.4250 -0.0616
 1191SOL    HW115035   1.935   2.501   4.789 -1.0568  1.4069  0.9097
 1191SOL    HW215036   1.933   2.646   4.798 -1.8576 -1.9603  1.7964
 1192SOL     OW15037   2.397   0.107   3.271  0.6750 -0.3092  0.1112
 1192SOL    HW115038   2.393   0.021   3.228  0.6446  0.4323 -1.3936
 1192SOL    HW215039   2.306   0.125   3.294  0.7256 -0.5792  0.5201
 1193SOL     OW15040   3.140   3.036   7.148 -0.0502 -0.2053  0.4896
 1193SOL    HW115041   3.205   2.983   7.194 -0.4999 -1.3847 -0.2245
 1193SOL    HW215042   3.146   3.119   7.196  2.6147  1.0933 -2.1289
 1194SOL     OW15043   4.374   3.505   7.401 -0.1911 -0.2812 -0.3420
 1194SOL    HW115044   4.301   3.462   7.444  0.9475 -0.2908  1.5843
 1194SOL    HW215045   4.435   3.532   7.470 -1.0659  3.0502 -0.8708
 1195SOL     OW15046   4.660   1.297  11.115 -0.0143  0.0930 -0.6384
 1195SOL    HW115047   4.708   1.232  11.166  0.6928  0.6693 -0.5864
 1195SOL    HW215048   4.724   1.326  11.051 -0.2060 -1.3820 -1.5048
 1196SOL     OW15049   3.977   1.080   4.304  0.1375 -0.3125  0.6718
 1196SOL    HW115050   3.983   1.175   4.297 -0.2596 -0.4816 -2.0456
 1196SOL    HW215051   4.002   1.055   4.215 -2.8399 -0.5033 -0.1125
 1197SOL     OW15052   1.665   0.169   1.897 -0.3789  0.0676  0.4512
 1197SOL    HW115053   1.706   0.247   1.859  0.2486  0.0491  1.0893
 1197SOL    HW215054   1.636   0.199   1.983  1.7370  1.2643  0.7401
 1198SOL     OW15055   0.433   4.473   2.837  0.2821 -0.1839  0.7112
 1198SOL    HW115056   0.447   4.539   2.769 -0.2377 -0.5401  0.2563
 1198SOL    HW215057   0.338   4.469   2.825  0.2001  1.0523  0.9820
 1199SOL     OW15058   0.268   1.699   9.012 -0.0585  0.7362  0.1129
 1199SOL    HW115059   0.197   1.657   9.059 -0.4800  0.8563 -0.4231
 1199SOL    HW215060   0.224   1.722   8.930  0.1805  1.3529  0.1580
 1200SOL     OW15061   4.446   3.513   0.987  0.4211 -0.5108 -0.0934
 1200SOL    HW115062   4.467   3.474   1.072 -2.4588  2.3314  1.9168
 1200SOL    HW215063   4.358   3.480   0.970  0.9910 -1.4532 -1.1929
 1201SOL     OW15064   4.707   0.214   3.210  0.1147  0.4504  0.0236
 1201SOL    HW115065   0.016   0.293   3.169  1.6140 -0.0841  0.3463
 1201SOL    HW215066   4.632   0.256   3.252 -0.5761  0.2216 -0.9868
 1202SOL     OW15067   4.203   4.683  12.252 -0.1308 -0.0241 -0.4037
 1202SOL    HW115068   4.235   0.038  12.287  1.1328 -0.5359 -0.3562
 1202SOL    HW215069   4.289   4.642  12.241 -0.0025 -0.2078  1.2950
 1203SOL     OW15070   0.612   1.628  10.071  0.1654  0.2508 -0.1744
 1203SOL    HW115071   0.609   1.683   9.992  1.1656  1.2258  0.4641
 1203SOL    HW215072   0.531   1.577  10.066  1.4337 -1.9069  1.6519
 1204SOL     OW15073   1.894   0.877   4.931  0.3271 -0.1334 -0.0629
 1204SOL    HW115074   1.876   0.890   4.838 -0.8545  0.3867  0.2319
 1204SOL    HW215075   1.989   0.880   4.935  0.3445 -1.2253  0.6063
 1205SOL     OW15076   1.207   3.614   2.250 -0.0801  0.2006  0.2395
 1205SOL    HW115077   1.175   3.594   2.338  0.0019 -0.8197  0.0391
 1205SOL    HW215078   1.227   3.707   2.257 -1.1291  0.4546 -0.0448
 1206SOL     OW15079   2.395   1.987  17.512  0.1181 -0.2394  0.3065
 1206SOL    HW115080   2.476   2.019  17.552  1.0850  0.0126 -1.8524
 1206SOL    HW215081   2.327   2.040  17.552 -1.0854 -0.5187 -1.3957
 1207SOL     OW15082   0.045   2.020  13.490  0.5690  0.4904 -0.2306
 1207SOL    HW115083   4.703   1.957  13.470  1.7869 -0.5459 -1.1932
 1207SOL    HW215084   0.023   2.098  13.439  0.3916  1.7674  1.8084
 1208SOL     OW15085   0.203   0.046   9.923 -0.6372  0.2943  0.6570
 1208SOL    HW115086   0.297   0.053   9.908 -0.8132  2.3044  0.4303
 1208SOL    HW215087   0.192   0.078  10.012 -0.4062  1.4769  0.2613
 1209SOL     OW15088   0.422   1.892   0.601 -0.3722 -0.5132 -0.7597
 1209SOL    HW115089   0.423   1.988   0.610 -0.8517 -0.6471  0.7558
 1209SOL    HW215090   0.491   1.872   0.539  0.3780 -0.0519 -0.0770
 1210SOL     OW15091   2.830   3.010   3.984 -0.4518 -0.0958  0.2279
 1210SOL    HW115092   2.820   3.100   4.015 -1.0322  0.2265 -0.9248
 1210SOL    HW215093   2.916   3.025   3.946 -0.5772 -1.1817 -0.4920
 1211SOL     OW15094   2.387   3.755  15.716 -0.0572 -0.1372 -0.4298
 1211SOL    HW115095   2.436   3.690  15.767 -1.8171  0.2973  1.8341
 1211SOL    HW215096   2.395   3.830  15.776 -4.2668 -0.0768  0.0025
 1212SOL     OW15097   2.579   2.959   4.722  0.6091 -0.0695 -0.3277
 1212SOL    HW115098   2.621   2.966   4.808  0.6125 -0.3356 -0.3069
 1212SOL    HW215099   2.607   2.872   4.693  0.1367  0.2036 -1.5969
 1213SOL     OW15100   2.216   3.763   3.487  0.1366 -0.2498  0.0495
 1213SOL    HW115101   2.130   3.719   3.483 -0.5362  1.0640  0.1483
 1213SOL    HW215102   2.194   3.838   3.431 -1.0363 -0.0291  0.7983
 1214SOL     OW15103   2.248   1.965   2.622 -0.2507 -0.1911 -0.1715
 1214SOL    HW115104   2.250   1.941   2.715 -0.6870  0.8916  0.1158
 1214SOL    HW215105   2.180   1.908   2.586 -1.1573  1.0010 -0.3501
 1215SOL     OW15106   0.816   3.189  16.143 -0.2120  0.5316 -0.0279
 1215SOL    HW115107   0.817   3.094  16.130  2.6306  0.3074  1.8690
 1215SOL    HW215108   0.725   3.209  16.122 -0.3959 -0.1620  0.1127
 1216SOL     OW15109   3.991   0.637   6.602  0.0880 -0.0511  0.1686
 1216SOL    HW115110   3.946   0.679   6.528  0.1467 -0.0736  0.1201
 1216SOL    HW215111   4.057   0.590   6.551  0.4458  0.8634 -0.2040
 1217SOL     OW15112   1.581   1.132  16.849 -0.0808  0.3428  0.1368
 1217SOL    HW115113   1.508   1.120  16.909  0.4343  1.9847  1.1061
 1217SOL    HW215114   1.552   1.203  16.792 -0.6331  0.1911  0.2321
 1218SOL     OW15115   2.576   2.295   3.083  0.4301 -0.1581  0.2690
 1218SOL    HW115116   2.574   2.377   3.133  0.0227 -1.0110  1.6630
 1218SOL    HW215117   2.522   2.241   3.141  0.2756 -1.1901 -0.8445
 1219SOL     OW15118   2.782   0.883   4.530 -0.2008  0.0116  0.5072
 1219SOL    HW115119   2.812   0.796   4.503 -1.0473 -0.2350  0.3704
 1219SOL    HW215120   2.805   0.883   4.623 -0.9438  0.9275  0.6879
 1220SOL     OW15121   3.583   2.326   2.104 -0.0211 -0.3476  0.4475
 1220SOL    HW115122   3.628   2.410   2.106 -0.7927  0.0345  2.4018
 1220SOL    HW215123   3.647   2.280   2.051  0.0137  0.5363 -0.2824
 1221SOL     OW15124   0.164   1.468   5.328 -0.3229 -0.1868 -0.2276
 1221SOL    HW115125   0.143   1.442   5.418  0.6628 -0.2673 -0.0169
 1221SOL    HW215126   0.124   1.398   5.275  0.5649 -1.3635  0.6406
 1222SOL     OW15127   1.662   1.265   0.391 -0.0315  0.3340  0.7044
 1222SOL    HW115128   1.667   1.289   0.484  1.0216  0.6612  0.5558
 1222SOL    HW215129   1.641   1.171   0.386  1.9739 -0.0985  0.4112
 1223SOL     OW15130   4.028   3.675  12.047  0.5574 -0.0112  0.3483
 1223SOL    HW115131   3.944   3.715  12.022  1.3845  2.3742  1.4633
 1223SOL    HW215132   3.992   3.591  12.078 -1.6903  0.8021 -0.0020
 1224SOL     OW15133   0.922   4.389  12.896 -0.4493 -0.3748  0.2124
 1224SOL    HW115134   0.913   4.481  12.917  0.2339 -0.4442  0.8283
 1224SOL    HW215135   1.011   4.366  12.922 -0.4994 -2.2796 -1.2534
 1225SOL     OW15136   1.975   1.923   3.840  0.0444  0.3073 -0.6256
 1225SOL    HW115137   1.965   1.864   3.914  2.0940 -1.4621 -1.7648
 1225SOL    HW215138   1.903   1.901   3.782 -1.7988 -0.9203  2.1377
 1226SOL     OW15139   1.010   2.448   3.812  0.4202 -0.0491 -0.1121
 1226SOL    HW115140   0.994   2.539   3.788  1.0025  0.4194  1.2461
 1226SOL    HW215141   0.934   2.421   3.863 -1.1015  3.5164 -0.5381
 1227SOL     OW15142   1.286   2.205   8.173 -0.2115 -0.0096 -0.6674
 1227SOL    HW115143   1.378   2.228   8.182 -0.6781  1.3635  0.5404
 1227SOL    HW215144   1.290   2.118   8.135 -0.6787  1.2595 -3.5790
 1228SOL     OW15145   1.290   3.818   7.037 -0.0914  0.1107  0.4741
 1228SOL    HW115146   1.230   3.868   6.981  0.2305 -0.6501 -0.5359
 1228SOL    HW215147   1.239   3.737   7.041  0.1200 -0.0664 -0.4588
 1229SOL     OW15148   1.466   0.748   3.293 -0.3816 -0.3997 -0.1892
 1229SOL    HW115149   1.527   0.768   3.364  1.9618 -0.0977 -2.2927
 1229SOL    HW215150   1.399   0.715   3.352  2.1688 -2.2948  1.6727
 1230SOL     OW15151   1.372   1.859   4.283 -0.0826  0.5410  0.1780
 1230SOL    HW115152   1.348   1.939   4.330  0.7090  1.8621 -1.6603
 1230SOL    HW215153   1.445   1.905   4.241  2.3921 -0.5880  3.2326
 1231SOL     OW15154   3.391   1.076   9.875 -0.4990  0.3249  0.0821
 1231SOL    HW115155   3.346   1.155   9.844  0.2942  0.1832 -1.4319
 1231SOL    HW215156   3.463   1.087   9.812 -0.2929  1.1917  0.4557
 1232SOL     OW15157   1.375   3.570  14.020  0.3311  0.2187  0.1385
 1232SOL    HW115158   1.354   3.645  14.075 -0.5055 -1.8020  2.5259
 1232SOL    HW215159   1.312   3.508  14.056  2.3840 -1.4187  0.8944
 1233SOL     OW15160   1.552   2.844  15.535  0.3090  0.0856 -0.2876
 1233SOL    HW115161   1.594   2.894  15.465 -0.3166 -0.5825 -1.1366
 1233SOL    HW215162   1.601   2.762  15.532  0.4113 -0.0255  3.5206
 1234SOL     OW15163   3.201   3.801   2.108  0.0864 -0.6194 -0.5260
 1234SOL    HW115164   3.128   3.848   2.068 -0.0270 -1.3237 -1.1605
 1234SOL    HW215165   3.150   3.732   2.152 -1.1290  0.0304 -0.8950
 1235SOL     OW15166   2.872   2.122  17.531  0.4355  0.6484  0.4887
 1235SOL    HW115167   2.909   2.036  17.515 -1.0705  0.2544 -0.9134
 1235SOL    HW215168   2.881   2.164  17.445 -1.1279 -1.2098 -0.5613
 1236SOL     OW15169   2.371   2.432  10.640  0.0457  0.4893 -0.1680
 1236SOL    HW115170   2.350   2.454  10.549  0.8315 -0.6810 -0.6341
 1236SOL    HW215171   2.462   2.460  10.648  0.0624  0.3273  0.2041
 1237SOL     OW15172   2.304   3.501   8.659  0.0850 -0.0271  0.0823
 1237SOL    HW115173   2.314   3.406   8.653 -1.0886 -0.2867  2.1405
 1237SOL    HW215174   2.258   3.505   8.743  2.1770 -2.0931  1.2999
 1238SOL     OW15175   0.590   1.649  11.005 -1.2771  0.0086  0.7388
 1238SOL    HW115176   0.540   1.641  10.924  2.3643  0.3787 -1.5923
 1238SOL    HW215177   0.634   1.564  11.000  0.1413  0.7965 -0.1451
 1239SOL     OW15178   2.520   1.542   2.940  0.0882 -0.1563 -0.1914
 1239SOL    HW115179   2.477   1.462   2.971  0.3710  1.0529  3.3337
 1239SOL    HW215180   2.470   1.572   2.864  0.2906 -1.2450 -0.7656
 1240SOL     OW15181   4.692   0.016   6.670 -0.2914  0.2955 -0.2729
 1240SOL    HW115182   0.050   0.052   6.689 -0.6662 -0.2275  2.3864
 1240SOL    HW215183   4.639   0.091   6.642  0.0444  0.0849 -1.4736
 1241SOL     OW15184   3.559   2.197  11.783 -0.1198 -0.1575 -0.2401
 1241SOL    HW115185   3.468   2.226  11.794  0.8839  1.8187  2.7474
 1241SOL    HW215186   3.556   2.103  11.802  0.4609  0.1003  1.0606
 1242SOL     OW15187   2.461   0.392   3.015 -0.3111 -0.2968  0.1480
 1242SOL    HW115188   2.376   0.375   2.974  0.1921  1.5946 -1.6520
 1242SOL    HW215189   2.511   0.430   2.943  0.9374 -1.5669  0.3432
 1243SOL     OW15190   2.327   2.221   8.100 -0.3839  0.6728  0.1780
 1243SOL    HW115191   2.401   2.282   8.103 -1.5192  2.0754 -0.8105
 1243SOL    HW215192   2.272   2.245   8.026 -0.3845  0.6674  0.1767
 1244SOL     OW15193   3.938   2.885  14.105 -0.3831 -0.0945  0.5013
 1244SOL    HW115194   4.024   2.870  14.146 -0.7510 -3.2863  0.1097
 1244SOL    HW215195   3.903   2.943  14.173 -2.2338 -1.8893  1.0566
 1245SOL     OW15196   0.519   2.570   8.597  0.0074  0.1648  0.3266
 1245SOL    HW115197   0.581   2.643   8.603 -1.3485  1.5486 -2.6601
 1245SOL    HW215198   0.505   2.556   8.504  0.9545  0.2612  0.1656
 1246SOL     OW15199   1.675   1.887   5.914  0.4898 -0.0288  0.7320
 1246SOL    HW115200   1.687   1.981   5.905  1.7351 -0.3433 -0.8272
 1246SOL    HW215201   1.583   1.885   5.941  0.0878  0.9545 -0.5767
 1247SOL     OW15202   1.458   3.484  10.941  0.0866  0.7389 -0.3503
 1247SOL    HW115203   1.478   3.448  10.855  2.9741  1.9842 -0.1899
 1247SOL    HW215204   1.550   3.509  10.944  0.0850  0.5517  1.4771
 1248SOL     OW15205   3.144   1.585   1.356  0.4603  0.2840  0.1331
 1248SOL    HW115206   3.170   1.636   1.432  0.9706  1.4255 -0.7951
 1248SOL    HW215207   3.083   1.646   1.313  0.7380  0.1123 -0.5065
 1249SOL     OW15208   4.152   0.779   2.380 -0.3965 -0.3001  0.2842
 1249SOL    HW115209   4.114   0.704   2.427 -1.1184  1.1447  1.9770
 1249SOL    HW215210   4.109   0.846   2.433 -4.5340  0.1397 -3.7284
 1250SOL     OW15211   1.785   4.278   0.724  0.4526 -0.1772 -0.2885
 1250SOL    HW115212   1.840   4.345   0.684 -1.3880  0.5232 -1.6201
 1250SOL    HW215213   1.832   4.254   0.805 -0.0939 -2.1135 -0.5428
 1251SOL     OW15214   0.455   2.685   7.324  0.0689 -0.0428 -0.1520
 1251SOL    HW115215   0.362   2.680   7.302  0.5063 -0.0146 -2.0087
 1251SOL    HW215216   0.488   2.754   7.267  1.6424 -1.5485 -1.0988
 1252SOL     OW15217   3.265   2.519  12.878  0.0612  0.1302 -0.0363
 1252SOL    HW115218   3.277   2.493  12.970 -0.1423  0.3369  0.0503
 1252SOL    HW215219   3.346   2.567  12.863  0.2664 -0.0824  0.3778
 1253SOL     OW15220   1.838   2.415   6.732 -0.9205  0.4521 -0.3233
 1253SOL    HW115221   1.842   2.473   6.656 -2.9420 -1.2579 -1.7373
 1253SOL    HW215222   1.892   2.337   6.719 -2.5141 -0.9388  1.3372
 1254SOL     OW15223   2.372   2.972   7.179  0.1256 -0.2809  0.7010
 1254SOL    HW115224   2.394   2.955   7.271  2.1824 -0.7946  0.1224
 1254SOL    HW215225   2.285   2.932   7.171 -0.7950  1.3583  2.4921
 1255SOL     OW15226   0.908   1.434   1.600  0.0138  0.3582  0.2885
 1255SOL    HW115227   1.000   1.450   1.622  0.1527  0.2473 -0.2006
 1255SOL    HW215228   0.903   1.341   1.574 -0.0329  0.5719 -0.4688
 1256SOL     OW15229   2.415   3.476   6.985 -0.2522  0.3543 -0.2264
 1256SOL    HW115230   2.380   3.524   7.060 -0.6303  0.4330 -0.4553
 1256SOL    HW215231   2.452   3.553   6.942 -0.2402  0.3218 -0.2737
 1257SOL     OW15232   2.648   0.337  16.600 -0.4276 -0.3097 -0.0280
 1257SOL    HW115233   2.738   0.312  16.625 -0.9557 -0.7349  1.4722
 1257SOL    HW215234   2.635   0.410  16.661  2.3640  0.0361  0.1916
 1258SOL     OW15235   4.216   3.284  16.867 -0.1559 -0.0257 -0.0192
 1258SOL    HW115236   4.157   3.293  16.792  0.7456 -0.2664 -0.7515
 1258SOL    HW215237   4.198   3.191  16.882 -4.2247  0.5956 -0.9870
 1259SOL     OW15238   2.238   4.571   4.955 -0.0169  0.0535 -0.6919
 1259SOL    HW115239   2.272   4.556   5.043 -0.9784 -1.9333 -0.6684
 1259SOL    HW215240   2.204   4.659   4.970 -2.6553 -1.2494  0.9618
 1260SOL     OW15241   2.804   3.745   2.339  0.4670  0.0305  0.0440
 1260SOL    HW115242   2.801   3.834   2.304  1.5591  0.1276  0.1743
 1260SOL    HW215243   2.872   3.751   2.407 -0.0427  2.3896  0.3355
 1261SOL     OW15244   2.714   4.266   7.401  0.0592 -0.3076 -0.1543
 1261SOL    HW115245   2.736   4.330   7.468 -0.1736  1.1211 -1.4569
 1261SOL    HW215246   2.744   4.314   7.324 -0.8092  2.6724  1.4084
 1262SOL     OW15247   0.893   2.672  11.505  0.1328  0.0019  0.2866
 1262SOL    HW115248   0.801   2.696  11.500 -0.0187 -0.7258 -0.5064
 1262SOL    HW215249   0.889   2.589  11.551  0.0068  0.1420  0.5249
 1263SOL     OW15250   0.548   3.041   5.200 -0.1189  0.1729  1.0322
 1263SOL    HW115251   0.616   3.100   5.168  0.6754 -0.1703  2.0951
 1263SOL    HW215252   0.559   3.043   5.295 -2.4227  3.7269  1.2059
 1264SOL     OW15253   2.456   2.917   6.125  0.0689 -0.5831 -0.1741
 1264SOL    HW115254   2.526   2.870   6.171  0.0650 -2.0573 -1.6988
 1264SOL    HW215255   2.486   3.008   6.124 -1.0560 -0.2293 -0.8639
 1265SOL     OW15256   1.743   4.044   8.041  0.2723  0.2967  0.3844
 1265SOL    HW115257   1.692   3.964   8.027 -1.5486  1.0571  2.5969
 1265SOL    HW215258   1.690   4.095   8.103  0.4421  1.6548 -0.5877
 1266SOL     OW15259   2.674   1.042   8.804  0.4072  0.3033 -0.5866
 1266SOL    HW115260   2.682   1.098   8.727 -1.7301  0.5732 -0.6085
 1266SOL    HW215261   2.762   1.005   8.815  0.6955  1.2531  0.3003
 1267SOL     OW15262   3.350   2.293  15.751  0.7242 -0.8385  0.2425
 1267SOL    HW115263   3.436   2.274  15.788  1.2385  1.7141  0.3472
 1267SOL    HW215264   3.294   2.225  15.787 -1.9670  0.2615 -1.8771
 1268SOL     OW15265   4.341   3.292   6.442  0.2343 -0.1623 -0.4045
 1268SOL    HW115266   4.359   3.368   6.385  2.2271  0.9059  1.6386
 1268SOL    HW215267   4.248   3.294   6.463  0.7072 -0.6296  1.7560
 1269SOL     OW15268   1.547   4.128   5.086 -0.6975 -0.2811 -0.1849
 1269SOL    HW115269   1.501   4.089   5.012 -0.6152  0.1086 -0.4430
 1269SOL    HW215270   1.468   4.168   5.122  0.7375  1.9523  0.5002
 1270SOL     OW15271   3.882   1.466   6.428 -0.2380  0.2297 -0.0679
 1270SOL    HW115272   3.929   1.545   6.455  1.6636 -1.0850  0.5596
 1270SOL    HW215273   3.944   1.419   6.373  1.5086  1.4047  0.8805
 1271SOL     OW15274   1.009   3.808   0.773 -0.1083  0.1632  0.2308
 1271SOL    HW115275   1.075   3.877   0.765 -0.3589  0.4540  0.6762
 1271SOL    HW215276   0.933   3.866   0.782 -0.2833  0.3150 -2.2413
 1272SOL     OW15277   2.272   4.280  13.221 -0.5583  0.0151  0.1559
 1272SOL    HW115278   2.278   4.185  13.229  3.1353  0.4379  2.2976
 1272SOL    HW215279   2.222   4.287  13.140  1.7836 -1.2727 -1.4121
 1273SOL     OW15280   2.045   3.646   2.626 -0.5867 -0.5573  0.0849
 1273SOL    HW115281   2.063   3.672   2.536 -1.0237 -0.8939 -0.1010
 1273SOL    HW215282   2.081   3.557   2.628  0.9781  0.0338 -2.1982
 1274SOL     OW15283   2.454   2.393   7.458  0.4424 -0.2884 -0.0164
 1274SOL    HW115284   2.495   2.463   7.509 -2.6764  0.2140  1.7598
 1274SOL    HW215285   2.510   2.398   7.380  0.1212 -0.5700 -0.2606
 1275SOL     OW15286   0.243   3.636   2.136 -0.3509  0.1922 -0.1368
 1275SOL    HW115287   0.290   3.704   2.088  0.3788 -0.4885 -0.4074
 1275SOL    HW215288   0.286   3.642   2.222  0.6765  3.5187 -0.8850
 1276SOL     OW15289   2.958   3.974   5.538  0.7090  0.0472  0.4889
 1276SOL    HW115290   3.007   3.949   5.460 -1.3920 -2.5073 -0.0085
 1276SOL    HW215291   3.016   4.039   5.578 -0.3729  0.1832  1.8182
 1277SOL     OW15292   3.422   2.094   8.958  0.2312 -0.1830  0.0375
 1277SOL    HW115293   3.439   2.057   9.044 -0.1733 -1.4886 -0.4441
 1277SOL    HW215294   3.505   2.143   8.956  1.0711 -1.5602  1.8694
 1278SOL     OW15295   4.663   3.677   4.667 -0.4537 -0.4150 -0.3700
 1278SOL    HW115296   4.604   3.664   4.742  0.3758 -0.8266  0.2107
 1278SOL    HW215297   4.623   3.752   4.623 -1.0249 -1.4534 -1.6394
 1279SOL     OW15298   3.701   0.809   3.299 -0.0383  0.4103  0.1926
 1279SOL    HW115299   3.729   0.729   3.255  0.9496  1.2748 -0.7710
 1279SOL    HW215300   3.688   0.860   3.218  3.7587 -0.1877 -0.7944
 1280SOL     OW15301   0.643   4.510   5.658 -0.0724  0.0343  0.3149
 1280SOL    HW115302   0.598   4.443   5.710  3.5928 -0.8749  2.2515
 1280SOL    HW215303   0.711   4.525   5.723  0.0411 -2.9646  0.9084
 1281SOL     OW15304   1.955   0.867  14.960 -0.3086  0.0343  0.1373
 1281SOL    HW115305   1.968   0.831  15.048 -0.0788  0.4529  0.2752
 1281SOL    HW215306   1.861   0.880  14.962 -0.3160 -0.1035  0.8394
 1282SOL     OW15307   0.431   1.139   6.497 -0.3073 -0.2399  0.2277
 1282SOL    HW115308   0.356   1.161   6.552  1.1001 -0.3229  2.1837
 1282SOL    HW215309   0.477   1.220   6.521 -0.0188 -0.9051  1.9690
 1283SOL     OW15310   1.199   2.818  16.487  0.3259 -0.0943  0.4447
 1283SOL    HW115311   1.208   2.723  16.484 -0.0115 -0.0721 -1.3645
 1283SOL    HW215312   1.267   2.844  16.550 -0.2792  0.1000  1.0206
 1284SOL     OW15313   4.500   1.848  15.186 -0.5341  0.1392 -0.0508
 1284SOL    HW115314   4.542   1.771  15.146 -0.0180  0.0351  0.6964
 1284SOL    HW215315   4.564   1.911  15.218  0.8286 -1.9893  1.3931
 1285SOL     OW15316   1.420   0.050   5.562  0.1005 -0.0649 -0.2323
 1285SOL    HW115317   1.499   0.041   5.508 -0.4243  0.4603 -1.0969
 1285SOL    HW215318   1.353   0.032   5.495  0.7661 -0.0046 -0.9115
 1286SOL     OW15319   1.776   2.622   8.101 -0.5345  0.1545  0.5864
 1286SOL    HW115320   1.764   2.548   8.041 -0.4994  0.4673  0.1972
 1286SOL    HW215321   1.787   2.567   8.179 -1.2987 -0.1406  0.4937
 1287SOL     OW15322   0.353   0.308  15.951  0.0816 -0.3254 -0.2583
 1287SOL    HW115323   0.417   0.373  15.978 -0.2666  0.0298 -0.2874
 1287SOL    HW215324   0.361   0.312  15.855  1.5350  1.3040 -0.0535
 1288SOL     OW15325   3.451   4.003   8.166  0.4483 -0.0154 -0.4363
 1288SOL    HW115326   3.389   3.968   8.230 -0.7414  1.4981 -0.7638
 1288SOL    HW215327   3.473   3.923   8.119  0.3063 -0.6114  0.4961
 1289SOL     OW15328   3.227   0.257   1.904  0.0675 -0.5104 -0.8801
 1289SOL    HW115329   3.240   0.215   1.819 -0.7288 -0.4347 -1.0407
 1289SOL    HW215330   3.318   0.248   1.934 -0.8768 -1.5006  1.7290
 1290SOL     OW15331   1.746   4.171   4.139 -0.2085  0.1458 -0.1111
 1290SOL    HW115332   1.795   4.251   4.123 -0.4699  0.2337 -0.4636
 1290SOL    HW215333   1.675   4.214   4.187 -2.7730 -1.7454 -2.2365
 1291SOL     OW15334   4.175   3.156   6.685 -0.1119 -0.6971 -0.2337
 1291SOL    HW115335   4.138   3.208   6.613  0.1710  0.6538  0.6061
 1291SOL    HW215336   4.269   3.153   6.667  0.1640  0.6326  1.0163
 1292SOL     OW15337   0.039   1.688   3.356 -0.2583 -0.0496 -0.0759
 1292SOL    HW115338   0.060   1.692   3.262 -2.9743  1.4057 -0.6171
 1292SOL    HW215339   4.687   1.635   3.366  0.4475 -1.1211 -0.1490
 1293SOL     OW15340   2.032   2.721   0.363 -0.6292  0.0981  0.9241
 1293SOL    HW115341   2.031   2.723   0.268 -0.1595 -2.4058  0.8647
 1293SOL    HW215342   1.955   2.669   0.390 -0.7421  0.6350  1.6315
 1294SOL     OW15343   2.480   3.821   2.927 -0.3687 -0.3028  0.0985
 1294SOL    HW115344   2.475   3.770   3.008  1.9744  1.1730  1.1655
 1294SOL    HW215345   2.575   3.833   2.920 -0.3834 -0.5236 -0.4778
 1295SOL     OW15346   1.722   3.423   6.835 -0.2163  0.2310  0.5214
 1295SOL    HW115347   1.790   3.397   6.897  0.2283  1.2382  0.4597
 1295SOL    HW215348   1.729   3.516   6.855  2.2247  0.1559  0.0349
 1296SOL     OW15349   1.059   1.843   5.745  0.3148 -0.4900  0.2938
 1296SOL    HW115350   1.121   1.811   5.679  2.9107 -0.1652  2.5467
 1296SOL    HW215351   1.043   1.767   5.800 -2.2907 -0.1469 -0.0103
 1297SOL     OW15352   3.104   3.187   1.226  0.0496 -0.9337  0.0610
 1297SOL    HW115353   3.177   3.137   1.189  0.0227 -0.0162 -1.2250
 1297SOL    HW215354   3.135   3.212   1.314 -2.1431  0.7375  0.3554
 1298SOL     OW15355   1.420   0.375   4.004 -0.1893 -0.3006 -0.7426
 1298SOL    HW115356   1.339   0.418   4.031 -1.0671 -1.6128 -1.2756
 1298SOL    HW215357   1.485   0.444   4.017 -1.2196 -0.0744  3.1187
 1299SOL     OW15358   4.411   4.413   5.326 -0.1984  0.4932  0.5392
 1299SOL    HW115359   4.372   4.422   5.239  2.0370  2.2436 -0.2653
 1299SOL    HW215360   4.460   4.494   5.337  0.0271  0.7930 -2.5897
 1300SOL     OW15361   2.001   2.802   0.703 -0.4853 -0.2644 -0.1676
 1300SOL    HW115362   2.053   2.725   0.727  0.5892  0.0327 -1.5391
 1300SOL    HW215363   1.939   2.747   0.656 -2.2162 -0.3007  2.1955
 1301SOL     OW15364   1.257   3.593   7.293  0.5441 -0.0808 -0.3711
 1301SOL    HW115365   1.250   3.571   7.200 -0.3852 -0.1367 -0.2900
 1301SOL    HW215366   1.177   3.643   7.310  4.2501  4.9573  2.2210
 1302SOL     OW15367   1.122   0.068   7.743 -0.2441 -0.0761  0.1794
 1302SOL    HW115368   1.038   0.091   7.705 -0.7874  1.1033  2.0616
 1302SOL    HW215369   1.112   4.703   7.762  0.0827 -0.0803  0.3403
 1303SOL     OW15370   1.275   2.233   7.572  0.0095  0.1547 -0.4800
 1303SOL    HW115371   1.243   2.322   7.592 -1.2803  0.2320 -2.8166
 1303SOL    HW215372   1.369   2.250   7.572  0.1519 -0.6693 -0.8398
 1304SOL     OW15373   0.890   0.266   4.294  0.0597  0.0176  0.3695
 1304SOL    HW115374   0.901   0.251   4.200  1.3179  0.6794  0.4031
 1304SOL    HW215375   0.923   0.356   4.294  0.0570  0.0156 -0.7696
 1305SOL     OW15376   1.828   1.369   1.091  0.0107  0.0655 -0.5280
 1305SOL    HW115377   1.815   1.279   1.060  1.4090 -0.1559 -0.5093
 1305SOL    HW215378   1.828   1.414   1.006 -1.5044 -0.6766 -0.9184
 1306SOL     OW15379   2.924   4.038  10.319 -0.0660  0.2410 -0.9059
 1306SOL    HW115380   2.941   4.074  10.232  4.4734  2.1578  0.7825
 1306SOL    HW215381   2.983   4.087  10.375 -1.2780  1.6282 -0.8541
 1307SOL     OW15382   1.381   2.981  13.520 -0.4891  0.3322  0.0531
 1307SOL    HW115383   1.467   2.956  13.486 -0.2834 -0.3635  1.1027
 1307SOL    HW215384   1.375   3.057  13.462 -0.0876 -0.9952 -1.7162
 1308SOL     OW15385   1.107   1.480   8.035  0.3324 -0.0886 -0.1225
 1308SOL    HW115386   1.119   1.571   8.010 -0.8476  0.5513  1.5826
 1308SOL    HW215387   1.038   1.442   7.980 -0.4038 -0.2079  0.8732
 1309SOL     OW15388   0.797   1.310   8.081 -0.0666  0.0018  0.6574
 1309SOL    HW115389   0.762   1.288   8.167 -1.9660  0.6922  0.0588
 1309SOL    HW215390   0.712   1.316   8.038  0.3106 -2.0736 -0.3905
 1310SOL     OW15391   3.742   0.593   4.364 -0.0122  0.3561 -0.2296
 1310SOL    HW115392   3.738   0.688   4.358  0.2910  0.4781  1.5356
 1310SOL    HW215393   3.732   0.590   4.459  0.4226 -0.2174 -0.1970
 1311SOL     OW15394   4.460   3.892   8.788  0.4526  0.3220  0.0542
 1311SOL    HW115395   4.494   3.902   8.699  1.7473  3.1280  0.8746
 1311SOL    HW215396   4.439   3.985   8.801 -0.8083  0.1382 -0.6940
 1312SOL     OW15397   1.247   2.599  11.694 -0.6003 -0.2929 -0.3477
 1312SOL    HW115398   1.257   2.591  11.599  0.1086 -0.3109 -0.2691
 1312SOL    HW215399   1.197   2.680  11.704  0.6133  0.4474 -0.3623
 1313SOL     OW15400   1.963   4.494  13.238 -0.0737  0.1610 -0.1204
 1313SOL    HW115401   1.912   4.575  13.245 -1.2932 -0.7313  1.4247
 1313SOL    HW215402   1.935   4.467  13.150 -0.5912 -4.0899  1.3196
 1314SOL     OW15403   1.410   0.379  12.698 -0.0536  0.3214  0.3785
 1314SOL    HW115404   1.468   0.445  12.734 -0.5024 -0.0169  1.6994
 1314SOL    HW215405   1.477   0.315  12.673  1.9270  0.7051  4.9421
 1315SOL     OW15406   2.795   0.438  15.455  0.4165  0.1874  0.5230
 1315SOL    HW115407   2.871   0.460  15.508  0.1641  3.7616 -0.5977
 1315SOL    HW215408   2.739   0.508  15.489  0.8620  1.8327 -2.1243
 1316SOL     OW15409   2.665   3.494   0.783 -0.2159 -0.1486 -0.0175
 1316SOL    HW115410   2.755   3.496   0.817 -0.2417 -0.0453  0.0442
 1316SOL    HW215411   2.676   3.564   0.719  0.7595 -0.0767  0.2173
 1317SOL     OW15412   3.425   3.974   3.953 -0.2598 -0.6334  0.4994
 1317SOL    HW115413   3.411   3.912   4.024  2.8711 -1.8124  0.0984
 1317SOL    HW215414   3.510   4.010   3.981 -0.0054 -1.8846  1.3201
 1318SOL     OW15415   3.293   3.350   3.520 -0.3080  0.6304 -0.2169
 1318SOL    HW115416   3.372   3.404   3.530  0.0391  0.0742  0.0621
 1318SOL    HW215417   3.244   3.388   3.448  0.3760 -0.2321 -1.1294
 1319SOL     OW15418   1.886   1.136   3.663 -0.1024  0.2718  0.5338
 1319SOL    HW115419   1.884   1.045   3.692  2.8061  0.2308  0.6658
 1319SOL    HW215420   1.951   1.129   3.593 -0.5770  1.9094 -0.0822
 1320SOL     OW15421   0.170   4.703   4.328 -0.5992 -0.1843 -0.5981
 1320SOL    HW115422   0.254   0.019   4.316  0.4147 -1.0790  3.2250
 1320SOL    HW215423   0.205   4.614   4.338 -0.3396  0.2128  1.9014
 1321SOL     OW15424   1.012   0.826   0.132 -0.5320  0.1759 -0.4894
 1321SOL    HW115425   1.065   0.850   0.208 -2.9256 -0.8295  1.4891
 1321SOL    HW215426   1.003   0.734   0.157 -1.2443  0.0767 -1.1052
 1322SOL     OW15427   4.359   2.054   5.068  0.7950  0.0011  0.8801
 1322SOL    HW115428   4.439   2.040   5.017 -0.3150 -1.4836 -0.4227
 1322SOL    HW215429   4.391   2.044   5.158  2.4043  1.1813  0.4509
 1323SOL     OW15430   0.395   4.548   6.086 -0.3810  0.1277  0.2753
 1323SOL    HW115431   0.453   4.473   6.071 -0.1607  0.4438 -0.4621
 1323SOL    HW215432   0.365   4.545   6.177 -2.5232  0.0450 -0.4438
 1324SOL     OW15433   1.624   1.206   9.089 -0.4295  0.7130 -0.1060
 1324SOL    HW115434   1.597   1.115   9.097  1.2685  0.3424  1.2705
 1324SOL    HW215435   1.657   1.210   8.999  1.5857  0.9072  0.6404
 1325SOL     OW15436   1.765   1.374   3.560 -0.6135 -0.5832 -0.2404
 1325SOL    HW115437   1.802   1.291   3.589 -1.7903 -0.5601  1.3596
 1325SOL    HW215438   1.708   1.339   3.491 -0.8434 -1.1459  0.2334
 1326SOL     OW15439   1.613   1.478   0.607  0.0119 -0.2749  0.5131
 1326SOL    HW115440   1.696   1.513   0.574 -1.0211  1.9453  0.2387
 1326SOL    HW215441   1.571   1.462   0.523  0.7000 -0.6961  0.2473
 1327SOL     OW15442   0.805   2.390   8.549  0.3678  0.2810  0.7472
 1327SOL    HW115443   0.727   2.354   8.507  1.8887 -2.0579 -0.1550
 1327SOL    HW215444   0.857   2.435   8.482  0.3535  0.8780  1.1390
 1328SOL     OW15445   2.770   3.224  10.814  0.4601 -0.0133  0.6272
 1328SOL    HW115446   2.840   3.172  10.853  2.2836  1.6931 -0.3964
 1328SOL    HW215447   2.784   3.312  10.849 -0.4740  0.0026  0.9742
 1329SOL     OW15448   1.438   0.347   7.819  0.3134  0.1153 -0.3207
 1329SOL    HW115449   1.524   0.339   7.860 -0.1968  1.1424  0.9636
 1329SOL    HW215450   1.458   0.389   7.735 -0.2176  2.9767  0.9827
 1330SOL     OW15451   3.101   3.589   0.468  0.1808  0.5578  0.1311
 1330SOL    HW115452   3.126   3.590   0.376 -0.8158  0.8361 -0.1298
 1330SOL    HW215453   3.118   3.495   0.471  3.9604  1.2776  1.2377
 1331SOL     OW15454   0.103   0.614   5.786 -0.1524  0.1642 -0.6127
 1331SOL    HW115455   0.081   0.651   5.872 -0.3742  0.9446 -0.9999
 1331SOL    HW215456   0.132   0.691   5.737 -1.1444 -0.8182 -2.7089
 1332SOL     OW15457   2.824   4.680   2.121 -0.0425 -0.2909 -0.3580
 1332SOL    HW115458   2.768   4.714   2.191  2.5040  0.4655  1.2999
 1332SOL    HW215459   2.791   4.725   2.043 -0.2846 -0.6374 -0.4527
 1333SOL     OW15460   4.681   0.400  12.978  0.2036 -0.3412 -0.7291
 1333SOL    HW115461   4.690   0.339  12.904  0.3742  0.5775 -1.4630
 1333SOL    HW215462   0.017   0.357  13.035 -0.8196 -1.0123 -0.0914
 1334SOL     OW15463   1.068   3.625   8.200  0.2685 -0.2091 -0.1022
 1334SOL    HW115464   1.149   3.672   8.222  0.0903 -0.5015  1.2098
 1334SOL    HW215465   0.998   3.670   8.247  1.8615  0.4021  1.6798
 1335SOL     OW15466   4.049   0.981   2.561 -0.1308  0.4604 -0.3998
 1335SOL    HW115467   4.107   0.981   2.637  1.2453 -2.2487 -1.4461
 1335SOL    HW215468   4.043   1.071   2.529 -1.1125  0.8659  0.9326
 1336SOL     OW15469   0.105   0.811  17.039 -0.4805 -0.1267 -0.0258
 1336SOL    HW115470   0.029   0.764  17.005 -1.1438  1.1707 -0.3622
 1336SOL    HW215471   0.074   0.898  17.065 -0.7268  0.7677 -3.2291
 1337SOL     OW15472   3.098   2.466   1.265  0.1554 -0.1576  0.2289
 1337SOL    HW115473   3.159   2.394   1.283 -1.1654 -0.9870  1.3524
 1337SOL    HW215474   3.009   2.432   1.261 -0.5297  1.7997 -1.1947
 1338SOL     OW15475   3.719   4.702   7.536 -0.1650  0.0169 -0.0402
 1338SOL    HW115476   3.786   4.695   7.469  0.1363 -3.8895  0.7102
 1338SOL    HW215477   3.655   0.036   7.499 -0.4385 -1.6603 -2.3451
 1339SOL     OW15478   3.003   2.620   2.236 -0.4251 -0.3357 -0.4630
 1339SOL    HW115479   2.928   2.631   2.179 -0.6328  0.3313 -0.0555
 1339SOL    HW215480   3.016   2.526   2.223  2.0693 -0.0872  0.2449
 1340SOL     OW15481   1.839   1.548   1.858  0.2391 -0.1247  0.2793
 1340SOL    HW115482   1.878   1.532   1.772 -2.2903 -2.2318 -0.4932
 1340SOL    HW215483   1.909   1.507   1.908  0.1620  0.1720  0.6311
 1341SOL     OW15484   0.314   1.735   5.508  0.0119 -0.4864  0.1331
 1341SOL    HW115485   0.395   1.718   5.459  0.8413 -1.8625  2.0125
 1341SOL    HW215486   0.272   1.651   5.525 -0.1018 -0.6983 -1.2010
 1342SOL     OW15487   2.652   0.877  11.916 -0.7623 -0.1485 -0.1669
 1342SOL    HW115488   2.692   0.909  11.997  0.7527 -0.0393 -0.9542
 1342SOL    HW215489   2.685   0.931  11.844 -0.4186  0.9292  0.8062
 1343SOL     OW15490   3.549   3.430  15.063 -0.0125  0.4937  0.0215
 1343SOL    HW115491   3.580   3.467  14.980 -2.6942 -1.6784 -1.9565
 1343SOL    HW215492   3.503   3.348  15.044 -1.6745  2.2141 -3.3298
 1344SOL     OW15493   0.637   4.541  14.277 -0.4774  0.1396 -0.2108
 1344SOL    HW115494   0.640   4.452  14.244 -2.6448  0.2990 -0.8525
 1344SOL    HW215495   0.607   4.530  14.367  0.5498 -1.3870 -0.0558
 1345SOL     OW15496   3.836   3.089   2.009 -0.3697 -0.0168  0.2593
 1345SOL    HW115497   3.913   3.108   2.062 -0.1263 -1.4787  0.4172
 1345SOL    HW215498   3.842   2.995   1.992  0.6912  0.2518 -0.9194
 1346SOL     OW15499   0.916   3.922   2.168  0.1502 -0.2157  0.0129
 1346SOL    HW115500   0.918   3.973   2.087 -0.3261  0.8075  0.6474
 1346SOL    HW215501   0.828   3.938   2.201  1.4106  3.1964  1.7214
 1347SOL     OW15502   1.208   4.398  14.905  0.0227 -0.2112 -0.0399
 1347SOL    HW115503   1.237   4.395  14.814 -0.3555  0.7984 -0.1988
 1347SOL    HW215504   1.132   4.456  14.898  0.4619  0.1707 -1.6584
 1348SOL     OW15505   2.515   3.820   8.957  0.0526  0.1249 -0.1192
 1348SOL    HW115506   2.426   3.788   8.943  0.5416 -1.1266 -0.3205
 1348SOL    HW215507   2.512   3.898   8.901  1.1298  0.1207 -0.1780
 1349SOL     OW15508   3.969   2.448   3.455  0.6270  0.6602  0.5991
 1349SOL    HW115509   3.896   2.411   3.405 -0.7484  3.0106  0.8723
 1349SOL    HW215510   3.968   2.392   3.533  1.1946  0.2436  0.3049
 1350SOL     OW15511   4.501   2.091  15.448 -0.1827  0.3712  0.1461
 1350SOL    HW115512   4.503   2.142  15.367 -1.0063  0.0364 -0.0818
 1350SOL    HW215513   4.415   2.048  15.446 -0.2332  0.4929 -0.4178
 1351SOL     OW15514   1.299   0.986   4.665  0.2526 -0.1485  0.0617
 1351SOL    HW115515   1.233   0.994   4.596 -0.4444 -1.5783  0.5595
 1351SOL    HW215516   1.240   1.004   4.739 -0.0023 -0.0899 -0.1534
 1352SOL     OW15517   4.046   3.988   2.409 -0.0282  0.3320  0.3849
 1352SOL    HW115518   4.133   4.009   2.376  0.6608 -1.1981  1.2467
 1352SOL    HW215519   4.065   3.960   2.499 -0.5739  0.7758  0.6433
 1353SOL     OW15520   2.980   0.075   1.306  0.8707 -0.7728  0.0512
 1353SOL    HW115521   3.074   0.083   1.320  0.9297 -1.6430  0.1432
 1353SOL    HW215522   2.966   0.162   1.270  1.5838 -0.4265  0.6221
 1354SOL     OW15523   4.595   3.589   3.349  0.0238  0.2114  0.6316
 1354SOL    HW115524   4.688   3.567   3.340 -0.2891 -0.3458 -1.3107
 1354SOL    HW215525   4.550   3.516   3.307  1.8899 -0.6726  0.1492
 1355SOL     OW15526   0.666   2.466   4.356 -0.3872 -1.2824 -0.2451
 1355SOL    HW115527   0.701   2.499   4.274 -0.0443  0.1834  0.4887
 1355SOL    HW215528   0.573   2.464   4.337 -0.3493  1.5095 -0.7334
 1356SOL     OW15529   4.118   2.929   0.032  0.0036  0.7273  0.0651
 1356SOL    HW115530   4.199   2.880   0.020 -0.3247 -0.2752  2.0423
 1356SOL    HW215531   4.073   2.930  17.658 -3.6607 -0.8411  2.0117
 1357SOL     OW15532   0.813   0.640  15.248 -0.1409  0.5974 -0.1353
 1357SOL    HW115533   0.830   0.624  15.156  0.0958 -0.4167  0.0896
 1357SOL    HW215534   0.894   0.691  15.262 -0.3581  1.5566 -2.3742
 1358SOL     OW15535   0.814   1.105   4.360 -0.4793  0.4045  0.5433
 1358SOL    HW115536   0.725   1.075   4.338 -1.0596  0.4540  2.8332
 1358SOL    HW215537   0.866   1.037   4.317 -0.8419 -1.3224  2.8786
 1359SOL     OW15538   3.259   2.814  13.608  0.2781 -0.6441 -0.0729
 1359SOL    HW115539   3.333   2.831  13.666  0.1155 -0.2596  0.0199
 1359SOL    HW215540   3.296   2.775  13.528 -1.0088  2.1565 -2.0314
 1360SOL     OW15541   3.889   3.374  14.153  0.5813 -0.6965 -0.4712
 1360SOL    HW115542   3.930   3.343  14.234  2.0591  0.9872 -0.5701
 1360SOL    HW215543   3.928   3.323  14.082 -0.1022  0.3934 -1.6245
 1361SOL     OW15544   2.100   3.828   8.436  0.1738  0.1822  0.4911
 1361SOL    HW115545   2.059   3.847   8.352 -0.8269 -2.6116  0.3577
 1361SOL    HW215546   2.063   3.742   8.453 -1.6248  1.2694  2.0028
 1362SOL     OW15547   3.908   2.793   1.322  0.1673  0.6753 -0.5624
 1362SOL    HW115548   3.836   2.850   1.350  0.2931  0.8994 -0.6991
 1362SOL    HW215549   3.975   2.823   1.384  0.9048  0.4501 -1.2573
 1363SOL     OW15550   0.955   3.192   7.030 -0.6769 -0.3371  0.2768
 1363SOL    HW115551   0.890   3.183   7.099  0.1153 -0.4414  1.0119
 1363SOL    HW215552   0.943   3.105   6.991  2.0921 -0.1431 -1.0166
 1364SOL     OW15553   4.455   4.129   7.922  0.3943  0.0148  0.1366
 1364SOL    HW115554   4.524   4.179   7.878 -0.7090  1.7270  0.3366
 1364SOL    HW215555   4.480   4.037   7.916  0.1303  0.0651 -1.7187
 1365SOL     OW15556   1.013   1.840   7.493 -0.8145  0.3709  0.1266
 1365SOL    HW115557   1.048   1.788   7.566  1.4713  0.8704 -0.6070
 1365SOL    HW215558   1.091   1.832   7.437 -0.7770  0.0662  0.2227
 1366SOL     OW15559   3.616   1.558  10.509  0.4857 -0.0844  0.1793
 1366SOL    HW115560   3.595   1.611  10.431 -0.7204 -0.8567 -0.0126
 1366SOL    HW215561   3.598   1.607  10.589  2.3815  0.0248  0.5342
 1367SOL     OW15562   2.297   3.052   3.299 -0.2369  0.3116 -0.1362
 1367SOL    HW115563   2.326   3.124   3.356  1.6864 -1.4622  1.1182
 1367SOL    HW215564   2.315   3.082   3.210 -2.9213 -0.3811 -0.8956
 1368SOL     OW15565   0.724   4.635   6.613 -0.0318  0.2941 -0.1399
 1368SOL    HW115566   0.709   4.648   6.707  0.0699 -0.5364 -0.0143
 1368SOL    HW215567   0.693   4.715   6.570  0.6880  0.2118 -0.8119
 1369SOL     OW15568   2.179   3.845   9.558 -0.2172 -0.5501  0.6759
 1369SOL    HW115569   2.120   3.872   9.628  0.2231 -0.7935  1.1415
 1369SOL    HW215570   2.255   3.902   9.572  0.8541 -1.1976 -2.4195
 1370SOL     OW15571   1.173   4.394   7.855 -0.3486  0.1131  0.4272
 1370SOL    HW115572   1.083   4.419   7.833 -0.2981  0.3838  0.5329
 1370SOL    HW215573   1.241   4.441   7.808 -1.5609  1.7853  0.3397
 1371SOL     OW15574   0.854   0.137   7.921  0.8840 -0.4675 -0.2904
 1371SOL    HW115575   0.784   0.076   7.944 -1.1854  2.2361  0.5343
 1371SOL    HW215576   0.927   0.108   7.976 -0.0524 -0.6342  0.8794
 1372SOL     OW15577   1.285   1.875   3.501  0.0825  0.1546  0.0233
 1372SOL    HW115578   1.320   1.906   3.417 -0.1306  2.2451  0.7047
 1372SOL    HW215579   1.351   1.810   3.526 -0.9145 -1.3808 -1.3004
 1373SOL     OW15580   4.621   1.424   7.280  0.2920 -0.1154 -0.2287
 1373SOL    HW115581   4.626   1.375   7.362 -0.4557  0.8652  0.3993
 1373SOL    HW215582   4.581   1.356   7.225 -0.2137  1.8793 -2.3231
 1374SOL     OW15583   4.162   2.428   7.397  0.4471  0.4160 -0.3967
 1374SOL    HW115584   4.067   2.417   7.395  0.6299 -1.1137 -1.0927
 1374SOL    HW215585   4.188   2.419   7.305 -0.0621 -2.4167 -0.2691
 1375SOL     OW15586   2.584   1.694   2.013 -0.2064  0.5389  0.3086
 1375SOL    HW115587   2.500   1.669   2.054 -0.3835 -0.8375 -0.9064
 1375SOL    HW215588   2.611   1.614   1.968  2.9863  0.8273  1.7386
 1376SOL     OW15589   1.286   0.932  13.300 -0.1658  0.1686 -0.1015
 1376SOL    HW115590   1.275   1.022  13.270  1.3779  0.5504  0.4930
 1376SOL    HW215591   1.261   0.923  13.392 -0.0842  0.1633 -0.0801
 1377SOL     OW15592   3.393   1.811   4.605 -0.0236 -0.3377  0.1597
 1377SOL    HW115593   3.324   1.793   4.669  0.6795 -1.8128  0.5190
 1377SOL    HW215594   3.459   1.757   4.649 -1.6065 -2.2725  0.2041
 1378SOL     OW15595   0.739   3.302   4.230  0.0676  0.0630  0.6131
 1378SOL    HW115596   0.673   3.247   4.186  1.8048 -1.0073 -0.6844
 1378SOL    HW215597   0.718   3.389   4.196  4.3173  1.0837  0.6204
 1379SOL     OW15598   0.671   2.955   8.949  0.8568  0.8116 -0.4058
 1379SOL    HW115599   0.636   2.990   9.031  1.6452 -2.2746  1.2578
 1379SOL    HW215600   0.613   2.879   8.946 -0.0626  1.5868 -2.3682
 1380SOL     OW15601   3.389   0.307  15.549  0.0674  0.2730  0.0913
 1380SOL    HW115602   3.417   0.342  15.465  1.9001  0.4927  0.7975
 1380SOL    HW215603   3.456   0.341  15.608 -0.1548  0.3596  0.2931
 1381SOL     OW15604   3.429   3.261  17.428 -0.4903  0.1618 -0.1377
 1381SOL    HW115605   3.344   3.305  17.422 -1.1147 -1.3220 -2.5318
 1381SOL    HW215606   3.482   3.332  17.462 -1.6484  0.5893  0.7675
 1382SOL     OW15607   4.612   2.783  10.788  0.0724  0.3585  0.4856
 1382SOL    HW115608   4.675   2.820  10.727 -0.5704 -0.3992 -0.6477
 1382SOL    HW215609   4.531   2.828  10.767 -0.6517  0.3758  3.2609
 1383SOL     OW15610   4.371   1.421   6.135 -0.3145 -0.6092 -0.4441
 1383SOL    HW115611   4.357   1.327   6.123 -0.7833 -0.6448  0.4264
 1383SOL    HW215612   4.446   1.439   6.191  0.9356 -2.1650 -1.5780
 1384SOL     OW15613   3.308   0.474   1.423 -0.2204 -0.2424 -0.2691
 1384SOL    HW115614   3.312   0.459   1.517 -0.4849 -0.9499 -0.3740
 1384SOL    HW215615   3.278   0.563   1.407  1.3286  0.1212 -1.2104
 1385SOL     OW15616   0.474   0.655   4.811 -0.0195  0.3901 -0.7550
 1385SOL    HW115617   0.543   0.591   4.831 -0.8137  0.5774  2.6357
 1385SOL    HW215618   0.476   0.700   4.895  0.3604  0.9290 -1.0512
 1386SOL     OW15619   3.224   3.158  16.950 -0.4528 -1.0941  0.0853
 1386SOL    HW115620   3.301   3.137  16.898 -0.6638 -2.5633  0.3749
 1386SOL    HW215621   3.209   3.250  16.926  1.6388 -0.7972 -0.1175
 1387SOL     OW15622   3.562   2.581   0.607 -0.4521  0.1315  0.1733
 1387SOL    HW115623   3.479   2.576   0.559 -0.0576 -0.7381 -0.4195
 1387SOL    HW215624   3.626   2.560   0.538 -0.1908 -0.2194  0.5251
 1388SOL     OW15625   2.665   2.881   3.779  0.0915 -0.5671 -0.1015
 1388SOL    HW115626   2.673   2.953   3.841  1.8601 -1.2871  0.4767
 1388SOL    HW215627   2.669   2.813   3.846  1.1291 -2.1409 -1.7708
 1389SOL     OW15628   4.062   3.319   6.483 -0.5955  0.4744  0.3055
 1389SOL    HW115629   4.035   3.406   6.454 -0.1143  0.7654  0.7265
 1389SOL    HW215630   3.977   3.275   6.495  0.1001 -0.9100  0.0997
 1390SOL     OW15631   2.778   1.872   5.978  0.3358  0.1528  0.3673
 1390SOL    HW115632   2.733   1.794   6.011 -0.1612  0.7450  1.1149
 1390SOL    HW215633   2.708   1.933   5.952  0.3435  0.0820  0.1785
 1391SOL     OW15634   2.703   1.447   6.703  0.2108 -0.3891 -0.0545
 1391SOL    HW115635   2.790   1.467   6.737  0.9313  0.4604 -2.3962
 1391SOL    HW215636   2.663   1.376   6.753  1.7567 -1.5694 -0.5128
 1392SOL     OW15637   1.997   1.916   1.531  0.0264  0.2813  0.0439
 1392SOL    HW115638   2.001   1.909   1.627  0.3371 -0.1823 -0.0050
 1392SOL    HW215639   2.055   1.843   1.509 -1.1590 -0.7683  0.3456
 1393SOL     OW15640   3.712   1.564   4.230 -0.1373  0.3534 -0.3243
 1393SOL    HW115641   3.659   1.642   4.250  0.0945  1.0311 -2.3678
 1393SOL    HW215642   3.778   1.570   4.299 -0.1557  0.1850 -0.2921
 1394SOL     OW15643   2.252   0.724  11.529  0.9151 -0.2323  0.3319
 1394SOL    HW115644   2.234   0.811  11.564  0.0316 -0.9531  1.6403
 1394SOL    HW215645   2.203   0.723  11.446  0.7959  1.2824  0.3779
 1395SOL     OW15646   3.782   2.207  16.986  0.0041  0.1624 -0.5877
 1395SOL    HW115647   3.786   2.199  16.891 -0.0312 -3.4030 -0.2914
 1395SOL    HW215648   3.698   2.174  17.017  0.8809 -2.2284 -0.8023
 1396SOL     OW15649   2.202   1.724  13.620  0.6775 -0.6319  0.6500
 1396SOL    HW115650   2.180   1.802  13.671  2.0644 -0.1176  0.4595
 1396SOL    HW215651   2.258   1.668  13.673  0.6646  0.5705  1.9323
 1397SOL     OW15652   1.798   1.667  12.426 -0.0368  0.3820  0.5004
 1397SOL    HW115653   1.722   1.661  12.484  0.4449 -0.0862  1.0839
 1397SOL    HW215654   1.871   1.679  12.486  0.2613  2.2831 -0.2456
 1398SOL     OW15655   1.255   1.215  13.459  0.1395 -0.3571  0.0695
 1398SOL    HW115656   1.340   1.246  13.492 -0.0459 -0.0568  0.2646
 1398SOL    HW215657   1.239   1.141  13.517  1.5271 -2.4361 -2.1883
 1399SOL     OW15658   1.882   1.013  10.658 -0.3749 -0.2167 -0.9748
 1399SOL    HW115659   1.810   1.038  10.716  0.7306 -0.6805  0.5978
 1399SOL    HW215660   1.850   1.035  10.570 -0.8241  1.8612 -0.2925
 1400SOL     OW15661   0.940   1.120   3.637  0.0497  0.8911 -0.2984
 1400SOL    HW115662   0.860   1.121   3.584 -0.3388 -0.7959  0.2713
 1400SOL    HW215663   0.952   1.212   3.661 -0.5081  1.9163 -3.8481
 1401SOL     OW15664   2.309   0.883   3.187  0.0838  0.5155 -0.6279
 1401SOL    HW115665   2.355   0.799   3.183  0.9777  0.9290  1.2127
 1401SOL    HW215666   2.253   0.870   3.110  1.6343  4.2285 -2.4206
 1402SOL     OW15667   1.269   0.414   9.662 -0.4700 -0.0216 -0.3557
 1402SOL    HW115668   1.219   0.335   9.643  0.8944 -0.8473 -0.5136
 1402SOL    HW215669   1.312   0.402   9.747  0.0912  0.0305 -0.6263
 1403SOL     OW15670   2.997   0.334   5.559 -0.0394  0.1523  0.0739
 1403SOL    HW115671   2.969   0.256   5.608 -0.7616  2.5528  3.4547
 1403SOL    HW215672   3.090   0.324   5.583 -0.0910 -1.0659 -0.2429
 1404SOL     OW15673   2.019   1.565  11.491 -0.2004 -0.5058  0.4377
 1404SOL    HW115674   2.066   1.558  11.574 -1.1006  0.9209  1.0677
 1404SOL    HW215675   2.090   1.554  11.427  1.0189 -0.4445  1.7905
 1405SOL     OW15676   0.829   4.628  13.131 -0.1329 -0.3461 -0.0743
 1405SOL    HW115677   0.879   4.672  13.063 -0.6007 -1.1909 -0.9493
 1405SOL    HW215678   0.897   4.576  13.173 -0.0168 -0.2487 -0.1410
 1406SOL     OW15679   4.410   4.126   4.092 -0.2021  0.9338  0.5231
 1406SOL    HW115680   4.364   4.044   4.108 -0.2504  0.6039 -1.3203
 1406SOL    HW215681   4.460   4.138   4.173  1.2188  0.6512 -0.3050
 1407SOL     OW15682   0.958   2.915   5.613  0.3666  0.1076  0.3679
 1407SOL    HW115683   0.928   2.932   5.702 -0.1662 -0.8234  0.3651
 1407SOL    HW215684   1.053   2.929   5.622 -0.2537  1.9329  3.9178
 1408SOL     OW15685   2.398   1.443   7.815  0.0031 -0.1992  0.2461
 1408SOL    HW115686   2.389   1.463   7.722 -1.0652 -1.3319  0.1062
 1408SOL    HW215687   2.395   1.532   7.850  0.0347  0.0847 -0.4826
 1409SOL     OW15688   1.420   2.457  16.306 -0.7129 -0.7128  0.1867
 1409SOL    HW115689   1.441   2.539  16.260  0.0187  1.4508  4.3594
 1409SOL    HW215690   1.510   2.426  16.303 -1.6993 -3.7518  2.7807
 1410SOL     OW15691   1.562   2.741   7.602  0.0921  0.1239 -0.4749
 1410SOL    HW115692   1.649   2.711   7.576  0.1935  0.2225 -0.2457
 1410SOL    HW215693   1.548   2.800   7.528 -2.0639  0.9804  0.6091
 1411SOL     OW15694   3.233   0.907   2.419 -0.2732 -0.1061  0.3174
 1411SOL    HW115695   3.281   0.854   2.355 -0.7124  1.2837 -1.1524
 1411SOL    HW215696   3.246   0.998   2.395  2.1967 -1.0102 -1.8814
 1412SOL     OW15697   1.471   4.092   3.422  0.2735 -0.1240 -0.3579
 1412SOL    HW115698   1.394   4.059   3.469 -0.0369 -0.2295 -0.9397
 1412SOL    HW215699   1.539   4.081   3.489 -1.9494 -1.5353  1.6866
 1413SOL     OW15700   2.824   0.236   5.264  0.2268  0.5243 -0.6642
 1413SOL    HW115701   2.739   0.250   5.307  2.1290  0.6569  3.0457
 1413SOL    HW215702   2.873   0.315   5.288  0.0993 -0.1289  1.7600
 1414SOL     OW15703   3.258   2.273   0.080  0.0015  0.3689 -0.1378
 1414SOL    HW115704   3.240   2.260  17.698  1.2190 -1.8470 -0.0450
 1414SOL    HW215705   3.172   2.307   0.107 -0.0350 -0.5697  0.9546
 1415SOL     OW15706   2.529   3.464   5.485  0.5356 -0.4567  0.5187
 1415SOL    HW115707   2.524   3.455   5.390 -0.5205  1.4350  0.3790
 1415SOL    HW215708   2.454   3.522   5.501 -0.2005 -1.0739 -0.6804
 1416SOL     OW15709   3.877   3.926   7.580 -0.4417  0.3863  0.8240
 1416SOL    HW115710   3.966   3.894   7.593 -0.3539  0.6641  0.9082
 1416SOL    HW215711   3.845   3.915   7.669 -0.4867 -0.9141  0.6421
 1417SOL     OW15712   4.039   4.692   2.417 -0.1646 -0.5428 -0.2026
 1417SOL    HW115713   4.073   4.640   2.489  0.3325 -1.3841 -1.0552
 1417SOL    HW215714   3.986   4.623   2.378 -1.3872 -0.3571  1.1340
 1418SOL     OW15715   4.244   4.607  13.405  0.1758 -0.2216  0.0145
 1418SOL    HW115716   4.212   4.549  13.336 -1.6851  0.3914  0.3492
 1418SOL    HW215717   4.172   4.670  13.406 -0.5042 -0.9844 -1.5559
 1419SOL     OW15718   3.567   3.157   5.359  0.0501 -0.2906  0.3601
 1419SOL    HW115719   3.553   3.106   5.280  2.0959  0.5025 -0.5034
 1419SOL    HW215720   3.605   3.236   5.322 -2.4803  0.3871 -0.8094
 1420SOL     OW15721   4.573   3.080   6.424 -0.5196  0.1249 -0.4279
 1420SOL    HW115722   4.540   3.030   6.349 -0.1016  1.4561 -1.5033
 1420SOL    HW215723   4.544   3.170   6.404  1.7026  1.4308  2.2925
 1421SOL     OW15724   1.379   2.749  13.961  0.7008 -0.4062 -0.1749
 1421SOL    HW115725   1.386   2.764  13.867  0.4840 -0.3424 -0.1808
 1421SOL    HW215726   1.290   2.766  13.991  0.5340 -0.2595 -0.7501
 1422SOL     OW15727   3.853   1.036   5.650  0.3352 -0.4612  0.0728
 1422SOL    HW115728   3.836   0.948   5.617 -1.1501 -0.3198  0.4756
 1422SOL    HW215729   3.847   1.024   5.745  2.4988 -0.3911  0.2220
 1423SOL     OW15730   1.850   0.627   2.169 -0.1920  0.0809  0.5950
 1423SOL    HW115731   1.856   0.559   2.236  1.8761  0.0281  0.3330
 1423SOL    HW215732   1.776   0.677   2.204 -0.5638  0.4270 -0.6901
 1424SOL     OW15733   1.617   0.405   2.729  0.1507  0.2305 -0.2055
 1424SOL    HW115734   1.571   0.328   2.764 -2.3682  2.2945  1.0342
 1424SOL    HW215735   1.682   0.400   2.798  0.5746 -3.3397 -0.8403
 1425SOL     OW15736   4.338   2.414   7.888  0.0252  0.1526 -0.6628
 1425SOL    HW115737   4.281   2.490   7.895  0.2387  0.0543  1.9349
 1425SOL    HW215738   4.307   2.366   7.811  0.7558 -0.9967 -0.2442
 1426SOL     OW15739   2.216   0.076   8.280  0.1534 -0.0210 -0.0399
 1426SOL    HW115740   2.208   4.716   8.241  1.1190 -0.9746  1.9110
 1426SOL    HW215741   2.136   0.074   8.333 -0.6150  1.5783 -1.1508
 1427SOL     OW15742   0.843   1.018   7.482  0.0941  0.4104  0.6682
 1427SOL    HW115743   0.881   1.098   7.446  2.3616  0.3322  2.8891
 1427SOL    HW215744   0.828   1.044   7.573 -2.0777  0.5545  0.2553
 1428SOL     OW15745   0.285   1.813  17.332  0.0682  0.3326  0.3113
 1428SOL    HW115746   0.204   1.800  17.284 -1.6798  1.0532  3.0675
 1428SOL    HW215747   0.269   1.754  17.405  2.9389 -0.2081  0.5280
 1429SOL     OW15748   4.159   3.430  16.381  0.1908 -0.0461 -0.4745
 1429SOL    HW115749   4.247   3.405  16.408  0.2712 -2.8482 -3.2351
 1429SOL    HW215750   4.101   3.359  16.410 -0.9235  0.8796 -0.4563
 1430SOL     OW15751   4.469   0.436   3.650  0.8299  0.3638  0.5128
 1430SOL    HW115752   4.375   0.415   3.651  1.4734 -2.4897  0.5190
 1430SOL    HW215753   4.501   0.389   3.726 -0.3947 -2.3023 -0.6279
 1431SOL     OW15754   4.508   0.613   5.900 -0.0516  0.2671  0.1896
 1431SOL    HW115755   4.464   0.695   5.922  1.4618  0.5047  2.2923
 1431SOL    HW215756   4.582   0.649   5.851 -0.3905  0.0667 -0.4698
 1432SOL     OW15757   2.286   3.467   3.297  0.3316  0.6005  0.2526
 1432SOL    HW115758   2.382   3.470   3.296  0.4003 -1.2678  0.8134
 1432SOL    HW215759   2.276   3.561   3.283 -2.1191  0.3950  0.7078
 1433SOL     OW15760   0.061   2.145  17.590 -0.0223 -0.3364 -0.8054
 1433SOL    HW115761   4.707   2.192  17.573 -1.2155 -1.8030  0.9237
 1433SOL    HW215762   0.097   2.138  17.502 -4.2437 -0.1513 -2.5734
 1434SOL     OW15763   1.779   2.871  12.517 -0.0554 -0.2895 -0.0271
 1434SOL    HW115764   1.748   2.908  12.435  3.8126  1.2551 -0.7877
 1434SOL    HW215765   1.695   2.864  12.563  0.4836  0.0292  1.0136
 1435SOL     OW15766   2.079   2.766   6.096  0.5624 -0.2577 -1.0901
 1435SOL    HW115767   2.013   2.740   6.161  0.1315  0.5723 -1.1930
 1435SOL    HW215768   2.091   2.680   6.055  1.0796  0.7889 -3.1145
 1436SOL     OW15769   1.334   1.864  17.018  0.1927  0.1884  0.2783
 1436SOL    HW115770   1.358   1.939  16.964 -0.3244  0.2757  0.1692
 1436SOL    HW215771   1.322   1.797  16.951 -1.2475  0.1337  0.5954
 1437SOL     OW15772   4.574   3.818   9.019  0.3916  0.2899  0.6290
 1437SOL    HW115773   4.507   3.803   8.952  0.6411 -1.4404  0.7498
 1437SOL    HW215774   4.588   3.912   9.022 -0.6179  0.4573  0.2854
 1438SOL     OW15775   3.924   1.594   8.754  0.2809  0.3604 -0.2644
 1438SOL    HW115776   3.882   1.589   8.668 -0.2722  2.3797 -0.1204
 1438SOL    HW215777   3.865   1.650   8.806  0.5797 -0.1107  0.5778
 1439SOL     OW15778   0.019   1.270   6.368  0.1683 -0.6364  0.6046
 1439SOL    HW115779   0.022   1.211   6.443 -1.0204 -0.5454  0.7131
 1439SOL    HW215780   4.679   1.226   6.316 -0.1958  1.3223 -0.5716
 1440SOL     OW15781   2.283   0.948  10.209 -0.5121  0.0825  0.1963
 1440SOL    HW115782   2.374   0.944  10.238 -1.1800 -0.1225  2.2874
 1440SOL    HW215783   2.298   1.001  10.131 -2.0082 -0.9189 -0.7720
 1441SOL     OW15784   3.908   2.906   1.716  0.0891 -0.2221 -0.1387
 1441SOL    HW115785   3.836   2.843   1.707  1.3805 -1.6392 -0.3735
 1441SOL    HW215786   3.929   2.893   1.809  1.3990  1.3963 -0.2084
 1442SOL     OW15787   4.692   1.672  15.175  0.9739  0.5481 -0.2660
 1442SOL    HW115788   0.027   1.744  15.176  1.6374 -0.0614  2.0890
 1442SOL    HW215789   4.721   1.628  15.095  2.1288 -1.0568  1.0321
 1443SOL     OW15790   0.773   0.065   4.413 -0.4682  0.0537 -0.3097
 1443SOL    HW115791   0.821   0.145   4.390 -1.4466  0.4098 -1.0911
 1443SOL    HW215792   0.780   0.019   4.330  1.7213  0.6304 -0.4599
 1444SOL     OW15793   2.177   0.736   6.586  0.2905  0.0880  0.3509
 1444SOL    HW115794   2.130   0.696   6.513 -0.1810  1.2170  0.0490
 1444SOL    HW215795   2.195   0.821   6.547  0.7935 -1.3494 -2.5565
 1445SOL     OW15796   0.349   0.096   4.736 -0.4331 -0.2196  0.4453
 1445SOL    HW115797   0.293   0.148   4.679  0.5592 -1.4402 -1.6501
 1445SOL    HW215798   0.428   0.093   4.681  0.2664 -1.4839  1.4932
 1446SOL     OW15799   4.453   4.062   2.746  0.6164  0.3559  0.7927
 1446SOL    HW115800   4.521   4.058   2.678 -1.0017  0.6301 -0.8574
 1446SOL    HW215801   4.399   3.985   2.730  1.9484 -0.5341  0.5957
 1447SOL     OW15802   1.605   4.129   2.844  0.4050  0.0890 -0.4373
 1447SOL    HW115803   1.518   4.089   2.837 -0.2497  1.7211 -1.6637
 1447SOL    HW215804   1.645   4.079   2.774 -0.1868 -1.7407  0.5210
 1448SOL     OW15805   2.411   4.445   2.767 -0.5743  0.2225 -0.7189
 1448SOL    HW115806   2.496   4.421   2.731 -0.2699  0.9880 -0.5248
 1448SOL    HW215807   2.385   4.357   2.794  0.3575 -0.1366 -0.9959
 1449SOL     OW15808   1.910   3.127   7.978 -0.6053  0.2112 -0.7015
 1449SOL    HW115809   1.820   3.096   7.968 -0.4517 -0.0434 -1.3045
 1449SOL    HW215810   1.916   3.192   7.909 -0.2272 -0.8556 -1.6710
 1450SOL     OW15811   4.477   1.164   9.866 -0.3034 -0.0444  0.0554
 1450SOL    HW115812   4.386   1.184   9.887  0.4291  2.7576  0.6282
 1450SOL    HW215813   4.478   1.177   9.771  1.5775 -0.7147 -0.0290
 1451SOL     OW15814   1.393   3.920   8.905 -0.1309 -0.4718  0.2740
 1451SOL    HW115815   1.324   3.980   8.875 -0.7480 -0.0932  2.4851
 1451SOL    HW215816   1.396   3.863   8.828 -1.4149  1.0865 -0.9407
 1452SOL     OW15817   0.539   0.292   5.164 -0.3230 -0.0159 -0.2501
 1452SOL    HW115818   0.475   0.273   5.095 -0.2818 -0.6539 -0.1092
 1452SOL    HW215819   0.552   0.201   5.190 -1.6260 -0.4925 -1.2524
 1453SOL     OW15820   2.580   4.342  15.487  0.6049 -0.0363  0.7104
 1453SOL    HW115821   2.632   4.388  15.553  2.1801 -2.6058  1.2131
 1453SOL    HW215822   2.563   4.264  15.539 -1.0848  0.5997  1.1375
 1454SOL     OW15823   4.050   1.989   3.757 -0.4923 -0.1181 -0.1818
 1454SOL    HW115824   3.984   1.927   3.786  1.5641 -1.1956  2.1864
 1454SOL    HW215825   3.988   2.045   3.709  2.1944  2.1991 -0.9156
 1455SOL     OW15826   3.709   1.403   3.729 -0.1440 -0.1774  0.1029
 1455SOL    HW115827   3.738   1.494   3.737  1.3860 -0.4951 -1.9842
 1455SOL    HW215828   3.649   1.400   3.654 -0.9513 -2.8623  0.8600
 1456SOL     OW15829   1.771   4.020   7.735  0.1105 -0.2684  0.0813
 1456SOL    HW115830   1.717   4.097   7.750 -1.2898 -1.3238  0.4846
 1456SOL    HW215831   1.790   4.005   7.828  2.8593 -1.2891 -0.6520
 1457SOL     OW15832   1.488   4.598   4.082 -0.5458  0.6330 -0.0713
 1457SOL    HW115833   1.505   4.690   4.060 -1.3348  0.5158 -1.1807
 1457SOL    HW215834   1.502   4.547   4.002 -0.9458 -1.6902  1.3367
 1458SOL     OW15835   3.860   0.490   5.202  0.1710  0.0203  0.2799
 1458SOL    HW115836   3.798   0.550   5.160 -0.3454  0.1580  1.2410
 1458SOL    HW215837   3.889   0.443   5.123 -0.4729 -0.0218  0.0711
 1459SOL     OW15838   2.727   1.563   9.612  0.2252  0.0709 -0.2215
 1459SOL    HW115839   2.773   1.480   9.600 -0.0842 -0.0842 -0.3282
 1459SOL    HW215840   2.647   1.549   9.561  0.6861  1.2623 -1.2365
 1460SOL     OW15841   0.233   3.732  14.879 -0.2871  0.1436  0.1812
 1460SOL    HW115842   0.250   3.721  14.785  1.5449  2.6993  0.2183
 1460SOL    HW215843   0.146   3.697  14.898  0.2056 -1.0649  0.1491
 1461SOL     OW15844   2.513   1.790   2.545 -0.3483  0.3554 -0.0931
 1461SOL    HW115845   2.586   1.824   2.493 -1.3836  0.2001 -1.6527
 1461SOL    HW215846   2.446   1.853   2.517 -0.5100  0.9010  1.5112
 1462SOL     OW15847   3.600   4.688   4.711 -0.5406 -0.2677 -0.3891
 1462SOL    HW115848   3.565   4.609   4.671 -0.4825 -0.3378 -0.2996
 1462SOL    HW215849   3.690   4.678   4.681 -0.3471  0.4455 -0.0481
 1463SOL     OW15850   4.455   0.991   8.068 -0.5916  0.1683 -0.1253
 1463SOL    HW115851   4.443   0.897   8.081  1.8483 -0.0063  0.8035
 1463SOL    HW215852   4.502   1.015   8.147  0.9391  2.3247 -1.6710
 1464SOL     OW15853   2.582   0.220   3.511 -0.3200  0.4774  0.3474
 1464SOL    HW115854   2.621   0.243   3.426  1.5147 -2.5322  0.3820
 1464SOL    HW215855   2.574   0.305   3.554  2.6717  0.4145  1.0115
 1465SOL     OW15856   2.185   1.232  16.454  0.4479  0.3857  0.0411
 1465SOL    HW115857   2.192   1.316  16.408  0.6151  1.0550  1.2817
 1465SOL    HW215858   2.262   1.184  16.421 -2.6304 -2.3794 -3.0804
 1466SOL     OW15859   4.099   4.617   3.776 -0.5543  0.1096 -0.3576
 1466SOL    HW115860   4.034   4.659   3.833 -0.7565  0.8298 -1.1057
 1466SOL    HW215861   4.076   4.524   3.771 -0.4540  0.0874 -0.3952
 1467SOL     OW15862   3.224   2.741   8.166  0.0566 -0.3283 -0.4254
 1467SOL    HW115863   3.155   2.678   8.183 -0.0377 -0.2604 -0.5546
 1467SOL    HW215864   3.297   2.692   8.205  0.2443  0.1727 -0.1526
 1468SOL     OW15865   1.063   3.979   1.556  0.0956 -0.2295 -0.4012
 1468SOL    HW115866   1.134   3.923   1.525  1.1082  0.5752  0.4896
 1468SOL    HW215867   1.038   3.935   1.638 -2.4811  0.7542 -0.6530
 1469SOL     OW15868   3.582   4.553  16.753  0.1501  0.3136 -0.5294
 1469SOL    HW115869   3.516   4.508  16.805  1.3492 -0.7053  0.0987
 1469SOL    HW215870   3.520   4.620  16.724 -0.0837  0.1065 -0.5036
 1470SOL     OW15871   1.096   2.734   3.970 -0.1479 -0.1704 -0.1209
 1470SOL    HW115872   1.040   2.677   4.023 -0.6046 -1.0853 -1.5949
 1470SOL    HW215873   1.183   2.729   4.010  0.4324 -0.8516 -1.4879
 1471SOL     OW15874   2.807   2.032   2.624  0.4161  0.0880  0.0015
 1471SOL    HW115875   2.768   2.013   2.539 -1.7218 -1.2093  1.2631
 1471SOL    HW215876   2.747   1.975   2.674  1.9144 -0.3023  1.3412
 1472SOL     OW15877   2.907   0.966   7.020 -0.0400 -0.0208 -0.4114
 1472SOL    HW115878   2.983   0.979   6.962 -0.2816 -1.6451 -1.0797
 1472SOL    HW215879   2.927   1.037   7.082  1.5822 -0.9236  0.1191
 1473SOL     OW15880   1.600   1.851  14.131 -0.0478  0.5054 -0.1492
 1473SOL    HW115881   1.564   1.939  14.144  0.4950  0.5808  0.8212
 1473SOL    HW215882   1.685   1.853  14.175  0.4774 -0.7341 -1.0955
 1474SOL     OW15883   0.720   4.376   4.919  0.3843 -0.5623  0.3277
 1474SOL    HW115884   0.725   4.472   4.918  1.9032 -0.6429 -0.0825
 1474SOL    HW215885   0.663   4.364   4.843 -0.6311  2.1162  0.6622
 1475SOL     OW15886   2.385   3.236   7.453 -0.0644 -0.3030 -0.4870
 1475SOL    HW115887   2.435   3.245   7.371 -1.2132  1.2261 -1.0222
 1475SOL    HW215888   2.309   3.190   7.418 -0.0695 -0.1213 -0.7136
 1476SOL     OW15889   0.831   3.258  11.325  0.3351 -0.5936 -0.2257
 1476SOL    HW115890   0.801   3.221  11.243 -2.3280 -0.4520  0.6743
 1476SOL    HW215891   0.790   3.344  11.317  0.0646 -0.5830  1.1556
 1477SOL     OW15892   3.528   4.554  11.534 -0.2693  0.0353 -0.1404
 1477SOL    HW115893   3.461   4.503  11.581 -0.6148  1.1619  0.6094
 1477SOL    HW215894   3.567   4.486  11.479  0.5355 -0.5612  1.1692
 1478SOL     OW15895   4.661   1.063   8.631 -0.3336 -0.2094 -0.4581
 1478SOL    HW115896   4.705   1.047   8.715 -0.5648 -1.2733 -0.5425
 1478SOL    HW215897   4.691   1.153   8.618  0.8068 -0.2135  2.1313
 1479SOL     OW15898   0.983   4.282   6.422  0.1116  0.3828  0.4668
 1479SOL    HW115899   0.942   4.261   6.338  0.5638  1.0700  0.0716
 1479SOL    HW215900   0.910   4.323   6.468 -0.6854 -0.6852  0.1415
 1480SOL     OW15901   1.295   4.482   6.936  0.0940 -0.0550  0.1404
 1480SOL    HW115902   1.258   4.545   6.998  0.4970 -1.0657  1.3978
 1480SOL    HW215903   1.364   4.529   6.889  0.9546  0.2496  1.7176
 1481SOL     OW15904   1.385   0.775  14.658 -0.0761  0.2574  0.0487
 1481SOL    HW115905   1.408   0.845  14.597 -1.8992  1.8551  1.1971
 1481SOL    HW215906   1.473   0.737  14.668 -0.9285 -1.6118  0.4697
 1482SOL     OW15907   4.505   1.201  12.561 -0.3682 -0.0229 -0.8237
 1482SOL    HW115908   4.591   1.164  12.546 -0.3716  0.2260 -1.4402
 1482SOL    HW215909   4.509   1.273  12.498 -1.2453 -0.5404 -1.4753
 1483SOL     OW15910   2.027   1.538   6.005  0.1503  0.6115  0.0040
 1483SOL    HW115911   2.052   1.629   6.025  2.5888  0.5428 -2.7905
 1483SOL    HW215912   2.047   1.538   5.912 -0.1543  1.2176 -0.0657
 1484SOL     OW15913   4.602   3.307   6.254  0.5414 -0.2017 -0.4524
 1484SOL    HW115914   4.649   3.310   6.170  0.2264  0.8322 -0.5935
 1484SOL    HW215915   4.527   3.365   6.236  0.5559 -0.1454 -0.3327
 1485SOL     OW15916   2.007   3.874   6.296  0.5334 -0.1008 -0.0242
 1485SOL    HW115917   1.929   3.929   6.302  1.2367  0.9917 -1.0045
 1485SOL    HW215918   2.062   3.929   6.242 -0.8102  0.5060 -0.7800
 1486SOL     OW15919   4.018   1.975   9.174  0.2462  0.2169  0.3851
 1486SOL    HW115920   3.937   2.000   9.130  0.2472  0.3547  0.4634
 1486SOL    HW215921   4.014   1.880   9.184 -0.7261  0.1044 -0.9256
 1487SOL     OW15922   3.547   2.327   1.654  0.2621 -0.5060  0.0225
 1487SOL    HW115923   3.603   2.404   1.642  0.8751 -1.1334 -1.1156
 1487SOL    HW215924   3.517   2.328   1.745  2.4578 -0.2781  0.7517
 1488SOL     OW15925   0.600   0.549  13.558  0.0377  0.5217 -0.0646
 1488SOL    HW115926   0.519   0.595  13.579 -0.6702 -1.7373  2.1465
 1488SOL    HW215927   0.573   0.457  13.566 -0.1297  0.5579 -0.2208
 1489SOL     OW15928   0.719   3.320   7.315 -0.0995 -0.1349 -0.0236
 1489SOL    HW115929   0.737   3.254   7.382  2.6743  2.2296  1.5176
 1489SOL    HW215930   0.804   3.362   7.310 -0.3296  0.3071 -0.2292
 1490SOL     OW15931   1.796   1.852   4.698  0.5160  0.4450 -0.3110
 1490SOL    HW115932   1.841   1.841   4.614  2.0143  1.0074  0.4164
 1490SOL    HW215933   1.830   1.935   4.730 -1.1615  0.3315  1.7596
 1491SOL     OW15934   2.709   1.357   1.654 -0.3562 -0.5054 -0.5880
 1491SOL    HW115935   2.744   1.446   1.643  0.7147 -0.9652 -0.8972
 1491SOL    HW215936   2.724   1.317   1.569 -0.2066  0.9338 -1.2419
 1492SOL     OW15937   3.803   3.129  13.761 -0.0445  0.3518  0.0896
 1492SOL    HW115938   3.760   3.046  13.783  0.0518  0.5388  1.0106
 1492SOL    HW215939   3.745   3.158  13.691  0.1575 -2.1283 -1.1035
 1493SOL     OW15940   0.870   4.710   1.621 -0.1319  0.4354 -0.2268
 1493SOL    HW115941   0.786   4.714   1.575 -1.2417 -1.6227  1.6107
 1493SOL    HW215942   0.848   0.052   1.683 -1.4582 -0.6976  0.5921
 1494SOL     OW15943   4.073   4.100  14.515 -0.6755 -1.0645 -0.5685
 1494SOL    HW115944   4.140   4.037  14.488  0.9956 -0.2400  1.7201
 1494SOL    HW215945   4.121   4.181  14.530 -0.5822 -1.1336 -0.4948
 1495SOL     OW15946   0.752   4.496   3.973 -0.2005  0.0000 -0.3100
 1495SOL    HW115947   0.685   4.553   4.011  0.5214  0.3442  0.4320
 1495SOL    HW215948   0.817   4.558   3.941  0.0387  0.4601  1.0984
 1496SOL     OW15949   1.723   2.506   2.122  0.6673  0.0905  0.0023
 1496SOL    HW115950   1.714   2.574   2.054  0.3987  1.7770  1.7159
 1496SOL    HW215951   1.805   2.527   2.166  0.6234 -2.8872  1.4749
 1497SOL     OW15952   0.426   1.383   5.432  0.2990 -0.0983  0.1082
 1497SOL    HW115953   0.390   1.302   5.396  0.6458 -0.4303  0.5026
 1497SOL    HW215954   0.349   1.439   5.425  0.9006  0.8897  1.4546
 1498SOL     OW15955   2.898   4.043  10.778 -0.1992 -0.1101  0.7932
 1498SOL    HW115956   2.931   4.001  10.698 -0.7658 -2.2673  1.6841
 1498SOL    HW215957   2.928   3.985  10.848 -0.2037 -1.1417 -0.0594
 1499SOL     OW15958   2.150   4.598   7.611  0.4796 -0.2471  0.2475
 1499SOL    HW115959   2.154   4.620   7.704 -2.1956 -0.5165  0.4419
 1499SOL    HW215960   2.057   4.611   7.593 -0.0375 -0.7053  2.5457
 1500SOL     OW15961   4.542   0.982  16.721  0.0989 -0.4179 -0.2747
 1500SOL    HW115962   4.475   0.920  16.691  1.4579 -0.8283 -2.4959
 1500SOL    HW215963   4.585   1.016  16.642 -1.9109  1.4677 -0.5493
 1501SOL     OW15964   2.128   3.964   3.322 -0.4328 -0.0037  0.7798
 1501SOL    HW115965   2.201   4.013   3.285 -0.3843 -1.8280 -1.5361
 1501SOL    HW215966   2.060   4.025   3.291 -0.8007 -0.4629  0.6844
 1502SOL     OW15967   3.958   1.680   6.851 -0.0289 -0.1746  0.3093
 1502SOL    HW115968   3.915   1.751   6.899 -0.1615 -0.0500  0.0076
 1502SOL    HW215969   3.906   1.693   6.772  0.4310  1.8022  0.3214
 1503SOL     OW15970   4.582   0.064   1.767 -0.0640 -0.2419 -0.0993
 1503SOL    HW115971   4.575   4.705   1.807 -0.0813 -0.0903  0.2264
 1503SOL    HW215972   4.670   0.083   1.800 -0.2204 -1.4684  1.0167
 1504SOL     OW15973   2.387   1.125  10.012 -0.1027  0.1882 -0.5856
 1504SOL    HW115974   2.470   1.122   9.965 -0.4809  1.4017 -1.3059
 1504SOL    HW215975   2.350   1.207   9.980 -2.9272 -0.3691  1.1946
 1505SOL     OW15976   3.720   4.449  15.962 -0.4275 -0.3975  0.0088
 1505SOL    HW115977   3.676   4.451  16.046 -0.9689  1.2555 -0.3172
 1505SOL    HW215978   3.680   4.373  15.920 -1.6829  0.5230 -0.4459
 1506SOL     OW15979   0.539   3.418   4.838 -0.0897 -0.3363 -0.7393
 1506SOL    HW115980   0.489   3.353   4.887  0.3530  1.1081  1.6416
 1506SOL    HW215981   0.477   3.490   4.848 -0.6413 -0.9411  0.1301
 1507SOL     OW15982   2.301   2.964   4.654 -0.2066  0.0271  0.3235
 1507SOL    HW115983   2.292   2.982   4.560  0.0951 -1.2896  0.0363
 1507SOL    HW215984   2.394   2.940   4.648  0.1630  1.4909  0.1717
 1508SOL     OW15985   4.090   0.125  17.071 -0.1621  0.3529 -0.2274
 1508SOL    HW115986   4.183   0.105  17.082 -0.6295 -1.1058  1.0571
 1508SOL    HW215987   4.079   0.208  17.024  0.6947 -0.8832 -2.5756
 1509SOL     OW15988   4.291   1.693   8.276  0.8826  0.3640 -0.2563
 1509SOL    HW115989   4.316   1.653   8.360  0.3403 -0.6254 -0.5675
 1509SOL    HW215990   4.308   1.621   8.216  2.7269 -1.3612  2.3144
 1510SOL     OW15991   1.249   2.548  16.519  0.0169 -0.0795 -0.0550
 1510SOL    HW115992   1.327   2.532  16.466  0.5494 -0.1856  0.7639
 1510SOL    HW215993   1.253   2.475  16.580  2.6894 -0.7633 -1.0368
 1511SOL     OW15994   3.560   1.372   4.621  0.3244  0.0507 -0.1164
 1511SOL    HW115995   3.515   1.293   4.651 -1.0185  0.7059 -0.3912
 1511SOL    HW215996   3.638   1.349   4.571 -1.4777 -1.6842 -2.0923
 1512SOL     OW15997   0.388   3.581   2.547 -0.2899  0.2389 -0.3695
 1512SOL    HW115998   0.360   3.531   2.470  0.1225  0.7407 -0.8543
 1512SOL    HW215999   0.421   3.508   2.599 -0.4895 -1.2601 -2.3254
 1513SOL     OW16000   3.764   4.546  10.808  0.3500  0.1790  0.8434
 1513SOL    HW116001   3.743   4.488  10.734  0.2039  0.5815  0.5731
 1513SOL    HW216002   3.859   4.543  10.815  0.4622 -0.5629 -1.0467
 1514SOL     OW16003   3.005   0.082   5.047  0.1096 -0.4058  0.7090
 1514SOL    HW116004   3.003   0.075   4.951 -2.1194  0.2487  0.7013
 1514SOL    HW216005   2.932   0.143   5.052 -2.4071 -3.2615 -1.1030
 1515SOL     OW16006   4.309   0.469   6.942  0.0623  0.1925  0.1908
 1515SOL    HW116007   4.264   0.402   6.891 -0.9134  0.6665  0.4307
 1515SOL    HW216008   4.298   0.546   6.887 -0.6389 -0.6789 -0.8829
 1516SOL     OW16009   0.310   2.349   5.159 -0.0857 -0.8250  0.1516
 1516SOL    HW116010   0.215   2.336   5.156 -0.2647  0.3217  0.7110
 1516SOL    HW216011   0.307   2.443   5.176  1.6490 -0.6497 -0.4688
 1517SOL     OW16012   2.402   4.524  12.357 -0.6797  0.0829 -0.0003
 1517SOL    HW116013   2.330   4.500  12.415 -0.4886  1.4036  0.7920
 1517SOL    HW216014   2.488   4.508  12.397 -0.8146  0.2960  0.3704
 1518SOL     OW16015   1.558   1.055   5.354  0.2323 -0.2573  0.0798
 1518SOL    HW116016   1.489   1.014   5.406 -0.3875 -1.6353 -1.8378
 1518SOL    HW216017   1.613   0.977   5.342 -1.1280 -1.1168 -0.4838
 1519SOL     OW16018   2.152   4.478   6.692 -0.0822 -0.1990 -0.4096
 1519SOL    HW116019   2.177   4.521   6.610 -0.3744  1.4372  0.3694
 1519SOL    HW216020   2.104   4.405   6.652 -2.3964  1.3121 -0.3852
 1520SOL     OW16021   1.203   2.224  10.825 -0.5790  0.6266 -0.1807
 1520SOL    HW116022   1.297   2.204  10.828 -0.6708  0.0862 -0.8707
 1520SOL    HW216023   1.178   2.203  10.915  1.0603  0.7449  0.3050
 1521SOL     OW16024   0.830   2.465  17.029 -0.6121  0.1257 -0.2284
 1521SOL    HW116025   0.763   2.461  16.960 -1.7569 -0.8982  0.9486
 1521SOL    HW216026   0.902   2.465  16.966  0.7221  0.3278  1.2925
 1522SOL     OW16027   2.873   3.009   3.407  0.1143  0.6734 -0.0737
 1522SOL    HW116028   2.914   3.096   3.400  0.9242  0.4308  1.6352
 1522SOL    HW216029   2.782   3.038   3.402 -0.0175  0.2629  0.0275
 1523SOL     OW16030   1.274   1.681   6.465  0.1766 -0.0727  0.3361
 1523SOL    HW116031   1.214   1.607   6.465 -1.3155  1.1454  0.2267
 1523SOL    HW216032   1.327   1.660   6.542  1.7014 -1.3938 -1.0848
 1524SOL     OW16033   2.627   4.004   5.132  0.2689 -0.1047 -0.2070
 1524SOL    HW116034   2.628   3.911   5.157  0.7689 -0.1570 -0.4181
 1524SOL    HW216035   2.537   4.010   5.101  1.2500  0.3090 -3.0784
 1525SOL     OW16036   3.646   0.998  10.705 -0.1959  0.5865 -0.2231
 1525SOL    HW116037   3.650   1.014  10.800  0.6400 -2.3718  0.2631
 1525SOL    HW216038   3.579   0.929  10.709 -0.2882  0.7221  0.6498
 1526SOL     OW16039   2.132   2.799   7.757 -0.2480  0.3071 -0.1735
 1526SOL    HW116040   2.119   2.726   7.818  0.1634 -0.2639 -0.7759
 1526SOL    HW216041   2.041   2.827   7.771  0.4324  1.6905  1.4314
 1527SOL     OW16042   1.103   2.794  12.066  0.4010  0.4907 -0.4136
 1527SOL    HW116043   1.064   2.754  11.989  0.9073 -1.0002  0.1114
 1527SOL    HW216044   1.149   2.725  12.114  0.3567  0.1966 -0.7965
 1528SOL     OW16045   4.700   4.382   3.618  0.4461  0.1296  0.3153
 1528SOL    HW116046   0.012   4.463   3.586 -1.1347 -0.4494 -3.1412
 1528SOL    HW216047   4.697   4.327   3.539 -0.0092  1.0374 -0.3083
 1529SOL     OW16048   2.038   3.409   3.240  0.2499  0.4163 -0.1978
 1529SOL    HW116049   2.133   3.418   3.254  0.3186 -0.8685  0.1727
 1529SOL    HW216050   2.014   3.496   3.209  1.2325  0.4853 -0.7901
 1530SOL     OW16051   0.625   0.267   0.232  0.0695 -0.2438 -0.5883
 1530SOL    HW116052   0.627   0.190   0.288 -1.3349  0.9560  1.0884
 1530SOL    HW216053   0.640   0.234   0.143  2.7943 -2.5603  0.7316
 1531SOL     OW16054   0.748   0.427  13.123  0.0021  0.0487  0.1256
 1531SOL    HW116055   0.700   0.509  13.135  1.2086  0.8657 -0.5987
 1531SOL    HW216056   0.690   0.377  13.181  0.8907 -0.0640  0.9209
 1532SOL     OW16057   3.931   3.431   5.897  0.4671 -0.3441  0.0794
 1532SOL    HW116058   3.986   3.411   5.973 -1.5125 -0.8432  1.3593
 1532SOL    HW216059   4.004   3.447   5.837  1.1021 -1.6415  0.5157
 1533SOL     OW16060   1.466   1.713   0.871 -0.3373  0.1658  0.3955
 1533SOL    HW116061   1.504   1.798   0.894  0.8940 -0.5220  0.8598
 1533SOL    HW216062   1.441   1.733   0.780 -0.0217  0.3687  0.3552
 1534SOL     OW16063   1.634   1.795  11.169  0.7735 -0.1255 -0.2810
 1534SOL    HW116064   1.649   1.706  11.139 -1.6129 -0.2050 -1.2278
 1534SOL    HW216065   1.663   1.793  11.260 -0.0662 -1.2332 -0.0453
 1535SOL     OW16066   3.744   2.590   1.951 -0.4624  0.1435  0.1843
 1535SOL    HW116067   3.823   2.632   1.920 -0.4733 -1.5198 -2.0842
 1535SOL    HW216068   3.764   2.500   1.923  0.4851  0.5203 -0.3281
 1536SOL     OW16069   2.632   1.230   4.251 -0.2562  0.1611 -0.6956
 1536SOL    HW116070   2.622   1.267   4.164 -0.3936  0.9537 -0.3441
 1536SOL    HW216071   2.560   1.272   4.298  0.3433  1.3025 -0.7975
 1537SOL     OW16072   1.823   1.305   0.808 -0.3007  0.8550  0.6011
 1537SOL    HW116073   1.741   1.353   0.821 -0.4437  0.1660  2.2004
 1537SOL    HW216074   1.883   1.373   0.778  0.8650 -0.3539  0.1730
 1538SOL     OW16075   0.379   0.569  14.652 -0.6377 -0.3226 -0.3906
 1538SOL    HW116076   0.307   0.529  14.603 -0.8560 -0.8693  0.3751
 1538SOL    HW216077   0.400   0.648  14.603 -0.7826  0.7326  1.2789
 1539SOL     OW16078   2.047   4.227  12.307  0.8164  0.4463  0.7619
 1539SOL    HW116079   1.999   4.156  12.350  0.4789  1.2935  1.7939
 1539SOL    HW216080   2.078   4.169  12.237 -1.3528 -0.7099  0.7667
 1540SOL     OW16081   4.309   1.502   3.663 -0.3389 -1.0703  0.3302
 1540SOL    HW116082   4.318   1.584   3.712  0.2184 -0.4988 -0.7483
 1540SOL    HW216083   4.219   1.492   3.632  0.5701 -0.4816 -2.4855
 1541SOL     OW16084   4.292   0.678   3.893  0.2336 -0.0984  0.3085
 1541SOL    HW116085   4.283   0.774   3.893 -3.1464 -0.4137  1.8375
 1541SOL    HW216086   4.380   0.664   3.926  1.0629  0.8849 -1.5110
 1542SOL     OW16087   1.275   0.931  11.654 -0.2279  0.0312 -0.4421
 1542SOL    HW116088   1.367   0.930  11.628 -0.7920 -3.4104 -2.1678
 1542SOL    HW216089   1.254   1.006  11.598 -0.3890 -0.6522 -1.2777
 1543SOL     OW16090   3.699   1.160   5.244  0.1888  0.2847 -0.5858
 1543SOL    HW116091   3.697   1.066   5.265 -0.9557  0.7009  1.1908
 1543SOL    HW216092   3.782   1.181   5.286  0.2931 -0.6824 -0.3048
 1544SOL     OW16093   3.599   0.708   8.554 -0.2741  0.4399 -0.4224
 1544SOL    HW116094   3.605   0.802   8.536  1.2423  0.4239  0.0397
 1544SOL    HW216095   3.663   0.674   8.493 -2.6923 -3.6443 -0.6913
 1545SOL     OW16096   0.286   3.180   4.199  0.1283 -0.0786 -0.6717
 1545SOL    HW116097   0.206   3.176   4.146  0.5543 -0.6458 -1.2692
 1545SOL    HW216098   0.274   3.105   4.257 -1.3857  1.8235  1.4674
 1546SOL     OW16099   0.628   1.644   8.019  0.5512 -0.7045  0.1454
 1546SOL    HW116100   0.701   1.664   7.960  1.9631 -0.2754  2.0309
 1546SOL    HW216101   0.551   1.661   7.966 -0.1758 -0.2072  1.3714
 1547SOL     OW16102   0.157   3.449   8.622  0.2380 -0.3690  0.0946
 1547SOL    HW116103   0.086   3.384   8.620  1.3183 -1.5649  0.6144
 1547SOL    HW216104   0.234   3.398   8.599  0.5682 -0.2225  0.8987
 1548SOL     OW16105   3.390   1.377  16.336  0.2841 -0.1328 -0.0297
 1548SOL    HW116106   3.368   1.284  16.339 -1.6354  0.3403  0.2866
 1548SOL    HW216107   3.319   1.409  16.392 -0.4093 -0.7014 -0.5886
 1549SOL     OW16108   2.244   3.425   2.893  0.7404 -0.0440 -0.5664
 1549SOL    HW116109   2.311   3.377   2.844  0.8769 -0.0043 -0.4203
 1549SOL    HW216110   2.156   3.388   2.887  0.0972  1.4497 -0.2925
 1550SOL     OW16111   3.189   3.880  10.393 -0.1234  0.3481 -0.1791
 1550SOL    HW116112   3.242   3.959  10.398  0.2103  0.0643  0.9067
 1550SOL    HW216113   3.261   3.820  10.377 -1.3374 -1.4903  1.1093
 1551SOL     OW16114   2.267   0.866   1.533  0.4452 -0.3830 -0.0365
 1551SOL    HW116115   2.276   0.954   1.496  1.6450 -0.7796 -0.6985
 1551SOL    HW216116   2.172   0.862   1.546  0.8534  1.3062  3.4594
 1552SOL     OW16117   3.975   1.634   0.327  0.1530 -0.1116  0.4536
 1552SOL    HW116118   3.940   1.604   0.243  1.9375  1.0919 -0.7315
 1552SOL    HW216119   4.068   1.626   0.303 -0.1729 -0.5359 -0.6649
 1553SOL     OW16120   4.144   0.680  14.481  0.3364 -0.0840 -0.0079
 1553SOL    HW116121   4.097   0.672  14.564 -0.0087 -0.8930 -0.2772
 1553SOL    HW216122   4.162   0.774  14.475  1.3479 -0.2248  0.8586
 1554SOL     OW16123   3.337   3.555   6.244  0.1242  0.1978 -0.3571
 1554SOL    HW116124   3.363   3.599   6.163 -0.3427 -2.8743 -2.1624
 1554SOL    HW216125   3.319   3.635   6.293  0.4204  0.6809 -1.0352
 1555SOL     OW16126   2.804   1.170   8.310  0.2430  0.4161  0.1177
 1555SOL    HW116127   2.737   1.170   8.242  0.5547 -3.1239 -0.1868
 1555SOL    HW216128   2.830   1.262   8.304  0.5318  0.2051 -1.6423
 1556SOL     OW16129   1.718   1.195   8.825 -0.0205  0.2363  0.5114
 1556SOL    HW116130   1.750   1.105   8.828  1.4172  0.7385  0.1649
 1556SOL    HW216131   1.795   1.244   8.797 -1.2328  1.3870 -0.8724
 1557SOL     OW16132   3.297   3.370   4.387 -0.0660  0.2340 -0.4473
 1557SOL    HW116133   3.388   3.356   4.414 -0.2180  1.1634  0.5137
 1557SOL    HW216134   3.300   3.465   4.393 -2.9705  0.4101 -1.8373
 1558SOL     OW16135   1.358   4.595  17.495  0.0433  0.1312  0.2916
 1558SOL    HW116136   1.338   4.533  17.565  1.2028 -0.3258  0.2073
 1558SOL    HW216137   1.423   4.549  17.442 -0.5793 -1.2425  0.7325
 1559SOL     OW16138   4.419   3.569   0.016 -0.1991 -0.5842  0.3541
 1559SOL    HW116139   4.396   3.509   0.087 -0.2395  0.7829  1.4992
 1559SOL    HW216140   4.507   3.592   0.048 -0.8529  1.9809  0.3299
 1560SOL     OW16141   4.493   2.996   5.778  0.2110  0.2575 -0.1260
 1560SOL    HW116142   4.580   3.034   5.767  0.6909 -0.5081  0.9906
 1560SOL    HW216143   4.484   2.952   5.693  3.2418 -0.1714 -0.2251
 1561SOL     OW16144   4.030   4.198   5.467 -0.1340 -0.3069 -0.5261
 1561SOL    HW116145   3.965   4.210   5.398  0.6739  3.2105 -0.7088
 1561SOL    HW216146   4.082   4.278   5.467 -1.8300  0.7879 -0.5792
 1562SOL     OW16147   1.767   1.334   8.397 -0.2501 -0.3084 -0.5556
 1562SOL    HW116148   1.738   1.278   8.325  0.5347  1.6495 -2.4081
 1562SOL    HW216149   1.825   1.283   8.454 -0.0971  0.3261 -0.1432
 1563SOL     OW16150   3.567   1.683   8.195  0.4279 -0.0261 -0.1198
 1563SOL    HW116151   3.538   1.760   8.147 -2.3760 -1.0850 -0.0922
 1563SOL    HW216152   3.629   1.720   8.259  0.7222  1.6832 -1.3951
 1564SOL     OW16153   3.285   3.532   9.917  0.4217 -0.2375  0.2787
 1564SOL    HW116154   3.266   3.614   9.964 -1.4989 -0.0492 -0.8256
 1564SOL    HW216155   3.244   3.476   9.982  0.8998 -1.0147 -0.0838
 1565SOL     OW16156   2.347   3.219   3.816  0.6267 -0.4567 -0.1376
 1565SOL    HW116157   2.386   3.187   3.898  1.1072  0.1317 -0.1323
 1565SOL    HW216158   2.351   3.148   3.753  2.1284 -0.2073 -0.3227
 1566SOL     OW16159   3.364   2.986   3.767  0.0997  0.1720  0.0821
 1566SOL    HW116160   3.273   3.016   3.776  0.6753  2.3402 -1.2437
 1566SOL    HW216161   3.388   3.019   3.680  0.1131 -0.5990 -0.2062
 1567SOL     OW16162   3.286   2.851  17.545  0.2196  0.3609 -0.0791
 1567SOL    HW116163   3.374   2.829  17.515 -0.3362 -0.8919 -0.8010
 1567SOL    HW216164   3.227   2.797  17.492 -0.8918 -1.1928  2.7301
 1568SOL     OW16165   2.546   2.171  14.015 -0.2204  0.0397  0.4794
 1568SOL    HW116166   2.479   2.240  14.010 -2.1062 -1.8904 -0.8644
 1568SOL    HW216167   2.581   2.183  14.103 -0.4293 -0.0341  0.5735
 1569SOL     OW16168   3.304   0.669   8.544 -0.2667 -0.3064  0.4073
 1569SOL    HW116169   3.399   0.681   8.550 -0.3530  0.3399  0.4872
 1569SOL    HW216170   3.310   0.602   8.476  1.0274  1.1294 -0.9039
 1570SOL     OW16171   1.111   2.063   5.011 -0.4004 -0.0047 -0.7422
 1570SOL    HW116172   1.088   1.979   5.050 -0.8612  0.6354  0.3450
 1570SOL    HW216173   1.131   2.045   4.919 -1.9760 -0.0386 -1.0815
 1571SOL     OW16174   1.706   2.501   9.664 -0.6695  0.2205 -0.9206
 1571SOL    HW116175   1.626   2.543   9.631 -0.2069  2.5428  0.9550
 1571SOL    HW216176   1.667   2.424   9.706  1.4923  0.1464  0.9491
 1572SOL     OW16177   3.432   0.042   3.451 -0.0705 -0.8936 -0.4215
 1572SOL    HW116178   3.455   0.130   3.419 -1.0860  0.1460  1.7123
 1572SOL    HW216179   3.480   4.725   3.381  0.5581 -0.4989 -0.2449
 1573SOL     OW16180   0.032   3.054   6.912 -0.1553 -0.1847  0.1371
 1573SOL    HW116181   0.083   2.973   6.919 -2.8597 -1.7987  1.2145
 1573SOL    HW216182   0.088   3.103   6.972  2.0010 -0.0916 -1.9808
 1574SOL     OW16183   3.571   0.392   9.858 -0.3278  0.0332 -0.0120
 1574SOL    HW116184   3.628   0.353   9.924  0.1505 -1.1866 -1.1447
 1574SOL    HW216185   3.633   0.414   9.788 -2.8427  1.5405 -1.7681
 1575SOL     OW16186   3.032   3.645   4.132 -0.5514 -0.1066 -0.5133
 1575SOL    HW116187   2.974   3.580   4.094  0.9401 -1.1218 -1.0337
 1575SOL    HW216188   2.972   3.712   4.166 -1.4890 -1.3715  0.3342
 1576SOL     OW16189   3.363   3.196   6.905  0.0606  0.4918  0.0542
 1576SOL    HW116190   3.275   3.200   6.941 -0.6233  0.9201 -1.6330
 1576SOL    HW216191   3.346   3.224   6.815 -1.7524 -2.2206 -0.4458
 1577SOL     OW16192   0.866   3.265  13.076  0.4547 -0.5265  0.5676
 1577SOL    HW116193   0.912   3.301  13.000  0.5014 -0.8491  0.4410
 1577SOL    HW216194   0.906   3.304  13.153  0.9245 -0.4588  0.2901
 1578SOL     OW16195   3.665   0.948   8.462  0.3609 -0.0594  0.2726
 1578SOL    HW116196   3.663   0.972   8.369 -0.3844  0.6540  0.4748
 1578SOL    HW216197   3.695   1.030   8.500  2.4225 -0.1148 -1.2432
 1579SOL     OW16198   2.642   0.046  10.824 -0.4068  0.5525 -0.4262
 1579SOL    HW116199   2.635   0.134  10.861 -0.8715  0.4291 -0.2221
 1579SOL    HW216200   2.696   0.061  10.746 -1.2052  1.0324 -0.8856
 1580SOL     OW16201   0.939   3.105   6.702  0.8710  0.1634  0.2070
 1580SOL    HW116202   0.924   3.193   6.668 -0.5730  0.0869  0.6355
 1580SOL    HW216203   0.850   3.085   6.733  0.5876  1.0513 -0.0258
 1581SOL     OW16204   2.071   0.869   8.843 -0.2206 -0.3360 -0.4106
 1581SOL    HW116205   2.011   0.940   8.864  0.8278 -0.7620  4.0738
 1581SOL    HW216206   2.151   0.921   8.837 -1.2914  1.2663 -0.6884
 1582SOL     OW16207   3.082   2.581   0.819  0.0396  0.0891  0.4884
 1582SOL    HW116208   3.064   2.490   0.797 -0.6494  0.5760 -0.9573
 1582SOL    HW216209   3.047   2.625   0.742 -1.0153 -2.8997 -0.7357
 1583SOL     OW16210   2.982   3.330   2.595  0.1161  0.0190 -0.1194
 1583SOL    HW116211   3.034   3.312   2.673 -0.3288  0.6187  0.3142
 1583SOL    HW216212   2.933   3.402   2.635  0.2105 -0.6176  1.1297
 1584SOL     OW16213   3.688   4.009   2.578 -0.6933 -0.2675 -0.6770
 1584SOL    HW116214   3.654   4.098   2.587 -1.1363 -0.6271  1.1232
 1584SOL    HW216215   3.614   3.950   2.595  0.3714 -1.5293 -0.4776
 1585SOL     OW16216   3.281   3.689   7.994  0.0295  0.5939  0.4612
 1585SOL    HW116217   3.369   3.715   8.021  0.6908 -0.9616 -0.1506
 1585SOL    HW216218   3.260   3.639   8.073 -0.9566  1.7672  0.9227
 1586SOL     OW16219   1.237   4.144   5.470  0.2464  0.0167 -0.4717
 1586SOL    HW116220   1.163   4.182   5.423  0.4852 -1.6502 -2.2089
 1586SOL    HW216221   1.236   4.198   5.548  1.0865 -0.0475 -0.4209
 1587SOL     OW16222   1.954   4.237  16.330 -0.2865  0.0473 -0.0486
 1587SOL    HW116223   1.859   4.234  16.343 -0.4889 -1.0114 -1.8592
 1587SOL    HW216224   1.951   4.330  16.307 -1.7128  0.2590  0.9595
 1588SOL     OW16225   4.176   2.710   8.111 -0.1415  0.2145  0.0874
 1588SOL    HW116226   4.129   2.793   8.114  0.7590  0.7437 -0.4827
 1588SOL    HW216227   4.140   2.677   8.029  0.0497  0.0367  0.0752
 1589SOL     OW16228   3.029   4.419   7.593  0.0072  0.2561 -0.0073
 1589SOL    HW116229   3.106   4.406   7.539 -0.9728  0.8485 -1.5639
 1589SOL    HW216230   3.053   4.366   7.669 -4.0425 -1.9978 -0.3335
 1590SOL     OW16231   0.842   4.541  10.736 -0.4525 -0.0354  0.1987
 1590SOL    HW116232   0.854   4.617  10.793 -0.3441  0.3205 -0.2974
 1590SOL    HW216233   0.814   4.468  10.792 -0.7012 -2.1451 -2.6521
 1591SOL     OW16234   0.582   0.027   1.469 -0.1461  0.0650 -0.1752
 1591SOL    HW116235   0.503   4.724   1.424 -0.8085  0.2384  0.8817
 1591SOL    HW216236   0.645   0.020   1.397  2.5003  3.5367  1.7958
 1592SOL     OW16237   1.360   3.921   5.438  0.2328  0.9415 -0.0173
 1592SOL    HW116238   1.297   3.993   5.438 -0.2566  0.4845 -3.7568
 1592SOL    HW216239   1.344   3.890   5.349  0.6592  0.7042 -0.0120
 1593SOL     OW16240   2.620   3.135   8.327 -0.0215 -0.4275  0.1763
 1593SOL    HW116241   2.525   3.125   8.315  0.5683 -2.8511 -2.4129
 1593SOL    HW216242   2.639   3.184   8.247  0.4059 -1.6908 -0.4849
 1594SOL     OW16243   3.899   1.878   2.692 -0.4893  0.3970 -0.4071
 1594SOL    HW116244   3.926   1.786   2.697 -3.7941 -0.5519  0.0409
 1594SOL    HW216245   3.806   1.867   2.677 -0.3323 -0.1813 -0.9638
 1595SOL     OW16246   2.841   2.347   1.299  0.2965  0.2366  0.7104
 1595SOL    HW116247   2.755   2.315   1.326 -0.3314  2.2984  1.0875
 1595SOL    HW216248   2.858   2.288   1.225 -0.9679  1.8327 -0.8378
 1596SOL     OW16249   3.459   2.313   5.592 -0.2991 -0.0687  0.2997
 1596SOL    HW116250   3.394   2.325   5.522  1.8655  1.6193 -1.4291
 1596SOL    HW216251   3.417   2.253   5.653  0.4711 -0.8249  0.0815
 1597SOL     OW16252   0.378   2.600   3.498 -0.2575  0.6046 -0.0673
 1597SOL    HW116253   0.370   2.644   3.413  1.1012  1.3008  0.1795
 1597SOL    HW216254   0.381   2.679   3.551  0.9532  0.2219  0.4223
 1598SOL     OW16255   1.232   1.957  16.072 -0.0181  0.4123 -0.6523
 1598SOL    HW116256   1.250   2.025  16.007 -1.4487  0.8119 -0.6143
 1598SOL    HW216257   1.154   1.919  16.033  0.3709 -0.7775 -0.2951
 1599SOL     OW16258   2.921   1.133  17.598 -0.3353 -0.4072  0.2899
 1599SOL    HW116259   2.844   1.128  17.655  0.3118 -2.8549  0.9406
 1599SOL    HW216260   2.971   1.206  17.636 -0.4695 -0.1072 -0.1012
 1600SOL     OW16261   4.200   2.069   1.472 -0.4720  0.0249  0.0096
 1600SOL    HW116262   4.182   2.018   1.551 -0.1425  0.4504  0.3570
 1600SOL    HW216263   4.118   2.066   1.423 -0.4656  1.7941 -0.1057
 1601SOL     OW16264   1.164   0.647   6.723 -0.3395 -0.6762  0.4960
 1601SOL    HW116265   1.224   0.705   6.675  1.6981 -0.0193  3.7973
 1601SOL    HW216266   1.094   0.712   6.719  0.9834  0.7706  0.4916
 1602SOL     OW16267   2.751   3.689   6.751 -0.1454  0.3317  0.6683
 1602SOL    HW116268   2.820   3.635   6.714 -0.7714 -0.1875  0.2515
 1602SOL    HW216269   2.744   3.764   6.692  0.9304 -0.8827 -0.9796
 1603SOL     OW16270   4.304   4.395   7.406  0.7186  0.6578  0.0989
 1603SOL    HW116271   4.340   4.451   7.474  1.1927 -1.2105  1.3817
 1603SOL    HW216272   4.355   4.431   7.334 -1.9842  1.9665 -1.1904
 1604SOL     OW16273   2.235   4.136   4.690  0.1545 -0.4251 -0.2462
 1604SOL    HW116274   2.176   4.211   4.706 -0.6769 -1.5127  1.8319
 1604SOL    HW216275   2.268   4.167   4.606 -3.1625  0.7194 -1.1510
 1605SOL     OW16276   3.142   2.457   2.022 -0.3789  0.3195  0.2421
 1605SOL    HW116277   3.221   2.499   1.990 -0.0594  0.2486  0.9546
 1605SOL    HW216278   3.068   2.518   2.017 -1.1341 -0.5758  0.2999
 1606SOL     OW16279   1.079   1.174  11.635 -0.0118  0.0719  0.0827
 1606SOL    HW116280   1.090   1.112  11.707  1.0842 -0.2255 -0.3394
 1606SOL    HW216281   1.052   1.122  11.559 -0.0724  0.4952 -0.1836
 1607SOL     OW16282   2.656   1.418  10.751  0.0722  0.0944  1.1057
 1607SOL    HW116283   2.713   1.353  10.792 -1.1678 -1.4220  0.3961
 1607SOL    HW216284   2.609   1.459  10.823  1.1384  0.7837  1.4154
 1608SOL     OW16285   4.327   4.444  14.235 -0.0830 -0.0129 -0.7275
 1608SOL    HW116286   4.403   4.437  14.294  0.9375 -1.1981 -2.1638
 1608SOL    HW216287   4.362   4.403  14.156  1.7538  0.3197 -0.0887
 1609SOL     OW16288   0.995   0.455   6.609 -0.0369  0.0663 -0.1507
 1609SOL    HW116289   1.068   0.505   6.645 -0.0697  0.8769 -1.1871
 1609SOL    HW216290   0.916   0.502   6.637  0.2426  1.7419 -2.1356
 1610SOL     OW16291   0.786   2.140   5.647 -0.6748  0.5197 -0.2467
 1610SOL    HW116292   0.789   2.170   5.556  2.1571 -0.3957 -0.4548
 1610SOL    HW216293   0.701   2.097   5.643 -0.6254  0.1510  2.3326
 1611SOL     OW16294   0.596   4.702   8.449 -0.4159  0.1553  0.7617
 1611SOL    HW116295   0.662   4.665   8.507 -1.0723 -1.6946  0.3188
 1611SOL    HW216296   0.539   0.006   8.519  0.2207 -0.2900  1.4733
 1612SOL     OW16297   2.281   1.729   1.905 -0.2076  0.3166 -0.0888
 1612SOL    HW116298   2.224   1.743   1.981  0.4531 -2.5826  0.9666
 1612SOL    HW216299   2.227   1.672   1.849  0.9360  1.2184 -2.0987
 1613SOL     OW16300   2.587   1.451   3.255 -0.5188  0.1261 -0.0879
 1613SOL    HW116301   2.494   1.433   3.259 -0.3128 -0.8186  0.2836
 1613SOL    HW216302   2.631   1.367   3.270 -0.9801 -0.4418 -1.9245
 1614SOL     OW16303   1.982   1.820  17.538 -0.7724 -0.4545  0.4536
 1614SOL    HW116304   1.998   1.914  17.536  1.4629 -0.8558 -1.0370
 1614SOL    HW216305   1.888   1.821  17.553 -0.5573 -0.6071  1.8080
 1615SOL     OW16306   0.989   2.660   5.227  0.4466 -0.2897 -0.0200
 1615SOL    HW116307   1.000   2.614   5.311  2.0525  1.6882  0.8454
 1615SOL    HW216308   1.078   2.670   5.192  0.3574  0.8217  0.0591
 1616SOL     OW16309   3.065   1.248   9.003  0.0556 -0.4383 -0.3021
 1616SOL    HW116310   3.023   1.188   9.064 -1.2334  1.6722  0.8871
 1616SOL    HW216311   3.105   1.306   9.069  1.1073  0.4122 -1.6710
 1617SOL     OW16312   3.876   2.000   0.890 -0.3851  0.3185  0.3135
 1617SOL    HW116313   3.844   2.064   0.827 -2.4033 -1.5617 -0.6002
 1617SOL    HW216314   3.909   2.063   0.954  2.0973  1.0830 -1.7063
 1618SOL     OW16315   3.934   0.735   3.423  0.2826  0.2527 -0.1922
 1618SOL    HW116316   3.850   0.773   3.397  0.7825  1.4737 -0.0245
 1618SOL    HW216317   3.989   0.813   3.417 -0.0208  0.3827 -1.2225
 1619SOL     OW16318   4.281   1.585   5.279  0.0702  0.3532 -0.6953
 1619SOL    HW116319   4.290   1.622   5.367  0.0831 -2.1231  0.3345
 1619SOL    HW216320   4.283   1.664   5.225 -0.5010  0.4232 -0.6162
 1620SOL     OW16321   3.648   1.066   4.168  0.3662 -0.0921 -0.4267
 1620SOL    HW116322   3.706   1.048   4.095 -1.8728 -0.0911 -2.1905
 1620SOL    HW216323   3.645   1.162   4.157  1.4171 -0.3597 -3.0043
 1621SOL     OW16324   2.587   2.285  15.378  0.1801  0.0765  0.1608
 1621SOL    HW116325   2.578   2.379  15.390 -1.7363 -0.3859  2.3974
 1621SOL    HW216326   2.581   2.271  15.283 -0.4894  1.2303  0.0428
 1622SOL     OW16327   2.952   2.673   4.214  0.3679 -0.4122 -0.1270
 1622SOL    HW116328   3.040   2.712   4.220  0.4007 -0.2386 -1.8131
 1622SOL    HW216329   2.934   2.646   4.304  1.3156  2.2439  0.8788
 1623SOL     OW16330   0.199   1.668  11.641  0.0460 -0.1983  0.8201
 1623SOL    HW116331   0.250   1.700  11.715 -2.5166  3.2323  1.1317
 1623SOL    HW216332   0.209   1.574  11.655 -0.1852 -0.3404  0.0355
 1624SOL     OW16333   4.092   2.226   4.607  0.0816 -0.4771 -0.7149
 1624SOL    HW116334   4.119   2.163   4.540 -0.7248 -0.2264 -1.2744
 1624SOL    HW216335   3.997   2.219   4.595  0.0050 -1.1268  0.2067
 1625SOL     OW16336   1.015   4.137   8.366 -0.6098 -0.7407 -0.8125
 1625SOL    HW116337   0.949   4.105   8.305 -2.2614 -0.4691  0.8506
 1625SOL    HW216338   0.962   4.175   8.435 -0.6712  0.8330 -1.7189
 1626SOL     OW16339   4.235   4.288   5.729  0.0475  0.2515  0.3555
 1626SOL    HW116340   4.282   4.206   5.713  4.5964  2.9988 -0.1633
 1626SOL    HW216341   4.253   4.342   5.652 -1.1928  1.2332  0.7507
 1627SOL     OW16342   0.025   2.570   6.241  0.0115  0.1208 -0.1638
 1627SOL    HW116343   0.085   2.634   6.280 -2.2488  0.9381  1.9321
 1627SOL    HW216344   4.691   2.632   6.200 -0.7553 -1.1924 -0.9936
 1628SOL     OW16345   2.920   0.926   8.827  0.0014  0.2625 -0.1065
 1628SOL    HW116346   2.915   0.896   8.918 -1.0143 -0.4749 -0.4084
 1628SOL    HW216347   2.962   0.856   8.776 -0.7037 -0.0621 -0.2514
 1629SOL     OW16348   3.955   4.201   9.178  0.3262 -0.4066 -0.5607
 1629SOL    HW116349   3.895   4.269   9.147 -0.2307 -0.6199  0.0424
 1629SOL    HW216350   3.946   4.193   9.272  0.3330 -0.3325 -0.5542
 1630SOL     OW16351   1.558   2.961  11.832  0.0068 -0.2130 -0.2304
 1630SOL    HW116352   1.582   2.871  11.810 -0.6211 -0.4274 -0.0483
 1630SOL    HW216353   1.473   2.964  11.788 -0.5026 -3.7819  0.4886
 1631SOL     OW16354   3.799   3.897   2.901  0.5076 -0.1465  0.4253
 1631SOL    HW116355   3.759   3.814   2.873 -0.7230  0.3410  0.7593
 1631SOL    HW216356   3.803   3.950   2.821  0.5037 -1.4780 -0.4741
 1632SOL     OW16357   3.112   2.995   4.859 -0.2723  0.6128 -0.4631
 1632SOL    HW116358   3.031   3.021   4.902 -0.6973  1.8075 -1.9964
 1632SOL    HW216359   3.127   3.077   4.813 -2.0699  0.4777 -1.3016
 1633SOL     OW16360   1.824   3.308   4.481 -0.4285  0.3032 -0.2321
 1633SOL    HW116361   1.915   3.294   4.507 -0.8826 -1.2231  0.4876
 1633SOL    HW216362   1.815   3.247   4.407 -2.3868  0.6426 -0.2799
 1634SOL     OW16363   1.760   0.364   9.069 -0.3558  0.3594 -1.1845
 1634SOL    HW116364   1.669   0.364   9.098  0.3369  0.9794  1.0174
 1634SOL    HW216365   1.795   0.356   9.158 -1.9996  0.3968 -0.5251
 1635SOL     OW16366   1.766   3.663   1.799 -0.2796 -0.6517  0.1006
 1635SOL    HW116367   1.853   3.624   1.806 -0.4222 -1.3740 -2.1393
 1635SOL    HW216368   1.744   3.621   1.716  1.7755  0.4014 -0.9636
 1636SOL     OW16369   3.598   3.745   3.127  0.1562  1.0597  0.4312
 1636SOL    HW116370   3.624   3.756   3.219 -3.1186 -0.3064  1.5443
 1636SOL    HW216371   3.661   3.680   3.096  0.2399  1.0976  0.5219
 1637SOL     OW16372   4.356   0.342   2.007  0.0201  0.5676  0.4524
 1637SOL    HW116373   4.407   0.420   1.985  0.4739  0.6623  1.8588
 1637SOL    HW216374   4.358   0.334   2.102  0.1895 -1.1304  0.3152
 1638SOL     OW16375   2.704   2.698  14.651 -0.4144  0.3874 -0.3448
 1638SOL    HW116376   2.773   2.644  14.691 -1.3391  1.2932  2.5009
 1638SOL    HW216377   2.758   2.773  14.676  1.7974 -1.0935 -0.6231
 1639SOL     OW16378   4.252   4.689  11.230 -0.4358  0.0004  0.1381
 1639SOL    HW116379   4.331   4.700  11.176 -0.1453 -2.0408  0.1255
 1639SOL    HW216380   4.201   0.041  11.224 -0.0779  0.1588 -0.9690
 1640SOL     OW16381   0.014   3.356   7.243 -0.1506  0.2464  0.3533
 1640SOL    HW116382   0.001   3.336   7.150 -0.2800  2.6319 -0.1417
 1640SOL    HW216383   0.107   3.342   7.258 -0.1560  0.2116  0.3546
 1641SOL     OW16384   2.699   2.490   2.419 -0.0772 -0.1113 -0.5522
 1641SOL    HW116385   2.609   2.476   2.391  0.0112 -1.2842 -0.2467
 1641SOL    HW216386   2.688   2.528   2.506  2.5697  1.2558 -0.8207
 1642SOL     OW16387   4.109   0.584   6.162  0.1734  0.1614  0.2960
 1642SOL    HW116388   4.109   0.492   6.132  3.0402  1.5298 -3.8114
 1642SOL    HW216389   4.017   0.587   6.191 -0.4141  0.1473 -1.5235
 1643SOL     OW16390   2.293   2.595   5.038  0.1021  0.5904 -0.0348
 1643SOL    HW116391   2.244   2.531   4.986  1.2918 -2.8087  3.0808
 1643SOL    HW216392   2.267   2.681   5.004 -1.5855  0.6886  1.4779
 1644SOL     OW16393   3.387   0.382  14.286 -0.2338 -0.0952 -0.1422
 1644SOL    HW116394   3.427   0.369  14.200  0.0110  1.5873 -0.2726
 1644SOL    HW216395   3.317   0.317  14.296  0.8215 -1.8059 -3.8119
 1645SOL     OW16396   1.915   2.397   3.997  0.9594  0.4770  0.0743
 1645SOL    HW116397   2.011   2.389   3.991  0.7011  0.1767 -3.5069
 1645SOL    HW216398   1.879   2.313   3.968 -0.6414  0.9370  0.7452
 1646SOL     OW16399   0.393   2.003   7.551 -0.0542  0.3467 -0.3998
 1646SOL    HW116400   0.410   1.939   7.482  0.2914  0.3171 -0.2884
 1646SOL    HW216401   0.423   2.085   7.512  0.2666  1.6191  2.4809
 1647SOL     OW16402   4.423   1.075  12.784 -0.2568  0.3016 -0.1944
 1647SOL    HW116403   4.471   1.098  12.704  1.1585 -0.0508  0.5449
 1647SOL    HW216404   4.400   1.159  12.822  0.3032 -0.4020  1.6771
 1648SOL     OW16405   4.188   1.412   8.479 -0.2295  0.4321  0.2951
 1648SOL    HW116406   4.206   1.506   8.484  0.7739  0.1395  2.1897
 1648SOL    HW216407   4.212   1.378   8.565 -2.3023 -0.6999  0.4223
 1649SOL     OW16408   1.750   3.736   3.404  0.3652  0.3597 -0.2449
 1649SOL    HW116409   1.691   3.798   3.362  0.5829 -0.9429 -2.4858
 1649SOL    HW216410   1.690   3.662   3.411  1.9920 -1.3216 -3.9384
 1650SOL     OW16411   4.461   3.131   4.832 -0.1799  0.0874  0.1320
 1650SOL    HW116412   4.509   3.097   4.756  0.0841 -0.7370  0.6816
 1650SOL    HW216413   4.528   3.142   4.899  1.1441  0.6700 -1.2836
 1651SOL     OW16414   3.681   4.152   6.751  0.2284  0.0922 -0.2350
 1651SOL    HW116415   3.774   4.140   6.729  0.4583 -2.0623  1.9224
 1651SOL    HW216416   3.649   4.193   6.671  1.0855  1.8166  0.3064
 1652SOL     OW16417   0.598   1.071   7.908  0.4542  0.3790  0.3199
 1652SOL    HW116418   0.527   1.058   7.846 -1.0485  0.6760  1.9784
 1652SOL    HW216419   0.579   1.154   7.951  0.1974  1.2757 -1.5629
 1653SOL     OW16420   4.379   1.540   2.640  0.2492 -0.1156 -0.6727
 1653SOL    HW116421   4.302   1.504   2.596 -0.1929 -3.2648  2.6325
 1653SOL    HW216422   4.336   1.607   2.692 -0.4760  0.2322 -1.7110
 1654SOL     OW16423   3.650   2.954   1.169 -0.3857  0.1141 -0.0677
 1654SOL    HW116424   3.607   2.885   1.119  2.6005 -0.3857 -1.9451
 1654SOL    HW216425   3.703   2.996   1.101 -0.2090 -0.1003 -0.0648
 1655SOL     OW16426   1.881   2.658   6.581  0.0542 -0.2822  0.0832
 1655SOL    HW116427   1.976   2.667   6.578  0.0298 -0.0875 -0.0907
 1655SOL    HW216428   1.861   2.739   6.628  2.4391  0.0353  0.5407
 1656SOL     OW16429   0.414   2.226   4.121  0.1848 -0.6965 -0.4333
 1656SOL    HW116430   0.457   2.197   4.201  0.8220  0.2006 -0.4501
 1656SOL    HW216431   0.486   2.242   4.060  1.0369  0.2828  0.8257
 1657SOL     OW16432   2.673   1.672   0.503  0.0823  0.1426 -0.0355
 1657SOL    HW116433   2.631   1.758   0.504  1.4336  0.7834  1.4742
 1657SOL    HW216434   2.657   1.646   0.413  2.5122  0.5295 -0.5781
 1658SOL     OW16435   1.843   0.896  16.347 -0.5745  0.1889  0.2213
 1658SOL    HW116436   1.834   0.991  16.336  1.7295  0.5892  1.8837
 1658SOL    HW216437   1.824   0.870  16.257 -1.9023  1.3943  0.1552
 1659SOL     OW16438   3.926   1.381  10.261 -0.5594  0.1662 -0.3685
 1659SOL    HW116439   3.858   1.317  10.282 -2.1523  1.6216 -1.1134
 1659SOL    HW216440   3.973   1.387  10.344  1.9472 -0.6527 -1.7470
 1660SOL     OW16441   2.721   3.919  14.476 -0.3028  0.2550  1.0184
 1660SOL    HW116442   2.725   3.979  14.402  1.0148 -0.7144  0.3017
 1660SOL    HW216443   2.807   3.878  14.460  0.3565  2.3894 -0.9352
 1661SOL     OW16444   4.028   2.132  10.941 -0.2834  0.4031  0.2579
 1661SOL    HW116445   4.096   2.143  11.007 -0.4365 -0.1324  0.5070
 1661SOL    HW216446   3.997   2.043  10.957  4.0524 -1.2978 -0.9603
 1662SOL     OW16447   2.743   2.715   3.350 -0.4022  0.3449  0.6748
 1662SOL    HW116448   2.808   2.703   3.420 -0.9459  1.8814  1.4664
 1662SOL    HW216449   2.752   2.809   3.334 -0.1374  0.5543  1.9915
 1663SOL     OW16450   2.442   2.924   5.534  0.6649 -0.1454 -0.7131
 1663SOL    HW116451   2.353   2.891   5.548  1.5230 -2.1833 -0.0180
 1663SOL    HW216452   2.427   3.019   5.535  0.5900 -0.1465 -1.8555
 1664SOL     OW16453   3.053   0.693   5.879  0.1065 -0.3810  0.1123
 1664SOL    HW116454   2.998   0.649   5.815 -0.8173 -0.3152  0.8521
 1664SOL    HW216455   3.051   0.629   5.950  0.5907  2.1625  2.4098
 1665SOL     OW16456   3.075   3.761  16.101 -0.5851 -0.4071 -0.2208
 1665SOL    HW116457   3.125   3.749  16.021  0.4275  1.5935  0.1275
 1665SOL    HW216458   3.049   3.853  16.106  0.3293 -0.1197 -0.8363
 1666SOL     OW16459   3.091   4.490   3.178 -0.3640  0.2276  0.2831
 1666SOL    HW116460   3.130   4.423   3.235 -0.0562 -0.1797 -0.4066
 1666SOL    HW216461   3.063   4.561   3.235  1.6945  1.3904 -0.1401
 1667SOL     OW16462   2.322   0.643   5.997  0.0418 -0.7658  0.0807
 1667SOL    HW116463   2.259   0.576   6.026 -3.0215  1.7893 -0.7279
 1667SOL    HW216464   2.391   0.630   6.063  0.3057 -0.0337 -0.0478
 1668SOL     OW16465   4.089   2.688   9.136  0.3449 -0.5862  0.1042
 1668SOL    HW116466   4.046   2.684   9.222 -0.6764 -2.1286 -0.4782
 1668SOL    HW216467   4.025   2.719   9.073 -0.5953  0.2715  1.4809
 1669SOL     OW16468   1.970   3.334  11.175 -1.2964  0.1238  0.3690
 1669SOL    HW116469   1.949   3.393  11.247  0.3910  1.6338 -0.3717
 1669SOL    HW216470   2.016   3.265  11.221 -2.0630  0.3279  1.4353
 1670SOL     OW16471   0.385   1.314   3.540 -0.3775 -0.3054 -0.1675
 1670SOL    HW116472   0.326   1.258   3.490 -2.7288  2.3717 -0.4078
 1670SOL    HW216473   0.440   1.343   3.467  0.1217  0.4369  0.5000
 1671SOL     OW16474   4.554   1.137  12.172 -0.3580 -0.0363  0.1976
 1671SOL    HW116475   4.647   1.143  12.190 -0.9808  1.0705  2.9719
 1671SOL    HW216476   4.519   1.189  12.244  2.0923  0.1393  1.2434
 1672SOL     OW16477   1.723   4.442   2.636  0.4969 -0.0601  0.3093
 1672SOL    HW116478   1.773   4.403   2.564 -2.0508 -0.1018 -1.4230
 1672SOL    HW216479   1.701   4.523   2.590  0.5724  0.0144  0.4006
 1673SOL     OW16480   3.306   1.096  13.132  0.4731  0.7174  0.2990
 1673SOL    HW116481   3.329   1.189  13.137  0.0094  0.8677 -0.3008
 1673SOL    HW216482   3.371   1.059  13.192 -0.2133 -2.1186 -0.7206
 1674SOL     OW16483   2.520   0.236   7.785  0.1422 -0.3034 -0.8480
 1674SOL    HW116484   2.511   0.141   7.783  0.8050 -0.3637 -1.1179
 1674SOL    HW216485   2.428   0.257   7.797  0.1905 -0.4201 -0.2736
 1675SOL     OW16486   2.547   0.378  14.865  0.0617 -0.4238 -0.5615
 1675SOL    HW116487   2.486   0.405  14.796  0.2922 -0.3161 -0.7220
 1675SOL    HW216488   2.513   0.423  14.943  0.0726  0.9414 -1.3601
 1676SOL     OW16489   2.318   3.261  13.441  0.3096  0.4154 -0.1402
 1676SOL    HW116490   2.396   3.308  13.413  0.5235  0.0959 -0.0764
 1676SOL    HW216491   2.274   3.329  13.492 -0.2329  0.1719 -0.2771
 1677SOL     OW16492   1.930   2.815   9.106  0.3106  0.2564  0.4548
 1677SOL    HW116493   1.953   2.858   9.188  2.2219 -1.1502  0.6652
 1677SOL    HW216494   2.003   2.835   9.047 -0.1694  2.2042  0.5014
 1678SOL     OW16495   2.841   0.626  13.366  0.1235 -0.1234  0.3188
 1678SOL    HW116496   2.849   0.532  13.347  1.9637  0.6633 -2.8166
 1678SOL    HW216497   2.853   0.634  13.460  0.1498  3.6196 -0.0095
 1679SOL     OW16498   1.524   0.948   4.820 -0.0382  0.3032 -0.0264
 1679SOL    HW116499   1.495   0.936   4.910  0.0291 -1.2342 -0.2042
 1679SOL    HW216500   1.443   0.978   4.780 -0.1264  0.2339  0.0992
 1680SOL     OW16501   2.065   0.109   6.692 -0.7804  0.1990  0.0239
 1680SOL    HW116502   2.115   0.187   6.671 -0.2612  0.5155  2.4504
 1680SOL    HW216503   2.069   0.061   6.609 -0.6845  1.7633 -0.8704
 1681SOL     OW16504   3.590   2.234  15.875 -0.5624  1.0545 -0.4413
 1681SOL    HW116505   3.675   2.255  15.913 -0.2523 -1.0711  0.0012
 1681SOL    HW216506   3.593   2.139  15.869 -0.3884  1.0496 -0.2511
 1682SOL     OW16507   3.496   0.167   6.914  0.5997 -0.1342  0.0138
 1682SOL    HW116508   3.463   0.100   6.974 -0.6236 -0.5524 -1.1178
 1682SOL    HW216509   3.485   0.242   6.972 -1.3953 -0.0531 -0.4844
 1683SOL     OW16510   3.191   4.683   2.946 -0.1889  0.3781  0.0258
 1683SOL    HW116511   3.145   4.632   3.013 -1.0735  0.2783 -0.6577
 1683SOL    HW216512   3.269   4.692   3.000  1.1349 -0.3015 -1.7938
 1684SOL     OW16513   3.954   4.720   6.794  0.7244  0.8681 -0.3322
 1684SOL    HW116514   3.900   0.063   6.760  0.9434  1.2285  0.0699
 1684SOL    HW216515   3.993   0.028   6.874  1.3658 -2.3345  0.8066
 1685SOL     OW16516   0.940   0.878   6.225  0.0926  0.0113 -0.4176
 1685SOL    HW116517   0.920   0.887   6.318 -0.3881 -2.8107 -0.2480
 1685SOL    HW216518   0.886   0.807   6.191 -0.3532 -0.0289  0.3800
 1686SOL     OW16519   3.412   3.091   9.474  0.2186  0.4599  0.0076
 1686SOL    HW116520   3.435   3.073   9.383  1.6904 -0.8275  0.6393
 1686SOL    HW216521   3.352   3.017   9.482 -0.4845  1.2146  1.7823
 1687SOL     OW16522   0.391   4.142   4.866  0.0526 -0.2593  0.1936
 1687SOL    HW116523   0.341   4.061   4.854 -1.1216  0.5749 -0.4652
 1687SOL    HW216524   0.408   4.137   4.961 -1.7872 -0.0678  0.5277
 1688SOL     OW16525   3.052   0.433   7.131 -0.0086 -0.3542  0.5669
 1688SOL    HW116526   3.082   0.524   7.136  2.1256 -0.9954 -0.3355
 1688SOL    HW216527   3.130   0.387   7.100  1.6311  2.9579 -0.2873
 1689SOL     OW16528   1.801   3.588  17.324  0.2613 -0.1747  0.7625
 1689SOL    HW116529   1.758   3.672  17.309 -0.2553 -0.5333  0.2235
 1689SOL    HW216530   1.756   3.545  17.397 -1.3804 -1.4926 -1.0227
 1690SOL     OW16531   0.026   3.528   2.927  0.2489  0.3764  0.5185
 1690SOL    HW116532   4.659   3.540   2.915  0.5840  0.1641 -2.3157
 1690SOL    HW216533   0.020   3.445   2.975 -0.3335  0.0432 -0.1329
 1691SOL     OW16534   2.406   1.237   6.028 -0.3687  0.9602 -0.0736
 1691SOL    HW116535   2.443   1.300   6.090  0.8087  2.0748 -1.8891
 1691SOL    HW216536   2.312   1.246   6.041 -0.4667  1.5350 -1.1358
 1692SOL     OW16537   2.999   1.255   5.763  0.1284  0.0539  0.5079
 1692SOL    HW116538   2.954   1.338   5.749  1.1358  0.0965 -2.3904
 1692SOL    HW216539   2.930   1.192   5.784  0.0464  0.6102  1.9198
 1693SOL     OW16540   0.751   1.036   5.309  0.4962 -0.5814 -0.3085
 1693SOL    HW116541   0.701   1.105   5.353  0.2946  0.6655 -2.5187
 1693SOL    HW216542   0.822   1.026   5.372  0.9708  1.4986 -0.5114
 1694SOL     OW16543   0.841   2.872   8.290 -0.3684  0.0822 -0.1982
 1694SOL    HW116544   0.757   2.884   8.334  0.2141  0.4138  0.8107
 1694SOL    HW216545   0.889   2.950   8.318 -0.6526  1.3452 -3.2498
 1695SOL     OW16546   2.560   3.191  12.207  0.7794 -0.2043  0.1486
 1695SOL    HW116547   2.527   3.112  12.249  1.2122 -0.3949  0.1290
 1695SOL    HW216548   2.640   3.208  12.257  0.3941 -0.7909  0.9696
 1696SOL     OW16549   4.681   4.620   7.262 -0.0692  0.4484  0.6726
 1696SOL    HW116550   4.683   4.525   7.276 -3.4190  0.1381 -0.8972
 1696SOL    HW216551   0.035   4.640   7.215 -0.3660 -1.2973 -0.6076
 1697SOL     OW16552   1.677   2.430   7.271  0.0609  0.5420 -0.3597
 1697SOL    HW116553   1.590   2.462   7.293  1.0074  1.4003  2.1597
 1697SOL    HW216554   1.733   2.507   7.262  0.5818 -0.0165 -1.8234
 1698SOL     OW16555   3.307   3.493  14.506  0.4781 -0.1638  0.3859
 1698SOL    HW116556   3.318   3.551  14.430 -1.4605  0.5059  0.6149
 1698SOL    HW216557   3.308   3.554  14.579 -1.1927 -1.3095  1.3705
 1699SOL     OW16558   1.847   3.341   8.155 -0.0400  0.4843  0.1949
 1699SOL    HW116559   1.866   3.263   8.102 -0.8018  0.4220  0.0177
 1699SOL    HW216560   1.758   3.317   8.180  0.4430 -1.1112  0.3924
 1700SOL     OW16561   1.222   3.079   7.042 -0.0564  0.4828 -0.0221
 1700SOL    HW116562   1.199   3.075   7.135  2.1173  0.1757  0.4874
 1700SOL    HW216563   1.140   3.113   7.005  0.4002  1.6024 -0.0044
 1701SOL     OW16564   3.608   0.005   8.423  0.7104 -0.0917 -0.0446
 1701SOL    HW116565   3.640   0.058   8.495  0.6902 -2.4915  1.7127
 1701SOL    HW216566   3.670   0.033   8.355 -0.8096  2.1090 -0.5403
 1702SOL     OW16567   2.456   0.855   5.266 -0.1008  0.2529  0.0040
 1702SOL    HW116568   2.541   0.829   5.300 -1.1634 -1.9478  0.9924
 1702SOL    HW216569   2.403   0.779   5.292  0.1365 -0.8471 -2.7350
 1703SOL     OW16570   1.541   3.318   8.518 -0.2143  0.1902 -0.2277
 1703SOL    HW116571   1.485   3.241   8.507 -1.0200  0.8187 -0.5140
 1703SOL    HW216572   1.482   3.378   8.562  2.4523  1.5441  1.4882
 1704SOL     OW16573   1.971   3.264   8.604 -0.0990  0.3630 -0.0134
 1704SOL    HW116574   1.926   3.180   8.590 -0.1761  0.7302 -1.9191
 1704SOL    HW216575   1.924   3.295   8.682 -2.0297 -0.9645 -0.6386
 1705SOL     OW16576   0.670   3.062   7.491  0.3261 -0.7125  0.1799
 1705SOL    HW116577   0.680   2.998   7.421 -0.6298 -0.8985  0.2179
 1705SOL    HW216578   0.584   3.032   7.519  0.6620 -0.1531  1.7979
 1706SOL     OW16579   1.414   1.051   4.098 -0.0868  0.2500  0.1396
 1706SOL    HW116580   1.483   1.075   4.160  1.3252  0.0815 -1.3633
 1706SOL    HW216581   1.470   1.062   4.021 -1.6087  1.6788 -0.7403
 1707SOL     OW16582   2.216   1.573   9.345  0.6759  0.0959 -0.3077
 1707SOL    HW116583   2.155   1.636   9.381  1.0184 -0.1745  0.7465
 1707SOL    HW216584   2.183   1.498   9.394  2.1146 -0.6104 -0.4091
 1708SOL     OW16585   0.360   3.868   3.096  0.0008 -0.5312  0.2216
 1708SOL    HW116586   0.373   3.940   3.034 -0.7712 -0.1520  0.4963
 1708SOL    HW216587   0.311   3.809   3.038 -0.2991  0.3084 -0.3864
 1709SOL     OW16588   2.156   0.190  12.943 -0.2057  0.0551  0.1160
 1709SOL    HW116589   2.143   0.100  12.974  0.6518 -0.4834 -1.0261
 1709SOL    HW216590   2.173   0.185  12.848 -1.6380  0.2997 -0.1462
 1710SOL     OW16591   2.874   0.810   6.597  0.4905  0.1440 -0.2223
 1710SOL    HW116592   2.888   0.861   6.517  0.4466  0.0270 -0.3056
 1710SOL    HW216593   2.827   0.874   6.650 -0.5240  0.0631 -1.0131
 1711SOL     OW16594   1.761   4.021  15.460 -0.0185  0.5281  0.9648
 1711SOL    HW116595   1.831   4.059  15.514  0.5514 -1.1707  1.4398
 1711SOL    HW216596   1.690   4.036  15.523 -1.0845 -0.1272 -0.0801
 1712SOL     OW16597   2.732   1.367   1.385 -0.5481 -0.3908 -0.3536
 1712SOL    HW116598   2.724   1.462   1.374  0.1426 -0.4834 -1.6824
 1712SOL    HW216599   2.746   1.347   1.292  0.2328  1.8906 -0.7375
 1713SOL     OW16600   4.562   2.011   7.332  0.3963  1.4166  0.3849
 1713SOL    HW116601   4.633   1.952   7.357  0.2604  0.2602 -1.8975
 1713SOL    HW216602   4.526   1.957   7.261 -0.5971 -1.5372  3.1579
 1714SOL     OW16603   4.340   0.844   9.663 -0.1622  0.0621 -0.1356
 1714SOL    HW116604   4.393   0.767   9.685 -0.5732 -0.4944 -1.0915
 1714SOL    HW216605   4.370   0.861   9.574 -2.6773  2.1841 -0.5893
 1715SOL     OW16606   3.919   0.133   9.005  0.2779  0.6820 -0.3654
 1715SOL    HW116607   3.911   0.119   9.100 -1.2232 -1.7036 -0.8570
 1715SOL    HW216608   4.013   0.120   8.997 -0.0241 -1.5697 -0.1522
 1716SOL     OW16609   0.893   0.805   1.994 -0.0893 -0.2458  0.0618
 1716SOL    HW116610   0.905   0.807   2.089 -1.0633 -1.8847  0.2115
 1716SOL    HW216611   0.847   0.723   1.977 -0.7125 -0.0467  0.7833
 1717SOL     OW16612   4.165   1.505   1.470  0.1080 -0.2931 -1.0113
 1717SOL    HW116613   4.166   1.414   1.501  1.5995 -0.1928 -0.7689
 1717SOL    HW216614   4.071   1.522   1.482 -0.1876 -0.1696 -3.4619
 1718SOL     OW16615   0.075   2.735   3.620  0.0490 -0.0023  0.2476
 1718SOL    HW116616   4.715   2.762   3.594  0.5304 -1.0208 -2.4495
 1718SOL    HW216617   0.083   2.654   3.569  4.1994  0.4922  0.1562
 1719SOL     OW16618   3.482   3.110   4.071  0.5421  0.7217 -0.0378
 1719SOL    HW116619   3.389   3.111   4.094  0.5892 -0.1203  0.1965
 1719SOL    HW216620   3.531   3.128   4.151 -0.2027  0.5318  0.4694
 1720SOL     OW16621   4.555   2.880   7.142 -0.0118  0.0715 -0.4810
 1720SOL    HW116622   4.585   2.928   7.220 -0.7017 -0.2863  0.0004
 1720SOL    HW216623   4.531   2.960   7.095 -1.9847 -1.6458 -2.3549
 1721SOL     OW16624   1.769   4.467  12.041  0.0740  0.4532 -0.1092
 1721SOL    HW116625   1.732   4.384  12.070  1.4919 -0.4564 -0.9068
 1721SOL    HW216626   1.841   4.465  12.104  0.5514  2.1932 -0.5980
 1722SOL     OW16627   1.474   1.399   3.923 -0.4233  0.4718  0.2217
 1722SOL    HW116628   1.521   1.483   3.921 -0.3444  0.4222  0.0788
 1722SOL    HW216629   1.450   1.406   4.016 -1.0387  1.1809  0.0163
 1723SOL     OW16630   1.993   0.616   5.228  0.2452 -0.0358  0.2490
 1723SOL    HW116631   1.982   0.549   5.295 -1.1899 -0.2325 -0.1785
 1723SOL    HW216632   1.985   0.698   5.278  0.7739  0.0021  0.2738
 1724SOL     OW16633   1.678   0.188  13.676  0.0043  0.0371 -0.2888
 1724SOL    HW116634   1.749   0.139  13.635 -0.1633  0.4000 -1.0175
 1724SOL    HW216635   1.611   0.119  13.670  0.5376 -0.6834  1.8357
 1725SOL     OW16636   1.112   0.938   8.862  0.1756  0.4101 -0.3387
 1725SOL    HW116637   1.207   0.949   8.856  0.3241 -1.9953 -2.6284
 1725SOL    HW216638   1.103   0.843   8.850  0.2484  0.2084  1.2445
 1726SOL     OW16639   2.226   2.101  15.621  0.4978 -0.2260 -0.2934
 1726SOL    HW116640   2.242   2.050  15.542  0.4014  1.1417 -1.1969
 1726SOL    HW216641   2.275   2.182  15.604  0.0251  0.3212  0.8849
 1727SOL     OW16642   0.082   2.467   6.487 -0.2510 -0.0444  0.0373
 1727SOL    HW116643   0.056   2.523   6.559 -0.1322 -0.4478  0.3944
 1727SOL    HW216644   0.045   2.507   6.408  2.3536  0.1419 -1.1115
 1728SOL     OW16645   3.757   2.667   7.464 -0.1298 -0.0317  0.1789
 1728SOL    HW116646   3.709   2.735   7.512  1.0228  0.8398  0.0991
 1728SOL    HW216647   3.809   2.639   7.540  1.3008 -1.1488 -1.2136
 1729SOL     OW16648   0.833   1.790   5.559  0.0245 -0.0699 -0.0606
 1729SOL    HW116649   0.823   1.707   5.606 -1.2104  0.3805  0.4686
 1729SOL    HW216650   0.867   1.851   5.625  0.8268 -1.7059  1.0351
 1730SOL     OW16651   2.923   2.703   1.013  0.8682  0.0802  0.1720
 1730SOL    HW116652   2.969   2.671   0.935 -0.8235 -2.9384  0.4090
 1730SOL    HW216653   2.851   2.750   0.969  1.3166  0.1455 -0.4974
 1731SOL     OW16654   3.672   4.039  13.653 -0.8254  0.3262 -0.1299
 1731SOL    HW116655   3.684   4.134  13.650 -1.0152  0.4087  1.7226
 1731SOL    HW216656   3.637   4.025  13.565  0.7695  0.7472 -0.8401
 1732SOL     OW16657   2.691   2.080   8.351 -0.3320  0.3203  0.0203
 1732SOL    HW116658   2.765   2.097   8.409  0.6033 -0.2863 -1.0156
 1732SOL    HW216659   2.620   2.060   8.413  0.5771 -2.2100  0.2392
 1733SOL     OW16660   3.338   1.806   3.276  0.1266 -0.0182  0.7415
 1733SOL    HW116661   3.374   1.892   3.297 -1.1811  0.4143  1.2261
 1733SOL    HW216662   3.254   1.836   3.241 -0.4865 -1.0652  1.3263
 1734SOL     OW16663   4.290   1.472   7.130 -0.2642 -0.3019  0.3493
 1734SOL    HW116664   4.275   1.543   7.192 -0.9411 -0.0460 -0.1115
 1734SOL    HW216665   4.366   1.425   7.164 -0.1516  0.2389  0.8323
 1735SOL     OW16666   4.209   0.284   2.976  0.0092 -0.3378 -0.4038
 1735SOL    HW116667   4.126   0.311   2.935 -0.5409 -1.7559 -0.1983
 1735SOL    HW216668   4.181   0.212   3.032  1.9846 -1.1986 -0.5437
 1736SOL     OW16669   0.881   3.226  13.829 -0.6342  0.7607  0.2430
 1736SOL    HW116670   0.860   3.268  13.745 -1.6906 -0.3252 -0.0290
 1736SOL    HW216671   0.811   3.273  13.875 -0.1552  0.5136  1.2243
 1737SOL     OW16672   0.946   2.652   3.039 -0.6125  0.0382  0.4439
 1737SOL    HW116673   0.941   2.564   3.077 -1.4380  0.3103  0.9648
 1737SOL    HW216674   0.945   2.624   2.948  0.4431 -0.5259  0.6008
 1738SOL     OW16675   0.387   4.229   7.971  0.1140  0.2783  0.2147
 1738SOL    HW116676   0.294   4.212   7.984 -1.0514  3.7467 -3.3445
 1738SOL    HW216677   0.386   4.302   7.909  3.1811  0.2002  0.0978
 1739SOL     OW16678   3.686   2.986  15.064 -0.0774  0.0156 -0.2188
 1739SOL    HW116679   3.740   2.986  15.143  0.2368  0.6201 -0.4263
 1739SOL    HW216680   3.625   3.058  15.082  1.4753  1.3213 -0.1203
 1740SOL     OW16681   4.532   0.269   8.405  0.0320 -0.1070  0.5022
 1740SOL    HW116682   4.569   0.230   8.484  0.9079  0.5787  0.4412
 1740SOL    HW216683   4.608   0.301   8.355 -0.3745  0.7503  0.4396
 1741SOL     OW16684   2.764   2.947   9.498  0.7744  0.1152  0.4621
 1741SOL    HW116685   2.795   2.913   9.582  0.8274 -1.4636 -0.1915
 1741SOL    HW216686   2.688   3.002   9.515 -1.6475 -3.2191  0.5223
 1742SOL     OW16687   2.893   0.120  10.692 -0.1224  0.1444 -0.1610
 1742SOL    HW116688   2.908   0.209  10.726 -1.3117 -1.0644  3.4441
 1742SOL    HW216689   2.891   0.144  10.599 -0.5817 -0.2867 -0.2594
 1743SOL     OW16690   3.771   4.536   2.323 -0.1049  0.3063 -0.1004
 1743SOL    HW116691   3.769   4.443   2.346  1.6977  1.2173  3.6072
 1743SOL    HW216692   3.717   4.538   2.244 -0.2021 -2.4197 -0.1005
 1744SOL     OW16693   1.539   3.433   7.164 -0.0915  0.0564 -0.1974
 1744SOL    HW116694   1.517   3.496   7.233 -1.8011  1.0496 -1.6662
 1744SOL    HW216695   1.555   3.485   7.086  2.2997  1.6754  1.3475
 1745SOL     OW16696   4.146   3.430   4.983 -0.3408 -0.0307  0.1337
 1745SOL    HW116697   4.175   3.428   4.892 -2.6775  0.2416 -0.6275
 1745SOL    HW216698   4.152   3.337   5.007  0.6877 -0.2212 -0.8521
 1746SOL     OW16699   4.665   2.680   1.331 -0.3789 -0.4776  0.3799
 1746SOL    HW116700   4.575   2.712   1.323  0.0059 -0.2193 -2.6922
 1746SOL    HW216701   4.696   2.717   1.249  1.2047 -0.5272  0.9565
 1747SOL     OW16702   2.704   1.456   7.999  0.3796  0.1871  0.0384
 1747SOL    HW116703   2.749   1.534   8.033  1.0217 -0.1587 -0.0218
 1747SOL    HW216704   2.622   1.483   7.957 -0.2730 -1.3143  0.3560
 1748SOL     OW16705   4.105   2.546  14.726  0.2039 -0.0998  0.0288
 1748SOL    HW116706   4.138   2.568  14.813 -0.0255  1.7115 -0.3539
 1748SOL    HW216707   4.011   2.550  14.742  0.2277 -2.3105  0.6801
 1749SOL     OW16708   2.104   0.885   6.932 -0.3006  0.3272  0.4296
 1749SOL    HW116709   2.096   0.957   6.995 -1.3867  1.0874 -0.5879
 1749SOL    HW216710   2.013   0.857   6.921 -0.2024 -0.2662  1.0457
 1750SOL     OW16711   0.795   2.327   5.860  0.2557  0.3291  0.0293
 1750SOL    HW116712   0.755   2.306   5.945  0.1302  0.4542  0.0014
 1750SOL    HW216713   0.805   2.242   5.818 -0.7074  0.6162 -0.7755
 1751SOL     OW16714   0.440   3.296   7.679 -0.2356  0.5145 -0.0107
 1751SOL    HW116715   0.355   3.336   7.659  0.3454  1.3239 -0.8827
 1751SOL    HW216716   0.425   3.205   7.654  1.2996 -0.0740  1.2859
 1752SOL     OW16717   1.759   1.258  12.451 -0.0343  0.3090 -0.0769
 1752SOL    HW116718   1.793   1.218  12.532  1.4468  1.5747 -0.0736
 1752SOL    HW216719   1.679   1.294  12.488 -1.3205 -0.2530 -2.3394
 1753SOL     OW16720   3.914   1.328   9.326  0.1774 -0.1093  0.7561
 1753SOL    HW116721   3.960   1.361   9.248 -2.5528  0.4815 -0.5976
 1753SOL    HW216722   3.919   1.406   9.381 -2.0309 -0.6037  1.6479
 1754SOL     OW16723   3.554   4.305   6.538  0.7253  0.0868  0.1270
 1754SOL    HW116724   3.520   4.319   6.449  1.1425 -0.9652 -0.2039
 1754SOL    HW216725   3.474   4.305   6.591 -0.9627  1.9136 -2.3697
 1755SOL     OW16726   2.348   0.137   1.817  0.9984 -0.4211  0.4732
 1755SOL    HW116727   2.280   0.184   1.866 -0.1534 -0.4781 -1.0737
 1755SOL    HW216728   2.424   0.142   1.874  1.3042  1.5813 -0.1214
 1756SOL     OW16729   0.346   4.229  12.286  0.0261  0.1592 -0.1897
 1756SOL    HW116730   0.399   4.157  12.320 -0.3871 -0.0472  0.0154
 1756SOL    HW216731   0.338   4.276  12.369  1.8830 -1.0949  0.7136
 1757SOL     OW16732   0.403   0.796  14.513  0.1248  0.2336  0.3511
 1757SOL    HW116733   0.469   0.773  14.447 -0.0650  2.0530 -0.4583
 1757SOL    HW216734   0.349   0.861  14.468 -1.5366  0.1745  2.2748
 1758SOL     OW16735   0.649   1.243   5.432 -0.0346 -0.2077  0.3575
 1758SOL    HW116736   0.571   1.298   5.431  0.9081  1.1193  0.9359
 1758SOL    HW216737   0.705   1.306   5.476 -0.0994 -0.4567  0.8011
 1759SOL     OW16738   0.118   3.120  16.845 -0.1288  0.7548 -0.5376
 1759SOL    HW116739   0.108   3.166  16.761  0.0296 -0.4682 -1.2198
 1759SOL    HW216740   0.025   3.102  16.863  0.3436  0.1091  1.2166
 1760SOL     OW16741   3.562   3.691   6.291 -0.3329 -0.1113  0.4797
 1760SOL    HW116742   3.610   3.708   6.210  1.5163 -2.8097  0.9887
 1760SOL    HW216743   3.607   3.615   6.329  2.9955  0.9689 -1.3425
 1761SOL     OW16744   1.046   4.395   6.938  0.0253 -0.4568 -0.0865
 1761SOL    HW116745   1.140   4.407   6.941  0.1350 -1.2293 -0.3571
 1761SOL    HW216746   1.020   4.413   7.028 -1.4359 -0.4485 -0.4950
 1762SOL     OW16747   4.564   2.856  15.406  0.2270  0.3110  0.3646
 1762SOL    HW116748   4.537   2.929  15.350  0.0163  0.3539  0.5212
 1762SOL    HW216749   4.503   2.868  15.478  0.6898  0.4130  0.7383
 1763SOL     OW16750   3.999   4.136  13.852 -0.8412  0.4152 -0.5198
 1763SOL    HW116751   4.053   4.178  13.918 -1.2146  0.2372 -0.1009
 1763SOL    HW216752   3.929   4.099  13.906  1.7702  1.4395  3.5866
 1764SOL     OW16753   3.516   4.592   6.898 -0.4110 -0.0919 -0.0037
 1764SOL    HW116754   3.491   4.610   6.807 -1.1405 -1.0423  0.0044
 1764SOL    HW216755   3.609   4.583   6.878 -0.5736 -1.7333 -0.0151
 1765SOL     OW16756   4.542   0.784   8.895  0.1896 -0.1390 -0.0518
 1765SOL    HW116757   4.461   0.823   8.863  0.7349  1.7107  0.8080
 1765SOL    HW216758   4.501   0.714   8.945 -1.5670 -0.2631 -1.6590
 1766SOL     OW16759   1.032   4.312   5.382  0.1035  0.0302 -0.0265
 1766SOL    HW116760   0.953   4.280   5.426 -0.0931 -0.3975 -0.6968
 1766SOL    HW216761   0.995   4.293   5.296 -1.2227  1.6089  0.1874
 1767SOL     OW16762   1.486   1.353  16.658 -0.5214 -0.3009  0.5133
 1767SOL    HW116763   1.425   1.283  16.637 -0.3144 -0.0236 -1.0434
 1767SOL    HW216764   1.425   1.424  16.639  0.2670  0.5494  1.1066
 1768SOL     OW16765   3.536   0.604   2.181  0.2582 -0.8485 -1.1247
 1768SOL    HW116766   3.546   0.522   2.230 -4.0067 -1.0470 -0.5996
 1768SOL    HW216767   3.573   0.579   2.097  0.9640 -0.2850 -0.9837
 1769SOL     OW16768   1.325   2.962  11.688  0.0884 -0.4180  0.5233
 1769SOL    HW116769   1.236   2.926  11.681 -0.9839  1.7885  2.5479
 1769SOL    HW216770   1.366   2.915  11.615 -1.7412  0.7249 -1.2386
 1770SOL     OW16771   3.900   1.820   3.912  0.7010 -0.2120 -0.4176
 1770SOL    HW116772   3.805   1.817   3.911  0.7322 -1.5005  1.0979
 1770SOL    HW216773   3.926   1.789   3.999 -0.8735  0.4010  0.2573
 1771SOL     OW16774   0.098   0.882   5.645  0.1794  0.0602 -0.0305
 1771SOL    HW116775   0.130   0.928   5.567 -0.1841 -1.1964 -0.9377
 1771SOL    HW216776   0.005   0.886   5.624  0.2061 -0.7783 -0.3490
 1772SOL     OW16777   1.679   0.808   5.486 -0.0202 -0.7099 -0.7717
 1772SOL    HW116778   1.670   0.716   5.514 -1.4311 -0.7215 -1.2384
 1772SOL    HW216779   1.768   0.801   5.452  0.6957  0.2265  0.8931
 1773SOL     OW16780   3.656   3.664   3.953 -0.5973 -0.3744 -0.8596
 1773SOL    HW116781   3.716   3.739   3.960  1.1254 -1.8812  0.7172
 1773SOL    HW216782   3.703   3.595   3.907 -1.7640 -0.6672 -1.5995
 1774SOL     OW16783   2.725   3.538   6.435 -0.3183 -0.1119 -0.5382
 1774SOL    HW116784   2.669   3.512   6.508  1.2168 -2.4106 -0.1788
 1774SOL    HW216785   2.688   3.623   6.411  0.0584 -0.1437 -1.2420
 1775SOL     OW16786   4.386   3.072   7.506 -0.0873  0.1604  0.1556
 1775SOL    HW116787   4.347   3.006   7.563 -0.3821 -0.1233 -0.3786
 1775SOL    HW216788   4.412   3.138   7.571 -2.1124  0.1769  0.9523
 1776SOL     OW16789   3.820   1.148  11.706  0.0960  0.1658  1.1187
 1776SOL    HW116790   3.891   1.210  11.693  0.2470 -0.4932 -1.3465
 1776SOL    HW216791   3.774   1.169  11.624  1.3311 -2.4114 -0.2317
 1777SOL     OW16792   3.946   2.644   2.419 -0.5731 -0.0594 -0.2030
 1777SOL    HW116793   3.862   2.630   2.462 -0.0592 -3.8124 -0.4717
 1777SOL    HW216794   4.003   2.667   2.492 -2.7979 -0.6327  1.7004
 1778SOL     OW16795   3.286   1.148   8.039 -0.1367 -0.2740 -0.0134
 1778SOL    HW116796   3.265   1.137   8.132  0.0616 -1.5642 -0.1191
 1778SOL    HW216797   3.315   1.239   8.042 -1.8531  0.3076 -0.8981
 1779SOL     OW16798   0.495   2.712  15.146  0.0752 -0.1686 -0.0916
 1779SOL    HW116799   0.452   2.797  15.137  0.4901  0.0376 -0.1618
 1779SOL    HW216800   0.413   2.666  15.131  0.8733 -0.8158 -2.4591
 1780SOL     OW16801   1.971   3.096  10.969  0.4517  0.1118  0.8722
 1780SOL    HW116802   2.066   3.093  10.957  0.3283 -0.7560  0.1265
 1780SOL    HW216803   1.962   3.125  11.060  1.2068  0.9556  0.6839
 1781SOL     OW16804   1.467   1.213   9.319  0.2338 -0.2362  0.1550
 1781SOL    HW116805   1.388   1.195   9.267  2.0937 -1.7506 -2.1719
 1781SOL    HW216806   1.522   1.227   9.241  0.9400  0.3706  0.7656
 1782SOL     OW16807   4.364   2.041  17.219  0.5722 -0.1872 -0.1278
 1782SOL    HW116808   4.300   2.101  17.256  0.6321  0.6349 -1.3599
 1782SOL    HW216809   4.309   1.963  17.218  0.3922 -0.0894  3.5544
 1783SOL     OW16810   3.863   4.241   7.424 -0.3158 -0.2816  0.5130
 1783SOL    HW116811   3.917   4.313   7.458  1.1597 -1.1960  0.1015
 1783SOL    HW216812   3.855   4.183   7.499 -2.3880 -0.7443 -0.0886
 1784SOL     OW16813   4.679   3.884  11.226  0.3805  0.2312  0.8401
 1784SOL    HW116814   4.628   3.928  11.158  1.2213  2.0041  1.3491
 1784SOL    HW216815   4.610   3.885  11.292 -1.7059 -0.2138 -1.3218
 1785SOL     OW16816   1.361   2.635  12.979  0.1915 -0.2724 -0.1885
 1785SOL    HW116817   1.450   2.667  12.963  0.4816 -0.4415  1.1109
 1785SOL    HW216818   1.307   2.696  12.928  0.3823  0.5100  0.5526
 1786SOL     OW16819   0.861   1.400   6.816  0.1922 -0.3102  0.0325
 1786SOL    HW116820   0.889   1.324   6.867 -1.0827 -2.5165 -2.5743
 1786SOL    HW216821   0.844   1.461   6.888 -0.8685  0.5958 -0.9985
 1787SOL     OW16822   3.483   1.468   9.122  0.0535 -0.2895 -0.3689
 1787SOL    HW116823   3.570   1.498   9.146 -0.9532  2.7201 -0.4578
 1787SOL    HW216824   3.481   1.385   9.169  1.0517  2.0356  3.7853
 1788SOL     OW16825   0.110   3.472  16.171 -0.5570 -0.1116  0.3086
 1788SOL    HW116826   0.069   3.537  16.228  1.6844  2.9821 -1.6018
 1788SOL    HW216827   0.114   3.514  16.085 -0.3595  2.4682  1.5705
 1789SOL     OW16828   4.369   0.893   5.422 -0.3177  0.7580  0.2661
 1789SOL    HW116829   4.388   0.987   5.417  2.3446  0.1994 -0.2240
 1789SOL    HW216830   4.339   0.887   5.513  1.5695 -2.5702  0.6648
 1790SOL     OW16831   3.442   1.411   8.853 -0.9548  0.2390 -0.1666
 1790SOL    HW116832   3.495   1.484   8.821 -1.9941  1.6012  1.2133
 1790SOL    HW216833   3.438   1.433   8.946 -0.2263 -0.2804 -0.0134
 1791SOL     OW16834   0.076   3.956  11.471  0.3440 -0.2835 -0.0832
 1791SOL    HW116835   0.045   3.943  11.381 -1.4690 -1.1318  0.6577
 1791SOL    HW216836   0.136   4.030  11.463 -0.8413  0.5848 -1.2105
 1792SOL     OW16837   4.398   2.393   3.032 -0.5499 -0.3463 -0.0110
 1792SOL    HW116838   4.313   2.355   3.051 -0.3364 -0.7794  0.0632
 1792SOL    HW216839   4.417   2.334   2.959  0.9411 -1.0874  0.9916
 1793SOL     OW16840   2.500   2.289  11.762 -0.4699 -0.4039  0.4987
 1793SOL    HW116841   2.465   2.353  11.700  0.1958 -0.8977 -0.3687
 1793SOL    HW216842   2.449   2.322  11.837 -1.3349 -0.1610 -0.1920
 1794SOL     OW16843   0.873   0.293   5.609 -0.6603 -0.3300 -0.0243
 1794SOL    HW116844   0.938   0.363   5.620 -3.0275  1.7652  0.6887
 1794SOL    HW216845   0.807   0.318   5.674  1.4673 -0.1377  2.0646
 1795SOL     OW16846   1.572   4.627   7.075 -0.5774 -0.4197 -0.4184
 1795SOL    HW116847   1.643   4.636   7.139 -1.8907 -1.8399  1.2605
 1795SOL    HW216848   1.607   4.671   6.997 -0.3928 -0.9848 -0.6546
 1796SOL     OW16849   0.225   3.088   2.947 -0.4150 -0.1023  0.1146
 1796SOL    HW116850   0.315   3.062   2.967  0.3962  3.7519  1.4531
 1796SOL    HW216851   0.178   3.005   2.941 -0.6953  0.0261  0.5366
 1797SOL     OW16852   1.793   4.023   5.127  0.2592  0.9705 -0.1445
 1797SOL    HW116853   1.786   3.998   5.220 -0.6950 -1.9044 -1.0017
 1797SOL    HW216854   1.708   4.062   5.107  0.6822  0.7092 -2.3688
 1798SOL     OW16855   3.563   0.643   7.156 -0.4902  0.2935 -0.4505
 1798SOL    HW116856   3.565   0.640   7.251  0.1667 -0.8448 -0.5014
 1798SOL    HW216857   3.619   0.720   7.143 -0.3248 -0.0109 -1.5246
 1799SOL     OW16858   3.504   3.887   1.751 -0.3733 -0.3244  0.1572
 1799SOL    HW116859   3.421   3.840   1.761  0.0515 -1.0355  0.4119
 1799SOL    HW216860   3.488   3.927   1.666  0.6545  1.8450  0.9980
 1800SOL     OW16861   0.374   3.635   7.787  0.4737  0.0750  0.3190
 1800SOL    HW116862   0.312   3.663   7.854  0.1737 -1.2862  0.5946
 1800SOL    HW216863   0.308   3.621   7.719 -0.1523  1.0047  0.7255
 1801SOL     OW16864   1.969   0.319   8.892  0.4022  0.0259  0.3144
 1801SOL    HW116865   2.052   0.335   8.936  0.7831  0.7414 -0.6735
 1801SOL    HW216866   1.908   0.314   8.966  1.7029 -2.5790  1.2172
 1802SOL     OW16867   3.864   4.255  14.877  0.4329  0.8553  0.2914
 1802SOL    HW116868   3.840   4.169  14.911  1.6925 -0.0451 -1.0982
 1802SOL    HW216869   3.788   4.275  14.823  1.1762  0.5159 -0.8900
 1803SOL     OW16870   3.416   0.218   8.201  0.4404  0.4652  0.1580
 1803SOL    HW116871   3.506   0.189   8.219  0.2067 -0.8719 -0.8113
 1803SOL    HW216872   3.422   0.250   8.111  0.2948 -0.3636 -0.1440
 1804SOL     OW16873   3.219   0.241  10.816 -0.2805 -0.2676  0.8324
 1804SOL    HW116874   3.276   0.173  10.779  2.0554  2.9100 -1.4041
 1804SOL    HW216875   3.217   0.303  10.743  0.5215  1.4962  2.2978
 1805SOL     OW16876   1.131   2.706  13.488  0.0098  0.2309  0.3310
 1805SOL    HW116877   1.145   2.734  13.397 -0.6979 -1.0219 -0.1593
 1805SOL    HW216878   1.046   2.663  13.485  0.1679 -0.1296  0.9878
 1806SOL     OW16879   3.842   2.688   3.103 -0.4483 -0.1117  0.1088
 1806SOL    HW116880   3.855   2.769   3.053 -0.8101 -0.8931 -1.2511
 1806SOL    HW216881   3.920   2.642   3.070 -0.6350 -1.0632  1.0139
 1807SOL     OW16882   1.876   1.976   9.007 -0.5293  0.1755  0.4748
 1807SOL    HW116883   1.920   2.055   8.977  1.5673 -0.4844  1.7903
 1807SOL    HW216884   1.802   1.962   8.948  0.1307  0.2464 -0.3604
 1808SOL     OW16885   1.974   4.322   1.581  0.0877 -0.5102  0.1803
 1808SOL    HW116886   1.943   4.242   1.537 -0.7566 -0.8288  1.3623
 1808SOL    HW216887   1.921   4.398   1.557  4.5097  2.8525  1.0975
 1809SOL     OW16888   0.193   2.215   7.427  0.5033  0.1926  0.2088
 1809SOL    HW116889   0.189   2.310   7.433 -1.4171  0.0105  2.0766
 1809SOL    HW216890   0.283   2.209   7.397  1.0500  0.6656  1.7408
 1810SOL     OW16891   1.165   2.823   2.470 -0.3030  0.1296 -0.5692
 1810SOL    HW116892   1.126   2.869   2.396  2.1188  1.3139 -1.1197
 1810SOL    HW216893   1.187   2.899   2.525  0.0182  0.7063 -1.4872
 1811SOL     OW16894   2.085   2.885   6.951  0.3804  0.2372 -0.7862
 1811SOL    HW116895   2.123   2.799   6.932 -0.9436 -0.3078 -0.9143
 1811SOL    HW216896   2.076   2.916   6.860 -0.0189 -3.1287 -1.8832
 1812SOL     OW16897   3.999   2.633  13.961  0.0096  0.2443 -0.0339
 1812SOL    HW116898   3.975   2.688  14.035  0.3544 -3.7935  3.0862
 1812SOL    HW216899   4.087   2.663  13.940  0.7197 -3.1779 -2.0600
 1813SOL     OW16900   3.730   0.281   8.429  0.3411 -0.9617  0.0722
 1813SOL    HW116901   3.811   0.281   8.378  0.2769 -1.1292 -0.0307
 1813SOL    HW216902   3.666   0.278   8.358  1.0881 -1.8033 -0.5592
 1814SOL     OW16903   2.673   2.159   4.953 -0.2742  0.4527  0.4679
 1814SOL    HW116904   2.619   2.178   5.029  0.4200 -0.1569  1.1099
 1814SOL    HW216905   2.616   2.104   4.898 -0.2143 -0.7180  1.5749
 1815SOL     OW16906   3.890   0.454   4.668 -0.5956  0.0845  0.3872
 1815SOL    HW116907   3.897   0.408   4.584 -1.0750  0.1095  0.3336
 1815SOL    HW216908   3.918   0.543   4.643 -2.6761  0.3003 -1.1606
 1816SOL     OW16909   0.323   3.425  14.846  0.3487  0.3943 -0.0611
 1816SOL    HW116910   0.372   3.459  14.771 -1.1875  2.0734 -0.3100
 1816SOL    HW216911   0.285   3.344  14.814  0.8683  0.1033  0.0643
 1817SOL     OW16912   4.495   1.834   8.666  0.7243  0.1715 -0.0030
 1817SOL    HW116913   4.573   1.827   8.722  0.9856  0.0648 -0.3800
 1817SOL    HW216914   4.430   1.835   8.736  0.7604 -0.5338  0.0399
 1818SOL     OW16915   0.868   2.537  16.112 -0.1465 -0.4403  0.2508
 1818SOL    HW116916   0.898   2.582  16.033  1.2661 -0.5579  0.7230
 1818SOL    HW216917   0.917   2.590  16.175  0.1233 -1.7119  1.1209
 1819SOL     OW16918   2.312   0.404   2.190  0.3159 -0.6102  0.1318
 1819SOL    HW116919   2.245   0.364   2.246 -0.8508  0.2358 -0.6370
 1819SOL    HW216920   2.291   0.357   2.109  2.3038 -0.3815 -0.5054
 1820SOL     OW16921   3.651   3.467   5.267 -0.8915  0.0295 -0.2414
 1820SOL    HW116922   3.733   3.418   5.266 -0.8253  0.1424 -0.3512
 1820SOL    HW216923   3.692   3.537   5.318  0.1200 -1.0984  0.5129
 1821SOL     OW16924   0.065   1.559   4.096 -0.3198  0.1454 -0.0261
 1821SOL    HW116925   0.134   1.604   4.144 -0.3374 -0.4180  0.5303
 1821SOL    HW216926   0.068   1.596   4.008 -2.1507 -0.8263 -0.5068
 1822SOL     OW16927   2.476   1.741  13.919  0.4434 -0.1931  0.3335
 1822SOL    HW116928   2.436   1.668  13.872  1.3994 -0.9147  0.6402
 1822SOL    HW216929   2.405   1.786  13.966 -1.7580 -1.0618 -2.1810
 1823SOL     OW16930   4.653   1.396   5.995  0.3441 -0.0279 -0.3275
 1823SOL    HW116931   0.019   1.416   5.994  0.2341  0.5190  0.4210
 1823SOL    HW216932   4.625   1.431   6.080 -0.3339 -2.5081  0.4931
 1824SOL     OW16933   2.674   3.159  11.119  0.4160  0.5313  0.0605
 1824SOL    HW116934   2.616   3.120  11.054 -0.4355 -1.7784  2.1739
 1824SOL    HW216935   2.698   3.245  11.084 -1.6103  1.3831  0.8129
 1825SOL     OW16936   3.670   3.103  11.038 -0.0517 -0.2351 -0.4918
 1825SOL    HW116937   3.625   3.028  11.076  0.6592  0.0392  0.8845
 1825SOL    HW216938   3.727   3.131  11.110 -0.6029 -0.5811  0.0761
 1826SOL     OW16939   0.144   2.726   5.371 -0.5376 -0.0405 -0.0218
 1826SOL    HW116940   0.131   2.714   5.465 -0.3886  1.4879  0.1852
 1826SOL    HW216941   0.195   2.807   5.372  0.8013 -0.8796  0.0980
 1827SOL     OW16942   1.554   1.608   9.664  0.2342  0.2648  0.1426
 1827SOL    HW116943   1.614   1.581   9.594  1.6121 -0.4394  1.5990
 1827SOL    HW216944   1.493   1.658   9.610 -0.3749 -0.0329  0.5523
 1828SOL     OW16945   2.205   4.041   9.038 -0.6875 -0.2036  0.5623
 1828SOL    HW116946   2.250   4.110   9.087 -0.4609 -0.6620  0.9999
 1828SOL    HW216947   2.118   4.079   9.051 -0.5700 -0.2559  1.4844
 1829SOL     OW16948   2.171   4.400  12.494  0.1445  0.2150 -0.3314
 1829SOL    HW116949   2.139   4.320  12.452 -0.9398 -0.5685  2.0009
 1829SOL    HW216950   2.164   4.367  12.583 -0.3721 -0.5548 -0.6606
 1830SOL     OW16951   3.389   2.573   0.823 -0.6128  0.2477  0.5437
 1830SOL    HW116952   3.296   2.553   0.812  0.4220 -2.3835 -3.6719
 1830SOL    HW216953   3.424   2.576   0.734  1.4629  1.3437  1.3967
 1831SOL     OW16954   2.413   1.771   6.217  0.0911  0.0987 -0.2141
 1831SOL    HW116955   2.374   1.808   6.296 -2.1745  2.0987 -2.2641
 1831SOL    HW216956   2.506   1.795   6.222 -0.7302  3.0962  0.7938
 1832SOL     OW16957   0.658   2.006   2.634 -0.5194 -0.0090 -0.0808
 1832SOL    HW116958   0.691   2.095   2.651  0.8872 -0.5826  0.1516
 1832SOL    HW216959   0.725   1.953   2.677 -0.7268  0.7374  1.1985
 1833SOL     OW16960   1.181   1.197   5.185 -0.0647 -0.3681  0.1144
 1833SOL    HW116961   1.153   1.289   5.185 -1.3064 -0.7418 -1.2861
 1833SOL    HW216962   1.101   1.156   5.152 -0.2955  0.4845 -0.3866
 1834SOL     OW16963   3.284   4.343   7.483 -0.8800  0.3519 -1.0052
 1834SOL    HW116964   3.317   4.256   7.461  0.9833  0.7851  0.1385
 1834SOL    HW216965   3.246   4.377   7.401 -0.1164  0.6187 -1.2450
 1835SOL     OW16966   2.013   0.356   5.009 -0.0361 -0.5344 -0.4300
 1835SOL    HW116967   2.021   0.450   4.995  0.5634 -0.1090  2.6678
 1835SOL    HW216968   1.934   0.338   4.958 -0.8599  1.9968 -0.0394
 1836SOL     OW16969   1.984   0.352  15.420 -0.6220  0.6228 -0.0281
 1836SOL    HW116970   2.067   0.396  15.400  1.0659 -1.9811  1.1443
 1836SOL    HW216971   1.980   0.298  15.341 -0.7985 -0.7151  0.8977
 1837SOL     OW16972   1.915   0.046   2.809  0.3192 -0.1776 -0.2031
 1837SOL    HW116973   1.857   0.016   2.880  0.2566  0.5784  0.0588
 1837SOL    HW216974   1.952   4.688   2.787  1.5626  0.5129 -0.7938
 1838SOL     OW16975   1.138   1.091   7.856  0.0436 -0.0683 -0.0276
 1838SOL    HW116976   1.084   1.170   7.858  0.5948  0.2770  0.7503
 1838SOL    HW216977   1.157   1.076   7.948 -1.8665 -1.2563  0.1654
 1839SOL     OW16978   0.282   3.048   9.805  0.3825  0.2861 -0.1168
 1839SOL    HW116979   0.204   3.044   9.750  0.1711  1.9732  0.0799
 1839SOL    HW216980   0.323   3.130   9.780  2.9460 -1.4195 -1.5185
 1840SOL     OW16981   1.316   1.910   8.102 -0.4631  0.1616 -0.1145
 1840SOL    HW116982   1.375   1.837   8.083  1.2600  1.2203  1.3384
 1840SOL    HW216983   1.322   1.904   8.197  1.3981 -0.8626 -0.2975
 1841SOL     OW16984   3.904   4.164   4.220  0.2126  0.2623 -0.2525
 1841SOL    HW116985   3.853   4.205   4.290  0.7110 -0.9668  0.8353
 1841SOL    HW216986   3.952   4.097   4.269  1.3255  1.4623  0.3267
 1842SOL     OW16987   1.031   3.305  11.499  0.2018 -0.3510  0.1528
 1842SOL    HW116988   0.955   3.299  11.442 -0.3157  0.0077  0.7975
 1842SOL    HW216989   1.100   3.330  11.438 -1.5402  0.8362 -1.3237
 1843SOL     OW16990   1.558   1.168   3.731 -0.3706 -0.3914  0.3296
 1843SOL    HW116991   1.515   1.235   3.784  1.3184 -0.4312  1.7051
 1843SOL    HW216992   1.624   1.150   3.797  1.4265  1.6594 -0.8814
 1844SOL     OW16993   3.304   0.799   3.516  0.8561 -0.0535 -0.2785
 1844SOL    HW116994   3.352   0.848   3.583  0.5183 -0.7077  0.4463
 1844SOL    HW216995   3.220   0.782   3.558  1.3413  0.0559  0.7341
 1845SOL     OW16996   3.772   1.214  11.121 -0.0041  0.2894  0.0414
 1845SOL    HW116997   3.826   1.136  11.137 -0.3843 -0.0142 -0.1509
 1845SOL    HW216998   3.805   1.270  11.191  0.8525  0.7836 -0.7539
 1846SOL     OW16999   1.917   4.331   5.377  0.2529  0.3952 -0.7276
 1846SOL    HW117000   1.885   4.346   5.288 -2.5797 -0.6490  0.1195
 1846SOL    HW217001   1.899   4.237   5.386 -2.0358  0.7075 -1.9073
 1847SOL     OW17002   2.771   0.453   9.311  0.2014  0.2717 -0.0625
 1847SOL    HW117003   2.697   0.396   9.291  0.1579 -0.1512  1.3490
 1847SOL    HW217004   2.821   0.397   9.370 -0.8018  0.2171  0.7267
 1848SOL     OW17005   1.326   0.434   6.543 -0.2938 -0.1319  0.0847
 1848SOL    HW117006   1.272   0.430   6.622 -0.0860 -0.1369  0.2249
 1848SOL    HW217007   1.301   0.352   6.501 -1.7631  0.3518  0.0076
 1849SOL     OW17008   0.285   1.137  17.033  0.1103  0.9892  0.3768
 1849SOL    HW117009   0.237   1.188  16.968  1.5357  1.7556 -0.0892
 1849SOL    HW217010   0.209   1.095  17.072  0.1407 -1.6130 -2.3376
 1850SOL     OW17011   3.968   0.472   7.946 -0.0505 -0.0247 -0.4598
 1850SOL    HW117012   3.927   0.552   7.913  1.9772  0.8817 -0.7980
 1850SOL    HW217013   3.890   0.417   7.954 -0.4812  0.7734  0.8142
 1851SOL     OW17014   3.870   4.316  11.894 -0.4022  0.2574  0.1657
 1851SOL    HW117015   3.936   4.308  11.963 -2.0262 -2.5717  1.4032
 1851SOL    HW217016   3.880   4.406  11.865 -3.0599  0.9611  1.4471
 1852SOL     OW17017   1.316   3.197   6.051  0.3450 -0.4797 -0.3152
 1852SOL    HW117018   1.236   3.179   6.001 -0.1299 -1.1959  0.7123
 1852SOL    HW217019   1.378   3.223   5.983  1.3036 -0.4151  0.5861
 1853SOL     OW17020   2.642   4.113   6.760 -0.1458 -0.4470 -0.6972
 1853SOL    HW117021   2.592   4.046   6.807  1.9233 -0.2805  1.7687
 1853SOL    HW217022   2.574   4.169   6.723  0.6041  0.6177 -0.4588
 1854SOL     OW17023   0.408   4.284   8.367  0.1984  0.0651 -0.1921
 1854SOL    HW117024   0.423   4.304   8.459 -0.4052  1.2677 -0.3616
 1854SOL    HW217025   0.499   4.274   8.340  0.0879  0.2849 -0.6500
 1855SOL     OW17026   0.465   2.417   7.640  0.1440 -0.2843 -0.2714
 1855SOL    HW117027   0.386   2.382   7.681 -0.1209  0.5154 -0.0940
 1855SOL    HW217028   0.468   2.365   7.560  3.5613 -0.0325 -0.2970
 1856SOL     OW17029   0.996   3.566   0.913 -0.5023  0.0815 -0.1492
 1856SOL    HW117030   1.005   3.650   0.869  2.9133 -0.0734  0.2951
 1856SOL    HW217031   0.908   3.580   0.949 -1.4408 -1.5368 -1.7850
 1857SOL     OW17032   4.065   0.416   1.632  0.1071  0.7417  0.2260
 1857SOL    HW117033   4.058   0.407   1.727 -0.0401 -1.1277  0.0540
 1857SOL    HW217034   4.107   0.333   1.607 -0.7515  0.2397  0.4228
 1858SOL     OW17035   4.083   2.854   4.926  0.0174  0.0324  0.5574
 1858SOL    HW117036   4.178   2.842   4.926 -0.1085 -1.0060  0.5039
 1858SOL    HW217037   4.064   2.809   5.009 -1.6983  0.9516  0.6615
 1859SOL     OW17038   3.369   3.402   3.893  0.0145  0.0672 -0.3140
 1859SOL    HW117039   3.384   3.384   3.986  2.1345  0.0256 -0.6656
 1859SOL    HW217040   3.381   3.496   3.901 -0.6251 -0.0160  1.6179
 1860SOL     OW17041   1.894   3.738   5.281 -0.7938 -0.2387  0.6544
 1860SOL    HW117042   1.822   3.731   5.218 -0.1924  0.5800 -0.1414
 1860SOL    HW217043   1.877   3.824   5.319  0.1533 -0.5086  1.6648
 1861SOL     OW17044   1.978   0.673   7.332  0.2193  0.3540 -0.2788
 1861SOL    HW117045   1.995   0.697   7.423  0.1694 -0.6964  0.0074
 1861SOL    HW217046   2.040   0.733   7.290  0.1176  0.9509  0.4281
 1862SOL     OW17047   4.050   0.477  17.249  0.0482 -0.1234 -0.5836
 1862SOL    HW117048   3.982   0.465  17.183  0.8154 -1.9353 -1.0494
 1862SOL    HW217049   4.010   0.436  17.325 -1.0837  0.1622 -1.0339
 1863SOL     OW17050   2.432   2.785  13.265  0.1019  0.1693 -0.4584
 1863SOL    HW117051   2.372   2.841  13.313  1.3953  1.1189  0.0618
 1863SOL    HW217052   2.369   2.715  13.248 -0.5458  0.2832  1.4340
 1864SOL     OW17053   2.341   3.889   2.567 -0.5671 -0.5603  0.0787
 1864SOL    HW117054   2.428   3.855   2.545 -0.6261 -1.6603  1.5696
 1864SOL    HW217055   2.320   3.864   2.657  2.5997 -0.4249  0.8774
 1865SOL     OW17056   0.630   4.252  14.220  0.0739 -0.6078  0.1651
 1865SOL    HW117057   0.647   4.158  14.221  0.7120 -0.4905  0.5136
 1865SOL    HW217058   0.574   4.249  14.298 -1.6356  2.1335 -0.9637
 1866SOL     OW17059   2.131   4.676   7.098 -0.3734 -0.4871 -0.3372
 1866SOL    HW117060   2.192   0.007   7.142 -0.3705 -1.9772  1.6359
 1866SOL    HW217061   2.153   4.686   7.006  0.1583 -2.4584 -0.4064
 1867SOL     OW17062   0.136   2.361   8.390 -0.1720 -0.1611  0.0026
 1867SOL    HW117063   0.075   2.318   8.449 -1.9152  0.0182 -1.6584
 1867SOL    HW217064   0.144   2.450   8.425 -0.8922 -1.0608  2.4439
 1868SOL     OW17065   3.054   0.308   1.600  0.3749  0.0493  0.3057
 1868SOL    HW117066   3.148   0.290   1.598  0.3419 -0.2395  1.3904
 1868SOL    HW217067   3.046   0.401   1.578 -0.1442 -0.1844 -0.4876
 1869SOL     OW17068   4.070   3.754   8.641 -0.4828 -0.2555 -0.2291
 1869SOL    HW117069   4.035   3.733   8.555 -0.3500  0.7789 -0.5329
 1869SOL    HW217070   4.078   3.664   8.672  0.2387  0.2184  0.9693
 1870SOL     OW17071   0.648   0.709   7.067 -0.2604  0.8416  0.7158
 1870SOL    HW117072   0.611   0.773   7.128 -2.1303  0.1893  0.2572
 1870SOL    HW217073   0.693   0.650   7.128  0.1630 -0.1541 -0.5669
 1871SOL     OW17074   2.441   1.935   4.001  0.4828  0.2303 -0.6251
 1871SOL    HW117075   2.497   1.989   3.944  0.4342  1.0155  0.0717
 1871SOL    HW217076   2.509   1.900   4.059  0.9195  0.2914 -1.1013
 1872SOL     OW17077   2.370   0.071  13.152 -0.2623  0.4162  0.4472
 1872SOL    HW117078   2.389   0.137  13.085 -0.0064 -0.7580 -0.6579
 1872SOL    HW217079   2.335   0.005  13.092  0.2349  0.9940 -0.4994
 1873SOL     OW17080   1.445   2.575   5.710 -0.0435 -0.4538 -0.4090
 1873SOL    HW117081   1.369   2.632   5.701 -0.3946 -1.1688 -1.9003
 1873SOL    HW217082   1.420   2.485   5.693 -0.2513 -0.6886  1.1301
 1874SOL     OW17083   0.937   3.185  13.408 -0.3437  0.1540  0.0598
 1874SOL    HW117084   0.918   3.254  13.472 -2.3813 -0.0550 -0.3443
 1874SOL    HW217085   0.901   3.105  13.447 -0.7223  1.1228  1.6635
 1875SOL     OW17086   1.821   2.212   3.222 -0.1803  0.6695 -0.4994
 1875SOL    HW117087   1.821   2.298   3.264 -0.7824  1.1603 -1.5038
 1875SOL    HW217088   1.911   2.223   3.190 -0.0104  1.2635  0.1785
 1876SOL     OW17089   3.663   3.169   4.277  0.1251  0.9205  0.1838
 1876SOL    HW117090   3.665   3.238   4.343  1.0282 -0.5654  1.7074
 1876SOL    HW217091   3.661   3.090   4.332  0.5569  1.8525  1.5518
 1877SOL     OW17092   0.679   3.651   4.971  0.6071 -0.8227  0.2365
 1877SOL    HW117093   0.731   3.577   4.938 -2.5408 -2.9672  0.0863
 1877SOL    HW217094   0.621   3.678   4.900  0.7102 -1.3943 -0.0689
 1878SOL     OW17095   1.036   0.367   2.575  0.0287  0.5421 -0.5162
 1878SOL    HW117096   1.122   0.406   2.585  0.4083  0.2500 -2.5847
 1878SOL    HW217097   1.044   0.287   2.626  2.6284  0.9488 -0.3154
 1879SOL     OW17098   4.542   4.378  14.365  0.2250 -0.0484  0.1074
 1879SOL    HW117099   4.514   4.288  14.349  0.3098 -0.3379  1.6477
 1879SOL    HW217100   4.619   4.359  14.311  0.3111  0.4764  0.0451
 1880SOL     OW17101   2.053   1.788   2.532 -0.0456 -0.2641 -0.3369
 1880SOL    HW117102   2.055   1.706   2.484  1.0483  0.1124 -0.9379
 1880SOL    HW217103   2.001   1.841   2.471 -1.5537  0.3317  1.4559
 1881SOL     OW17104   4.243   1.708   7.710  0.0432  0.2937  0.1384
 1881SOL    HW117105   4.259   1.663   7.628 -1.7173 -0.8870  0.4343
 1881SOL    HW217106   4.218   1.632   7.763 -0.0300  2.8057  3.7154
 1882SOL     OW17107   4.594   2.504   3.920 -0.4334  0.0453 -0.3524
 1882SOL    HW117108   4.582   2.595   3.893  0.8535  0.2570 -0.1945
 1882SOL    HW217109   4.645   2.466   3.849 -1.8693 -1.6309 -0.5018
 1883SOL     OW17110   0.975   0.703  16.823 -0.5864  0.8755 -0.2709
 1883SOL    HW117111   0.999   0.713  16.915 -1.9560  0.2320  0.1727
 1883SOL    HW217112   0.892   0.751  16.828 -1.5391 -0.8009  0.1237
 1884SOL     OW17113   1.534   1.299   1.615  0.0692 -0.4592 -0.3114
 1884SOL    HW117114   1.447   1.319   1.580  0.0318 -3.2163 -1.7944
 1884SOL    HW217115   1.530   1.348   1.697  0.8535 -0.8168 -0.0699
 1885SOL     OW17116   3.908   0.397   4.935  0.0285  0.2933  0.3855
 1885SOL    HW117117   3.904   0.437   4.848 -0.7759  0.9119  0.7098
 1885SOL    HW217118   3.991   0.437   4.959 -0.6946  1.7547  0.4547
 1886SOL     OW17119   0.513   4.585   4.671  0.8040 -0.1589  0.3047
 1886SOL    HW117120   0.537   4.493   4.657 -0.5241 -0.2833 -1.1321
 1886SOL    HW217121   0.424   4.589   4.705  0.3281  0.9406 -1.0632
 1887SOL     OW17122   0.814   1.148  10.837 -0.2694  0.3905  0.1491
 1887SOL    HW117123   0.846   1.105  10.916 -1.0442 -1.7931 -0.7268
 1887SOL    HW217124   0.871   1.225  10.839 -0.9926  0.9650 -1.4751
 1888SOL     OW17125   0.892   0.972   7.167  0.8636  0.8924  0.1258
 1888SOL    HW117126   0.902   0.980   7.262 -1.9974  0.6908  0.4284
 1888SOL    HW217127   0.981   0.957   7.134  1.3782 -1.0711  2.4487
 1889SOL     OW17128   2.967   3.817   0.373 -0.6109  0.3481  0.3483
 1889SOL    HW117129   2.989   3.761   0.448 -1.0101 -0.7683 -0.3548
 1889SOL    HW217130   2.909   3.879   0.416 -0.4415  1.0670 -0.4557
 1890SOL     OW17131   3.673   2.206   8.874 -0.0454 -0.1931 -0.1063
 1890SOL    HW117132   3.640   2.263   8.944 -1.4434 -1.6079  0.3887
 1890SOL    HW217133   3.757   2.194   8.919  0.1655  0.4219 -0.3339
 1891SOL     OW17134   2.220   4.378   2.399  0.0109  0.6124 -0.0132
 1891SOL    HW117135   2.153   4.334   2.347  1.6828 -2.5483  0.4928
 1891SOL    HW217136   2.242   4.305   2.457  1.0323  0.7980 -0.1653
 1892SOL     OW17137   3.222   0.238   5.992  0.1191 -0.3584  0.1549
 1892SOL    HW117138   3.297   0.258   6.047  0.2835 -2.0034  0.5072
 1892SOL    HW217139   3.151   0.210   6.050 -1.3921  1.5087 -0.7626
 1893SOL     OW17140   0.956   4.687  12.916  1.0333 -0.1035 -0.4294
 1893SOL    HW117141   0.996   0.045  12.907  1.8154 -0.1839  2.1000
 1893SOL    HW217142   0.963   4.644  12.831 -0.9539 -0.6923 -0.3034
 1894SOL     OW17143   0.959   1.081   8.369 -0.3305 -0.1758 -0.4455
 1894SOL    HW117144   1.048   1.116   8.377 -0.4116 -0.1248  0.2304
 1894SOL    HW217145   0.944   1.035   8.452  0.6548  2.3102  1.1271
 1895SOL     OW17146   4.225   3.165   4.966 -0.2603  0.6522 -0.3064
 1895SOL    HW117147   4.249   3.092   5.023  1.9155  2.7511  1.4915
 1895SOL    HW217148   4.305   3.180   4.915 -0.4552 -0.4497 -0.9449
 1896SOL     OW17149   4.077   2.542   2.037 -0.2444 -0.0426  0.1085
 1896SOL    HW117150   4.166   2.534   2.003  0.4320  1.1653  1.5733
 1896SOL    HW217151   4.073   2.515   2.129 -1.0645  1.4757  0.5229
 1897SOL     OW17152   2.073   3.963  13.242  0.4037 -0.4241  0.2624
 1897SOL    HW117153   2.167   3.973  13.258 -0.0755  0.0888  2.6851
 1897SOL    HW217154   2.073   3.867  13.239  0.0858 -0.3797 -1.3437
 1898SOL     OW17155   4.236   1.806  15.037 -0.5717  0.9450  0.6261
 1898SOL    HW117156   4.308   1.800  15.100  0.7578  1.0446 -0.8954
 1898SOL    HW217157   4.254   1.727  14.986 -0.0804  0.9966  0.7217
 1899SOL     OW17158   0.367   1.088  10.423 -0.6830  0.1061  0.1269
 1899SOL    HW117159   0.379   1.008  10.474  1.8254  0.4710  0.0761
 1899SOL    HW217160   0.437   1.072  10.360  1.2666  1.2870  2.0392
 1900SOL     OW17161   4.136   0.080   3.610 -0.0904  0.2147  0.4417
 1900SOL    HW117162   4.056   0.064   3.561  0.2427  2.8183 -0.9557
 1900SOL    HW217163   4.131   0.011   3.676  0.4457 -0.4604 -0.2437
 1901SOL     OW17164   2.484   2.237   8.780  0.1075 -0.0025  0.4101
 1901SOL    HW117165   2.569   2.280   8.772 -0.1882  1.0408  2.7368
 1901SOL    HW217166   2.491   2.194   8.866 -0.2080  0.2457  0.5573
 1902SOL     OW17167   2.548   4.137   3.026  0.6501  0.2394 -0.2380
 1902SOL    HW117168   2.540   4.209   3.088 -0.1682  0.4616 -0.5961
 1902SOL    HW217169   2.641   4.117   3.032  0.9939  1.7569 -0.5567
 1903SOL     OW17170   2.948   3.262   9.208  0.2662 -0.6033  0.2312
 1903SOL    HW117171   2.903   3.182   9.235 -1.5778 -0.1323 -1.4595
 1903SOL    HW217172   2.990   3.226   9.130  0.4484 -0.2148  0.1514
 1904SOL     OW17173   0.669   2.731  16.313 -0.1107 -0.7799  0.0114
 1904SOL    HW117174   0.728   2.682  16.370 -0.7585  1.7334  2.8672
 1904SOL    HW217175   0.626   2.661  16.264  0.6807 -0.0635 -1.6795
 1905SOL     OW17176   3.988   1.342   4.296 -0.2213  0.0880 -0.2524
 1905SOL    HW117177   4.070   1.390   4.309  1.4473 -2.2505 -1.9987
 1905SOL    HW217178   3.935   1.420   4.307 -1.3430 -0.9504  1.7849
 1906SOL     OW17179   4.562   3.844   0.729  0.5457 -0.3440  0.1152
 1906SOL    HW117180   4.536   3.927   0.768 -1.8465 -1.7826  1.6133
 1906SOL    HW217181   4.645   3.877   0.695 -0.4187  0.0270 -1.8646
 1907SOL     OW17182   1.366   0.803   2.914 -0.3264 -0.3442  0.1216
 1907SOL    HW117183   1.322   0.859   2.979 -1.0903 -1.2887  0.4139
 1907SOL    HW217184   1.315   0.725   2.934 -3.4513  2.1194  1.8807
 1908SOL     OW17185   1.264   2.765   6.027 -0.1800 -0.4026 -0.2426
 1908SOL    HW117186   1.323   2.690   6.037  0.4702 -0.0644 -1.5910
 1908SOL    HW217187   1.234   2.774   6.118  1.5268 -1.6153  0.4572
 1909SOL     OW17188   1.038   2.249   2.952 -0.1592 -0.8820 -0.4330
 1909SOL    HW117189   0.988   2.323   2.986  2.2188 -0.1484  1.5102
 1909SOL    HW217190   1.082   2.283   2.874  0.6163 -1.2561 -0.1565
 1910SOL     OW17191   1.757   1.450  16.575  0.4607  0.5155  0.2473
 1910SOL    HW117192   1.671   1.431  16.613  0.5491  0.4240  0.4029
 1910SOL    HW217193   1.809   1.390  16.628  0.7799  1.4544  0.9920
 1911SOL     OW17194   1.683   0.303   2.178  0.0983 -0.2598 -0.1062
 1911SOL    HW117195   1.670   0.395   2.155 -0.3921  0.2823  2.2931
 1911SOL    HW217196   1.735   0.310   2.258 -1.1393  2.1169  0.5018
 1912SOL     OW17197   2.597   1.864  11.826 -0.2028  0.7174  0.2943
 1912SOL    HW117198   2.627   1.902  11.908  0.3629 -0.0506  0.4481
 1912SOL    HW217199   2.512   1.830  11.852 -0.0163  0.2709  0.3268
 1913SOL     OW17200   3.115   0.343   4.771  0.6775  0.6079 -0.6966
 1913SOL    HW117201   3.084   0.433   4.760 -0.2335  0.3984  0.1596
 1913SOL    HW217202   3.083   0.325   4.859  0.3800 -1.0177 -1.1347
 1914SOL     OW17203   4.336   3.638   6.858 -0.4512 -0.2694 -0.2906
 1914SOL    HW117204   4.270   3.691   6.904  0.5373 -0.7283  1.6534
 1914SOL    HW217205   4.330   3.556   6.907  1.0646 -1.1540 -1.6172
 1915SOL     OW17206   3.146   3.336   3.773  0.1254  0.1693  0.1294
 1915SOL    HW117207   3.217   3.379   3.821  0.7528 -0.5565 -0.1369
 1915SOL    HW217208   3.174   3.326   3.682  1.0017  0.4398  0.3661
 1916SOL     OW17209   3.889   3.716  11.464 -0.2703  0.4826  0.3592
 1916SOL    HW117210   3.919   3.625  11.464  1.9669  1.2249  0.0690
 1916SOL    HW217211   3.926   3.754  11.544  2.2616 -0.5738 -0.2961
 1917SOL     OW17212   3.695   0.048   8.848 -0.0422 -0.3376  0.0170
 1917SOL    HW117213   3.670   0.130   8.807  2.2885  0.7432  0.7559
 1917SOL    HW217214   3.774   0.071   8.897 -0.3919 -1.0727  0.9268
 1918SOL     OW17215   0.034   2.227  14.642  0.0041  0.1597 -0.2775
 1918SOL    HW117216   0.079   2.311  14.636 -0.0690  0.1925 -0.3695
 1918SOL    HW217217   0.014   2.224  14.736 -3.3383  1.9299 -0.9183
 1919SOL     OW17218   2.160   0.585   8.050  0.0290 -0.2376 -0.5680
 1919SOL    HW117219   2.129   0.556   8.136 -1.0066  2.7571  0.0850
 1919SOL    HW217220   2.078   0.596   8.002 -0.0773 -0.4176 -0.4246
 1920SOL     OW17221   4.113   1.707   5.061  0.1399 -0.1797 -0.3938
 1920SOL    HW117222   4.131   1.759   4.983  0.6588 -1.4043 -1.0803
 1920SOL    HW217223   4.087   1.618   5.035 -1.4040  0.6522 -1.7436
 1921SOL     OW17224   2.029   3.706   0.465  0.0020 -0.1175 -0.7771
 1921SOL    HW117225   1.965   3.730   0.397 -0.6523 -1.0030 -0.4732
 1921SOL    HW217226   2.106   3.762   0.464 -0.9691  1.2189 -1.3208
 1922SOL     OW17227   2.570   3.187   7.702 -0.2177 -0.0523  0.1279
 1922SOL    HW117228   2.550   3.176   7.609  1.7001  0.0969 -0.3016
 1922SOL    HW217229   2.519   3.123   7.750  0.3370 -1.6913 -1.4618
 1923SOL     OW17230   2.006   4.458   5.604  0.7207  0.8672  0.1016
 1923SOL    HW117231   2.021   4.412   5.522 -1.5324 -0.5897  0.5042
 1923SOL    HW217232   1.913   4.437   5.616  0.0494  3.0954 -1.2623
 1924SOL     OW17233   3.179   2.245   6.689  0.1108  0.0806 -0.0858
 1924SOL    HW117234   3.248   2.193   6.649 -0.6426  0.0384 -1.3284
 1924SOL    HW217235   3.160   2.183   6.759  1.0714  3.2079  2.9784
 1925SOL     OW17236   2.785   1.352   2.955  0.3592 -0.1445 -0.1341
 1925SOL    HW117237   2.869   1.362   2.999 -1.1810  1.4108  2.4421
 1925SOL    HW217238   2.725   1.397   3.014  2.1779  0.3759  1.2900
 1926SOL     OW17239   1.643   1.741  11.431 -0.2735  0.9454 -0.5082
 1926SOL    HW117240   1.651   1.696  11.515  0.6784  0.4225 -0.8788
 1926SOL    HW217241   1.567   1.797  11.445 -0.4091  0.4053  0.7937
 1927SOL     OW17242   3.227   2.958   2.841  0.4465 -0.1376 -0.4782
 1927SOL    HW117243   3.322   2.949   2.850  0.0857 -2.4902  1.0827
 1927SOL    HW217244   3.201   2.964   2.933  1.4550  0.8125 -0.2448
 1928SOL     OW17245   3.350   3.633  14.764  0.7154 -0.0078  0.0727
 1928SOL    HW117246   3.444   3.643  14.774  1.0666 -1.5127 -1.5793
 1928SOL    HW217247   3.326   3.648  14.855 -2.2050 -2.1342 -0.3300
 1929SOL     OW17248   2.434   3.974  14.054 -0.1993 -0.2373 -0.8394
 1929SOL    HW117249   2.372   3.990  14.125  0.0336 -1.4501 -0.3619
 1929SOL    HW217250   2.486   4.053  14.048  1.6997 -1.4381 -0.0515
 1930SOL     OW17251   0.307   0.069   2.407  0.0123  0.1854 -0.6796
 1930SOL    HW117252   0.219   0.038   2.385 -0.1557 -0.4216  0.8377
 1930SOL    HW217253   0.312   0.163   2.392 -0.7022  0.5779  1.5985
 1931SOL     OW17254   2.266   2.352   1.950  0.5367  0.1971  0.0271
 1931SOL    HW117255   2.212   2.353   2.029  0.4280  0.6370 -0.0506
 1931SOL    HW217256   2.233   2.431   1.907  1.1984  0.3796 -0.1497
 1932SOL     OW17257   0.140   0.553  14.183 -0.4202 -0.6899  0.3179
 1932SOL    HW117258   0.208   0.620  14.190 -0.2724 -0.6464 -1.4421
 1932SOL    HW217259   0.086   0.608  14.126  1.5178 -0.0173 -0.8824
 1933SOL     OW17260   2.504   3.356   9.521 -0.0795  0.3888 -0.3782
 1933SOL    HW117261   2.475   3.447   9.529 -1.2138  0.1609 -1.7885
 1933SOL    HW217262   2.593   3.377   9.492  0.9128  1.4311  3.4727
 1934SOL     OW17263   3.183   1.816   8.112  0.5739 -0.9894 -0.3643
 1934SOL    HW117264   3.261   1.871   8.121 -1.4197  1.4556  2.0791
 1934SOL    HW217265   3.204   1.771   8.031  0.5160 -0.7286 -0.5259
 1935SOL     OW17266   3.796   4.461  16.900  0.3105 -0.0963 -0.3125
 1935SOL    HW117267   3.736   4.492  16.832  0.3251  0.4106 -0.0924
 1935SOL    HW217268   3.799   4.548  16.940  3.3558 -0.8023  0.9755
 1936SOL     OW17269   2.117   4.087  12.088 -0.7193 -0.3569 -0.0073
 1936SOL    HW117270   2.055   4.133  12.030 -1.4270  1.4669  2.2301
 1936SOL    HW217271   2.200   4.082  12.040 -0.2408 -0.1405  0.8186
 1937SOL     OW17272   3.189   3.177   5.402 -0.3104  0.6101  0.0511
 1937SOL    HW117273   3.258   3.173   5.336 -0.1734  2.1065  0.1120
 1937SOL    HW217274   3.147   3.258   5.372 -0.5011  0.4993  0.0179
 1938SOL     OW17275   1.237   2.155   6.280 -0.1433 -0.1121 -0.3115
 1938SOL    HW117276   1.188   2.105   6.215  0.2814 -0.2594 -0.5214
 1938SOL    HW217277   1.171   2.189   6.340 -0.6455 -0.7742 -0.4855
 1939SOL     OW17278   4.238   2.696  13.901 -0.3993 -0.1674 -0.2511
 1939SOL    HW117279   4.253   2.791  13.897 -0.0601 -0.1598  1.0593
 1939SOL    HW217280   4.255   2.675  13.810 -0.4803  0.2744 -0.3679
 1940SOL     OW17281   4.655   3.893   5.662 -0.8366  0.3174 -0.0782
 1940SOL    HW117282   4.673   3.847   5.744 -0.8886 -0.2057 -0.3606
 1940SOL    HW217283   4.572   3.856   5.632 -1.2502  0.1364  1.2835
 1941SOL     OW17284   2.223   0.659   5.095 -0.1997 -0.4583  0.6317
 1941SOL    HW117285   2.271   0.588   5.136  2.1521  0.4807 -0.5197
 1941SOL    HW217286   2.143   0.647   5.147 -0.2709 -2.3615  0.0680
 1942SOL     OW17287   0.097   4.129   4.655 -0.2899 -0.1673  0.0199
 1942SOL    HW117288   0.140   4.213   4.669 -0.8446 -0.3295  2.6054
 1942SOL    HW217289   0.006   4.160   4.652 -0.0804  0.5542  1.1901
 1943SOL     OW17290   0.301   0.499   4.192  0.3610  0.4892  0.0623
 1943SOL    HW117291   0.366   0.431   4.176  1.4209  1.5371 -0.0722
 1943SOL    HW217292   0.333   0.569   4.135  0.9937 -0.3142 -0.5542
 1944SOL     OW17293   3.551   1.398  11.059 -0.8215  0.0015 -0.3113
 1944SOL    HW117294   3.612   1.333  11.094  0.8629  2.2902  1.0923
 1944SOL    HW217295   3.465   1.369  11.087 -1.3089  0.9367 -0.8412
 1945SOL     OW17296   4.096   1.409  10.486 -0.1311 -0.1014 -0.1255
 1945SOL    HW117297   4.120   1.465  10.560  0.7212  1.2146 -1.4011
 1945SOL    HW217298   4.158   1.336  10.486 -0.1565 -0.1077  1.7309
 1946SOL     OW17299   1.905   1.431   9.101 -0.3596 -0.3059 -0.1767
 1946SOL    HW117300   1.888   1.352   9.153  1.7215 -0.2141  0.6146
 1946SOL    HW217301   2.000   1.427   9.103 -0.3326  0.4157  0.2055
 1947SOL     OW17302   0.298   4.427   5.125 -0.5585  0.0016 -0.5323
 1947SOL    HW117303   0.221   4.370   5.120 -0.5950 -0.1009  1.2398
 1947SOL    HW217304   0.260   4.501   5.172  1.5149  0.2002  0.8441
 1948SOL     OW17305   2.627   0.614  15.535 -0.2477 -0.4914  0.4601
 1948SOL    HW117306   2.585   0.554  15.597  1.5602  0.4620  2.6318
 1948SOL    HW217307   2.666   0.684  15.587  2.0945 -1.0275 -0.5753
 1949SOL     OW17308   3.382   4.715   8.899  0.2480 -0.3446  0.0506
 1949SOL    HW117309   3.469   0.021   8.922 -0.3780  1.4931 -0.2578
 1949SOL    HW217310   3.411   4.626   8.877  1.4100  0.1965 -0.6219
 1950SOL     OW17311   4.068   2.892  16.638  0.3808  0.3444  0.3214
 1950SOL    HW117312   3.974   2.902  16.625  0.5951  1.4641 -0.2935
 1950SOL    HW217313   4.079   2.797  16.645  0.6425  0.2339 -1.7096
 1951SOL     OW17314   2.814   4.158   1.995 -0.2469 -0.6379  0.5880
 1951SOL    HW117315   2.839   4.236   2.045 -1.7730  0.1972  0.0395
 1951SOL    HW217316   2.730   4.146   2.038 -1.0328  2.6679 -0.0835
 1952SOL     OW17317   4.203   2.436   4.494  0.3457 -0.8263 -0.4882
 1952SOL    HW117318   4.196   2.381   4.572 -1.3458  1.6197  1.0704
 1952SOL    HW217319   4.298   2.448   4.490  0.2357 -0.2524 -1.3459
 1953SOL     OW17320   3.555   2.068   4.894  0.3229  0.8491 -0.1394
 1953SOL    HW117321   3.461   2.075   4.881 -0.0561  0.9459  2.8138
 1953SOL    HW217322   3.575   2.149   4.941 -1.5122  0.5102  1.1891
 1954SOL     OW17323   1.594   2.247  11.675 -0.4835 -0.0291  0.1979
 1954SOL    HW117324   1.651   2.216  11.746  1.0351  1.9012 -0.1710
 1954SOL    HW217325   1.568   2.328  11.718  1.1699 -0.1246  1.3882
 1955SOL     OW17326   3.531   1.013   3.387  0.5152 -0.0114  0.4360
 1955SOL    HW117327   3.510   1.013   3.293  0.4380  1.0837  0.4484
 1955SOL    HW217328   3.558   0.924   3.407 -1.1202 -0.9268 -1.3300
 1956SOL     OW17329   3.730   1.118  17.595  0.5300 -0.3155 -0.3809
 1956SOL    HW117330   3.764   1.206  17.613  0.6734 -0.7609  1.4993
 1956SOL    HW217331   3.739   1.115  17.499  3.9322 -1.2108 -0.0409
 1957SOL     OW17332   0.626   3.463   9.408  0.0631 -0.3756  0.0071
 1957SOL    HW117333   0.639   3.487   9.500  0.4557 -1.2834  0.1811
 1957SOL    HW217334   0.653   3.372   9.421  0.6671 -0.3480 -1.1049
 1958SOL     OW17335   4.119   4.489  14.435  0.1014  0.4513 -0.2050
 1958SOL    HW117336   4.135   4.430  14.509  0.8452  2.5280  1.2995
 1958SOL    HW217337   4.206   4.475  14.397  0.0111  2.3026 -1.0731
 1959SOL     OW17338   4.702   1.490  14.583 -0.4941 -0.1083 -0.1434
 1959SOL    HW117339   0.009   1.489  14.493  0.7680 -1.0211  0.3533
 1959SOL    HW217340   0.053   1.532  14.618  0.3244 -2.3337  0.6553
 1960SOL     OW17341   4.512   0.019  16.861  0.4166 -0.5165 -0.4506
 1960SOL    HW117342   4.604   0.026  16.885  0.5685 -1.3125 -0.7894
 1960SOL    HW217343   4.505   4.651  16.850 -0.0870 -0.2759 -2.2664
 1961SOL     OW17344   1.180   4.033   0.762  0.4433 -0.2366  0.0937
 1961SOL    HW117345   1.126   4.112   0.768 -0.3042 -0.9232  2.4865
 1961SOL    HW217346   1.253   4.072   0.714 -0.8933  0.3628 -1.4839
 1962SOL     OW17347   4.718   2.612   8.890 -0.3325  0.2530 -0.2211
 1962SOL    HW117348   4.668   2.618   8.809 -0.6622  1.7193  0.0901
 1962SOL    HW217349   4.703   2.520   8.912  0.3278  0.2193  0.0983
 1963SOL     OW17350   0.355   0.087   8.550  0.3335  0.2445  0.1247
 1963SOL    HW117351   0.343   0.074   8.645  1.1175  2.1933  0.4774
 1963SOL    HW217352   0.370   0.181   8.543 -0.5678  0.2587 -1.5659
 1964SOL     OW17353   4.586   2.901   2.322 -0.2191 -0.1402 -0.1276
 1964SOL    HW117354   4.620   2.880   2.235  0.8124 -2.5626  0.8444
 1964SOL    HW217355   4.641   2.977   2.344  0.8092 -0.5539 -1.2694
 1965SOL     OW17356   2.081   3.205   4.500  0.3559 -0.2727  0.0096
 1965SOL    HW117357   2.152   3.159   4.455  0.4204  1.0066 -1.2244
 1965SOL    HW217358   2.036   3.125   4.527 -0.0339 -1.2582 -3.5335
 1966SOL     OW17359   2.842   4.265   4.091 -0.1087 -0.0334  0.4364
 1966SOL    HW117360   2.760   4.273   4.043 -0.8924 -1.6936  1.4896
 1966SOL    HW217361   2.905   4.323   4.049  1.5123 -1.7574  0.4560
 1967SOL     OW17362   0.410   3.520   1.189  0.3034 -0.0037 -0.8535
 1967SOL    HW117363   0.398   3.611   1.215  0.3343 -0.1656 -0.2688
 1967SOL    HW217364   0.467   3.482   1.255 -0.2994 -0.1129 -0.3890
 1968SOL     OW17365   1.666   0.738   0.250 -0.4572 -0.3891  0.1445
 1968SOL    HW117366   1.633   0.676   0.315 -1.7931  1.9452  1.6710
 1968SOL    HW217367   1.721   0.682   0.196  1.1264  0.3935  0.9366
 1969SOL     OW17368   2.491   4.051   8.790 -0.5665  0.1774 -0.3148
 1969SOL    HW117369   2.551   4.124   8.809 -1.3463  0.9597 -0.8697
 1969SOL    HW217370   2.407   4.097   8.795 -0.7211  0.0382 -1.6808
 1970SOL     OW17371   1.348   0.775   4.045  0.2035  0.2852  0.0756
 1970SOL    HW117372   1.280   0.750   4.107 -1.4780 -0.6111 -2.0879
 1970SOL    HW217373   1.388   0.845   4.096 -1.1149 -0.2601  1.8431
 1971SOL     OW17374   1.736   3.599   2.355  0.0060 -0.4616  0.0899
 1971SOL    HW117375   1.679   3.673   2.334  0.8937 -0.0095 -0.7216
 1971SOL    HW217376   1.762   3.578   2.265  0.9331 -1.2626  0.5388
 1972SOL     OW17377   2.781   3.724   9.254 -0.1567 -0.3076  0.6907
 1972SOL    HW117378   2.695   3.719   9.296 -0.2509 -0.4401  0.4816
 1972SOL    HW217379   2.845   3.736   9.324  0.1110 -0.2583  0.4345
 1973SOL     OW17380   2.466   3.803   4.567 -0.0076  0.0398  0.0448
 1973SOL    HW117381   2.406   3.764   4.504 -0.0281 -1.0203  0.7155
 1973SOL    HW217382   2.491   3.884   4.523 -1.0197 -0.1677 -0.9212
 1974SOL     OW17383   2.705   0.352   7.633 -0.5563  0.3206  0.2507
 1974SOL    HW117384   2.634   0.304   7.675  2.7911 -4.3221  0.5298
 1974SOL    HW217385   2.738   0.291   7.568 -0.8263 -0.3630  0.7523
 1975SOL     OW17386   1.261   2.032  16.821 -0.1226  0.5448 -0.1673
 1975SOL    HW117387   1.197   2.081  16.873  1.3975  0.7553  1.5180
 1975SOL    HW217388   1.315   2.100  16.781  0.5094  0.1213 -0.0358
 1976SOL     OW17389   2.300   2.772  10.418  0.2333 -0.4295  0.0333
 1976SOL    HW117390   2.208   2.748  10.427 -0.4175  1.2719 -2.1483
 1976SOL    HW217391   2.318   2.807  10.505  0.4288 -0.0104 -0.1779
 1977SOL     OW17392   3.289   4.004  17.377  0.6786  0.1023  1.0102
 1977SOL    HW117393   3.366   4.015  17.321 -0.3786  1.9992 -0.0674
 1977SOL    HW217394   3.311   3.936  17.441 -2.0021 -0.5219  1.2505
 1978SOL     OW17395   2.258   0.424   6.978 -0.3116 -0.3229  0.1926
 1978SOL    HW117396   2.210   0.355   7.025  1.6248 -1.3476  0.6428
 1978SOL    HW217397   2.344   0.430   7.019 -0.9034 -0.9205  1.5401
 1979SOL     OW17398   4.674   2.979  11.887  0.3333 -0.0324 -0.3861
 1979SOL    HW117399   4.708   2.968  11.976 -0.3415  1.1488  0.0137
 1979SOL    HW217400   0.018   2.946  11.832  0.4506  0.7300 -0.6825
 1980SOL     OW17401   3.610   1.717  10.013 -0.5990 -0.5543 -0.5543
 1980SOL    HW117402   3.643   1.752  10.096  0.5745 -2.5901 -0.1814
 1980SOL    HW217403   3.676   1.663   9.971  0.8934  0.2944  0.6927
 1981SOL     OW17404   0.683   2.683   4.838  0.8102  0.4471 -0.0207
 1981SOL    HW117405   0.611   2.627   4.868  0.8144  0.9338  0.8858
 1981SOL    HW217406   0.656   2.767   4.876 -2.6262  0.2593 -1.9755
 1982SOL     OW17407   1.980   0.733   7.892  0.1311 -0.0774 -0.4223
 1982SOL    HW117408   1.965   0.827   7.887  0.5753  0.1162  2.4407
 1982SOL    HW217409   1.895   0.700   7.922 -0.3862 -0.0990 -1.9039
 1983SOL     OW17410   2.068   3.580   5.149 -0.2086  0.1498 -0.0431
 1983SOL    HW117411   2.152   3.624   5.133 -0.7227 -0.2584 -3.8499
 1983SOL    HW217412   2.022   3.653   5.190  2.1698 -0.1828  3.2434
 1984SOL     OW17413   3.633   2.080   7.892 -0.9293 -0.0725  0.0747
 1984SOL    HW117414   3.708   2.071   7.950 -1.9600 -1.5986  1.2017
 1984SOL    HW217415   3.560   2.125   7.935 -1.5233 -1.1641  0.2185
 1985SOL     OW17416   2.944   2.190   4.923 -0.4933  0.1375 -0.2598
 1985SOL    HW117417   2.848   2.185   4.931 -0.4699  0.6447  0.3173
 1985SOL    HW217418   2.950   2.248   4.847  0.1262  0.0420 -0.2762
 1986SOL     OW17419   1.397   3.084   4.418  0.0605  0.3805 -0.3946
 1986SOL    HW117420   1.315   3.130   4.402  0.6205  1.0484 -1.2970
 1986SOL    HW217421   1.411   3.088   4.513 -2.4510 -0.0955 -0.0275
 1987SOL     OW17422   2.817   1.962   2.990 -0.0706  0.4406  0.4399
 1987SOL    HW117423   2.745   1.963   2.927  2.2949  0.7728 -2.2313
 1987SOL    HW217424   2.816   2.053   3.022 -2.8745  0.9713 -1.1789
 1988SOL     OW17425   1.019   3.472  12.416  0.1392  0.0228  0.4095
 1988SOL    HW117426   1.060   3.389  12.442  1.4080  1.0147  1.5442
 1988SOL    HW217427   0.930   3.449  12.388 -0.0917  0.3308  0.8974
 1989SOL     OW17428   2.746   0.797   5.885  0.2085 -0.1687  0.6100
 1989SOL    HW117429   2.806   0.724   5.889 -1.2463 -1.3124  1.6108
 1989SOL    HW217430   2.740   0.820   5.978  1.8516  1.9203  0.2007
 1990SOL     OW17431   1.660   4.197   7.388  0.1512  0.2351 -0.3573
 1990SOL    HW117432   1.722   4.219   7.458 -0.1869  0.5612 -0.1574
 1990SOL    HW217433   1.713   4.209   7.309  1.3653 -0.5168  0.3386
 1991SOL     OW17434   2.640   4.110   6.166  0.2315  0.5966  0.6248
 1991SOL    HW117435   2.681   4.154   6.091  0.4519  2.9703  2.1528
 1991SOL    HW217436   2.706   4.048   6.199  1.3919  1.4978  0.0231
 1992SOL     OW17437   2.185   2.592   9.020  0.4723 -0.1587 -0.3163
 1992SOL    HW117438   2.133   2.521   9.059  2.2027 -2.0085 -1.3775
 1992SOL    HW217439   2.172   2.657   9.089 -0.2489 -0.9829  0.3329
 1993SOL     OW17440   1.988   4.120  15.588  0.8365 -0.0725 -0.0603
 1993SOL    HW117441   1.996   4.207  15.550  1.9181 -0.7739 -1.4386
 1993SOL    HW217442   2.009   4.146  15.678  0.9608 -1.3094  0.2647
 1994SOL     OW17443   3.754   4.307  13.269  0.0664  0.2083  0.1734
 1994SOL    HW117444   3.766   4.400  13.289  1.6526  0.5395 -2.3404
 1994SOL    HW217445   3.789   4.311  13.180  0.8778  3.7229  0.6652
 1995SOL     OW17446   3.242   1.109   8.828  0.1195  0.5239  0.3300
 1995SOL    HW117447   3.200   1.160   8.898  2.6860  3.2665 -0.1249
 1995SOL    HW217448   3.256   1.032   8.883  0.7040  1.3729  1.3913
 1996SOL     OW17449   1.584   0.878   6.958  0.1919  0.1891 -0.5992
 1996SOL    HW117450   1.612   0.939   7.027 -0.0781 -0.0023 -0.3219
 1996SOL    HW217451   1.668   0.876   6.913  0.9354 -1.3909  0.8417
 1997SOL     OW17452   0.818   3.146   2.312  0.5322  0.1182  0.3141
 1997SOL    HW117453   0.740   3.190   2.349 -0.2835 -0.1986 -1.0436
 1997SOL    HW217454   0.823   3.199   2.232 -0.3441 -1.1218 -0.5507
 1998SOL     OW17455   4.069   3.175   2.526 -0.2354 -0.5625 -0.1044
 1998SOL    HW117456   4.024   3.237   2.468  0.7860 -0.2070 -0.5127
 1998SOL    HW217457   4.156   3.168   2.487  1.6026 -0.0568  3.8941
 1999SOL     OW17458   2.704   4.700  15.204 -0.6872 -0.1335  0.1830
 1999SOL    HW117459   2.643   4.629  15.220 -1.5281  1.1872  2.8375
 1999SOL    HW217460   2.749   4.703  15.288  0.6660 -0.2347 -0.5236
 2000SOL     OW17461   0.545   3.694   3.208 -0.3162 -0.2898 -0.2415
 2000SOL    HW117462   0.471   3.753   3.192 -0.5401 -0.3181  0.7198
 2000SOL    HW217463   0.605   3.741   3.150 -2.2002 -0.7644 -2.5655
 2001SOL     OW17464   0.236   1.347   9.151  0.6038  0.2507  0.0963
 2001SOL    HW117465   0.222   1.364   9.244 -1.0732 -2.8950  0.4322
 2001SOL    HW217466   0.321   1.390   9.153  1.1325 -0.7850  0.0745
 2002SOL     OW17467   0.380   1.181   3.067  0.0521  0.1999 -0.5543
 2002SOL    HW117468   0.418   1.187   2.980 -0.8629  1.4934 -0.8723
 2002SOL    HW217469   0.288   1.187   3.040 -0.0263 -0.9256 -0.5292
 2003SOL     OW17470   3.486   2.215   7.265 -0.0893  0.1105  0.0501
 2003SOL    HW117471   3.556   2.266   7.306  1.6375 -2.1289 -0.1077
 2003SOL    HW217472   3.533   2.149   7.214  0.7047  0.4325  0.3514
 2004SOL     OW17473   1.020   2.026   5.398 -0.2136  0.0743  0.0260
 2004SOL    HW117474   1.095   1.968   5.382 -0.8046 -0.6384 -0.1874
 2004SOL    HW217475   0.970   1.960   5.447  2.0127 -0.7568  1.2088
 2005SOL     OW17476   4.342   2.734   9.236 -0.0596 -0.0250 -1.1156
 2005SOL    HW117477   4.252   2.736   9.204  0.6966  2.0630 -3.1255
 2005SOL    HW217478   4.393   2.735   9.155  1.4536 -1.4203 -0.1881
 2006SOL     OW17479   0.853   2.564  10.528 -0.2904  0.1138 -0.2638
 2006SOL    HW117480   0.913   2.491  10.517 -1.2641 -0.6618 -0.4286
 2006SOL    HW217481   0.910   2.639  10.548  1.1869 -1.7643  2.5369
 2007SOL     OW17482   4.162   3.874   6.717  0.1622  0.4853 -0.2281
 2007SOL    HW117483   4.214   3.890   6.639  3.0426  0.1464  1.6397
 2007SOL    HW217484   4.222   3.814   6.761 -0.0051 -1.3474 -2.5091
 2008SOL     OW17485   3.341   3.084   3.504  0.4005 -0.1285  0.6981
 2008SOL    HW117486   3.328   3.178   3.494 -0.0563 -0.3331 -0.5661
 2008SOL    HW217487   3.253   3.054   3.481 -0.7708  3.4067  0.5480
 2009SOL     OW17488   0.989   3.937   3.061 -0.2177  0.0588 -0.3092
 2009SOL    HW117489   1.004   4.027   3.088  0.9539 -0.5482  1.0905
 2009SOL    HW217490   1.076   3.896   3.061 -0.6868 -0.9434  0.7792
 2010SOL     OW17491   3.444   2.560  17.563  0.1772  0.7475 -0.4992
 2010SOL    HW117492   3.368   2.579  17.508  0.1843  2.7085  0.1699
 2010SOL    HW217493   3.511   2.624  17.538 -0.7826  1.1529 -1.9953
 2011SOL     OW17494   4.526   2.340   1.936 -0.1617 -0.2303  0.0916
 2011SOL    HW117495   4.484   2.263   1.973  1.2672 -0.4430  1.2740
 2011SOL    HW217496   4.597   2.301   1.885  0.6518  0.2552  0.8400
 2012SOL     OW17497   2.795   0.329   7.030 -0.3567  0.4741 -0.1721
 2012SOL    HW117498   2.877   0.368   7.061 -0.9091  1.1152  0.4768
 2012SOL    HW217499   2.798   0.238   7.061  0.1073  0.6257  0.2451
 2013SOL     OW17500   3.708   0.464   6.635 -0.8492 -0.3006 -0.4829
 2013SOL    HW117501   3.664   0.470   6.720  1.7352 -2.3004  0.9903
 2013SOL    HW217502   3.770   0.536   6.636  0.1307 -1.1486  0.9489
 2014SOL     OW17503   1.817   0.538   8.720  0.1819  0.9935 -0.0364
 2014SOL    HW117504   1.868   0.462   8.747  1.2942  1.3865 -0.9705
 2014SOL    HW217505   1.751   0.495   8.667  0.5754  2.2366 -1.5488
 2015SOL     OW17506   2.941   1.883  13.733 -0.3999  0.1527 -0.5098
 2015SOL    HW117507   2.927   1.897  13.639 -3.4849  0.6892  0.0279
 2015SOL    HW217508   2.867   1.825  13.750  0.3841 -0.2229  1.6514
 2016SOL     OW17509   1.081   2.907   3.291  0.0061  0.0207 -0.5193
 2016SOL    HW117510   1.035   2.939   3.368  1.0803  0.6694 -0.1502
 2016SOL    HW217511   1.095   2.813   3.303 -1.5676 -0.0936  0.3819
 2017SOL     OW17512   3.388   2.609   3.257  0.5511 -0.1338  0.0460
 2017SOL    HW117513   3.475   2.626   3.293  0.4890  2.0862 -0.8967
 2017SOL    HW217514   3.403   2.607   3.162  1.8747  0.6076  0.2538
 2018SOL     OW17515   4.679   1.822   1.986  0.2563  0.2231 -0.1301
 2018SOL    HW117516   0.014   1.755   1.959  0.8688  1.0721 -0.8125
 2018SOL    HW217517   4.714   1.899   1.941 -1.6058  1.2699  0.1933
 2019SOL     OW17518   4.683   4.421   8.437  0.4437 -0.0282 -0.0966
 2019SOL    HW117519   0.042   4.461   8.429  0.5780 -0.1922  0.5003
 2019SOL    HW217520   4.674   4.429   8.532 -0.5174  1.2652 -0.2938
 2020SOL     OW17521   2.359   1.448  14.398  0.1248 -0.1401 -0.3805
 2020SOL    HW117522   2.326   1.454  14.307 -0.2523 -1.7525 -0.3514
 2020SOL    HW217523   2.427   1.382  14.382  2.0613  1.2357  2.2832
 2021SOL     OW17524   0.999   0.293   8.433 -0.0374 -0.1641 -0.2192
 2021SOL    HW117525   0.966   0.333   8.353  1.3693 -0.3977 -0.9123
 2021SOL    HW217526   1.054   0.216   8.417 -1.5106 -0.9909 -1.2322
 2022SOL     OW17527   4.678   0.195   1.528 -0.0968 -0.0244 -0.2655
 2022SOL    HW117528   4.684   0.283   1.566  1.6636 -0.3336  0.1960
 2022SOL    HW217529   4.624   0.155   1.596  1.1588 -0.2247  0.6141
 2023SOL     OW17530   1.945   1.549   0.744  0.5500  0.1059 -0.1150
 2023SOL    HW117531   1.912   1.600   0.670  4.8499  0.3772 -1.8608
 2023SOL    HW217532   1.955   1.608   0.818 -1.9513  1.9443 -1.2620
 2024SOL     OW17533   3.771   1.161   2.668  0.0524 -0.1467 -0.4461
 2024SOL    HW117534   3.691   1.172   2.720 -0.1378 -0.3465 -0.6938
 2024SOL    HW217535   3.831   1.137   2.738 -1.0959 -0.0243  0.5783
 2025SOL     OW17536   3.383   2.776   1.570 -0.6820  1.2343 -0.5976
 2025SOL    HW117537   3.357   2.825   1.492 -0.1037  2.7533  0.1593
 2025SOL    HW217538   3.305   2.727   1.593  0.6765 -0.3048  0.7197
 2026SOL     OW17539   0.422   3.523   6.946 -0.1339 -0.0292 -0.5534
 2026SOL    HW117540   0.350   3.574   6.909  0.1120  1.5219  1.0925
 2026SOL    HW217541   0.409   3.521   7.040 -1.4179 -1.5050 -0.7738
 2027SOL     OW17542   1.428   4.331   8.691 -0.1788 -0.4682  0.2033
 2027SOL    HW117543   1.368   4.257   8.700 -1.4178  0.7407  1.8011
 2027SOL    HW217544   1.514   4.288   8.699 -0.8256 -1.8252 -0.0661
 2028SOL     OW17545   0.770   2.395   2.368 -0.7156 -0.0638 -0.0506
 2028SOL    HW117546   0.846   2.379   2.424 -1.0443  0.0811  0.4394
 2028SOL    HW217547   0.726   2.312   2.352  0.0213 -0.4246 -0.1950
 2029SOL     OW17548   1.809   3.155  15.542  0.1186  0.0337 -0.3163
 2029SOL    HW117549   1.899   3.124  15.545  0.9145  2.5518  2.3544
 2029SOL    HW217550   1.778   3.121  15.458  1.2134 -0.1628 -0.6413
 2030SOL     OW17551   0.613   0.586   3.493 -0.5285 -0.5522 -0.0577
 2030SOL    HW117552   0.521   0.563   3.502 -1.6165  2.4770 -3.2349
 2030SOL    HW217553   0.658   0.504   3.515 -0.4300 -0.2114  0.9909
 2031SOL     OW17554   0.125   0.014   3.323  0.4125 -0.3524  0.0079
 2031SOL    HW117555   0.194   4.691   3.281  2.0184  1.4405  0.5059
 2031SOL    HW217556   0.106   0.083   3.260  2.1632  1.8314  1.8499
 2032SOL     OW17557   1.972   0.200   7.921 -0.2662  0.6083  0.8111
 2032SOL    HW117558   2.001   0.145   7.995  0.0072 -0.4106 -0.0491
 2032SOL    HW217559   2.050   0.200   7.865 -0.1023 -2.0836  1.0355
 2033SOL     OW17560   2.657   0.587  11.992  0.3654 -0.5177  0.7527
 2033SOL    HW117561   2.702   0.567  11.909 -1.6843 -2.7190  0.1575
 2033SOL    HW217562   2.635   0.678  11.974  2.5766  0.1532  1.4031
 2034SOL     OW17563   0.120   2.405   6.795 -1.0262  0.1589 -0.4637
 2034SOL    HW117564   0.053   2.472   6.810 -0.9682 -0.3786  2.2574
 2034SOL    HW217565   0.200   2.456   6.811  0.1659 -2.0714  0.7503
 2035SOL     OW17566   1.700   0.362  16.937  0.2442 -0.2935 -0.1566
 2035SOL    HW117567   1.678   0.445  16.977 -1.6045 -0.7370 -0.2430
 2035SOL    HW217568   1.795   0.365  16.938  0.3169 -2.2830 -1.3452
 2036SOL     OW17569   2.466   1.183   1.651 -0.0437  0.2819 -0.3789
 2036SOL    HW117570   2.454   1.093   1.680 -0.0337  0.4542  0.1733
 2036SOL    HW217571   2.542   1.205   1.705 -0.3061 -0.0583  0.1326
 2037SOL     OW17572   1.135   1.186   6.435 -0.4567 -0.5307  0.5410
 2037SOL    HW117573   1.219   1.232   6.423 -1.0029  0.3640  0.1245
 2037SOL    HW217574   1.164   1.097   6.455  0.3898 -0.4285 -0.2275
 2038SOL     OW17575   0.816   3.631  13.137 -0.0606  0.2995 -0.6236
 2038SOL    HW117576   0.814   3.618  13.042  1.2762 -0.6799 -0.5142
 2038SOL    HW217577   0.794   3.724  13.141  1.2367  0.5401  0.7911
 2039SOL     OW17578   1.025   1.312   7.174 -0.7824 -0.1569 -0.1572
 2039SOL    HW117579   1.064   1.388   7.131  2.6648 -1.3220  0.9552
 2039SOL    HW217580   0.930   1.326   7.174 -0.4176  2.3456  0.8956
 2040SOL     OW17581   3.510   3.206   7.148  0.1426  0.7544 -0.5181
 2040SOL    HW117582   3.530   3.284   7.096  3.4215  1.5386  1.9328
 2040SOL    HW217583   3.455   3.172   7.078 -1.5901  2.1687  0.1523
 2041SOL     OW17584   3.542   4.452   2.788  0.1179  0.5062  0.6961
 2041SOL    HW117585   3.483   4.379   2.773  0.4782  0.7681 -2.0511
 2041SOL    HW217586   3.606   4.441   2.717 -0.1116  2.6014  0.1477
 2042SOL     OW17587   3.849   0.002  10.099 -0.2529  0.0060 -0.4700
 2042SOL    HW117588   3.788   4.673  10.146 -1.9768  1.4326 -0.9998
 2042SOL    HW217589   3.892   4.668  10.040  1.0258 -0.0842  0.5463
 2043SOL     OW17590   3.633   2.944  16.990  0.3118  0.5512  0.0457
 2043SOL    HW117591   3.693   2.874  16.963  0.3682  0.2410  0.9676
 2043SOL    HW217592   3.581   2.896  17.055  1.6740 -1.7027 -0.5331
 2044SOL     OW17593   3.015   3.858   3.801 -0.2387 -0.1982 -0.2587
 2044SOL    HW117594   3.070   3.875   3.877  1.1402  1.1879 -1.5445
 2044SOL    HW217595   3.000   3.764   3.810 -1.6826  0.1614  1.1741
 2045SOL     OW17596   2.346   2.991   6.474 -0.2415  0.0777 -0.4699
 2045SOL    HW117597   2.432   2.989   6.515 -1.2787 -0.5148  1.6604
 2045SOL    HW217598   2.348   3.070   6.419  0.7777 -0.8711 -1.7841
 2046SOL     OW17599   3.469   3.102  16.832  0.0027  0.1091  0.1673
 2046SOL    HW117600   3.520   3.049  16.894  2.1551  0.7557 -1.0647
 2046SOL    HW217601   3.486   3.043  16.759 -0.3484 -0.2414  0.3660
 2047SOL     OW17602   1.026   0.178   2.770  0.1518 -0.6387 -0.1209
 2047SOL    HW117603   1.102   0.205   2.822  0.1413  0.8813 -0.8931
 2047SOL    HW217604   1.069   0.105   2.726 -0.0216 -1.4841  1.1026
 2048SOL     OW17605   1.452   3.297   3.092 -0.2854  0.3393  0.1113
 2048SOL    HW117606   1.460   3.219   3.036  0.6077 -1.5904  2.9072
 2048SOL    HW217607   1.375   3.268   3.142 -0.3460  0.4949  0.1089
 2049SOL     OW17608   4.268   1.559   6.559 -0.6398  0.2440 -0.3685
 2049SOL    HW117609   4.241   1.620   6.628  2.8769 -0.0796  1.2615
 2049SOL    HW217610   4.214   1.587   6.484 -1.7036 -0.2336  0.2186
 2050SOL     OW17611   2.556   4.240   4.713 -0.0376  0.1466 -0.0963
 2050SOL    HW117612   2.524   4.180   4.646  0.5176 -0.9443  0.6128
 2050SOL    HW217613   2.570   4.323   4.667  0.6057  1.4061  2.4061
 2051SOL     OW17614   4.328   4.025   2.361 -0.0548  0.1180 -0.1063
 2051SOL    HW117615   4.383   3.997   2.287  0.9666 -0.0341  0.7201
 2051SOL    HW217616   4.369   3.974   2.431 -0.4684  2.0373  1.5267
 2052SOL     OW17617   3.237   2.203   4.647  0.1222  0.6878 -0.1180
 2052SOL    HW117618   3.235   2.224   4.554 -1.2847  2.4364  0.3088
 2052SOL    HW217619   3.184   2.268   4.692  1.4535  0.9737  1.0338
 2053SOL     OW17620   2.427   3.467   3.766 -0.0611 -0.4060  0.2266
 2053SOL    HW117621   2.421   3.371   3.758  1.0779 -0.7966  3.7777
 2053SOL    HW217622   2.342   3.484   3.807 -1.2954 -0.7340 -2.1681
 2054SOL     OW17623   1.766   3.883   5.881  0.3349  0.3882  0.3386
 2054SOL    HW117624   1.787   3.794   5.855  0.2255  0.6468 -0.6417
 2054SOL    HW217625   1.671   3.873   5.875  0.4668 -1.1716  0.9314
 2055SOL     OW17626   0.385   3.216   4.561 -0.4385 -0.0841  0.3727
 2055SOL    HW117627   0.375   3.154   4.633  0.7706  0.0842  0.6927
 2055SOL    HW217628   0.387   3.151   4.490  0.2016  0.4196 -0.0733
 2056SOL     OW17629   4.577   3.845   7.339 -0.0154  0.7507  0.1198
 2056SOL    HW117630   4.576   3.754   7.308 -1.9879  0.8906 -0.2335
 2056SOL    HW217631   4.522   3.896   7.280  1.0783  2.0158  0.1974
 2057SOL     OW17632   2.187   0.320   5.576  0.0937 -0.0034  0.2167
 2057SOL    HW117633   2.117   0.326   5.640 -0.7061 -1.2207 -0.5629
 2057SOL    HW217634   2.211   0.413   5.572 -1.1905  0.2606 -1.4909
 2058SOL     OW17635   2.494   1.350   5.669 -0.0882  0.4027  0.9051
 2058SOL    HW117636   2.412   1.302   5.680 -0.6011  0.8716 -0.8362
 2058SOL    HW217637   2.467   1.433   5.708 -0.2379  1.9947 -2.5815
 2059SOL     OW17638   1.605   3.382   3.915  0.4637 -0.1445 -0.4191
 2059SOL    HW117639   1.695   3.397   3.944  0.3765 -0.4836  0.0276
 2059SOL    HW217640   1.550   3.389   3.993 -1.8963 -1.4014 -1.9783
 2060SOL     OW17641   0.070   1.632   8.236  0.4898 -0.1698  0.1001
 2060SOL    HW117642   0.070   1.726   8.255  0.4131 -0.1408 -0.0481
 2060SOL    HW217643   0.081   1.632   8.141  1.8813 -0.7476  0.2607
 2061SOL     OW17644   2.628   2.087  16.908 -0.6839  0.4376  0.1823
 2061SOL    HW117645   2.609   2.115  16.818  0.0715  0.8874  0.1630
 2061SOL    HW217646   2.542   2.090  16.950 -0.5768 -1.9664  0.6096
 2062SOL     OW17647   0.407   3.743   8.430 -0.7431  0.4334 -0.0913
 2062SOL    HW117648   0.424   3.833   8.401  1.3047  0.3384  0.8094
 2062SOL    HW217649   0.320   3.749   8.469  0.4628  1.5236  2.4203
 2063SOL     OW17650   2.788   1.361   6.957  0.5655 -0.2564  0.7696
 2063SOL    HW117651   2.714   1.301   6.955 -0.2819  0.8161 -0.3878
 2063SOL    HW217652   2.850   1.330   6.891 -0.6924 -4.4113  1.6072
 2064SOL     OW17653   0.788   1.657   5.308 -0.1781 -0.3315  0.0142
 2064SOL    HW117654   0.841   1.698   5.376 -0.4865  1.5730 -0.9024
 2064SOL    HW217655   0.709   1.654   5.362 -0.0750  0.4061  0.2035
 2065SOL     OW17656   2.176   1.882   0.019 -0.6837  0.0842 -0.1902
 2065SOL    HW117657   2.118   1.844  17.665  0.8807  0.7517 -1.9579
 2065SOL    HW217658   2.200   1.806   0.072  0.8919  1.5642  1.2098
 2066SOL     OW17659   2.235   3.142  10.972 -0.3010  0.1608  0.1158
 2066SOL    HW117660   2.262   3.196  11.047 -0.9825 -0.2264  0.6512
 2066SOL    HW217661   2.298   3.168  10.906  1.8470 -1.9221  1.3407
 2067SOL     OW17662   4.665   3.005  11.190  0.5942  0.5375  0.5530
 2067SOL    HW117663   0.012   2.947  11.177 -0.3059 -1.0374  2.4590
 2067SOL    HW217664   4.634   2.957  11.267  1.1291  0.8859  0.9918
 2068SOL     OW17665   3.692   2.239   6.067 -0.0995 -0.3140 -0.4477
 2068SOL    HW117666   3.715   2.175   6.135 -0.3929 -0.6556 -0.6755
 2068SOL    HW217667   3.598   2.238   6.086 -0.2960 -0.7175 -1.4862
 2069SOL     OW17668   2.075   2.104  17.227  0.2466  0.2768  0.6195
 2069SOL    HW117669   2.154   2.062  17.191  0.6916  1.1201  0.6167
 2069SOL    HW217670   2.100   2.118  17.318  3.4917  0.3491 -0.2739
 2070SOL     OW17671   1.745   3.419   5.442  0.4330 -0.1183  0.0125
 2070SOL    HW117672   1.826   3.415   5.392  0.7185  0.3770  0.4358
 2070SOL    HW217673   1.681   3.371   5.388  0.3440 -1.0626  0.9706
 2071SOL     OW17674   3.222   0.554  15.525  0.4287 -0.2171 -0.1769
 2071SOL    HW117675   3.245   0.482  15.465  3.6148  0.2191  0.5423
 2071SOL    HW217676   3.175   0.508  15.595  0.6125 -1.6335 -0.9778
 2072SOL     OW17677   1.197   2.022   9.074  0.4666 -0.2330  0.0529
 2072SOL    HW117678   1.217   2.072   9.154 -0.8640  1.3631 -0.6132
 2072SOL    HW217679   1.106   2.047   9.065 -0.3241 -2.6841  1.2884
 2073SOL     OW17680   0.788   3.618   6.158  0.1051 -0.0912  0.2998
 2073SOL    HW117681   0.709   3.654   6.119 -0.1196  0.7423  1.5299
 2073SOL    HW217682   0.857   3.684   6.150 -1.8909  1.8925 -0.4377
 2074SOL     OW17683   3.738   3.164   5.996 -0.0741  0.1085 -0.4059
 2074SOL    HW117684   3.677   3.232   6.023  0.4486 -0.2243  1.6219
 2074SOL    HW217685   3.814   3.213   5.966 -0.5433 -1.0537 -3.4740
 2075SOL     OW17686   0.612   3.335   2.352  0.3414 -0.4385  0.1400
 2075SOL    HW117687   0.592   3.376   2.268 -1.3678 -0.1747  0.6780
 2075SOL    HW217688   0.532   3.284   2.367  0.7195 -0.7851  0.9303
 2076SOL     OW17689   4.653   4.099   8.993  0.6503 -0.1386 -0.0911
 2076SOL    HW117690   4.697   4.125   9.074  1.0418  1.1815 -0.7253
 2076SOL    HW217691   4.608   4.180   8.968  1.0678  0.2592  0.4492
 2077SOL     OW17692   4.262   0.764   3.619 -0.6081 -0.0260 -0.0726
 2077SOL    HW117693   4.226   0.761   3.708  1.3663  1.9278  0.8081
 2077SOL    HW217694   4.354   0.739   3.633 -0.6284 -0.7112 -1.2034
 2078SOL     OW17695   4.284   4.330  16.891 -0.8795 -0.9030  0.4970
 2078SOL    HW117696   4.345   4.393  16.929  0.7451 -3.3770  1.9662
 2078SOL    HW217697   4.216   4.315  16.957 -1.3244 -1.5127 -0.1004
 2079SOL     OW17698   0.417   2.039   3.904 -0.3664  0.0690  0.1161
 2079SOL    HW117699   0.468   2.119   3.918 -1.7143  0.7263  1.2137
 2079SOL    HW217700   0.380   2.023   3.990  0.1128 -2.5819 -0.1713
 2080SOL     OW17701   1.988   4.235  11.921 -0.5224 -0.1537  0.2092
 2080SOL    HW117702   2.047   4.305  11.948 -0.6030 -0.0124  0.0170
 2080SOL    HW217703   1.906   4.273  11.890 -0.2071  1.0090  0.7963
 2081SOL     OW17704   4.512   2.932   8.640 -0.3924 -0.0160  0.3936
 2081SOL    HW117705   4.526   2.951   8.733 -0.5210  2.6988 -0.1561
 2081SOL    HW217706   4.537   2.840   8.627  0.1436  0.1780  0.0775
 2082SOL     OW17707   1.911   0.618   5.765 -0.1952  0.0296  0.3473
 2082SOL    HW117708   1.967   0.694   5.753 -2.0158  1.1597 -0.8868
 2082SOL    HW217709   1.944   0.578   5.846 -0.3118  0.2820  0.5224
 2083SOL     OW17710   2.684   2.927   0.524 -0.5055  0.2486  0.6667
 2083SOL    HW117711   2.664   2.901   0.614 -0.1407 -1.7359  0.1763
 2083SOL    HW217712   2.595   2.928   0.490 -1.1777 -2.1680  2.3967
 2084SOL     OW17713   0.190   1.840   4.805 -0.5133 -0.7188 -1.0053
 2084SOL    HW117714   0.260   1.865   4.865 -0.8721  0.3885 -1.0523
 2084SOL    HW217715   0.203   1.746   4.796  1.8878 -0.2721 -1.9575
 2085SOL     OW17716   3.869   0.556   3.639  0.1038  0.2659 -0.2639
 2085SOL    HW117717   3.904   0.612   3.570  1.0163 -0.5155 -0.4309
 2085SOL    HW217718   3.935   0.531   3.704 -1.6385 -2.3286  0.5185
 2086SOL     OW17719   3.917   4.456   7.702  0.4669  0.3647  0.3763
 2086SOL    HW117720   3.956   4.430   7.618 -0.4762 -1.2055  0.4112
 2086SOL    HW217721   3.996   4.470   7.754  0.3930  0.7725  0.3759
 2087SOL     OW17722   2.723   3.855  10.413  0.2268 -0.2661  0.1471
 2087SOL    HW117723   2.776   3.788  10.370  0.4653  1.5447 -2.3422
 2087SOL    HW217724   2.781   3.927  10.388  0.3443 -0.5572 -0.4038
 2088SOL     OW17725   4.385   2.409   5.098 -0.2873 -0.6868 -0.0321
 2088SOL    HW117726   4.320   2.347   5.131 -1.8101  0.9125 -0.0188
 2088SOL    HW217727   4.322   2.476   5.070  0.0462 -0.4319 -0.1728
 2089SOL     OW17728   2.244   3.277   7.811 -0.5323 -0.3943 -0.3524
 2089SOL    HW117729   2.241   3.337   7.737 -2.3304 -2.0709 -1.6175
 2089SOL    HW217730   2.150   3.260   7.821 -0.8029  1.5149  0.3441
 2090SOL     OW17731   1.387   1.015   5.084  0.7644 -0.1282 -0.1845
 2090SOL    HW117732   1.442   1.020   5.163  2.6042 -1.5526 -1.3801
 2090SOL    HW217733   1.319   1.069   5.125 -1.5014 -3.5954  0.6152
 2091SOL     OW17734   2.621   2.866  12.675 -0.2046 -0.2342  0.3554
 2091SOL    HW117735   2.700   2.813  12.662  0.4006  0.2908  1.9137
 2091SOL    HW217736   2.666   2.950  12.677  0.7203 -0.6910 -0.6984
 2092SOL     OW17737   2.880   0.479   2.403 -0.1214 -0.2052  0.3783
 2092SOL    HW117738   2.911   0.517   2.321  1.9048  0.8877  1.6527
 2092SOL    HW217739   2.913   0.390   2.391 -1.3355 -0.3200 -2.1268
 2093SOL     OW17740   0.404   1.227   8.932 -0.0667 -0.8013 -0.0999
 2093SOL    HW117741   0.340   1.162   8.959  0.0214 -0.9593 -0.2727
 2093SOL    HW217742   0.380   1.296   8.994  0.3224 -0.0173 -0.8095
 2094SOL     OW17743   1.123   3.641   5.217 -0.0258  0.4425  0.2565
 2094SOL    HW117744   1.088   3.553   5.235  0.7282  0.1134  0.0921
 2094SOL    HW217745   1.134   3.680   5.304 -2.9522  0.6895  0.5048
 2095SOL     OW17746   3.425   4.001   5.364 -0.2602  0.1771 -0.3176
 2095SOL    HW117747   3.429   4.076   5.423  0.4988  0.3359 -0.5664
 2095SOL    HW217748   3.336   4.015   5.332 -0.3029  1.5869  0.4315
 2096SOL     OW17749   0.639   1.729   2.724  0.2722 -0.0223  0.3217
 2096SOL    HW117750   0.665   1.700   2.811 -1.2913  1.3067  1.2419
 2096SOL    HW217751   0.724   1.757   2.690  0.7931  0.6839  2.2083
 2097SOL     OW17752   3.790   3.337   3.243 -0.1612 -0.0643 -0.2752
 2097SOL    HW117753   3.762   3.428   3.235  1.9873  0.4387 -1.9282
 2097SOL    HW217754   3.736   3.296   3.310 -1.3885  0.4248 -0.9630
 2098SOL     OW17755   2.010   1.759   4.060  0.0492 -0.1234  0.3020
 2098SOL    HW117756   2.060   1.819   4.115  0.3239  1.5466 -1.7784
 2098SOL    HW217757   1.921   1.753   4.096  0.0334  1.0540  0.4687
 2099SOL     OW17758   4.143   1.589  11.689 -0.2744 -0.1101  0.0867
 2099SOL    HW117759   4.188   1.529  11.748  1.2021  0.8537 -0.0619
 2099SOL    HW217760   4.088   1.624  11.759 -0.7752 -1.8595  0.5561
 2100SOL     OW17761   1.862   3.288  11.470  0.1753  0.1046 -0.0476
 2100SOL    HW117762   1.810   3.331  11.402 -0.1369 -0.9692 -0.5006
 2100SOL    HW217763   1.833   3.197  11.472  2.1807 -0.5980 -2.8664
 2101SOL     OW17764   1.064   3.396   6.352 -0.0170 -0.0114  0.1764
 2101SOL    HW117765   1.077   3.479   6.306 -0.4427 -1.1975 -2.0406
 2101SOL    HW217766   1.094   3.410   6.442  0.2676 -2.5259  0.4758
 2102SOL     OW17767   0.458   0.953  10.135 -0.6919  0.0431 -0.2235
 2102SOL    HW117768   0.409   1.025  10.096  0.4341  0.7184 -0.4117
 2102SOL    HW217769   0.395   0.886  10.162 -1.1791  0.8030  0.5049
 2103SOL     OW17770   3.411   3.093  15.178 -0.4889 -0.5515 -0.4283
 2103SOL    HW117771   3.374   3.013  15.216  2.3961 -1.0312  1.3535
 2103SOL    HW217772   3.366   3.100  15.094 -1.1672 -0.1394 -0.0227
 2104SOL     OW17773   0.685   0.516   6.589  0.0534  0.3997 -0.3779
 2104SOL    HW117774   0.596   0.496   6.559  0.2117 -0.3611 -0.3180
 2104SOL    HW217775   0.665   0.518   6.683  0.3862  0.3329 -0.3085
 2105SOL     OW17776   4.574   2.504   2.174 -0.7822 -0.1064 -0.2453
 2105SOL    HW117777   4.642   2.550   2.125  1.0564 -0.6755  1.8007
 2105SOL    HW217778   4.566   2.438   2.104 -0.1141  0.4581 -0.8453
 2106SOL     OW17779   2.020   4.698   4.156 -0.1994  0.4796  0.1615
 2106SOL    HW117780   1.997   4.615   4.115 -0.5542  0.1895  0.9445
 2106SOL    HW217781   1.965   4.698   4.234  2.1167 -0.9893  1.7808
 2107SOL     OW17782   4.327   3.794   4.619  0.2845 -0.4051 -0.0714
 2107SOL    HW117783   4.266   3.723   4.600 -1.0402  1.4139 -2.6327
 2107SOL    HW217784   4.360   3.809   4.531 -1.8527  0.9540 -0.6303
 2108SOL     OW17785   2.336   1.018   6.763 -0.8705 -0.0161 -0.2313
 2108SOL    HW117786   2.258   0.992   6.812  1.0336 -1.0440  2.2169
 2108SOL    HW217787   2.298   1.047   6.680 -1.2625  1.3634  0.4192
 2109SOL     OW17788   2.189   2.067  16.559  0.4607  0.3032 -0.2481
 2109SOL    HW117789   2.198   2.040  16.651 -1.6794  2.2092  0.5040
 2109SOL    HW217790   2.100   2.039  16.540  0.9483 -1.9811  0.7736
 2110SOL     OW17791   3.876   1.348   3.929  0.1674  0.2083 -0.7446
 2110SOL    HW117792   3.828   1.344   3.847  0.1743  0.3212 -0.7552
 2110SOL    HW217793   3.801   1.329   3.985 -0.6852 -0.1466 -2.0149
 2111SOL     OW17794   4.276   2.820   0.568 -0.6804  0.0319 -0.3413
 2111SOL    HW117795   4.370   2.818   0.586 -0.7247 -0.1323 -0.1288
 2111SOL    HW217796   4.242   2.829   0.657  0.4170 -1.7486  0.2320
 2112SOL     OW17797   1.599   1.731   0.413  0.5074  0.0200 -0.0804
 2112SOL    HW117798   1.686   1.766   0.396  1.9319 -2.9339  1.0967
 2112SOL    HW217799   1.552   1.765   0.337  1.3953 -3.9030 -2.3419
 2113SOL     OW17800   1.864   0.565   3.538  0.6065 -0.4486  0.5478
 2113SOL    HW117801   1.844   0.506   3.611 -0.5061 -1.0925 -0.2813
 2113SOL    HW217802   1.951   0.599   3.560 -0.4587  2.0580  0.9537
 2114SOL     OW17803   3.253   3.144   1.517  0.2702 -0.0396 -0.1370
 2114SOL    HW117804   3.317   3.202   1.559  0.3287  0.9581 -1.6094
 2114SOL    HW217805   3.308   3.070   1.490 -4.1124 -3.2527 -0.2547
 2115SOL     OW17806   2.747   3.725  11.034 -0.0057  0.6422  0.1120
 2115SOL    HW117807   2.829   3.678  11.050 -0.0261  0.3833 -0.5217
 2115SOL    HW217808   2.694   3.709  11.112 -0.0851 -2.1096 -0.5216
 2116SOL     OW17809   2.668   3.933   5.906  0.0165 -0.2892  0.3002
 2116SOL    HW117810   2.728   4.000   5.938  0.4023 -1.0426  1.1741
 2116SOL    HW217811   2.667   3.883   5.988  2.2633 -0.5357  0.1697
 2117SOL     OW17812   0.680   1.706   2.982  0.0668 -0.1154  0.2189
 2117SOL    HW117813   0.632   1.682   3.061 -1.1172  1.9343  0.1264
 2117SOL    HW217814   0.757   1.744   3.023 -0.1028  1.5039 -0.9802
 2118SOL     OW17815   2.134   3.969   5.127  0.2826  0.0101 -0.3287
 2118SOL    HW117816   2.215   3.939   5.086  0.5116  0.5770 -0.2902
 2118SOL    HW217817   2.072   3.943   5.058  0.6630 -0.7865 -0.3761
 2119SOL     OW17818   3.618   1.172   1.423  0.4066  0.5256 -0.2389
 2119SOL    HW117819   3.531   1.148   1.392 -0.3668  1.1947  1.4248
 2119SOL    HW217820   3.615   1.261   1.387 -1.3453  0.8602  0.7095
 2120SOL     OW17821   1.075   3.384   6.871 -0.1684  0.6852 -0.2717
 2120SOL    HW117822   1.028   3.338   6.940  1.2975 -3.0748 -1.8023
 2120SOL    HW217823   1.006   3.400   6.806  0.6121 -0.0986 -1.2918
 2121SOL     OW17824   3.967   4.336  13.014 -0.0516 -0.2711 -0.5367
 2121SOL    HW117825   3.923   4.344  12.929 -1.4442  1.1818  0.3234
 2121SOL    HW217826   4.047   4.296  12.980  0.5739  0.5453 -0.0329
 2122SOL     OW17827   1.813   0.064   8.843 -0.7838 -0.6366  0.2755
 2122SOL    HW117828   1.752   0.070   8.770 -0.5932 -1.7446  0.0366
 2122SOL    HW217829   1.849   0.153   8.847 -0.8088 -0.6400  0.5552
 2123SOL     OW17830   0.715   0.352   5.809  0.3135  0.1660  0.0049
 2123SOL    HW117831   0.769   0.312   5.877 -0.4535 -0.0218  0.4873
 2123SOL    HW217832   0.650   0.397   5.862 -0.6650 -2.3314  0.9075
 2124SOL     OW17833   4.708   0.286   6.122  0.3690  0.1129  0.1651
 2124SOL    HW117834   4.712   0.356   6.187 -1.3025  1.8725 -1.6050
 2124SOL    HW217835   4.628   0.311   6.075  1.2719 -0.7314 -1.8669
 2125SOL     OW17836   1.538   4.041   4.026  0.4147 -0.5574 -0.2534
 2125SOL    HW117837   1.579   3.960   4.058 -1.2390 -1.3193 -0.0938
 2125SOL    HW217838   1.608   4.098   4.058  0.3925 -0.5709 -0.1793
 2126SOL     OW17839   2.264   0.780   7.296  0.2708 -0.3395 -0.0779
 2126SOL    HW117840   2.233   0.870   7.298  1.7569  0.2052 -1.4869
 2126SOL    HW217841   2.305   0.762   7.380 -0.4474 -1.6277 -0.0005
 2127SOL     OW17842   3.301   3.040   5.943  0.1405  0.2622 -0.3631
 2127SOL    HW117843   3.327   3.094   6.018 -0.8336  1.1077 -0.6380
 2127SOL    HW217844   3.244   3.090   5.884 -0.1984  1.9027  1.3462
 2128SOL     OW17845   0.389   1.668   3.940  0.0917  0.3038 -0.2509
 2128SOL    HW117846   0.344   1.647   3.859 -0.1250  0.0702 -0.0692
 2128SOL    HW217847   0.322   1.722   3.983 -1.2688 -3.1216  1.9397
 2129SOL     OW17848   1.353   0.757   8.828  0.4346  0.1066  0.0633
 2129SOL    HW117849   1.276   0.708   8.856  1.4015 -0.9277  0.9278
 2129SOL    HW217850   1.412   0.707   8.884  1.1284  0.4628 -0.3501
 2130SOL     OW17851   0.857   0.652   5.310  0.2033  0.0968  0.4954
 2130SOL    HW117852   0.951   0.666   5.294  0.0612  0.9489  0.3891
 2130SOL    HW217853   0.860   0.567   5.355  0.9855 -0.1362  0.0101
 2131SOL     OW17854   1.981   0.507   6.010 -0.1322  0.0657 -1.3402
 2131SOL    HW117855   1.935   0.476   6.088  3.7125 -3.5197 -0.5057
 2131SOL    HW217856   2.075   0.502   6.029 -0.7947  1.4300  2.2897
 2132SOL     OW17857   0.211   0.873   2.173 -0.1357 -0.0075 -0.2932
 2132SOL    HW117858   0.153   0.889   2.248 -1.0204  1.0425 -1.2188
 2132SOL    HW217859   0.268   0.949   2.170  0.6292 -0.6022 -0.8583
 2133SOL     OW17860   1.035   1.172   3.047  0.0687  0.4646  0.3157
 2133SOL    HW117861   1.050   1.085   3.011  1.7178  0.4071  1.1549
 2133SOL    HW217862   1.122   1.192   3.082  0.4415 -0.9059  0.1648
 2134SOL     OW17863   2.843   2.947   1.722 -0.0184  0.2752 -0.1083
 2134SOL    HW117864   2.877   3.029   1.685 -1.6135  0.7899 -0.4664
 2134SOL    HW217865   2.828   2.901   1.640  0.3560 -0.6904  0.3682
 2135SOL     OW17866   2.835   2.172   1.520 -0.4699 -0.0145 -0.1543
 2135SOL    HW117867   2.869   2.248   1.474  1.3762 -2.5422 -3.0009
 2135SOL    HW217868   2.911   2.113   1.516 -1.5682 -1.3077 -1.9951
 2136SOL     OW17869   1.816   2.209   6.304 -0.5631  0.0054  0.1368
 2136SOL    HW117870   1.772   2.135   6.262  1.7956 -0.7616 -0.9754
 2136SOL    HW217871   1.806   2.175   6.393 -0.2574  2.3407  1.0670
 2137SOL     OW17872   3.289   0.339   0.581  0.2056 -0.5539 -0.6574
 2137SOL    HW117873   3.251   0.422   0.554  0.2861 -0.1385  0.5208
 2137SOL    HW217874   3.248   0.274   0.524 -1.5497  0.5108 -0.6068
 2138SOL     OW17875   1.826   2.466   8.328  0.4367  0.5195 -0.3521
 2138SOL    HW117876   1.759   2.455   8.396  0.4480 -0.6956 -0.5355
 2138SOL    HW217877   1.865   2.379   8.333  1.8992  1.2814  1.9394
 2139SOL     OW17878   1.204   2.054   2.663  0.4446 -0.1850 -0.6591
 2139SOL    HW117879   1.128   2.111   2.665  0.2333 -0.4637 -0.7218
 2139SOL    HW217880   1.169   1.982   2.715  1.9884 -0.0728  0.5600
 2140SOL     OW17881   2.703   2.040   8.102 -0.0454  0.1250 -0.5857
 2140SOL    HW117882   2.685   2.051   8.196  1.8605  3.3531 -0.5857
 2140SOL    HW217883   2.789   1.999   8.094  0.1118  0.5740 -1.2207
 2141SOL     OW17884   2.974   1.023   2.479 -0.2479  0.2328  0.3917
 2141SOL    HW117885   2.997   1.113   2.457  2.4056  0.1137  2.7550
 2141SOL    HW217886   3.059   0.979   2.472  0.0101  0.9896 -1.2904
 2142SOL     OW17887   2.445   4.331   8.908  0.0312  0.1764  0.0464
 2142SOL    HW117888   2.526   4.381   8.897  1.0646 -1.8628 -1.7528
 2142SOL    HW217889   2.379   4.392   8.875 -0.5348 -0.9873 -1.0212
 2143SOL     OW17890   2.043   3.953   9.760  0.1759  0.5738  0.6434
 2143SOL    HW117891   1.991   3.920   9.834  1.6501 -1.2484  0.8478
 2143SOL    HW217892   1.977   3.996   9.706  0.3604 -0.5203 -0.4430
 2144SOL     OW17893   4.523   3.324  16.876  0.7240 -0.8380 -0.1588
 2144SOL    HW117894   4.601   3.352  16.828 -1.4307  2.0535 -1.9447
 2144SOL    HW217895   4.524   3.228  16.883 -0.9181 -0.8505 -0.0425
 2145SOL     OW17896   3.760   0.713  11.429  0.0535  0.9039 -0.5765
 2145SOL    HW117897   3.820   0.784  11.456 -0.5214  1.2643 -0.2443
 2145SOL    HW217898   3.774   0.665  11.511 -1.0821 -0.7223 -1.3404
 2146SOL     OW17899   1.230   4.285   5.701 -0.0342  0.0095 -0.3680
 2146SOL    HW117900   1.295   4.301   5.769 -1.1924  3.3725 -0.0829
 2146SOL    HW217901   1.232   4.373   5.664 -0.9182  0.8631  1.6546
 2147SOL     OW17902   0.836   4.206   6.833  0.0079  0.4033  0.6895
 2147SOL    HW117903   0.907   4.242   6.888  2.2255  1.1338 -2.6881
 2147SOL    HW217904   0.852   4.253   6.752  0.0895 -1.7591 -0.5360
 2148SOL     OW17905   0.939   0.037  10.906  0.7043 -0.3531  0.4966
 2148SOL    HW117906   0.983   4.686  10.939  1.5523 -0.4211 -0.8044
 2148SOL    HW217907   0.943   0.096  10.981  1.2322  2.4375 -1.7478
 2149SOL     OW17908   2.847   4.087   7.531  0.0104 -0.1952  0.7314
 2149SOL    HW117909   2.782   4.135   7.480  0.8974  0.4363  0.2027
 2149SOL    HW217910   2.839   4.126   7.618  0.6612 -0.9732  1.1359
 2150SOL     OW17911   4.027   4.691   7.960 -0.3961 -0.2076 -0.2336
 2150SOL    HW117912   4.055   0.045   8.002  2.4907 -1.7245  0.7968
 2150SOL    HW217913   4.096   4.664   7.900  0.3690  0.0257  0.5428
 2151SOL     OW17914   1.093   2.573   6.788 -0.2183 -0.0311  0.0395
 2151SOL    HW117915   1.181   2.612   6.796  0.1487 -1.0594  0.9740
 2151SOL    HW217916   1.082   2.529   6.872  1.0770  0.0720  0.2752
 2152SOL     OW17917   3.730   3.021  16.134 -0.4963  0.0663  0.0948
 2152SOL    HW117918   3.712   2.950  16.195  4.0284 -0.1951  1.1505
 2152SOL    HW217919   3.675   2.995  16.060 -1.8296 -0.6572  1.3510
 2153SOL     OW17920   0.485   2.809   6.247 -0.3099  0.2090 -0.2607
 2153SOL    HW117921   0.476   2.883   6.307 -1.4543  0.4925 -0.7803
 2153SOL    HW217922   0.475   2.733   6.305  0.2030 -0.1937 -0.6938
 2154SOL     OW17923   4.494   3.605  17.439  0.0053  0.6230  0.2903
 2154SOL    HW117924   4.467   3.579  17.527  0.9795 -1.1717  0.0511
 2154SOL    HW217925   4.524   3.695  17.451  1.4744  0.4122 -1.9101
 2155SOL     OW17926   4.374   1.085   4.731  0.0893  0.2127 -0.1904
 2155SOL    HW117927   4.367   1.056   4.640  1.3279  1.1030 -0.5671
 2155SOL    HW217928   4.453   1.139   4.724 -0.4744  1.1770  0.8093
 2156SOL     OW17929   4.629   4.648   4.305 -0.0253 -0.7204  0.0091
 2156SOL    HW117930   4.586   0.006   4.302 -2.5472 -1.9609 -0.0963
 2156SOL    HW217931   4.717   4.683   4.320 -1.5801  2.6946  1.2557
 2157SOL     OW17932   4.555   1.662   5.001 -0.0122  0.1473 -0.1215
 2157SOL    HW117933   4.641   1.667   5.043 -0.6029  3.2256  0.7179
 2157SOL    HW217934   4.541   1.756   4.996 -3.0942 -0.3523 -1.1444
 2158SOL     OW17935   0.436   0.858   6.479  0.0109  0.1554  0.3712
 2158SOL    HW117936   0.451   0.953   6.472 -2.7683  0.6688  1.5530
 2158SOL    HW217937   0.517   0.822   6.443 -0.5677  0.5948 -1.4067
 2159SOL     OW17938   2.695   2.358   5.543  0.6719 -0.0423  0.7419
 2159SOL    HW117939   2.756   2.313   5.485  0.9675  1.2975 -0.0059
 2159SOL    HW217940   2.733   2.443   5.567  0.2307  0.2421  0.4473
 2160SOL     OW17941   0.624   0.332  15.707  0.4666 -0.3182  0.2480
 2160SOL    HW117942   0.563   0.269  15.668  1.3268 -1.6683  1.0818
 2160SOL    HW217943   0.571   0.375  15.775 -1.1420  0.3436 -1.4181
 2161SOL     OW17944   0.944   0.668   8.408  0.1648  0.7718 -0.1183
 2161SOL    HW117945   0.894   0.604   8.459 -0.6162 -1.1513 -3.2905
 2161SOL    HW217946   1.027   0.659   8.456  0.6218  0.1576 -1.0249
 2162SOL     OW17947   3.216   2.615   3.563 -0.5709  0.5740  0.2424
 2162SOL    HW117948   3.139   2.653   3.521 -0.7203 -0.0570 -0.0424
 2162SOL    HW217949   3.165   2.564   3.626  1.0390  1.8427  2.5827
 2163SOL     OW17950   3.903   1.684   3.674  0.2882 -0.4518 -0.0108
 2163SOL    HW117951   3.854   1.757   3.636 -1.8087 -3.3920 -2.9178
 2163SOL    HW217952   3.908   1.712   3.765  2.6635 -2.0110  0.3163
 2164SOL     OW17953   1.974   1.294   2.974  0.0489 -0.0185 -0.3917
 2164SOL    HW117954   2.026   1.367   2.939  0.7433 -0.7677 -0.9308
 2164SOL    HW217955   2.019   1.221   2.932  2.3505 -0.8749  3.5726
 2165SOL     OW17956   0.125   1.210   8.206 -0.2426 -0.2808 -0.2650
 2165SOL    HW117957   0.035   1.243   8.205 -0.3933 -0.7116 -1.7921
 2165SOL    HW217958   0.120   1.118   8.181  1.9895 -0.3410 -0.4909
 2166SOL     OW17959   2.367   4.660  12.879  0.5682 -0.5310 -0.1347
 2166SOL    HW117960   2.376   4.569  12.852  0.1008 -0.8696  0.8866
 2166SOL    HW217961   2.336   4.706  12.800  0.1617  0.8964  0.8547
 2167SOL     OW17962   2.374   1.539  13.747 -0.5290 -0.1005  0.2162
 2167SOL    HW117963   2.309   1.478  13.711 -0.9246  1.8048 -2.3090
 2167SOL    HW217964   2.417   1.569  13.667 -0.6050 -2.8240 -0.8342
 2168SOL     OW17965   0.784   0.538   8.571 -0.1505  0.6072 -0.1765
 2168SOL    HW117966   0.699   0.554   8.529 -0.0268 -2.0729 -1.4646
 2168SOL    HW217967   0.761   0.584   8.651 -2.6625 -0.7915 -0.1070
 2169SOL     OW17968   3.093   2.650  13.794  0.1181 -0.3105  0.1468
 2169SOL    HW117969   3.144   2.691  13.864 -2.5663  3.4075 -0.0892
 2169SOL    HW217970   3.140   2.692  13.722 -1.1889 -0.4771 -0.8005
 2170SOL     OW17971   1.726   0.342  10.989  0.0971  0.6114 -0.6708
 2170SOL    HW117972   1.720   0.339  10.894 -0.8994 -1.9096 -0.5280
 2170SOL    HW217973   1.816   0.315  11.009 -0.3221 -0.4006 -0.1687
 2171SOL     OW17974   1.478   0.185   4.788  0.5877 -0.2662  0.5558
 2171SOL    HW117975   1.526   0.263   4.762 -0.4063  0.0798 -0.2481
 2171SOL    HW217976   1.450   0.144   4.706  0.9448  1.7001 -0.5364
 2172SOL     OW17977   0.054   1.606   7.973 -0.3431 -0.3283  0.1589
 2172SOL    HW117978   0.091   1.604   7.884 -1.6037  2.7257 -0.4579
 2172SOL    HW217979   4.722   1.680   7.959 -2.7094 -2.6831 -2.0962
 2173SOL     OW17980   0.958   1.653   3.702  0.0420 -0.0120 -0.4351
 2173SOL    HW117981   0.935   1.725   3.644  4.2947  1.1145 -0.6808
 2173SOL    HW217982   0.912   1.684   3.780  1.0654 -0.2593  0.2537
 2174SOL     OW17983   3.863   2.260   3.091  0.1799 -0.1757 -0.6564
 2174SOL    HW117984   3.881   2.222   3.005 -1.3343 -1.6157 -0.3384
 2174SOL    HW217985   3.768   2.269   3.095  0.3741  1.8908 -0.4690
 2175SOL     OW17986   0.229   3.137   9.258  0.5558 -0.1023 -0.6517
 2175SOL    HW117987   0.185   3.215   9.225 -0.8666 -0.2146  1.0121
 2175SOL    HW217988   0.285   3.154   9.334 -0.9043  0.2849  0.3325
 2176SOL     OW17989   2.894   0.209   8.486  0.6742  0.0788  0.3722
 2176SOL    HW117990   2.882   0.233   8.394 -1.2879  0.4322  0.7291
 2176SOL    HW217991   2.988   0.191   8.488  1.2494  2.8922 -0.6562
 2177SOL     OW17992   1.963   2.072   4.828  0.0160 -0.4004 -0.7812
 2177SOL    HW117993   1.978   2.068   4.923  1.8123  0.0762 -1.0618
 2177SOL    HW217994   1.999   1.988   4.801 -0.3003 -0.7116 -0.2344
 2178SOL     OW17995   3.937   2.323   1.827 -0.4748  0.0041 -0.4886
 2178SOL    HW117996   3.946   2.361   1.915 -0.2070 -2.0498  0.3669
 2178SOL    HW217997   4.026   2.329   1.795 -0.3891  0.2182 -0.2084
 2179SOL     OW17998   2.229   1.988   7.487 -0.4325 -0.2920  0.2119
 2179SOL    HW117999   2.209   2.079   7.509 -0.8212 -0.1248 -0.8059
 2179SOL    HW218000   2.215   1.995   7.393 -0.0546 -0.1650  0.1661
 2180SOL     OW18001   3.866   0.974   7.947 -0.5283 -0.5928 -0.5067
 2180SOL    HW118002   3.787   0.959   7.999  0.2998 -0.2462  0.8770
 2180SOL    HW218003   3.935   0.990   8.012 -0.5578 -0.1958 -0.5730
 2181SOL     OW18004   1.132   0.082  10.723 -0.1887 -0.1191 -0.7581
 2181SOL    HW118005   1.051   0.060  10.768  2.3040 -0.2092  3.6906
 2181SOL    HW218006   1.166   0.148  10.784 -0.3210  0.4206 -1.2760
 2182SOL     OW18007   0.497   3.824   4.210 -0.1514 -0.2287 -0.1729
 2182SOL    HW118008   0.466   3.889   4.147  0.6138  0.0112 -0.3003
 2182SOL    HW218009   0.421   3.768   4.227 -0.0048 -0.1470  0.7253
 2183SOL     OW18010   0.348   2.077   6.451 -0.5451  0.0014 -0.2813
 2183SOL    HW118011   0.312   1.989   6.465 -0.4772 -0.3667 -2.4682
 2183SOL    HW218012   0.280   2.134   6.487  0.2527 -0.1569  1.4723
 2184SOL     OW18013   4.693   1.682   5.588 -0.0218  0.3668 -0.7540
 2184SOL    HW118014   4.628   1.623   5.627  0.0929  0.1299 -0.9284
 2184SOL    HW218015   4.693   1.662   5.495  0.2834  0.4694 -0.7728
 2185SOL     OW18016   3.329   3.784  16.785  0.0242 -0.0428  0.9176
 2185SOL    HW118017   3.382   3.763  16.708 -0.6446  1.8045 -0.0326
 2185SOL    HW218018   3.255   3.833  16.751  0.0025  1.2923  2.9070
 2186SOL     OW18019   4.566   0.927  10.694  0.3033  0.3323  0.1343
 2186SOL    HW118020   4.503   0.873  10.741 -0.7461 -0.0863 -1.7750
 2186SOL    HW218021   4.574   0.867  10.619 -1.1821 -0.0671  0.2990
 2187SOL     OW18022   2.731   2.577   1.689 -0.4836 -0.2901 -0.0153
 2187SOL    HW118023   2.662   2.635   1.722  1.2935  0.0845  3.0991
 2187SOL    HW218024   2.692   2.554   1.605  0.2426  0.1512 -0.4624
 2188SOL     OW18025   1.502   1.190  12.847  0.0435 -0.0226  0.2091
 2188SOL    HW118026   1.420   1.186  12.897 -1.6438 -0.6796 -2.6076
 2188SOL    HW218027   1.569   1.216  12.911  0.6672 -0.5493 -0.2361
 2189SOL     OW18028   0.467   4.070   2.895 -0.3576 -0.0994 -0.0842
 2189SOL    HW118029   0.466   4.089   2.801  0.7955 -2.3479 -0.5556
 2189SOL    HW218030   0.556   4.099   2.912 -0.4095 -0.4662  0.8124
 2190SOL     OW18031   3.536   2.189   8.645 -0.4575 -0.8306  0.1789
 2190SOL    HW118032   3.585   2.189   8.727 -0.7982 -0.6231  0.3851
 2190SOL    HW218033   3.559   2.102   8.614 -2.3857 -0.6990 -1.6643
 2191SOL     OW18034   1.174   3.670   4.738  0.0592  0.0290 -0.0143
 2191SOL    HW118035   1.132   3.670   4.824  2.5459  1.1654  1.1627
 2191SOL    HW218036   1.222   3.588   4.749 -0.3308 -0.5277 -2.4139
 2192SOL     OW18037   1.122   4.304   0.502  0.1921 -0.3766  0.0887
 2192SOL    HW118038   1.181   4.283   0.573  1.4397  1.7916 -0.3094
 2192SOL    HW218039   1.096   4.393   0.525  1.9200 -0.2386  1.4489
 2193SOL     OW18040   1.801   2.154   3.874 -0.1231 -0.5480 -0.3026
 2193SOL    HW118041   1.722   2.107   3.851 -0.1007 -1.1347  0.8572
 2193SOL    HW218042   1.864   2.085   3.852  0.2407 -0.8490  1.6242
 2194SOL     OW18043   0.380   4.252  17.640  0.2456  0.0034  0.1119
 2194SOL    HW118044   0.415   4.338  17.616 -0.0403 -0.0954 -0.6371
 2194SOL    HW218045   0.460   4.200  17.638  1.1016  1.3720 -1.3288
 2195SOL     OW18046   2.712   1.359  17.383 -0.2025 -0.3613 -0.2578
 2195SOL    HW118047   2.647   1.289  17.380 -0.7177  0.1341 -0.5727
 2195SOL    HW218048   2.722   1.373  17.477  1.6665 -0.4250 -0.4481
 2196SOL     OW18049   4.112   0.143   4.065  0.0593  0.0657  0.4956
 2196SOL    HW118050   4.144   0.221   4.110  1.7030  0.2842 -1.0734
 2196SOL    HW218051   4.167   0.073   4.100 -1.7084 -1.6347 -0.1300
 2197SOL     OW18052   0.599   3.671  11.184 -0.1973 -0.0826  0.1511
 2197SOL    HW118053   0.607   3.729  11.108 -0.6762  0.9745  0.9095
 2197SOL    HW218054   0.530   3.717  11.231  1.9636  1.3891  1.8648
 2198SOL     OW18055   3.156   4.600  16.972 -0.0781 -0.2403 -0.1430
 2198SOL    HW118056   3.109   4.535  17.023 -0.2270  0.0498  0.0886
 2198SOL    HW218057   3.203   4.539  16.915  1.0050  0.2563  0.2184
 2199SOL     OW18058   2.293   3.709   4.361 -0.5227  0.1572  0.9252
 2199SOL    HW118059   2.198   3.718   4.349 -0.2887 -1.2757 -1.9063
 2199SOL    HW218060   2.313   3.631   4.309  0.6564  0.1190  1.4522
 2200SOL     OW18061   2.589   2.528   7.263 -0.0401  0.4633 -0.3549
 2200SOL    HW118062   2.678   2.498   7.246  0.2310 -0.0631  2.0115
 2200SOL    HW218063   2.592   2.620   7.238  0.5878  0.4378 -0.3825
 2201SOL     OW18064   3.956   2.094   2.866 -0.1834  0.8340 -0.0042
 2201SOL    HW118065   3.916   2.019   2.909 -0.9872  0.9988 -0.4716
 2201SOL    HW218066   3.944   2.069   2.774 -0.2988 -1.5222  0.6657
 2202SOL     OW18067   1.687   0.960   9.694 -0.2639 -0.3936  0.0639
 2202SOL    HW118068   1.728   0.976   9.778  1.4735 -1.4959 -0.5740
 2202SOL    HW218069   1.604   0.931   9.731 -0.3732  0.8613  0.8029
 2203SOL     OW18070   0.273   0.178   5.886  0.3373  0.6441  0.4796
 2203SOL    HW118071   0.300   0.219   5.803 -0.3472  0.9612  0.4171
 2203SOL    HW218072   0.360   0.144   5.910  0.0496 -0.2099  0.3260
 2204SOL     OW18073   0.075   4.096   7.494  0.1210  0.5877 -0.2976
 2204SOL    HW118074   0.059   4.042   7.571 -1.8499  0.4419 -0.8159
 2204SOL    HW218075   0.170   4.109   7.493  0.2571 -0.3984  0.0546
 2205SOL     OW18076   3.334   2.817   8.976  0.2524 -0.0441 -0.3531
 2205SOL    HW118077   3.322   2.848   8.886  0.1917  0.5240 -0.1488
 2205SOL    HW218078   3.247   2.780   8.989 -0.4224  0.2107 -4.2127
 2206SOL     OW18079   2.336   4.630   1.373  0.3580 -0.0216 -0.1116
 2206SOL    HW118080   2.262   4.569   1.366 -0.6145  1.3414 -1.9985
 2206SOL    HW218081   2.286   4.711   1.362 -1.1181 -0.7775  0.9006
 2207SOL     OW18082   0.070   0.809   4.083 -0.7089  0.5351 -0.0508
 2207SOL    HW118083   0.084   0.789   4.176 -1.4360  2.1807  0.4183
 2207SOL    HW218084   4.703   0.823   4.084 -0.6679  0.8657 -1.1813
 2208SOL     OW18085   4.331   2.269   3.317 -0.5625  0.1013 -0.7037
 2208SOL    HW118086   4.262   2.238   3.376 -0.5178  3.5963  1.2332
 2208SOL    HW218087   4.281   2.298   3.241 -0.3790 -0.3190 -0.9811
 2209SOL     OW18088   1.598   0.437  13.790  0.8510  0.0505  0.5575
 2209SOL    HW118089   1.527   0.486  13.748  0.3850 -0.8714  0.2766
 2209SOL    HW218090   1.611   0.365  13.728 -1.2084 -0.1953  0.4128
 2210SOL     OW18091   1.784   0.100  10.525  0.7179  0.0385  0.1287
 2210SOL    HW118092   1.780   0.019  10.577  1.0259  2.3178  3.6667
 2210SOL    HW218093   1.697   0.088  10.487  0.7105  0.0392  0.1457
 2211SOL     OW18094   1.538   4.432   0.759 -0.0916 -0.2176 -0.5159
 2211SOL    HW118095   1.593   4.355   0.741  1.1943  1.2416 -2.6946
 2211SOL    HW218096   1.596   4.492   0.806 -0.6825 -0.0751  0.0250
 2212SOL     OW18097   2.732   2.233  13.034 -0.2884 -0.3822  0.1119
 2212SOL    HW118098   2.672   2.262  13.103 -0.7184 -2.1427  0.4736
 2212SOL    HW218099   2.691   2.246  12.949  0.9215 -3.1526 -0.9007
 2213SOL     OW18100   3.384   4.199   1.118  0.3358  0.2151  0.4949
 2213SOL    HW118101   3.383   4.204   1.022 -0.8592  0.1531  0.5012
 2213SOL    HW218102   3.407   4.290   1.135  2.0212 -0.1828  0.4240
 2214SOL     OW18103   2.862   1.675   8.057 -0.3796  0.6583 -0.2944
 2214SOL    HW118104   2.852   1.745   7.992  0.5419  0.4470 -0.6555
 2214SOL    HW218105   2.900   1.709   8.138 -0.4740 -1.8949  0.8133
 2215SOL     OW18106   1.292   1.117   8.075 -0.6070 -0.5449 -0.1639
 2215SOL    HW118107   1.280   1.072   8.158  0.9077  1.0866  0.9510
 2215SOL    HW218108   1.304   1.207   8.106 -3.2040  0.4706 -2.1135
 2216SOL     OW18109   3.306   1.536  11.355 -0.3960  0.5643 -0.0687
 2216SOL    HW118110   3.277   1.522  11.445  0.5277 -0.2501  0.0993
 2216SOL    HW218111   3.238   1.599  11.332 -0.3356  1.1621  1.4396
 2217SOL     OW18112   3.498   2.839  13.724 -0.1828  0.4705 -0.0379
 2217SOL    HW118113   3.564   2.836  13.655 -0.6998 -2.2783 -0.4292
 2217SOL    HW218114   3.536   2.882  13.801 -1.5621  0.3988  0.6875
 2218SOL     OW18115   0.818   0.365   8.221  0.5973 -1.1118 -0.0999
 2218SOL    HW118116   0.875   0.329   8.153  3.2747  0.4439  1.2965
 2218SOL    HW218117   0.793   0.450   8.186  1.2126 -0.2125  1.6466
 2219SOL     OW18118   1.160   1.463   3.203  0.2092  0.5359  0.4600
 2219SOL    HW118119   1.234   1.524   3.193  0.2636  0.3096 -0.5284
 2219SOL    HW218120   1.077   1.510   3.202  0.3234  0.7234 -0.6373
 2220SOL     OW18121   0.133   0.975  10.708  0.4856  0.0817 -0.2831
 2220SOL    HW118122   0.058   1.021  10.669 -0.0486  1.2458  2.1156
 2220SOL    HW218123   0.117   1.004  10.797 -0.8370 -0.5049 -0.3290
 2221SOL     OW18124   3.752   4.244   2.348  0.4857 -0.0931  0.3452
 2221SOL    HW118125   3.682   4.220   2.408 -0.6867  0.2344 -0.8878
 2221SOL    HW218126   3.828   4.234   2.404 -0.5979 -0.3717  1.7578
 2222SOL     OW18127   0.187   1.061   1.528  0.0677 -0.0329 -0.4929
 2222SOL    HW118128   0.095   1.086   1.517  0.0885  0.5572  0.6338
 2222SOL    HW218129   0.189   0.966   1.518  0.4238 -0.1720  0.9716
 2223SOL     OW18130   4.228   3.539   4.109 -0.1077 -0.1201 -0.2329
 2223SOL    HW118131   4.320   3.527   4.132  0.1961 -0.7529 -1.7054
 2223SOL    HW218132   4.220   3.497   4.023 -0.5959 -0.9836  0.2233
 2224SOL     OW18133   0.780   0.059   1.293  0.0994  1.0278 -0.1300
 2224SOL    HW118134   0.859   0.102   1.325 -0.6122  1.9638  0.3615
 2224SOL    HW218135   0.791   0.054   1.198 -3.3929 -0.2508 -0.4726
 2225SOL     OW18136   3.620   3.961   5.780  0.2495 -0.4207  0.5876
 2225SOL    HW118137   3.530   3.928   5.782  1.0429 -2.5358  0.5765
 2225SOL    HW218138   3.608   4.045   5.736 -1.8339 -0.8089  0.4040
 2226SOL     OW18139   1.624   3.553   5.656  0.2252 -0.2819 -0.4559
 2226SOL    HW118140   1.660   3.500   5.584  0.8038  0.0899 -0.4360
 2226SOL    HW218141   1.612   3.636   5.611 -1.8979 -0.5463 -0.3832
 2227SOL     OW18142   2.546   3.211   4.172  0.3496  0.0595 -0.1241
 2227SOL    HW118143   2.498   3.153   4.113 -0.4118  0.4763  0.0970
 2227SOL    HW218144   2.631   3.169   4.156 -0.2759 -0.3125 -2.4472
 2228SOL     OW18145   2.356   0.038  15.311  0.1460 -0.4181 -0.1790
 2228SOL    HW118146   2.398   4.701  15.255  0.8592  1.5894 -1.9711
 2228SOL    HW218147   2.286   4.714  15.351  0.8598 -1.5216 -0.3632
 2229SOL     OW18148   0.922   1.955   4.137 -0.0608  0.0201  0.3106
 2229SOL    HW118149   0.839   1.990   4.169  0.1538  0.0622  0.8242
 2229SOL    HW218150   0.979   2.024   4.172  2.0138 -1.4572 -0.1329
 2230SOL     OW18151   2.097   4.650  13.027  0.3063 -0.1815  0.5367
 2230SOL    HW118152   2.120   4.590  12.956 -1.1784 -0.5729  0.3923
 2230SOL    HW218153   2.002   4.645  13.024  0.3056  1.0285 -1.4581
 2231SOL     OW18154   3.750   2.400   2.392  0.1829 -0.8393 -0.5993
 2231SOL    HW118155   3.692   2.456   2.340  2.1180 -0.3626 -2.2630
 2231SOL    HW218156   3.690   2.399   2.466  1.0040 -1.3191  0.0562
 2232SOL     OW18157   3.402   2.956   1.375  0.3055 -0.2997  0.3610
 2232SOL    HW118158   3.474   3.019   1.383  1.5902 -2.0659  2.7491
 2232SOL    HW218159   3.384   2.957   1.281 -0.0311  0.3473  0.4313
 2233SOL     OW18160   3.195   3.127   6.555  0.5013 -0.3162  0.4633
 2233SOL    HW118161   3.275   3.172   6.582 -0.6427  1.6022  0.6688
 2233SOL    HW218162   3.128   3.179   6.600  0.6506 -1.3428  1.8582
 2234SOL     OW18163   0.965   3.287   3.807 -0.2747  0.0487 -0.4735
 2234SOL    HW118164   0.973   3.383   3.806 -0.7426  0.0995  0.7558
 2234SOL    HW218165   0.965   3.271   3.901 -0.9789 -0.2321 -0.5244
 2235SOL     OW18166   3.330   3.540   2.741 -0.1422 -0.6390  0.3494
 2235SOL    HW118167   3.383   3.508   2.814 -0.7453  2.9336  2.3599
 2235SOL    HW218168   3.315   3.456   2.699 -0.8665  0.1211 -0.9126
 2236SOL     OW18169   0.839   4.236   5.111 -0.1359  0.4764 -0.5157
 2236SOL    HW118170   0.800   4.288   5.041 -2.2178 -0.4006 -0.0069
 2236SOL    HW218171   0.780   4.160   5.112  1.5740 -0.8803 -3.2881
 2237SOL     OW18172   1.710   3.705   3.825 -0.6827  0.3648  0.2580
 2237SOL    HW118173   1.755   3.718   3.909  0.6139 -1.0322 -0.2247
 2237SOL    HW218174   1.779   3.712   3.759 -1.5742 -1.0059 -0.8168
 2238SOL     OW18175   1.968   2.555   3.075 -1.0486  0.0406 -0.4130
 2238SOL    HW118176   2.042   2.609   3.047  0.0800  0.6849  3.8384
 2238SOL    HW218177   2.011   2.469   3.078 -0.4560  0.3337 -0.6251
 2239SOL     OW18178   4.599   2.000   7.894 -0.1990 -0.0446 -0.1436
 2239SOL    HW118179   4.562   1.964   7.974 -0.6162  0.6983 -0.0132
 2239SOL    HW218180   4.601   1.920   7.842  2.2885 -1.0793  1.5189
 2240SOL     OW18181   0.045   2.239   1.883 -0.1490  0.0949 -0.0361
 2240SOL    HW118182   0.073   2.275   1.968  0.6194  0.9590 -0.6627
 2240SOL    HW218183   0.100   2.163   1.869 -0.6643  0.1617 -2.4191
 2241SOL     OW18184   0.369   2.947  15.271 -1.0335 -0.8883  0.5954
 2241SOL    HW118185   0.354   3.031  15.227 -2.1618 -1.8434 -0.8672
 2241SOL    HW218186   0.280   2.918  15.289 -1.0636 -1.2243 -0.0778
 2242SOL     OW18187   4.021   2.980   8.968 -0.1566  0.2461  0.2830
 2242SOL    HW118188   4.033   3.032   9.048 -0.5384 -1.3720  1.3954
 2242SOL    HW218189   4.111   2.966   8.940 -0.9042 -2.2991 -0.7833
 2243SOL     OW18190   2.791   4.572  15.434 -0.1925 -0.4291  0.0493
 2243SOL    HW118191   2.801   4.493  15.382 -1.2249 -1.4215  1.3473
 2243SOL    HW218192   2.755   4.541  15.517  0.3572 -1.5324 -0.1286
 2244SOL     OW18193   2.630   3.741   2.557  0.4215  0.0181 -0.1328
 2244SOL    HW118194   2.592   3.661   2.593 -0.9000  1.2514  1.1977
 2244SOL    HW218195   2.641   3.711   2.467 -0.6554 -0.7501 -0.0072
 2245SOL     OW18196   2.743   1.098   5.364 -0.1464 -0.0245  0.6136
 2245SOL    HW118197   2.801   1.164   5.402 -0.4425  2.0763 -2.6075
 2245SOL    HW218198   2.676   1.150   5.322 -0.8751 -0.3913  1.3180
 2246SOL     OW18199   4.413   1.933  14.377 -0.0904  0.8840  0.0826
 2246SOL    HW118200   4.431   1.977  14.294 -0.3713 -1.0229 -1.0059
 2246SOL    HW218201   4.388   2.006  14.433 -0.3759 -1.6665  3.2763
 2247SOL     OW18202   2.532   3.460  12.608  0.6353 -0.4160  0.0274
 2247SOL    HW118203   2.568   3.398  12.670 -3.5270 -3.0846 -0.1823
 2247SOL    HW218204   2.594   3.463  12.536  0.1746 -0.3754 -0.3708
 2248SOL     OW18205   0.031   4.549  11.970  0.1740  0.1230 -0.2243
 2248SOL    HW118206   0.105   4.503  11.930  0.7961 -0.2129  1.3224
 2248SOL    HW218207   0.068   4.636  11.953  0.9788 -0.0337  0.7120
 2249SOL     OW18208   3.651   0.507   5.557  0.2604  0.0435 -0.7694
 2249SOL    HW118209   3.724   0.465   5.512 -0.3322 -1.2988 -0.5006
 2249SOL    HW218210   3.649   0.443   5.629  2.5165  1.5513  0.6139
 2250SOL     OW18211   4.024   4.635   8.588 -0.6234 -0.5022 -0.2170
 2250SOL    HW118212   4.010   4.712   8.643 -0.9872 -1.2804  0.7734
 2250SOL    HW218213   4.016   4.672   8.500 -0.3086  1.1245  0.4458
 2251SOL     OW18214   2.647   1.138   4.915 -0.5072 -0.2392  0.0364
 2251SOL    HW118215   2.578   1.078   4.945 -1.4783 -0.9591 -3.5130
 2251SOL    HW218216   2.620   1.142   4.823 -1.4350 -0.4441  0.2923
 2252SOL     OW18217   2.546   4.508   3.103 -0.1603 -0.6438  0.1140
 2252SOL    HW118218   2.581   4.597   3.108  1.4244 -1.2789  0.1464
 2252SOL    HW218219   2.614   4.455   3.144  1.8694  1.4319 -0.5444
 2253SOL     OW18220   1.210   3.141   3.168  0.1423 -0.6042  0.1553
 2253SOL    HW118221   1.247   3.055   3.186  3.0261  0.9291  1.5567
 2253SOL    HW218222   1.127   3.128   3.213 -0.4666 -0.3117 -0.8802
 2254SOL     OW18223   2.982   2.833   7.679  0.3807  0.3655  0.1502
 2254SOL    HW118224   3.042   2.875   7.617 -1.1179  1.4752 -0.5452
 2254SOL    HW218225   3.019   2.860   7.763  2.0747 -1.3846 -0.0289
 2255SOL     OW18226   3.263   0.279   7.462 -0.0940  0.5848 -0.3469
 2255SOL    HW118227   3.297   0.360   7.424 -1.5374 -0.7647 -4.4823
 2255SOL    HW218228   3.173   0.292   7.432 -0.1554 -1.5535 -1.0627
 2256SOL     OW18229   3.945   4.392   3.812 -0.0883 -0.3753  1.0330
 2256SOL    HW118230   3.908   4.417   3.897  0.5709  2.0517  0.6182
 2256SOL    HW218231   3.982   4.308   3.839  2.1576  0.6718  1.2531
 2257SOL     OW18232   0.324   1.323   7.334 -0.0372 -0.5085  0.2891
 2257SOL    HW118233   0.325   1.383   7.409 -2.1317  0.4372 -0.4319
 2257SOL    HW218234   0.408   1.351   7.297 -1.8427  0.0268 -3.4578
 2258SOL     OW18235   2.535   0.145   2.049 -0.4886 -0.4322 -0.1204
 2258SOL    HW118236   2.578   0.094   1.980  0.4939  1.2085 -0.7356
 2258SOL    HW218237   2.561   0.099   2.129  1.9874  0.4459 -0.3941
 2259SOL     OW18238   3.527   3.098   2.185 -0.1408 -0.3321 -0.4524
 2259SOL    HW118239   3.432   3.108   2.175  0.2403  0.7731 -2.8702
 2259SOL    HW218240   3.555   3.147   2.108  0.9819  1.6128  1.1880
 2260SOL     OW18241   1.610   4.323   8.972  0.6205 -0.1686 -0.4235
 2260SOL    HW118242   1.617   4.418   8.981  0.0547 -0.0223 -1.5406
 2260SOL    HW218243   1.591   4.297   9.062 -1.0573  1.1598 -0.3823
 2261SOL     OW18244   1.248   2.372   7.308 -0.3177  0.2652 -0.4129
 2261SOL    HW118245   1.195   2.408   7.379  0.5802 -1.4876  1.1468
 2261SOL    HW218246   1.215   2.283   7.316 -0.8190  0.3071 -1.9013
 2262SOL     OW18247   3.414   4.289   7.217  0.0059  0.2727  0.0487
 2262SOL    HW118248   3.377   4.376   7.200  1.6595  0.3990 -2.9227
 2262SOL    HW218249   3.507   4.292   7.196 -0.0920 -1.6215 -0.5994
 2263SOL     OW18250   1.843   2.238   5.132  0.3518  0.3752  0.3097
 2263SOL    HW118251   1.803   2.238   5.218 -0.1202 -0.0888  0.0906
 2263SOL    HW218252   1.785   2.296   5.083 -1.3443 -0.7826  0.9592
 2264SOL     OW18253   1.704   3.376  12.016 -0.1984 -0.0693  0.0583
 2264SOL    HW118254   1.734   3.316  11.947  2.4399  0.5901  0.6335
 2264SOL    HW218255   1.665   3.453  11.974  0.4660  0.0307 -0.3791
 2265SOL     OW18256   1.670   0.505   3.947 -0.4477 -0.2546 -0.1790
 2265SOL    HW118257   1.708   0.500   3.859  0.4417 -1.0150  0.2419
 2265SOL    HW218258   1.704   0.422   3.981 -0.7456  0.4909  1.9297
 2266SOL     OW18259   2.800   1.077   5.829  0.0974 -0.1775  0.1510
 2266SOL    HW118260   2.719   1.087   5.780 -0.1150 -0.9604  0.3383
 2266SOL    HW218261   2.786   0.996   5.878  1.8736 -0.6928 -0.2103
 2267SOL     OW18262   0.619   1.525   5.113  0.3246 -0.5018  0.1685
 2267SOL    HW118263   0.528   1.517   5.140 -0.2332  0.6556 -1.3045
 2267SOL    HW218264   0.658   1.583   5.179  0.2709  0.8519 -0.9704
 2268SOL     OW18265   2.365   2.745  15.462 -0.3013 -0.1700  0.4807
 2268SOL    HW118266   2.293   2.686  15.483  0.2694 -0.6996  0.9472
 2268SOL    HW218267   2.360   2.814  15.529  1.0391 -0.2378  0.6502
 2269SOL     OW18268   2.309   0.913   5.905  0.0654  0.0351  0.0268
 2269SOL    HW118269   2.396   0.894   5.871  0.0170  0.0658 -0.1143
 2269SOL    HW218270   2.302   0.839   5.965 -1.0093  1.4746  1.6971
 2270SOL     OW18271   4.710   4.272   6.871 -0.0702  0.0472 -0.1981
 2270SOL    HW118272   4.651   4.280   6.946  3.9351  1.0423  2.8045
 2270SOL    HW218273   0.067   4.267   6.914  0.2735 -0.1455 -0.8971
 2271SOL     OW18274   1.052   0.446   9.341 -0.1492 -0.1258 -0.2955
 2271SOL    HW118275   1.042   0.352   9.354 -1.7578  0.1362  0.3455
 2271SOL    HW218276   0.963   0.473   9.317 -1.1392 -1.3380  2.0357
 2272SOL     OW18277   2.361   1.601   5.723  0.0416  0.5164 -0.9185
 2272SOL    HW118278   2.299   1.589   5.795 -1.8644  1.9575 -2.3283
 2272SOL    HW218279   2.398   1.689   5.734 -1.1930  1.2014 -2.3428
 2273SOL     OW18280   1.518   3.821   2.258 -0.0897 -0.5117  0.1926
 2273SOL    HW118281   1.492   3.749   2.201  2.5920 -1.1380 -0.1884
 2273SOL    HW218282   1.510   3.889   2.191 -0.6445  1.6402  2.4395
 2274SOL     OW18283   0.024   4.728   6.129 -0.1555 -0.0077  1.0107
 2274SOL    HW118284   0.035   4.712   6.223  0.7047 -0.8773  0.7666
 2274SOL    HW218285   0.015   0.095   6.126 -0.1590 -0.1167 -1.9382
 2275SOL     OW18286   2.379   1.138   7.104  0.6675 -0.3728  0.1944
 2275SOL    HW118287   2.319   1.091   7.162 -2.1286  2.3636 -0.4490
 2275SOL    HW218288   2.420   1.201   7.164 -0.4519  0.1029  0.4729
 2276SOL     OW18289   0.955   2.932   4.930  0.3236  0.8206  0.3707
 2276SOL    HW118290   0.940   2.842   4.898  0.9819  0.5295  0.8836
 2276SOL    HW218291   1.038   2.944   4.885 -0.0011  0.6346 -0.2881
 2277SOL     OW18292   3.963   2.150   6.643  0.1046  0.6493 -0.0824
 2277SOL    HW118293   4.028   2.219   6.658 -0.1556  1.1227 -1.0704
 2277SOL    HW218294   3.883   2.188   6.679 -1.3208 -2.2526 -0.1774
 2278SOL     OW18295   2.888   0.360   5.927  0.0951  0.4378 -0.3569
 2278SOL    HW118296   2.799   0.324   5.922 -0.2276  1.4844 -2.0498
 2278SOL    HW218297   2.939   0.294   5.878 -1.6375 -1.6014  0.5612
 2279SOL     OW18298   2.602   0.980  14.037 -0.7688  0.3500  0.0227
 2279SOL    HW118299   2.568   1.027  13.961 -1.0151 -0.5047 -0.3911
 2279SOL    HW218300   2.625   0.895  14.000  1.8212  1.0094  0.1169
 2280SOL     OW18301   2.630   3.457  12.102  0.2225  0.4444  0.2297
 2280SOL    HW118302   2.556   3.505  12.065 -0.6558  1.3225  3.0861
 2280SOL    HW218303   2.590   3.371  12.114 -0.1425  0.8799  2.1522
 2281SOL     OW18304   3.352   3.356   9.125  0.6021  0.3551  0.2282
 2281SOL    HW118305   3.299   3.375   9.048  1.2843 -2.3831 -0.8995
 2281SOL    HW218306   3.440   3.345   9.090  0.9661 -1.0917  1.5556
 2282SOL     OW18307   0.733   2.407  12.478  0.1237 -0.3657  0.0649
 2282SOL    HW118308   0.720   2.394  12.572  3.8637 -2.3719  0.3250
 2282SOL    HW218309   0.710   2.324  12.436  0.3058  1.0179 -2.7492
 2283SOL     OW18310   2.183   1.021   7.343  0.2313 -0.0837 -0.1512
 2283SOL    HW118311   2.137   1.078   7.281 -0.3911  0.6787  1.0200
 2283SOL    HW218312   2.149   1.070   7.418  0.6596  0.0344 -0.0390
 2284SOL     OW18313   0.944   1.218   0.875  0.3962  0.1613 -0.3830
 2284SOL    HW118314   0.953   1.141   0.930 -1.1245  1.2708  1.4428
 2284SOL    HW218315   0.850   1.229   0.859  0.2299 -0.6036  0.1172
 2285SOL     OW18316   3.167   3.535   8.567 -0.2436 -0.0658 -0.1339
 2285SOL    HW118317   3.182   3.498   8.480  2.0285  0.1623  0.1446
 2285SOL    HW218318   3.081   3.495   8.576  0.2758 -1.7623 -2.8293
 2286SOL     OW18319   3.626   4.229   9.169 -0.2346  0.0597 -0.3339
 2286SOL    HW118320   3.620   4.135   9.149 -2.2053 -0.1023  1.0914
 2286SOL    HW218321   3.534   4.247   9.190 -0.6955 -0.7624 -1.5838
 2287SOL     OW18322   3.218   0.268   8.916  0.1603  0.1278 -0.0690
 2287SOL    HW118323   3.148   0.324   8.883 -0.9505 -2.7880 -2.5529
 2287SOL    HW218324   3.278   0.265   8.842  0.9016  1.4887  0.4499
 2288SOL     OW18325   4.657   3.619   0.856  0.0469 -0.2520 -0.1081
 2288SOL    HW118326   4.618   3.687   0.801  0.5474 -0.4042 -0.6411
 2288SOL    HW218327   4.576   3.585   0.896  0.8504 -0.5733  1.2439
 2289SOL     OW18328   3.250   2.711  12.335 -0.1656  0.4295  0.0350
 2289SOL    HW118329   3.265   2.635  12.391 -0.8726 -0.3585 -0.8339
 2289SOL    HW218330   3.326   2.692  12.280 -0.4006  0.7088 -0.3872
 2290SOL     OW18331   3.883   3.876   4.862 -0.4834  0.4053 -0.9378
 2290SOL    HW118332   3.873   3.796   4.914 -4.3796  1.0098 -0.7433
 2290SOL    HW218333   3.796   3.913   4.878 -0.9204 -1.4159  0.9349
 2291SOL     OW18334   2.673   0.525   7.391 -0.5294 -0.0858  0.0779
 2291SOL    HW118335   2.679   0.442   7.439 -0.0425 -0.0497  0.0751
 2291SOL    HW218336   2.726   0.584   7.444 -1.9692  2.3319 -1.1957
 2292SOL     OW18337   3.183   1.343   1.264  0.4330 -0.8674  0.2021
 2292SOL    HW118338   3.152   1.429   1.291  1.0647 -1.0018  1.3346
 2292SOL    HW218339   3.273   1.371   1.252 -0.1629  0.0195 -2.1791
 2293SOL     OW18340   1.525   1.267  13.512  0.4876  0.3027 -0.1922
 2293SOL    HW118341   1.592   1.325  13.476 -1.0702  1.4615 -1.2076
 2293SOL    HW218342   1.548   1.181  13.476  0.3112  1.3869 -2.8376
 2294SOL     OW18343   1.804   2.145   0.497 -0.0399 -0.4953  0.3062
 2294SOL    HW118344   1.812   2.186   0.584 -1.4954 -1.6401  0.9913
 2294SOL    HW218345   1.841   2.214   0.442 -1.9232 -0.6009 -1.0995
 2295SOL     OW18346   0.793   3.850   2.606  0.0547 -0.1230 -0.2071
 2295SOL    HW118347   0.840   3.830   2.526  0.3954  1.1095 -0.3214
 2295SOL    HW218348   0.856   3.899   2.659  1.5319 -2.6712  0.3504
 2296SOL     OW18349   0.570   1.622   5.464  0.3660 -0.5170  0.0170
 2296SOL    HW118350   0.537   1.664   5.544  0.9422 -0.1480  0.0588
 2296SOL    HW218351   0.531   1.535   5.466  2.1833 -1.3619 -1.1040
 2297SOL     OW18352   2.275   3.130  12.988 -0.3537  0.3288 -0.1630
 2297SOL    HW118353   2.320   3.045  12.992  0.3939  0.6485 -2.2466
 2297SOL    HW218354   2.221   3.137  13.067  1.3070 -0.0785  0.9971
 2298SOL     OW18355   0.875   3.337   6.094  0.0608 -0.1592  0.2080
 2298SOL    HW118356   0.838   3.416   6.132  0.8646  0.1261  0.4002
 2298SOL    HW218357   0.883   3.284   6.173  1.9136 -2.0903 -1.2722
 2299SOL     OW18358   2.455   0.169   5.095 -0.3994 -0.0828  0.1152
 2299SOL    HW118359   2.526   0.200   5.151 -0.0081  3.5105 -2.3816
 2299SOL    HW218360   2.473   0.075   5.099  0.7911  0.1661  0.5286
 2300SOL     OW18361   2.708   1.827   5.412  0.6770 -0.8052  0.4083
 2300SOL    HW118362   2.700   1.874   5.329  1.2701  1.8018  1.8543
 2300SOL    HW218363   2.641   1.881   5.454 -1.0265 -1.5608 -1.3197
 2301SOL     OW18364   4.213   4.194   3.595 -0.2743 -0.8262  0.5993
 2301SOL    HW118365   4.168   4.277   3.577 -0.6342 -1.3654 -0.9906
 2301SOL    HW218366   4.259   4.219   3.675  0.6879 -1.5335  0.2639
 2302SOL     OW18367   2.128   4.273   6.315 -0.2778 -0.4012  0.6888
 2302SOL    HW118368   2.097   4.356   6.279 -0.8358 -0.6089  0.6923
 2302SOL    HW218369   2.164   4.223   6.241 -2.2680 -2.3117  0.9986
 2303SOL     OW18370   4.397   1.056  14.942  0.2511  0.0236 -0.2670
 2303SOL    HW118371   4.445   1.126  14.986 -0.7746  0.0173  0.8557
 2303SOL    HW218372   4.440   1.059  14.856 -0.6409  0.8914 -0.6787
 2304SOL     OW18373   1.179   3.539   3.243 -0.2013 -0.1251 -0.1422
 2304SOL    HW118374   1.230   3.495   3.311 -1.1980 -1.0179  0.0339
 2304SOL    HW218375   1.125   3.590   3.303  1.7737  1.6685  0.0880
 2305SOL     OW18376   2.377   3.079  15.081  0.2700 -0.0163 -0.1924
 2305SOL    HW118377   2.457   3.123  15.053  0.4724 -0.5108 -0.3998
 2305SOL    HW218378   2.315   3.151  15.072  0.1334 -0.0575  0.4639
 2306SOL     OW18379   2.309   0.073   0.776  0.3509 -0.1648 -0.3296
 2306SOL    HW118380   2.231   0.084   0.831  0.5168 -0.9615  0.0670
 2306SOL    HW218381   2.263   0.022   0.709 -0.8218  1.0812 -0.4717
 2307SOL     OW18382   1.713   1.644   2.653 -0.0424  0.8762  0.0813
 2307SOL    HW118383   1.803   1.655   2.681  0.3246  0.9834 -1.1373
 2307SOL    HW218384   1.716   1.549   2.642 -1.8250  1.0225 -1.6917
 2308SOL     OW18385   1.295   2.080   5.820  0.2105  0.2550  0.5537
 2308SOL    HW118386   1.205   2.112   5.819 -0.0650 -0.4230  3.4716
 2308SOL    HW218387   1.339   2.153   5.864  1.1024  0.6175 -0.9435
 2309SOL     OW18388   2.517   3.909  11.448  0.0000  0.0536 -0.0504
 2309SOL    HW118389   2.473   3.891  11.530  1.3205 -0.2787  0.5726
 2309SOL    HW218390   2.473   3.989  11.416  2.9397  0.5835 -2.7905
 2310SOL     OW18391   1.219   2.401  17.524  0.2604  0.2765 -0.1470
 2310SOL    HW118392   1.280   2.433  17.458  0.6375 -1.4223 -0.6396
 2310SOL    HW218393   1.140   2.445  17.493 -0.2538 -0.7811 -0.3500
 2311SOL     OW18394   1.010   3.078   6.004  0.7297  0.2865 -0.0241
 2311SOL    HW118395   0.970   3.165   6.007 -0.5224 -0.2914 -0.3348
 2311SOL    HW218396   0.988   3.035   6.086  3.2760 -2.6430 -0.8563
 2312SOL     OW18397   1.488   3.641   9.497 -0.4235 -0.2562 -0.3610
 2312SOL    HW118398   1.553   3.581   9.460 -1.6374  0.0497 -2.9174
 2312SOL    HW218399   1.463   3.589   9.574 -2.3822 -0.7997 -1.3526
 2313SOL     OW18400   3.314   3.516   0.751 -0.3454  0.0295 -0.4970
 2313SOL    HW118401   3.235   3.567   0.732 -0.1278  0.2958 -0.6773
 2313SOL    HW218402   3.287   3.479   0.836  2.4495  0.5386  0.6341
 2314SOL     OW18403   0.317   4.689   9.164  0.7713  0.2464  0.4986
 2314SOL    HW118404   0.261   0.008   9.102  2.0703  1.0014 -0.1234
 2314SOL    HW218405   0.309   0.013   9.244 -1.4372 -0.0640  0.4705
 2315SOL     OW18406   3.053   2.671   8.524  0.5045  0.0745  0.2057
 2315SOL    HW118407   3.074   2.588   8.568  2.5174  1.1676  1.2885
 2315SOL    HW218408   2.961   2.654   8.503 -0.4335  2.1097  2.6655
 2316SOL     OW18409   4.668   3.267  17.135  0.3148 -0.1494 -0.2532
 2316SOL    HW118410   4.680   3.326  17.060 -2.2809 -1.6965 -1.8751
 2316SOL    HW218411   0.026   3.268  17.179  1.4169  2.1621 -2.4308
 2317SOL     OW18412   2.443   1.348   1.452  0.2219 -0.1662  0.0734
 2317SOL    HW118413   2.534   1.366   1.431  0.7738 -0.7405  1.9890
 2317SOL    HW218414   2.448   1.303   1.536 -0.9880  0.3170  0.4048
 2318SOL     OW18415   0.715   0.871   8.428 -0.3095  0.3220 -0.5876
 2318SOL    HW118416   0.763   0.927   8.488 -0.9120  0.1070  0.0946
 2318SOL    HW218417   0.770   0.793   8.421 -0.6395  0.0701 -0.3737
 2319SOL     OW18418   0.746   3.033  10.828 -0.5172 -0.3381  0.2610
 2319SOL    HW118419   0.800   2.960  10.859  0.0742 -0.1249 -0.2718
 2319SOL    HW218420   0.684   3.038  10.900  0.5506 -1.3220  1.2466
 2320SOL     OW18421   0.392   3.459   3.258  0.1688 -0.3385 -0.3900
 2320SOL    HW118422   0.403   3.430   3.167  2.1911  0.7975 -0.5211
 2320SOL    HW218423   0.449   3.536   3.268 -2.5384  1.6366 -0.3324
 2321SOL     OW18424   0.129   1.248   0.028  0.0964 -0.2224  0.3146
 2321SOL    HW118425   0.200   1.310   0.014  0.4714 -1.0375 -1.3619
 2321SOL    HW218426   0.170   1.181  17.685  1.5312  0.9011  0.0445
 2322SOL     OW18427   3.947   2.138  11.271  0.1711 -0.1670 -0.3760
 2322SOL    HW118428   4.037   2.137  11.239  0.1570 -0.7213 -0.3975
 2322SOL    HW218429   3.917   2.060  11.224 -0.3212 -0.9638  1.2597
 2323SOL     OW18430   2.886   3.585   8.261  0.1099  0.6434 -0.0474
 2323SOL    HW118431   2.796   3.557   8.251  0.6767 -1.9553  2.0942
 2323SOL    HW218432   2.889   3.627   8.347  1.7465  1.5364 -0.5314
 2324SOL     OW18433   2.577   3.150   8.853  0.0532 -0.3201  0.5464
 2324SOL    HW118434   2.553   3.236   8.888  0.5251  0.4733 -1.0398
 2324SOL    HW218435   2.659   3.177   8.811 -0.3181 -1.1739 -0.7360
 2325SOL     OW18436   3.978   1.401   2.821 -0.6523  0.2248  0.1936
 2325SOL    HW118437   4.067   1.374   2.801 -1.2642 -2.4366  1.0749
 2325SOL    HW218438   3.942   1.316   2.847  1.2423 -1.1798 -1.8397
 2326SOL     OW18439   2.617   4.188  11.679  0.3159 -0.3245  0.2401
 2326SOL    HW118440   2.592   4.098  11.699  1.4064 -0.0592  2.6896
 2326SOL    HW218441   2.679   4.207  11.748 -0.9274 -0.0555  1.2778
 2327SOL     OW18442   2.108   1.369   1.148  0.1441 -0.0220  0.1165
 2327SOL    HW118443   2.019   1.394   1.125 -0.4970 -1.9170  0.5144
 2327SOL    HW218444   2.126   1.282   1.110 -0.0832  0.0262 -0.0966
 2328SOL     OW18445   0.172   0.051   8.965  0.1823  0.5602 -0.3976
 2328SOL    HW118446   0.114   0.127   8.967  1.7517  1.7379  0.6593
 2328SOL    HW218447   0.231   0.079   8.894 -0.3930  1.7733 -0.4023
 2329SOL     OW18448   4.409   0.432   3.029 -0.1202 -0.2371  0.3227
 2329SOL    HW118449   4.399   0.450   3.122 -0.9387  2.8128 -0.3389
 2329SOL    HW218450   4.328   0.383   3.016 -0.3009 -0.0199  0.6416
 2330SOL     OW18451   3.168   1.987   2.114 -0.1444 -0.0436 -0.2653
 2330SOL    HW118452   3.259   1.996   2.084 -0.5837  3.1915 -0.6587
 2330SOL    HW218453   3.162   2.070   2.161  0.7420 -0.5871  0.8012
 2331SOL     OW18454   1.639   4.292   4.728 -0.6773  0.1974  0.4021
 2331SOL    HW118455   1.692   4.212   4.728 -0.4995  0.3051  1.7286
 2331SOL    HW218456   1.639   4.315   4.636  2.2734  0.5919  0.5133
 2332SOL     OW18457   3.606   1.401   6.076 -0.1591  0.1887  0.3647
 2332SOL    HW118458   3.692   1.358   6.079  0.6158  1.6481 -1.1497
 2332SOL    HW218459   3.577   1.365   5.992  2.0151 -2.5605  0.7954
 2333SOL     OW18460   2.460   0.648  11.119  0.1788  0.0937  0.4423
 2333SOL    HW118461   2.476   0.609  11.033 -2.1414  0.9889 -0.4070
 2333SOL    HW218462   2.412   0.725  11.090  0.0248  0.5184  1.8437
 2334SOL     OW18463   3.751   1.895   2.029 -0.1743 -0.2875 -0.6350
 2334SOL    HW118464   3.711   1.962   1.975 -1.7357  0.2471  1.1915
 2334SOL    HW218465   3.817   1.948   2.074 -0.7722  0.6007 -0.8119
 2335SOL     OW18466   3.837   1.640   2.617 -0.3783 -0.2790  0.3538
 2335SOL    HW118467   3.829   1.667   2.526  0.3305  0.5786  0.5461
 2335SOL    HW218468   3.768   1.574   2.610 -0.6284 -0.1171  1.3435
 2336SOL     OW18469   3.968   3.654  15.384  0.0849  0.1477  0.4565
 2336SOL    HW118470   4.062   3.639  15.371 -0.7951 -2.2156 -3.1053
 2336SOL    HW218471   3.959   3.667  15.478 -2.2077  0.0173  0.2466
 2337SOL     OW18472   1.205   0.616  17.046  0.1378 -0.0221  0.0256
 2337SOL    HW118473   1.201   0.597  16.952 -1.9482  1.8873 -0.2904
 2337SOL    HW218474   1.295   0.647  17.056  1.1115 -1.9414 -2.7867
 2338SOL     OW18475   4.066   0.571   8.596 -0.1461 -0.0053 -0.1435
 2338SOL    HW118476   4.065   0.507   8.667 -0.0532  0.7914  0.5684
 2338SOL    HW218477   4.135   0.542   8.536 -0.2712 -0.2346 -0.1771
 2339SOL     OW18478   3.682   0.085   3.560 -0.3670 -0.2134  0.0421
 2339SOL    HW118479   3.594   0.059   3.532 -0.5452 -0.6748  1.0576
 2339SOL    HW218480   3.664   0.108   3.651 -0.1360 -1.3697  0.3711
 2340SOL     OW18481   2.076   3.449  11.445 -0.5860 -0.3018  0.3082
 2340SOL    HW118482   2.147   3.401  11.488  0.4610 -0.0143 -1.1127
 2340SOL    HW218483   1.997   3.402  11.474  0.8781 -1.2691  2.7268
 2341SOL     OW18484   3.693   1.895  12.112  0.6272 -0.5196  0.0711
 2341SOL    HW118485   3.764   1.865  12.056  2.6830  2.2971  1.1529
 2341SOL    HW218486   3.626   1.878  12.047  0.8433  0.7409 -0.4778
 2342SOL     OW18487   3.269   0.831   9.296  0.3168  0.0939 -0.1025
 2342SOL    HW118488   3.215   0.845   9.374  0.0158  1.9276 -0.6455
 2342SOL    HW218489   3.241   0.741   9.278  0.0527  0.2665 -0.5382
 2343SOL     OW18490   1.579   3.740   4.546 -0.3017  0.6369 -0.6928
 2343SOL    HW118491   1.669   3.708   4.536 -0.4404  0.4285 -1.3193
 2343SOL    HW218492   1.544   3.681   4.612  0.2737  3.7348  2.4051
 2344SOL     OW18493   3.283   3.695   1.734  0.5573  0.0750  0.5559
 2344SOL    HW118494   3.228   3.734   1.667  0.4481  0.5698  0.9338
 2344SOL    HW218495   3.227   3.620   1.752  0.2602 -0.0531 -0.9069
 2345SOL     OW18496   4.092   1.054   8.099  0.1397  0.5296 -0.4578
 2345SOL    HW118497   4.113   1.146   8.080 -0.6596  1.2819  2.4151
 2345SOL    HW218498   4.103   1.054   8.194 -0.2997  0.2666 -0.4084
 2346SOL     OW18499   4.068   1.551  16.567 -0.6488 -0.6298 -0.2005
 2346SOL    HW118500   4.073   1.456  16.560 -4.8376 -0.8756  0.7354
 2346SOL    HW218501   4.156   1.578  16.595 -0.9638  0.6484 -0.4383
 2347SOL     OW18502   1.490   3.452  14.581 -0.7440 -0.1666  0.2550
 2347SOL    HW118503   1.489   3.368  14.534 -0.9380  0.9333 -1.7007
 2347SOL    HW218504   1.507   3.432  14.672 -2.4421 -2.1314  0.1505
 2348SOL     OW18505   0.561   3.585  14.656 -0.1730  0.3033 -0.2020
 2348SOL    HW118506   0.506   3.661  14.675  0.8422  0.2794  2.8504
 2348SOL    HW218507   0.560   3.588  14.560 -1.2235 -1.4396 -0.2507
 2349SOL     OW18508   2.293   3.112  11.782 -0.6077  0.2207 -0.5292
 2349SOL    HW118509   2.240   3.191  11.799 -0.7148  0.4436 -1.9209
 2349SOL    HW218510   2.380   3.140  11.755  0.6662 -1.4860  1.8017
 2350SOL     OW18511   1.093   3.588  11.238  0.5301 -0.3353  0.1064
 2350SOL    HW118512   1.126   3.498  11.235 -1.7551 -1.2574  2.6905
 2350SOL    HW218513   1.002   3.574  11.264  0.8939 -0.9880  1.0137
 2351SOL     OW18514   0.913   3.585   4.102 -0.1522 -0.7983  0.0856
 2351SOL    HW118515   0.917   3.606   4.195  0.1237 -2.6478  0.4901
 2351SOL    HW218516   0.824   3.552   4.094 -1.0050  1.1658  1.4217
 2352SOL     OW18517   4.418   1.872   8.096 -1.0482 -0.4505 -0.6677
 2352SOL    HW118518   4.430   1.777   8.087 -1.0991 -0.4456 -0.7787
 2352SOL    HW218519   4.408   1.874   8.192 -0.3179  0.8549 -0.6190
 2353SOL     OW18520   1.331   3.485   0.394  0.1191  0.3560 -0.3975
 2353SOL    HW118521   1.319   3.537   0.474 -2.3961  0.6550 -0.9782
 2353SOL    HW218522   1.367   3.404   0.430  0.7552  0.8398  0.0691
 2354SOL     OW18523   0.863   2.947   7.057 -0.9108 -0.0726 -0.4187
 2354SOL    HW118524   0.937   2.907   7.012  0.0367  1.8554 -0.5662
 2354SOL    HW218525   0.785   2.897   7.033  0.7720 -4.1054  2.6018
 2355SOL     OW18526   2.158   3.106   7.423 -0.3096 -0.0436  0.0326
 2355SOL    HW118527   2.135   3.096   7.331  1.8524  1.0905 -0.6354
 2355SOL    HW218528   2.169   3.013   7.444  1.0160 -0.5228 -2.8015
 2356SOL     OW18529   4.040   1.356   4.649  0.0518 -0.8975  0.3416
 2356SOL    HW118530   3.969   1.402   4.693  0.5184  0.7746 -0.6328
 2356SOL    HW218531   4.037   1.368   4.554 -1.1401  0.2134  0.5229
 2357SOL     OW18532   0.491   4.282   5.728 -0.2696  0.3814 -0.0925
 2357SOL    HW118533   0.406   4.246   5.706  0.4471 -1.8549  0.7319
 2357SOL    HW218534   0.520   4.319   5.644 -0.9989  1.1394 -0.0086
 2358SOL     OW18535   0.501   2.033   8.136 -0.8160 -0.2721 -0.4851
 2358SOL    HW118536   0.439   1.961   8.125 -0.7588 -0.6841  1.9297
 2358SOL    HW218537   0.464   2.102   8.081 -0.2760  0.5066  0.1260
 2359SOL     OW18538   2.283   1.517   4.533 -0.7604 -0.1119 -0.1551
 2359SOL    HW118539   2.324   1.479   4.456  1.9405  2.2121  0.1354
 2359SOL    HW218540   2.360   1.560   4.570  0.5161 -0.1988 -2.7325
 2360SOL     OW18541   1.642   0.180  14.632 -0.1085 -0.4278 -0.1664
 2360SOL    HW118542   1.582   0.251  14.610  0.7406 -0.2055 -1.8011
 2360SOL    HW218543   1.653   0.208  14.723  0.3269 -2.5392  0.4262
 2361SOL     OW18544   1.914   4.450   8.911  0.0733  0.2350 -1.0115
 2361SOL    HW118545   1.908   4.356   8.930  0.6704  0.8650  2.3808
 2361SOL    HW218546   1.829   4.475   8.947  0.0643 -0.0165 -0.8569
 2362SOL     OW18547   4.370   0.597   4.216  0.3814 -0.3847 -0.1832
 2362SOL    HW118548   4.379   0.548   4.298 -2.4096  1.2499  1.1078
 2362SOL    HW218549   4.435   0.544   4.169  0.7969 -0.3843  0.3916
 2363SOL     OW18550   2.556   3.107  10.590  0.4794 -0.4656  0.5737
 2363SOL    HW118551   2.536   3.074  10.502 -1.0465 -2.3580  1.6293
 2363SOL    HW218552   2.474   3.157  10.594  0.6085 -0.3309  1.5382
 2364SOL     OW18553   0.993   2.564  12.420  0.0379 -0.1645 -0.0782
 2364SOL    HW118554   0.910   2.527  12.449  0.7276 -0.3187  1.7015
 2364SOL    HW218555   1.046   2.579  12.499 -0.9140  2.0241  0.1323
 2365SOL     OW18556   0.168   2.082   2.722 -0.1940 -0.1692  0.1667
 2365SOL    HW118557   0.142   1.992   2.702  2.9527 -1.3711  1.5317
 2365SOL    HW218558   0.260   2.066   2.702 -0.2216  2.0875 -1.7595
 2366SOL     OW18559   3.622   3.143  11.419  0.2041 -0.5010 -0.0005
 2366SOL    HW118560   3.601   3.230  11.452 -0.6332  0.6051 -3.4441
 2366SOL    HW218561   3.600   3.081  11.489  0.6663 -1.3595 -0.6145
 2367SOL     OW18562   4.251   2.941   1.825  0.2103 -0.1763  0.0396
 2367SOL    HW118563   4.274   2.898   1.907  1.5593  1.1858  0.3912
 2367SOL    HW218564   4.205   2.876   1.771 -0.9365  1.0722 -0.4972
 2368SOL     OW18565   2.575   3.568  10.856 -0.3077 -0.1180 -0.1884
 2368SOL    HW118566   2.546   3.644  10.805 -0.5321  0.0356  0.1670
 2368SOL    HW218567   2.618   3.612  10.929  1.1809 -1.6284 -0.1655
 2369SOL     OW18568   0.396   2.110   8.955  0.6265  0.7560 -0.3572
 2369SOL    HW118569   0.443   2.029   8.937  1.4097  0.6701  2.1054
 2369SOL    HW218570   0.473   2.167   8.947  0.8660  0.7336  1.6934
 2370SOL     OW18571   3.065   2.003   1.496 -0.1243  0.1119  0.6917
 2370SOL    HW118572   3.085   2.013   1.589  2.0275  4.2542 -0.2469
 2370SOL    HW218573   3.151   1.980   1.460 -0.1632  0.2545  0.5110
 2371SOL     OW18574   4.562   1.841   1.513  0.4098  0.0592 -0.0170
 2371SOL    HW118575   4.649   1.860   1.548  0.1708 -1.5445  1.4762
 2371SOL    HW218576   4.551   1.747   1.532  1.5514  0.4549  2.5711
 2372SOL     OW18577   4.093   1.643  17.010 -0.1761  0.0319 -0.2107
 2372SOL    HW118578   4.101   1.565  16.956 -0.4646  0.4673 -0.8815
 2372SOL    HW218579   4.036   1.619  17.083  0.0228 -1.0103 -0.4080
 2373SOL     OW18580   2.943   4.071  13.432  0.4558  0.1876  0.4591
 2373SOL    HW118581   2.962   4.114  13.515  2.1557 -0.5175  0.4468
 2373SOL    HW218582   2.918   3.983  13.462  0.4922  0.5962  1.6787
 2374SOL     OW18583   3.647   4.576  15.138  0.9195  0.0172  0.6928
 2374SOL    HW118584   3.715   4.621  15.188 -0.6727  1.0538  1.9213
 2374SOL    HW218585   3.692   4.538  15.062  1.1124 -2.9344  2.3089
 2375SOL     OW18586   3.485   2.372   2.517 -0.8944 -0.1567  0.4940
 2375SOL    HW118587   3.462   2.346   2.607  1.2188  0.3442  1.1849
 2375SOL    HW218588   3.446   2.459   2.514  0.8528  0.5986 -0.2066
 2376SOL     OW18589   3.705   4.505   8.279  0.3704 -0.2131  0.4760
 2376SOL    HW118590   3.781   4.538   8.231  0.3274 -1.2682 -0.3260
 2376SOL    HW218591   3.683   4.583   8.330 -1.3792  0.1782 -0.8762
 2377SOL     OW18592   1.276   3.875   5.190 -0.1410  0.0063 -0.5891
 2377SOL    HW118593   1.245   3.901   5.103 -1.5604 -1.7500 -0.5817
 2377SOL    HW218594   1.223   3.798   5.209 -0.9085  0.5491 -0.5442
 2378SOL     OW18595   4.063   4.112  17.594 -0.1484 -0.4180  0.4057
 2378SOL    HW118596   4.032   4.052  17.662  0.6840 -3.0927 -1.5238
 2378SOL    HW218597   4.068   4.194  17.642 -1.7231  1.9710 -3.5294
 2379SOL     OW18598   1.778   4.112  13.476 -0.1782  0.2245 -0.1401
 2379SOL    HW118599   1.690   4.118  13.440  0.5325  2.8389 -1.4482
 2379SOL    HW218600   1.790   4.021  13.449  1.4475  0.5206 -0.3970
 2380SOL     OW18601   1.878   2.313  13.148 -0.4948  0.3134 -0.2895
 2380SOL    HW118602   1.821   2.390  13.144  1.5957  1.8982  1.0341
 2380SOL    HW218603   1.966   2.349  13.147 -0.4317  0.1970  1.8086
 2381SOL     OW18604   2.379   0.082   8.654  0.0344  0.1049 -0.1201
 2381SOL    HW118605   2.370   0.131   8.736 -0.5644  1.3026 -0.8846
 2381SOL    HW218606   2.466   0.112   8.629  0.1356 -1.7144 -1.9341
 2382SOL     OW18607   2.077   0.967   2.617  0.1164 -0.1505 -0.5247
 2382SOL    HW118608   2.166   0.943   2.645 -0.1659 -2.7677 -1.9356
 2382SOL    HW218609   2.061   0.896   2.556  0.2295 -0.0490 -0.6738
 2383SOL     OW18610   4.430   4.270  14.034  0.4002  0.1294 -0.6900
 2383SOL    HW118611   4.431   4.349  13.980 -2.9467  0.5885 -0.0584
 2383SOL    HW218612   4.336   4.260  14.020  0.6273  0.5569 -2.5539
 2384SOL     OW18613   0.147   2.377  14.275  0.1712  0.1263 -0.0017
 2384SOL    HW118614   0.142   2.422  14.191 -1.0203 -4.0257 -2.1289
 2384SOL    HW218615   0.137   2.445  14.341  1.3386 -0.7674  1.0937
 2385SOL     OW18616   2.408   4.334   3.816 -0.0624 -0.3564  0.3820
 2385SOL    HW118617   2.341   4.387   3.859  0.5137  1.1769 -0.6324
 2385SOL    HW218618   2.369   4.315   3.731  0.2584  0.4828  0.0533
 2386SOL     OW18619   1.381   1.827  13.085 -0.0495 -0.0901 -0.0175
 2386SOL    HW118620   1.307   1.881  13.113  0.1061 -0.0047  0.2251
 2386SOL    HW218621   1.389   1.751  13.142 -1.0105  0.1472  0.4368
 2387SOL     OW18622   1.833   4.132   5.619  0.3029 -0.0643 -0.5611
 2387SOL    HW118623   1.768   4.100   5.681 -0.5893 -0.2073 -1.5748
 2387SOL    HW218624   1.790   4.217   5.603  0.1586 -0.0926 -0.3272
 2388SOL     OW18625   3.605   2.414   8.297 -0.5292  0.2099  0.0145
 2388SOL    HW118626   3.692   2.447   8.273  0.4459 -0.8696  2.0795
 2388SOL    HW218627   3.625   2.412   8.390  1.5915  0.5030 -0.4220
 2389SOL     OW18628   2.226   0.637   2.734  0.3085  0.3043  0.0157
 2389SOL    HW118629   2.149   0.674   2.776  0.5132  1.4024 -0.5693
 2389SOL    HW218630   2.281   0.716   2.736 -0.8864  1.1158  0.6130
 2390SOL     OW18631   1.747   1.857   6.671 -0.6331  0.1093  0.0344
 2390SOL    HW118632   1.828   1.806   6.674 -1.9039 -1.8511  0.7600
 2390SOL    HW218633   1.690   1.805   6.726 -1.8241 -0.3760 -1.6456
 2391SOL     OW18634   0.173   0.163  14.167 -0.0874  0.3863  0.1391
 2391SOL    HW118635   0.156   0.136  14.077  5.0430  0.1822 -0.8204
 2391SOL    HW218636   0.251   0.219  14.168  0.0572  0.1849  0.3375
 2392SOL     OW18637   3.318   2.246   1.452 -0.3193  0.0794 -0.2435
 2392SOL    HW118638   3.377   2.321   1.446  1.5999 -1.4908 -0.9408
 2392SOL    HW218639   3.239   2.277   1.496  0.6023  0.4785  1.1357
 2393SOL     OW18640   4.222   1.501   4.850 -0.1248  0.0429  0.7111
 2393SOL    HW118641   4.242   1.580   4.800  1.2703 -0.1279  1.0054
 2393SOL    HW218642   4.193   1.438   4.784  1.4834 -0.1351  0.1727
 2394SOL     OW18643   4.695   4.238  11.339  0.3187  0.4974  0.1596
 2394SOL    HW118644   0.044   4.229  11.395  2.5027  2.0481 -2.5595
 2394SOL    HW218645   4.626   4.249  11.404  1.6310  2.8172  1.1646
 2395SOL     OW18646   1.614   0.558  12.782 -0.6649  0.4355  0.0917
 2395SOL    HW118647   1.673   0.559  12.706  0.1542  0.5228  0.7306
 2395SOL    HW218648   1.670   0.505  12.838  0.1272  0.6745 -0.4724
 2396SOL     OW18649   2.934   3.467   0.834 -0.0869 -0.2730 -0.0028
 2396SOL    HW118650   2.977   3.549   0.807  2.0522 -1.3737  0.0923
 2396SOL    HW218651   2.947   3.470   0.928 -0.7993 -2.2871  0.1496
 2397SOL     OW18652   3.448   0.634  15.354  0.0181  0.6902 -0.7130
 2397SOL    HW118653   3.393   0.703  15.318 -0.2748  1.1138  0.5310
 2397SOL    HW218654   3.386   0.590  15.412  1.6779 -1.3902 -0.4916
 2398SOL     OW18655   3.260   0.746  17.646  0.2542 -0.0320  0.2870
 2398SOL    HW118656   3.288   0.752   0.026 -1.4544  2.4339  0.6523
 2398SOL    HW218657   3.184   0.805  17.642  0.6923  0.4748 -0.6056
 2399SOL     OW18658   0.966   2.720  17.087  0.4997  0.1162  0.0216
 2399SOL    HW118659   0.896   2.654  17.092 -0.4794  1.1088 -0.5118
 2399SOL    HW218660   0.914   2.800  17.098  0.8124  0.3489 -0.2109
 2400SOL     OW18661   2.685   4.324   3.636  0.3046 -0.0852 -0.7264
 2400SOL    HW118662   2.757   4.304   3.577 -0.1619  1.5075 -1.8251
 2400SOL    HW218663   2.618   4.282   3.582 -0.7305 -1.7827  1.9093
 2401SOL     OW18664   4.658   1.162   5.867  0.1778 -0.1276 -0.0336
 2401SOL    HW118665   4.660   1.127   5.956 -0.9727 -0.9609 -0.3187
 2401SOL    HW218666   4.644   1.253   5.891  1.0030  0.7485 -2.9043
 2402SOL     OW18667   2.111   0.991  12.604  0.4379 -0.0952 -0.7947
 2402SOL    HW118668   2.049   0.927  12.569  1.1931 -0.6338 -1.1625
 2402SOL    HW218669   2.071   1.015  12.687  0.0134 -1.1983 -0.6780
 2403SOL     OW18670   2.261   4.532   8.781  0.0333  0.0136  0.0992
 2403SOL    HW118671   2.182   4.582   8.757 -0.0496  0.2550  0.8722
 2403SOL    HW218672   2.328   4.600   8.776 -1.3282  1.2656 -1.1555
 2404SOL     OW18673   0.477   3.590  13.081 -0.1369  0.3271 -0.6689
 2404SOL    HW118674   0.477   3.581  13.177 -0.2757 -0.4086 -0.7396
 2404SOL    HW218675   0.541   3.662  13.078 -0.9927  1.0849 -0.7891
 2405SOL     OW18676   2.030   0.129   7.331 -0.4713 -0.1507  0.2304
 2405SOL    HW118677   2.015   0.072   7.406 -2.1332  1.1993  0.9175
 2405SOL    HW218678   2.083   0.202   7.362  0.5871 -1.6529  1.9912
 2406SOL     OW18679   3.743   1.552   3.277  0.6379 -0.1942 -0.5930
 2406SOL    HW118680   3.709   1.624   3.330  1.2525 -1.0001  0.9042
 2406SOL    HW218681   3.671   1.544   3.214 -2.3273 -0.0466  2.7820
 2407SOL     OW18682   4.420   0.454   4.444 -0.6054 -0.1243 -0.7092
 2407SOL    HW118683   4.456   0.372   4.477 -0.5315  0.0725 -0.3110
 2407SOL    HW218684   4.413   0.509   4.522 -0.2618  0.0410 -0.7937
 2408SOL     OW18685   2.614   2.210  11.072  0.5987 -0.4838 -0.4793
 2408SOL    HW118686   2.622   2.211  10.977 -1.4986 -2.7300 -0.6677
 2408SOL    HW218687   2.692   2.166  11.106  1.6703  1.3409 -0.5459
 2409SOL     OW18688   4.388   3.113   3.337  0.0071  0.4672  0.2133
 2409SOL    HW118689   4.435   3.191   3.305  1.6896 -0.8225 -0.4290
 2409SOL    HW218690   4.468   3.061   3.346  0.9793  1.8692 -0.1551
 2410SOL     OW18691   3.471   3.309   1.209 -0.3674 -0.4679 -0.2447
 2410SOL    HW118692   3.437   3.256   1.137 -1.1309  0.6060 -0.6771
 2410SOL    HW218693   3.498   3.241   1.272 -0.0464  1.9607  2.2395
 2411SOL     OW18694   1.051   1.847   6.432 -0.8842  0.0802  0.2213
 2411SOL    HW118695   1.143   1.836   6.458 -0.8545  0.5532  0.3056
 2411SOL    HW218696   1.036   1.791   6.356  1.2026 -0.4580  0.2159
 2412SOL     OW18697   1.732   0.580   7.265  0.4029 -0.1698 -0.2566
 2412SOL    HW118698   1.818   0.613   7.291 -1.6108  2.8805  2.5012
 2412SOL    HW218699   1.742   0.487   7.289  1.5575  0.0869  0.2605
 2413SOL     OW18700   0.071   0.739  10.573 -0.1616 -0.3041 -0.4939
 2413SOL    HW118701   4.706   0.739  10.547 -0.0246 -2.3196 -1.0228
 2413SOL    HW218702   0.085   0.817  10.626 -2.6609 -0.5873  0.5799
 2414SOL     OW18703   3.674   1.270  10.690 -0.1234  0.2040 -0.3015
 2414SOL    HW118704   3.663   1.176  10.701 -2.6297  0.9237  3.4179
 2414SOL    HW218705   3.677   1.273  10.595 -0.5558 -0.4778 -0.3367
 2415SOL     OW18706   1.856   4.350  11.479 -0.2976  0.3235 -0.0676
 2415SOL    HW118707   1.863   4.394  11.564  0.1416 -0.5245  0.3355
 2415SOL    HW218708   1.936   4.362  11.429  0.0980  0.3674  0.5757
 2416SOL     OW18709   0.427   3.982   8.318 -0.2047 -0.3344 -0.0632
 2416SOL    HW118710   0.405   3.963   8.227  1.1487 -0.6094 -0.3299
 2416SOL    HW218711   0.414   4.076   8.332 -3.0723 -0.8216  0.6332
 2417SOL     OW18712   1.388   2.060   7.215 -0.6008  0.7334 -0.3011
 2417SOL    HW118713   1.472   2.089   7.252 -0.0033 -2.7849  1.1650
 2417SOL    HW218714   1.396   2.069   7.120 -0.9860  1.2868 -0.2825
 2418SOL     OW18715   0.856   3.527   2.887  0.2574 -0.1667  0.5623
 2418SOL    HW118716   0.928   3.475   2.921  1.5127 -0.1460 -2.1060
 2418SOL    HW218717   0.905   3.594   2.840 -0.7170 -0.0970 -0.3400
 2419SOL     OW18718   0.229   0.656   3.158  0.1012 -0.4627 -0.8113
 2419SOL    HW118719   0.238   0.749   3.177 -1.6949 -0.7442  1.3741
 2419SOL    HW218720   0.319   0.627   3.143  1.8326  2.6575  3.4812
 2420SOL     OW18721   0.468   3.870  16.683  0.2338 -0.0106  0.7268
 2420SOL    HW118722   0.512   3.951  16.657 -0.6087  0.0904 -0.3803
 2420SOL    HW218723   0.378   3.871  16.650  0.0573 -0.3698  1.1990
 2421SOL     OW18724   0.614   2.658   2.391 -0.1660 -0.2798 -0.6242
 2421SOL    HW118725   0.695   2.702   2.414 -0.3475 -0.4831  0.3906
 2421SOL    HW218726   0.650   2.570   2.378  2.9417  0.5135  2.7507
 2422SOL     OW18727   0.423   0.156  17.157  0.1011  0.6823 -0.1685
 2422SOL    HW118728   0.511   0.185  17.182  0.4949  1.3088 -2.3515
 2422SOL    HW218729   0.411   0.222  17.089  0.3161 -1.5739 -2.3857
 2423SOL     OW18730   1.422   2.047   8.858  0.6616 -0.1845  0.0547
 2423SOL    HW118731   1.375   2.110   8.914 -2.8642 -1.6000 -1.3031
 2423SOL    HW218732   1.361   2.018   8.791 -1.7130  1.5342  1.4690
 2424SOL     OW18733   4.725   2.288   2.918 -0.6016 -0.3958 -0.2835
 2424SOL    HW118734   4.660   2.310   2.852 -1.4535  0.1123  0.7216
 2424SOL    HW218735   0.056   2.230   2.870 -0.1702 -0.3203  0.1460
 2425SOL     OW18736   0.422   0.120   4.372 -0.4731 -0.7116 -0.1818
 2425SOL    HW118737   0.506   0.084   4.399  0.3175  2.9006  2.1463
 2425SOL    HW218738   0.436   0.152   4.283 -0.4122 -0.5033 -0.0977
 2426SOL     OW18739   4.104   2.101   9.745  0.2227  0.5049 -0.4164
 2426SOL    HW118740   4.027   2.112   9.800  1.3126 -0.2872  1.2689
 2426SOL    HW218741   4.071   2.034   9.686 -0.1307 -1.2162  1.7422
 2427SOL     OW18742   4.072   1.130   5.547 -0.0101  0.5367  0.4816
 2427SOL    HW118743   4.033   1.125   5.460 -0.1096  1.4807  0.4753
 2427SOL    HW218744   3.989   1.114   5.593  0.2712 -0.0651  0.7894
 2428SOL     OW18745   1.923   2.272  16.264  0.0962  0.4165 -0.4946
 2428SOL    HW118746   1.986   2.281  16.192  1.0685 -0.1304  0.2890
 2428SOL    HW218747   1.859   2.230  16.207 -0.9315 -0.2904  1.1977
 2429SOL     OW18748   1.036   1.612   5.867 -0.4805 -0.5345  0.2110
 2429SOL    HW118749   1.068   1.639   5.953  1.3074  1.0078 -0.9431
 2429SOL    HW218750   1.097   1.542   5.844  1.5662  2.0222 -2.1288
 2430SOL     OW18751   4.365   0.812  12.814 -0.4214 -0.0455  0.1181
 2430SOL    HW118752   4.379   0.905  12.830 -0.1373 -0.0359 -0.1907
 2430SOL    HW218753   4.375   0.811  12.719 -0.2609  1.9204  0.1117
 2431SOL     OW18754   4.010   4.139   6.384  0.6339  0.0254  0.0524
 2431SOL    HW118755   4.094   4.107   6.415 -0.6341 -0.9651  2.4929
 2431SOL    HW218756   4.023   4.231   6.406 -1.3844 -0.0788  1.6999
 2432SOL     OW18757   2.419   1.669   7.982 -0.5529 -0.0115  0.0322
 2432SOL    HW118758   2.388   1.706   8.064 -1.6098  0.8623 -0.7694
 2432SOL    HW218759   2.450   1.742   7.928  0.4939  0.4032  1.1700
 2433SOL     OW18760   0.180   4.101   9.380 -0.0351 -0.0755  0.3657
 2433SOL    HW118761   0.153   4.179   9.332 -0.2564 -1.2588 -1.4205
 2433SOL    HW218762   0.091   4.078   9.408  0.1138  0.4462  1.2884
 2434SOL     OW18763   1.671   2.138  10.534 -0.3210  0.1342 -0.0940
 2434SOL    HW118764   1.591   2.087  10.520 -0.7492  0.4967  1.0462
 2434SOL    HW218765   1.674   2.178  10.447  0.0830 -1.0632 -0.6262
 2435SOL     OW18766   1.371   2.162  14.969 -0.0101  0.1057  0.2366
 2435SOL    HW118767   1.346   2.110  14.893 -0.0037  1.7992 -0.9391
 2435SOL    HW218768   1.416   2.233  14.922 -1.2428  0.8682  0.2293
 2436SOL     OW18769   1.905   0.652  12.888 -0.7222 -0.6373  0.0424
 2436SOL    HW118770   1.849   0.723  12.918  2.0809  1.1974  0.8958
 2436SOL    HW218771   1.987   0.674  12.932 -0.7719 -0.9721  0.3045
 2437SOL     OW18772   4.123   1.477   9.765 -0.4189 -0.1684 -0.6978
 2437SOL    HW118773   4.202   1.462   9.713  0.0251  0.0592 -0.0919
 2437SOL    HW218774   4.073   1.396   9.755 -0.5175 -0.2014  0.0637
 2438SOL     OW18775   4.377   0.955   2.360  0.5638  0.2979 -0.3370
 2438SOL    HW118776   4.449   0.891   2.358  0.6764  0.4695 -2.7115
 2438SOL    HW218777   4.305   0.892   2.363  0.3535  0.4941 -1.2373
 2439SOL     OW18778   3.271   2.815  10.920 -0.5398  0.3977 -0.0122
 2439SOL    HW118779   3.248   2.820  10.828 -1.5045  0.1682  0.2140
 2439SOL    HW218780   3.344   2.754  10.922 -2.9725 -2.5629 -0.2028
 2440SOL     OW18781   0.944   4.346   5.751 -0.1386 -0.9566 -0.5841
 2440SOL    HW118782   1.036   4.346   5.726 -0.4845  2.9421 -1.7938
 2440SOL    HW218783   0.900   4.314   5.672 -0.8125  0.0268 -0.6016
 2441SOL     OW18784   2.363   2.265  13.662  0.1226  0.2668 -0.1520
 2441SOL    HW118785   2.366   2.348  13.710 -0.8043 -0.2385  0.7615
 2441SOL    HW218786   2.443   2.223  13.693  0.8532  2.4507  0.9054
 2442SOL     OW18787   1.056   4.382   2.501 -0.2275 -0.5236  0.0940
 2442SOL    HW118788   1.018   4.317   2.441  0.6549 -0.6718 -0.3087
 2442SOL    HW218789   1.140   4.414   2.467  0.0368  0.2674  1.4933
 2443SOL     OW18790   3.646   1.039  10.978  0.0412 -0.3015 -0.4609
 2443SOL    HW118791   3.689   1.116  11.015 -0.9776 -1.5824  3.3827
 2443SOL    HW218792   3.559   1.040  11.018 -0.3175  0.9377 -1.2508
 2444SOL     OW18793   2.305   3.997  12.763  0.5118  0.3763 -0.4839
 2444SOL    HW118794   2.379   3.967  12.817  1.9170  1.2114 -1.9333
 2444SOL    HW218795   2.311   3.945  12.683 -0.4376  2.0323 -1.6093
 2445SOL     OW18796   4.042   1.783   5.299 -0.0601  0.7415 -0.1063
 2445SOL    HW118797   3.959   1.735   5.296 -0.4536  1.4034  0.0909
 2445SOL    HW218798   4.073   1.755   5.213 -0.4133 -1.9079  0.6137
 2446SOL     OW18799   3.924   1.550   9.552  0.0378 -0.0495  0.8170
 2446SOL    HW118800   3.990   1.549   9.622 -1.0899  1.2570  1.9118
 2446SOL    HW218801   3.937   1.634   9.507 -0.5567  0.1395  0.9974
 2447SOL     OW18802   4.497   3.793   7.613  0.2124  0.5862 -0.4105
 2447SOL    HW118803   4.512   3.700   7.629  2.3809  0.6755 -1.9081
 2447SOL    HW218804   4.534   3.816   7.528  3.2552 -2.2054  0.1563
 2448SOL     OW18805   2.017   3.488   4.318 -0.1777  0.6999 -0.2004
 2448SOL    HW118806   2.021   3.582   4.335  1.3622  0.9799 -2.1394
 2448SOL    HW218807   2.079   3.458   4.384 -1.7146  0.6454  1.2087
 2449SOL     OW18808   0.644   1.981   4.488  0.3158  0.5464 -0.4090
 2449SOL    HW118809   0.604   1.894   4.490  1.5217  0.0054  0.0104
 2449SOL    HW218810   0.735   1.954   4.497 -0.3478 -1.9965 -1.6207
 2450SOL     OW18811   4.579   2.317   8.020  0.6136  0.2416 -0.2435
 2450SOL    HW118812   4.507   2.341   7.962  1.9292  1.6185 -1.3261
 2450SOL    HW218813   4.601   2.237   7.972 -0.3399 -0.3397  0.2963
 2451SOL     OW18814   2.896   2.793   8.859  0.0732  0.7755 -0.2246
 2451SOL    HW118815   2.849   2.862   8.905  2.5799  2.8740 -0.8323
 2451SOL    HW218816   2.825   2.731   8.841  1.9133 -1.5622  0.5783
 2452SOL     OW18817   1.184   3.593  10.667  0.0918  0.3231  0.0699
 2452SOL    HW118818   1.276   3.612  10.650  0.2721 -1.1022 -0.5479
 2452SOL    HW218819   1.177   3.623  10.757 -1.2263  0.0101  0.0774
 2453SOL     OW18820   2.521   0.858  12.616  0.0174 -0.2190 -0.0900
 2453SOL    HW118821   2.594   0.804  12.586  0.5351  0.0420  0.7190
 2453SOL    HW218822   2.558   0.901  12.692 -0.9272 -1.7957  1.2575
 2454SOL     OW18823   2.435   2.360   0.282 -0.1108 -0.9637 -0.0099
 2454SOL    HW118824   2.412   2.278   0.325  0.1951 -0.3622  1.2921
 2454SOL    HW218825   2.527   2.375   0.303  0.5444 -1.0555 -2.8299
 2455SOL     OW18826   1.984   1.821   1.779  0.1353  0.8768  0.5073
 2455SOL    HW118827   2.057   1.760   1.790  0.8557  1.5090 -0.6871
 2455SOL    HW218828   1.925   1.801   1.851 -0.8319 -0.9665 -0.7862
 2456SOL     OW18829   3.497   4.268   8.129 -0.0505  0.7098 -0.1329
 2456SOL    HW118830   3.408   4.292   8.156 -0.6096 -0.6516 -0.7626
 2456SOL    HW218831   3.508   4.182   8.169 -0.5129  0.3331 -0.8040
 2457SOL     OW18832   2.528   2.998   2.605 -0.1063  0.0525 -0.5810
 2457SOL    HW118833   2.470   3.071   2.585  0.4695  0.6552 -0.0631
 2457SOL    HW218834   2.586   3.003   2.530  0.0354 -0.3183 -0.4983
 2458SOL     OW18835   0.457   2.987   1.382 -0.3592  0.1655 -0.2517
 2458SOL    HW118836   0.364   2.997   1.400 -1.1570 -0.3000 -3.9328
 2458SOL    HW218837   0.450   2.906   1.332 -2.1795 -0.5883  1.2425
 2459SOL     OW18838   2.355   0.601   0.694  0.1871  0.1463 -0.1086
 2459SOL    HW118839   2.359   0.527   0.634 -0.5283 -1.0281  1.3032
 2459SOL    HW218840   2.447   0.627   0.703  0.2551 -0.4781  1.0014
 2460SOL     OW18841   0.100   0.395   8.076 -0.2203  0.2550 -0.2581
 2460SOL    HW118842   0.136   0.328   8.134 -2.9315 -1.1217 -0.1759
 2460SOL    HW218843   0.182   0.423   8.035 -1.1119  1.2734 -1.3431
 2461SOL     OW18844   4.548   1.030   8.310  0.4381  0.0234  0.3834
 2461SOL    HW118845   4.541   1.122   8.336 -0.1080 -0.4116  1.7918
 2461SOL    HW218846   4.598   0.997   8.385  3.0840 -0.4620 -1.6016
 2462SOL     OW18847   3.256   3.758  11.809  0.3468 -0.1792  0.1710
 2462SOL    HW118848   3.328   3.793  11.756 -0.1189  0.7279  0.1298
 2462SOL    HW218849   3.272   3.664  11.797 -0.3174 -0.1471 -1.0042
 2463SOL     OW18850   1.221   2.814  17.035 -0.1521 -0.1039  0.4586
 2463SOL    HW118851   1.125   2.816  17.042 -0.2206 -3.5359  0.3219
 2463SOL    HW218852   1.239   2.726  17.067  1.1527 -0.1714 -0.5061
 2464SOL     OW18853   4.165   0.711   1.692  0.3943  0.4743 -0.9657
 2464SOL    HW118854   4.121   0.667   1.765  1.7364 -0.6220 -0.8200
 2464SOL    HW218855   4.255   0.687   1.711  0.5399  0.5081 -1.6092
 2465SOL     OW18856   4.723   1.736   6.306  0.1900 -0.2395 -0.0256
 2465SOL    HW118857   4.719   1.830   6.322  0.6269 -0.8208  3.6119
 2465SOL    HW218858   0.081   1.716   6.268  0.1806 -0.6378  0.1634
 2466SOL     OW18859   3.735   2.621  13.855 -0.8039  0.1775 -0.1167
 2466SOL    HW118860   3.829   2.615  13.874 -1.3411 -0.3159  2.4263
 2466SOL    HW218861   3.716   2.698  13.908 -0.8567  1.2146 -1.6525
 2467SOL     OW18862   3.288   0.374  10.262  0.3096 -0.3598  0.2633
 2467SOL    HW118863   3.318   0.307  10.201  2.5533  0.7337  0.1564
 2467SOL    HW218864   3.323   0.454  10.223 -4.6959  1.4976 -0.4463
 2468SOL     OW18865   4.595   2.621  14.695 -0.2982  0.3534 -0.3996
 2468SOL    HW118866   4.533   2.675  14.744  1.0246  1.9958 -0.5532
 2468SOL    HW218867   4.597   2.655  14.606  0.7161 -0.7579 -0.7943
 2469SOL     OW18868   3.949   2.392   3.988  0.5938 -0.3389  0.4122
 2469SOL    HW118869   4.032   2.437   4.009 -0.0848  0.6302  1.0177
 2469SOL    HW218870   3.930   2.328   4.056  3.2661 -0.9086  0.6342
 2470SOL     OW18871   0.816   3.107   0.268  0.1900  0.5370  0.4216
 2470SOL    HW118872   0.850   3.109   0.357  1.7290 -1.6443 -0.1119
 2470SOL    HW218873   0.878   3.154   0.212  0.9210 -1.4828 -0.4647
 2471SOL     OW18874   3.702   2.300  14.810 -0.2963 -0.6487 -0.2331
 2471SOL    HW118875   3.777   2.240  14.818 -0.3530 -0.8849 -1.4983
 2471SOL    HW218876   3.650   2.268  14.737  1.8003 -1.8676 -1.2025
 2472SOL     OW18877   2.324   3.471  10.254  0.2478  0.4941 -0.8739
 2472SOL    HW118878   2.359   3.503  10.337 -0.3650  0.8106 -0.7317
 2472SOL    HW218879   2.324   3.376  10.265  0.4896  0.4684 -1.1141
 2473SOL     OW18880   1.626   2.826  16.161 -0.6310 -0.6280  0.7623
 2473SOL    HW118881   1.616   2.732  16.174  0.1282 -1.2232 -2.9322
 2473SOL    HW218882   1.558   2.839  16.094 -1.2723 -1.3889  1.2688
 2474SOL     OW18883   0.891   1.040   4.741 -0.2136  0.0488 -0.4494
 2474SOL    HW118884   0.856   1.120   4.702  1.1704  0.0150 -1.7758
 2474SOL    HW218885   0.824   0.978   4.715 -1.0493  1.1814 -0.9709
 2475SOL     OW18886   0.263   4.401   9.198  0.0425  0.1460 -0.1241
 2475SOL    HW118887   0.282   4.395   9.292  1.3040 -0.0980 -0.3886
 2475SOL    HW218888   0.288   4.492   9.182 -0.3228 -0.2854 -3.0821
 2476SOL     OW18889   0.454   1.244   9.499 -0.3083 -0.0595 -0.4981
 2476SOL    HW118890   0.377   1.301   9.498 -0.4035 -0.1955 -0.9049
 2476SOL    HW218891   0.473   1.258   9.592 -3.5533  1.5048 -0.0676
 2477SOL     OW18892   2.593   3.897  11.900 -0.0500 -0.2836 -0.2970
 2477SOL    HW118893   2.583   3.925  11.991 -1.2036 -1.3838 -0.0885
 2477SOL    HW218894   2.679   3.929  11.870 -0.4288  0.4107 -0.6354
 2478SOL     OW18895   2.959   2.716   1.963  0.3011  0.1336 -0.1371
 2478SOL    HW118896   2.973   2.679   1.876  2.3248  2.4634 -0.8025
 2478SOL    HW218897   2.910   2.796   1.946 -0.0296  0.3522  1.8243
 2479SOL     OW18898   0.141   3.705   1.283  0.2247 -0.5126  0.3529
 2479SOL    HW118899   0.209   3.767   1.256 -0.6274 -0.3826 -1.4864
 2479SOL    HW218900   0.090   3.699   1.202  0.6571 -1.4151  0.1462
 2480SOL     OW18901   0.826   3.811  17.034  0.2909  0.4782  0.4678
 2480SOL    HW118902   0.757   3.759  17.076 -0.6953  0.8449 -0.7009
 2480SOL    HW218903   0.891   3.819  17.104  1.7465  1.0665 -0.9554
 2481SOL     OW18904   3.111   0.586   7.591 -0.2905 -0.5719  0.4358
 2481SOL    HW118905   3.149   0.642   7.523  0.3087 -2.1958 -0.5697
 2481SOL    HW218906   3.084   0.507   7.544  1.0793 -0.5473 -0.3953
 2482SOL     OW18907   2.460   1.192  12.310  0.0037 -0.6847  0.1772
 2482SOL    HW118908   2.461   1.097  12.311  1.1911 -0.6737  0.3006
 2482SOL    HW218909   2.383   1.199  12.254  0.4802  0.2501 -0.3640
 2483SOL     OW18910   3.524   0.411  12.493  0.4125 -0.3678 -0.2103
 2483SOL    HW118911   3.575   0.483  12.531  1.0108 -1.2109  0.5867
 2483SOL    HW218912   3.479   0.462  12.426  0.6102 -1.7288 -1.3733
 2484SOL     OW18913   2.433   3.937   6.853 -0.1862  0.0716 -0.4706
 2484SOL    HW118914   2.389   4.009   6.807 -1.7039  1.2903  2.8844
 2484SOL    HW218915   2.389   3.937   6.938  0.7700  2.1747  0.0319
 2485SOL     OW18916   1.859   0.785  16.754 -0.7036  0.1659  0.2611
 2485SOL    HW118917   1.913   0.715  16.790  1.6296  1.4839 -0.6710
 2485SOL    HW218918   1.785   0.732  16.725 -0.0743 -0.4463 -0.2282
 2486SOL     OW18919   3.919   4.212   3.313  0.0851  0.0203 -0.3315
 2486SOL    HW118920   3.929   4.244   3.403 -0.0588  1.7361 -0.9143
 2486SOL    HW218921   3.979   4.275   3.274 -0.7516  0.2296 -1.2997
 2487SOL     OW18922   1.048   4.113  12.076  0.2015 -0.6743 -0.0807
 2487SOL    HW118923   1.072   4.083  11.988  0.4869  0.8361 -0.5185
 2487SOL    HW218924   1.014   4.026  12.099 -1.1861 -0.3902 -1.0598
 2488SOL     OW18925   0.437   2.230   7.953 -0.2639 -0.5083 -0.6358
 2488SOL    HW118926   0.484   2.314   7.952 -2.9304  0.9575 -1.1023
 2488SOL    HW218927   0.366   2.243   7.891  0.6994  0.4454 -1.5350
 2489SOL     OW18928   4.593   0.400   3.414  0.4715 -0.0653  0.6048
 2489SOL    HW118929   4.521   0.404   3.351  1.1536  0.5211 -0.1320
 2489SOL    HW218930   4.559   0.395   3.504  0.0376 -0.9798  0.3809
 2490SOL     OW18931   3.127   4.692  15.788  0.1273  0.2677 -0.4767
 2490SOL    HW118932   3.107   4.678  15.695  0.1258 -2.3013 -0.0852
 2490SOL    HW218933   3.166   4.610  15.816  0.0104  0.3733 -0.0101
 2491SOL     OW18934   0.975   0.165  16.483  0.4991 -0.2002  0.3644
 2491SOL    HW118935   0.946   0.096  16.424  2.0792  0.6446 -1.4042
 2491SOL    HW218936   0.993   0.125  16.568 -0.3723 -0.6185  0.3534
 2492SOL     OW18937   1.876   1.093  13.556 -0.2222  0.2001  0.2327
 2492SOL    HW118938   1.887   1.182  13.522  0.0539  0.0677 -0.0189
 2492SOL    HW218939   1.781   1.089  13.566 -0.3818  2.2454 -0.3348
 2493SOL     OW18940   0.819   2.013  15.506  0.1540 -0.1094 -0.3059
 2493SOL    HW118941   0.831   1.978  15.594  0.7164 -0.0206 -0.3473
 2493SOL    HW218942   0.871   1.949  15.457  0.8382 -1.1027  1.7204
 2494SOL     OW18943   1.829   1.614   2.319 -0.4324  0.2128  0.4117
 2494SOL    HW118944   1.832   1.520   2.301  0.8088  0.7346 -2.0608
 2494SOL    HW218945   1.741   1.637   2.287 -1.6279 -3.4314  1.0894
 2495SOL     OW18946   4.152   3.851   6.189 -0.0749  0.4470  0.8846
 2495SOL    HW118947   4.152   3.862   6.094 -1.2623  1.6800  1.0176
 2495SOL    HW218948   4.242   3.878   6.204  0.8516 -1.3391 -1.5297
 2496SOL     OW18949   3.494   0.880   1.897  0.0266  0.0014  0.4963
 2496SOL    HW118950   3.485   0.910   1.807  0.2030  0.8342  0.7610
 2496SOL    HW218951   3.553   0.946   1.933 -0.6860  1.2320 -0.6135
 2497SOL     OW18952   3.304   1.010   7.640 -1.1322  0.6627 -0.3980
 2497SOL    HW118953   3.382   0.967   7.675 -1.4277 -0.7428 -1.4685
 2497SOL    HW218954   3.240   0.987   7.707 -2.7313  0.8218 -1.8736
 2498SOL     OW18955   3.787   0.912  14.004  0.3189 -0.0960  0.3511
 2498SOL    HW118956   3.830   0.964  14.072  0.4739  0.1340  0.0802
 2498SOL    HW218957   3.696   0.936  14.023 -0.0596 -2.1981  1.2160
 2499SOL     OW18958   0.523   4.328   3.591  0.0405  0.2325  0.2889
 2499SOL    HW118959   0.475   4.366   3.517  0.6946 -2.0676 -1.3095
 2499SOL    HW218960   0.608   4.372   3.593  1.1716 -1.9470  0.1999
 2500SOL     OW18961   4.480   3.562  11.699  0.2654  0.4370  0.0192
 2500SOL    HW118962   4.405   3.549  11.640 -0.2241 -1.9977  1.1498
 2500SOL    HW218963   4.465   3.484  11.753  1.7310 -0.0214 -0.2448
 2501SOL     OW18964   0.734   2.561   2.131 -0.1540 -0.3456  0.7067
 2501SOL    HW118965   0.772   2.577   2.217  0.7564 -0.4112  0.3181
 2501SOL    HW218966   0.721   2.466   2.128 -1.4726 -0.0739 -2.3828
 2502SOL     OW18967   0.309   0.054   3.045  0.3173  0.3230  0.4692
 2502SOL    HW118968   0.301   4.712   2.980 -0.0811 -1.6445  2.6035
 2502SOL    HW218969   0.402   0.058   3.066  1.2961 -0.3183 -3.8044
 2503SOL     OW18970   0.643   0.881  15.363 -0.9205  0.3479  0.6625
 2503SOL    HW118971   0.568   0.907  15.311 -0.7525  0.0030  0.2495
 2503SOL    HW218972   0.664   0.796  15.324  0.8484  0.6873  0.8603
 2504SOL     OW18973   1.211   4.652  10.501 -1.1648  0.8539  0.3105
 2504SOL    HW118974   1.128   4.621  10.464 -1.8238  1.0325  1.6628
 2504SOL    HW218975   1.171   4.699  10.574 -0.0781  1.3019  0.6159
 2505SOL     OW18976   1.959   0.808   2.417 -0.2924 -0.0325  0.1578
 2505SOL    HW118977   1.919   0.875   2.362  1.8966 -0.3918 -1.8744
 2505SOL    HW218978   2.035   0.780   2.366  0.6476  1.2513  0.8254
 2506SOL     OW18979   3.211   0.229   5.717  0.4102  0.7084 -0.1333
 2506SOL    HW118980   3.207   0.235   5.812 -1.3198  0.2117 -0.1631
 2506SOL    HW218981   3.162   0.147   5.706  2.1973  0.0542 -3.1088
 2507SOL     OW18982   4.216   3.955   5.407  0.0745  0.6086  0.2181
 2507SOL    HW118983   4.137   3.995   5.369 -0.7853 -1.0136  0.3263
 2507SOL    HW218984   4.275   4.006   5.351  0.3195 -2.3077 -2.1340
 2508SOL     OW18985   0.586   0.962   8.203  0.1161  0.1831  0.2541
 2508SOL    HW118986   0.588   0.877   8.157 -1.5892 -0.5960  1.6562
 2508SOL    HW218987   0.626   0.942   8.288 -0.4604  0.9834  0.7093
 2509SOL     OW18988   2.006   3.982   7.280 -0.1025  0.9378 -0.5241
 2509SOL    HW118989   2.023   3.900   7.326 -0.9898  0.1691 -1.5590
 2509SOL    HW218990   2.036   4.041   7.349  0.7465 -0.9625  0.7268
 2510SOL     OW18991   3.934   3.544  14.554 -0.1666  0.6229 -0.4072
 2510SOL    HW118992   3.973   3.478  14.611 -0.7139 -0.8309 -1.7177
 2510SOL    HW218993   3.999   3.613  14.544 -0.4576  0.8654 -0.6435
 2511SOL     OW18994   0.199   0.640   0.057  0.4753  0.3232 -0.0982
 2511SOL    HW118995   0.188   0.546   0.072 -0.1162  0.5178  0.6732
 2511SOL    HW218996   0.288   0.638   0.021  0.7910  3.4179  0.5356
 2512SOL     OW18997   1.660   4.076   3.617 -0.1525 -0.0757 -0.1974
 2512SOL    HW118998   1.647   3.983   3.636 -0.0169  0.0074  0.3140
 2512SOL    HW218999   1.662   4.118   3.704  0.7773 -2.3875  0.8878
 2513SOL     OW19000   2.345   2.197  11.145  0.3569 -0.1725  0.0037
 2513SOL    HW119001   2.431   2.202  11.104 -1.4175 -0.3932 -3.7209
 2513SOL    HW219002   2.322   2.107  11.166 -0.3412 -0.0383 -0.1822
 2514SOL     OW19003   1.082   0.908   3.425 -0.2987  0.1247  0.0778
 2514SOL    HW119004   1.027   0.941   3.354  0.8004 -0.4908 -1.0628
 2514SOL    HW219005   1.143   0.982   3.432  0.7895 -0.9292  1.6798
 2515SOL     OW19006   2.627   4.070  12.503 -0.5136 -0.3207 -0.1965
 2515SOL    HW119007   2.646   4.005  12.435 -0.3053 -0.2091 -0.2463
 2515SOL    HW219008   2.562   4.022  12.555 -1.5420 -0.7244 -1.8690
 2516SOL     OW19009   0.700   3.274   4.494  0.3873 -0.4581 -0.9100
 2516SOL    HW119010   0.747   3.264   4.411  1.1787 -0.4425 -0.4612
 2516SOL    HW219011   0.611   3.265   4.459 -0.5082 -3.3951  2.1241
 2517SOL     OW19012   2.926   0.132   7.865  0.5093 -0.7424  0.1374
 2517SOL    HW119013   2.866   0.182   7.809 -1.1319 -3.7722 -0.7730
 2517SOL    HW219014   2.987   0.109   7.795  0.2273  0.0049 -0.3632
 2518SOL     OW19015   2.572   2.053   1.978  0.0537  0.4420 -0.0172
 2518SOL    HW119016   2.560   1.974   1.925 -1.0004  0.0700  0.7670
 2518SOL    HW219017   2.629   2.115   1.933 -0.2372  2.6144  2.5831
 2519SOL     OW19018   1.558   0.951   7.975  0.3261 -0.3184  0.7654
 2519SOL    HW119019   1.610   1.011   7.921 -2.9422  2.0449  0.2032
 2519SOL    HW219020   1.471   0.991   7.984 -0.7022 -2.0227 -1.6366
 2520SOL     OW19021   1.296   2.674  15.522  0.2013  0.1255 -0.0641
 2520SOL    HW119022   1.224   2.721  15.481 -0.3013 -1.6071 -1.1406
 2520SOL    HW219023   1.372   2.730  15.507  0.6363  0.4837  3.4770
 2521SOL     OW19024   2.333   3.759  10.487  0.3363  0.4641  0.1080
 2521SOL    HW119025   2.350   3.821  10.417 -0.7278 -0.8382 -1.3063
 2521SOL    HW219026   2.370   3.814  10.557 -1.7240  1.8840  0.0605
 2522SOL     OW19027   0.046   3.950   3.024  0.7124  0.3803  0.0612
 2522SOL    HW119028   0.060   4.032   2.977 -0.8700  0.1886 -0.7559
 2522SOL    HW219029   0.110   3.891   2.984  1.3728  0.8389  0.4301
 2523SOL     OW19030   0.206   1.985   5.901 -0.0331  0.3664 -0.0115
 2523SOL    HW119031   0.229   1.916   5.963 -2.0433  0.6032  0.9828
 2523SOL    HW219032   0.125   2.025   5.931  0.6729 -1.1900  3.9184
 2524SOL     OW19033   0.656   4.712  12.849 -0.1448  0.0977 -0.0309
 2524SOL    HW119034   0.638   0.076  12.869  0.2460  0.1311  0.1601
 2524SOL    HW219035   0.649   4.677  12.937 -2.0745 -1.8308 -0.9548
 2525SOL     OW19036   0.023   0.744  13.141 -0.0059 -0.0050 -0.5958
 2525SOL    HW119037   4.706   0.670  13.098 -0.1791 -0.9609  1.2129
 2525SOL    HW219038   4.723   0.809  13.077  0.0341 -0.2455 -0.8604
 2526SOL     OW19039   2.362   0.151   7.522 -0.5976  0.9471 -0.3908
 2526SOL    HW119040   2.362   0.066   7.565 -2.3527  1.5631  0.8471
 2526SOL    HW219041   2.346   0.128   7.431 -3.1840 -0.1878  0.3587
 2527SOL     OW19042   3.790   1.906  14.508 -0.3941 -0.1253 -0.1469
 2527SOL    HW119043   3.700   1.931  14.530  0.5612  1.1765  2.3182
 2527SOL    HW219044   3.812   1.986  14.461 -1.6599  0.6128  0.5123
 2528SOL     OW19045   4.153   3.862   9.505 -0.5678 -0.3801  0.4689
 2528SOL    HW119046   4.236   3.816   9.499 -1.2357 -1.2762 -1.6618
 2528SOL    HW219047   4.114   3.835   9.422  0.1195  0.8879 -0.2587
 2529SOL     OW19048   2.502   2.775   5.305  0.2488 -0.3743 -0.4453
 2529SOL    HW119049   2.541   2.854   5.266  0.9932 -0.9758 -0.9169
 2529SOL    HW219050   2.463   2.818   5.382 -2.2677 -1.2034 -1.2580
 2530SOL     OW19051   2.440   2.208   3.692 -0.0060 -0.3956 -0.7491
 2530SOL    HW119052   2.351   2.177   3.710 -0.3948 -0.9707 -3.6511
 2530SOL    HW219053   2.470   2.127   3.650  0.6926 -0.2015 -0.6296
 2531SOL     OW19054   0.388   1.706   3.482  0.2707  0.4277  0.4427
 2531SOL    HW119055   0.449   1.772   3.516  0.8249 -0.4843  1.2400
 2531SOL    HW219056   0.346   1.745   3.406  0.5301  0.0819  0.1244
 2532SOL     OW19057   3.339   3.834   6.903 -0.0233 -0.4434  0.1292
 2532SOL    HW119058   3.396   3.910   6.897 -0.3405 -0.1419  0.9578
 2532SOL    HW219059   3.254   3.875   6.887 -0.1537 -0.1282  1.6612
 2533SOL     OW19060   3.337   2.400  10.801  0.2085 -0.8537 -0.2567
 2533SOL    HW119061   3.321   2.470  10.738 -0.1190 -0.0233  0.7459
 2533SOL    HW219062   3.405   2.439  10.856 -1.0019  1.4355 -0.3955
 2534SOL     OW19063   2.510   1.049   9.172  0.2361 -0.0491  0.0038
 2534SOL    HW119064   2.530   1.116   9.107 -0.9735  1.4861  1.2036
 2534SOL    HW219065   2.529   1.095   9.253  2.3639 -0.6962 -0.1414
 2535SOL     OW19066   4.366   0.501   5.365 -0.3938  0.2355 -0.4977
 2535SOL    HW119067   4.287   0.447   5.355 -0.5341  0.3390  0.0520
 2535SOL    HW219068   4.376   0.521   5.458 -1.6285  1.1846 -0.5655
 2536SOL     OW19069   2.243   3.658  12.112 -0.3266 -0.1151 -0.0614
 2536SOL    HW119070   2.324   3.632  12.067  0.2789 -0.4326  1.2171
 2536SOL    HW219071   2.174   3.622  12.056 -1.8148  1.3468  0.8213
 2537SOL     OW19072   3.942   3.686   2.553  0.0407  0.1762  0.0553
 2537SOL    HW119073   3.853   3.653   2.548  1.0017 -2.2862 -1.1150
 2537SOL    HW219074   3.974   3.627   2.622 -0.0628  1.2373  1.0011
 2538SOL     OW19075   4.616   0.404   6.850 -0.4981  0.3758  0.3378
 2538SOL    HW119076   4.573   0.447   6.924 -0.7873  0.0807  0.3431
 2538SOL    HW219077   4.705   0.387   6.881 -1.0222  0.5735  1.9307
 2539SOL     OW19078   2.792   4.493   9.152 -0.3162 -0.4659  0.2657
 2539SOL    HW119079   2.799   4.402   9.181 -1.7398 -0.6697 -0.0342
 2539SOL    HW219080   2.730   4.527   9.216  0.0546 -2.7338  1.8261
 2540SOL     OW19081   3.279   1.093   1.888  0.1200  0.0889 -0.4522
 2540SOL    HW119082   3.288   1.008   1.844  1.2160 -0.3962  0.7304
 2540SOL    HW219083   3.328   1.071   1.967  0.8409  0.6172 -0.7463
 2541SOL     OW19084   3.608   0.720   3.918  0.1072 -0.4022 -0.1616
 2541SOL    HW119085   3.629   0.708   4.010 -0.5364 -2.5304 -0.2923
 2541SOL    HW219086   3.514   0.709   3.930 -0.1228 -0.9001 -2.4093
 2542SOL     OW19087   1.694   1.542   8.210  0.4206  0.2735  0.1874
 2542SOL    HW119088   1.742   1.498   8.280  0.0139  1.2476  1.0742
 2542SOL    HW219089   1.731   1.499   8.133 -1.3188  0.8831 -1.0012
 2543SOL     OW19090   3.153   3.214   5.763 -0.8388 -0.7426  0.2580
 2543SOL    HW119091   3.110   3.135   5.730 -0.2339 -1.5712  1.4606
 2543SOL    HW219092   3.099   3.286   5.730  1.9995  1.7480  1.0887
 2544SOL     OW19093   0.014   4.134  11.742  0.3117 -0.1093  0.0683
 2544SOL    HW119094   0.085   4.197  11.733 -1.0456  1.3200 -0.5151
 2544SOL    HW219095   4.671   4.196  11.758  0.3333  0.3818 -1.7465
 2545SOL     OW19096   2.220   3.725  16.827 -0.6207 -0.3653  0.0258
 2545SOL    HW119097   2.305   3.767  16.838 -1.5080  1.3184  0.4236
 2545SOL    HW219098   2.195   3.721  16.920 -1.9753 -1.2277 -0.3734
 2546SOL     OW19099   3.517   2.989  16.593 -0.2197  0.3085  0.1560
 2546SOL    HW119100   3.479   3.063  16.545 -0.6366 -1.3412 -2.0198
 2546SOL    HW219101   3.485   2.916  16.541  1.7360 -0.1305 -0.4199
 2547SOL     OW19102   2.975   4.273   6.966  0.1073  0.1076  0.5247
 2547SOL    HW119103   2.988   4.216   7.042 -1.6830 -0.9239  0.0524
 2547SOL    HW219104   3.065   4.295   6.941  0.1333  1.8773  2.2158
 2548SOL     OW19105   2.742   4.423   7.641 -0.1532  0.0290 -0.0703
 2548SOL    HW119106   2.726   4.442   7.734  1.4552 -0.2383  0.2543
 2548SOL    HW219107   2.835   4.401   7.642 -0.1074  0.2243 -0.0062
 2549SOL     OW19108   0.708   0.273   1.561 -0.2146 -0.1165 -0.8539
 2549SOL    HW119109   0.646   0.206   1.531 -3.0224  2.3759 -0.5903
 2549SOL    HW219110   0.787   0.254   1.510  1.0604 -0.7098  1.3369
 2550SOL     OW19111   0.593   4.326   8.898  0.2255 -0.0838  0.5380
 2550SOL    HW119112   0.687   4.318   8.915 -0.1761 -2.1363  1.7419
 2550SOL    HW219113   0.552   4.283   8.973 -0.2197 -0.3894  0.1188
 2551SOL     OW19114   3.530   3.217   9.714  0.0552 -0.3759 -0.0433
 2551SOL    HW119115   3.519   3.146   9.651 -2.0758  1.0844 -1.3106
 2551SOL    HW219116   3.624   3.231   9.728  0.3909 -1.1128 -1.4378
 2552SOL     OW19117   2.636   2.666   0.640  0.1044  0.1575 -0.0366
 2552SOL    HW119118   2.691   2.676   0.718  0.3479  0.3743 -0.2358
 2552SOL    HW219119   2.697   2.630   0.575  0.5325  0.7407  0.0444
 2553SOL     OW19120   4.381   4.646   5.017 -0.0264  0.7893  0.3104
 2553SOL    HW119121   4.373   4.551   5.014  1.1183  0.6985 -0.0786
 2553SOL    HW219122   4.290   4.676   5.016 -0.0416  0.7486  0.4924
 2554SOL     OW19123   3.654   3.885   6.457 -0.4972  0.3007 -0.2525
 2554SOL    HW119124   3.684   3.955   6.399 -0.0622  1.3304  1.1894
 2554SOL    HW219125   3.592   3.843   6.397 -2.6040 -2.0753  3.5984
 2555SOL     OW19126   1.177   2.384  11.430  0.6484  0.5152 -0.4840
 2555SOL    HW119127   1.263   2.342  11.433 -0.3300 -1.2983  3.1111
 2555SOL    HW219128   1.130   2.336  11.499  0.8559  0.3124 -0.4809
 2556SOL     OW19129   2.957   1.515   0.274  0.0786  0.3803  0.1643
 2556SOL    HW119130   3.015   1.518   0.350  1.4525 -1.7551 -0.7853
 2556SOL    HW219131   2.876   1.553   0.307 -0.1241  0.6262 -0.6135
 2557SOL     OW19132   4.104   3.439  17.394  0.0123  0.2043  0.5952
 2557SOL    HW119133   4.089   3.520  17.443  0.0612  0.8850 -0.5181
 2557SOL    HW219134   4.124   3.380  17.467  0.6486 -0.9727 -0.5408
 2558SOL     OW19135   2.749   4.616   1.036 -1.0078 -0.5176  0.8325
 2558SOL    HW119136   2.779   4.588   1.122  0.2350  0.4225  0.7011
 2558SOL    HW219137   2.825   4.605   0.980 -0.1001  0.0367  1.9655
 2559SOL     OW19138   3.369   3.299   6.651 -0.0371  0.2948 -0.6070
 2559SOL    HW119139   3.365   3.316   6.557 -0.1999  1.5543 -0.3712
 2559SOL    HW219140   3.398   3.379   6.695  0.5060  0.6778 -1.6691
 2560SOL     OW19141   4.329   1.489  10.877 -0.3782 -0.0236 -0.4186
 2560SOL    HW119142   4.330   1.438  10.958  0.3288 -0.1717 -0.5199
 2560SOL    HW219143   4.392   1.557  10.896  0.3592 -0.7230 -0.3850
 2561SOL     OW19144   3.745   1.741  14.709 -0.1527 -0.1580 -0.3321
 2561SOL    HW119145   3.782   1.802  14.645  0.5507 -1.4441 -1.1650
 2561SOL    HW219146   3.699   1.694  14.640  0.6804 -1.9590  0.3192
 2562SOL     OW19147   0.208   1.456   6.334 -0.4676 -0.1546  0.0370
 2562SOL    HW119148   0.150   1.379   6.333  0.5786 -0.8967 -3.3014
 2562SOL    HW219149   0.205   1.489   6.244  2.5965  0.8724  0.3143
 2563SOL     OW19150   2.778   2.583   9.625 -0.5333  0.2022 -0.5439
 2563SOL    HW119151   2.783   2.548   9.715  0.1640 -0.8638 -0.9946
 2563SOL    HW219152   2.697   2.634   9.622  0.3201  1.8623  4.2535
 2564SOL     OW19153   3.954   1.750   9.841  0.4375 -0.3489 -0.1003
 2564SOL    HW119154   3.955   1.840   9.873  0.8723 -0.3985  0.0281
 2564SOL    HW219155   3.956   1.764   9.746 -3.9554 -1.5403 -0.3947
 2565SOL     OW19156   1.690   1.547  11.025 -0.2506  0.0728 -0.3469
 2565SOL    HW119157   1.758   1.525  11.090 -0.1622 -0.6005 -0.6636
 2565SOL    HW219158   1.737   1.602  10.962  1.0826 -0.1431  0.4554
 2566SOL     OW19159   0.535   2.163   1.756  0.2915 -0.8198  0.4953
 2566SOL    HW119160   0.530   2.189   1.665  1.2754  1.0037  0.9621
 2566SOL    HW219161   0.481   2.230   1.798  0.3916 -1.6693  2.0103
 2567SOL     OW19162   3.981   3.823  13.856  0.0221 -0.2163 -0.3755
 2567SOL    HW119163   4.032   3.762  13.909 -2.5572 -1.8168  0.3212
 2567SOL    HW219164   4.012   3.802  13.768  1.1276 -1.6348  0.3642
 2568SOL     OW19165   0.416   0.301   5.636  0.3049  0.3579  0.0828
 2568SOL    HW119166   0.478   0.230   5.625  1.4419  1.2748  0.5827
 2568SOL    HW219167   0.451   0.373   5.583 -1.2028  0.3297 -0.9489
 2569SOL     OW19168   2.399   2.299   4.386 -0.0881 -0.4217 -0.4512
 2569SOL    HW119169   2.397   2.310   4.291  1.0495 -4.4889 -0.9681
 2569SOL    HW219170   2.307   2.323   4.397  0.3737  0.6410  1.0462
 2570SOL     OW19171   3.343   4.075   9.602  0.6053  0.0640  0.4480
 2570SOL    HW119172   3.286   4.031   9.538  1.8926 -1.4632  0.3237
 2570SOL    HW219173   3.303   4.059   9.687  0.3259  2.2422  0.7187
 2571SOL     OW19174   2.473   0.832   9.666  0.3787  0.6135  0.1012
 2571SOL    HW119175   2.485   0.843   9.760 -0.6839 -1.5162  0.4664
 2571SOL    HW219176   2.496   0.739   9.661 -1.1563  0.1952  1.1544
 2572SOL     OW19177   3.054   4.077  14.878 -0.6535 -0.3678 -0.0831
 2572SOL    HW119178   3.119   4.008  14.887 -3.1981 -2.4767  2.1316
 2572SOL    HW219179   3.007   4.038  14.952  0.2417 -2.1662 -0.4823
 2573SOL     OW19180   2.956   4.150   4.733  0.8639  0.1641 -0.0651
 2573SOL    HW119181   2.934   4.238   4.763 -1.5962 -0.3273 -0.4811
 2573SOL    HW219182   2.902   4.098   4.793  0.9282  0.8040  0.5445
 2574SOL     OW19183   4.692   1.615   1.773  0.2919 -0.5735 -0.5769
 2574SOL    HW119184   4.601   1.609   1.744  0.5269 -0.8823 -1.2385
 2574SOL    HW219185   0.015   1.651   1.700  0.8340  1.3135  0.7245
 2575SOL     OW19186   0.112   1.270   3.985  0.0786 -0.1902 -0.5285
 2575SOL    HW119187   0.017   1.258   3.985  0.1139 -0.4779 -2.5931
 2575SOL    HW219188   0.138   1.251   3.894  1.8166  0.8616 -0.2475
 2576SOL     OW19189   1.413   1.605   5.837 -0.0823 -0.5897 -0.0399
 2576SOL    HW119190   1.401   1.690   5.878 -2.5072 -0.5011 -0.9258
 2576SOL    HW219191   1.401   1.631   5.745 -2.4742  0.3492  0.5445
 2577SOL     OW19192   2.095   0.684   3.249 -0.4132  0.0271 -0.1641
 2577SOL    HW119193   2.097   0.700   3.343  0.1003 -2.3201  0.2142
 2577SOL    HW219194   2.043   0.753   3.206 -0.6526  0.5582  0.9822
 2578SOL     OW19195   1.238   3.234   2.377 -0.2559 -0.1967 -1.1099
 2578SOL    HW119196   1.331   3.222   2.358  0.4587  2.7547  0.4976
 2578SOL    HW219197   1.201   3.280   2.302 -0.1323  1.8967  0.1257
 2579SOL     OW19198   3.157   1.129   5.947 -0.0185 -0.0960  0.3096
 2579SOL    HW119199   3.105   1.187   5.893  0.6254  0.5577  0.3868
 2579SOL    HW219200   3.251   1.145   5.937  0.4375 -1.4594  2.3399
 2580SOL     OW19201   1.072   3.736   4.493 -0.3572 -0.4159 -0.3134
 2580SOL    HW119202   1.138   3.703   4.553 -0.4145  1.1553  0.6084
 2580SOL    HW219203   1.004   3.752   4.559 -0.0788  1.1756 -0.4155
 2581SOL     OW19204   2.359   1.396  15.420  0.0592 -0.9062 -0.6117
 2581SOL    HW119205   2.313   1.354  15.347  1.1410  0.9149 -2.3386
 2581SOL    HW219206   2.319   1.349  15.493 -0.4405 -1.8789 -1.5071
 2582SOL     OW19207   3.450   1.011   3.118 -0.4772  0.1655  0.5210
 2582SOL    HW119208   3.469   1.017   3.024  0.2702  0.2125  0.6818
 2582SOL    HW219209   3.445   1.106   3.132  1.4481  0.1553  1.3198
 2583SOL     OW19210   4.259   4.387   3.031  0.0801  0.3517  0.2724
 2583SOL    HW119211   4.314   4.457   2.996  1.1346 -1.5402 -1.8777
 2583SOL    HW219212   4.254   4.325   2.958 -2.9268  3.1914 -1.9452
 2584SOL     OW19213   2.724   3.491  10.599  0.1325  0.5581 -0.1252
 2584SOL    HW119214   2.764   3.559  10.653  2.9047 -3.1191  2.4530
 2584SOL    HW219215   2.666   3.441  10.657 -1.4380  1.4969 -0.8828
 2585SOL     OW19216   0.504   2.260   5.358 -0.2752  0.4152  0.2468
 2585SOL    HW119217   0.445   2.307   5.299 -0.9359 -1.8434 -0.8972
 2585SOL    HW219218   0.509   2.324   5.429  1.2613  0.4385  0.1193
 2586SOL     OW19219   3.677   2.341   6.376  0.6246 -0.4358 -0.1251
 2586SOL    HW119220   3.627   2.261   6.358  0.5160 -0.7039  1.3142
 2586SOL    HW219221   3.768   2.315   6.386  0.1950 -1.8179  0.2126
 2587SOL     OW19222   2.483   2.861   9.175 -0.5531  0.2290 -0.1611
 2587SOL    HW119223   2.565   2.828   9.212  0.0217  1.1226 -0.6609
 2587SOL    HW219224   2.515   2.949   9.157 -1.2634  0.4575 -0.3070
 2588SOL     OW19225   1.604   3.101  17.603  0.3933 -0.2631 -0.4777
 2588SOL    HW119226   1.654   3.108  17.684 -1.5421  0.8549  0.6121
 2588SOL    HW219227   1.516   3.084  17.635 -0.2403  0.9049 -1.5823
 2589SOL     OW19228   2.665   1.125   2.776 -0.2408  0.2368  0.5748
 2589SOL    HW119229   2.686   1.206   2.822  0.2830 -0.6719  1.9093
 2589SOL    HW219230   2.632   1.162   2.693 -0.8834 -2.0874 -0.1972
 2590SOL     OW19231   0.625   4.022   5.087  0.4425 -0.6489 -0.1641
 2590SOL    HW119232   0.582   3.945   5.124  0.7214 -0.4683  0.5258
 2590SOL    HW219233   0.567   4.094   5.114  0.2110 -0.3554 -1.4446
 2591SOL     OW19234   3.177   3.606  11.503  0.0896 -0.3602  0.1027
 2591SOL    HW119235   3.104   3.645  11.551 -1.2787 -0.4432 -1.9188
 2591SOL    HW219236   3.223   3.588  11.585 -0.9870 -3.3738  0.0723
 2592SOL     OW19237   1.301   1.057   2.303  0.8656  0.0964 -0.2033
 2592SOL    HW119238   1.321   0.967   2.275  0.8193 -0.3850  1.3030
 2592SOL    HW219239   1.287   1.097   2.217 -0.9961 -0.9545 -0.3910
 2593SOL     OW19240   4.563   1.085  16.345  0.1518 -0.0618  0.5207
 2593SOL    HW119241   4.486   1.040  16.380 -0.0054  0.6265  1.0596
 2593SOL    HW219242   4.572   1.148  16.417 -0.9624  0.4187  0.2260
 2594SOL     OW19243   4.594   1.823  13.394  0.6666  0.3704  0.6592
 2594SOL    HW119244   4.517   1.853  13.346 -1.7670 -1.4707  3.4170
 2594SOL    HW219245   4.550   1.757  13.447 -2.4698  1.1601 -0.9601
 2595SOL     OW19246   3.711   2.231  10.849  0.7602  0.0691  0.0803
 2595SOL    HW119247   3.675   2.177  10.920  1.3357  0.2291  0.4930
 2595SOL    HW219248   3.676   2.174  10.781  0.1192  1.2278 -0.5671
 2596SOL     OW19249   4.531   3.709   7.980 -0.5422 -0.5877 -0.4014
 2596SOL    HW119250   4.559   3.636   8.036  1.2417  0.4993  0.1411
 2596SOL    HW219251   4.597   3.774   8.007 -2.0022  0.6239  0.2254
 2597SOL     OW19252   1.317   2.363   5.881  0.0491  0.4846 -0.5190
 2597SOL    HW119253   1.364   2.352   5.964 -2.4241  0.7354  0.9444
 2597SOL    HW219254   1.239   2.402   5.922 -0.4846 -2.1425  0.9421
 2598SOL     OW19255   2.913   0.612   1.112  0.7426 -0.7189 -0.1333
 2598SOL    HW119256   2.993   0.657   1.141  0.3609 -2.4233  3.6166
 2598SOL    HW219257   2.942   0.585   1.025 -1.7363 -1.0531 -0.8498
 2599SOL     OW19258   1.469   3.767  15.937 -0.3921  0.6012  0.0795
 2599SOL    HW119259   1.413   3.720  15.999  0.5058  0.8640  1.0810
 2599SOL    HW219260   1.413   3.789  15.862 -0.9245  0.2691  0.3823
 2600SOL     OW19261   0.211   4.426   2.661 -0.0896  0.3935 -0.4131
 2600SOL    HW119262   0.136   4.442   2.718 -0.9821  1.7127 -1.9709
 2600SOL    HW219263   0.179   4.476   2.586 -1.0495 -0.6537 -0.7057
 2601SOL     OW19264   2.379   0.643   9.249  0.1907 -0.4663 -0.0209
 2601SOL    HW119265   2.346   0.561   9.212 -0.8815  0.0066 -0.1195
 2601SOL    HW219266   2.356   0.644   9.342 -0.0979 -0.1068 -0.0923
 2602SOL     OW19267   1.916   2.768   4.336 -0.2597  0.0563  0.0368
 2602SOL    HW119268   1.996   2.727   4.366  0.7773  2.2313  0.2780
 2602SOL    HW219269   1.862   2.698   4.298 -2.5049  1.3718  0.8147
 2603SOL     OW19270   0.405   3.317   8.559 -0.0446 -0.0593 -0.1152
 2603SOL    HW119271   0.364   3.253   8.501  0.2035  1.5873 -2.0714
 2603SOL    HW219272   0.469   3.356   8.500  0.6010 -0.8783  0.0368
 2604SOL     OW19273   3.189   4.095   3.902  0.1963  0.2218  0.0344
 2604SOL    HW119274   3.158   4.078   3.991 -1.9794 -2.6616 -1.2878
 2604SOL    HW219275   3.275   4.054   3.910  1.0466  1.6569 -1.8085
 2605SOL     OW19276   1.278   0.530   7.675  0.1233 -0.5903 -0.0781
 2605SOL    HW119277   1.214   0.523   7.605 -1.5029  1.2925  1.2083
 2605SOL    HW219278   1.356   0.555   7.625 -0.4641  3.6616  1.0914
 2606SOL     OW19279   1.166   3.297  11.243  0.1338  0.0578  0.0382
 2606SOL    HW119280   1.102   3.227  11.231 -0.4776  0.5438  0.4948
 2606SOL    HW219281   1.245   3.277  11.192  1.1713  1.3888  1.1592
 2607SOL     OW19282   2.682   1.506   4.445  0.1224  0.3179  0.1169
 2607SOL    HW119283   2.681   1.502   4.540 -1.3592  0.6163  0.1124
 2607SOL    HW219284   2.727   1.427   4.415  1.0515  0.1706  1.9405
 2608SOL     OW19285   1.838   2.133   6.578  0.6053  0.5518  0.5264
 2608SOL    HW119286   1.914   2.169   6.623  0.2889  1.3774  0.4064
 2608SOL    HW219287   1.826   2.045   6.614 -1.5796  2.4380  4.3723
 2609SOL     OW19288   2.429   4.278   6.345  0.3042 -0.1976  0.1770
 2609SOL    HW119289   2.504   4.238   6.301  0.9793 -0.5135  1.6153
 2609SOL    HW219290   2.401   4.319   6.263 -1.0011  2.1886  1.8074
 2610SOL     OW19291   1.524   1.155   4.527  0.1739  0.4807 -0.0575
 2610SOL    HW119292   1.457   1.146   4.595  0.1580 -1.6970 -0.3474
 2610SOL    HW219293   1.537   1.249   4.517  0.2784  0.2449 -2.1001
 2611SOL     OW19294   4.428   3.580   9.306  0.1440 -0.5276  0.3205
 2611SOL    HW119295   4.386   3.635   9.373 -0.9708 -0.4192 -0.4574
 2611SOL    HW219296   4.457   3.509   9.363  1.3314 -0.6620 -0.4703
 2612SOL     OW19297   0.505   2.185   8.380  0.1389  0.2060  0.6340
 2612SOL    HW119298   0.531   2.126   8.309  1.5103  1.6435 -0.0759
 2612SOL    HW219299   0.548   2.262   8.341 -0.2743  0.4843  0.7209
 2613SOL     OW19300   2.377   0.862   2.708 -0.2021 -0.5420 -0.2925
 2613SOL    HW119301   2.385   0.957   2.709  1.7809 -0.7389  1.2904
 2613SOL    HW219302   2.406   0.855   2.617 -0.6786  2.1512 -0.6378
 2614SOL     OW19303   0.262   1.539   6.593 -0.6646 -0.2460  0.7659
 2614SOL    HW119304   0.183   1.512   6.640 -0.0746 -0.5403  1.5747
 2614SOL    HW219305   0.249   1.490   6.511  0.4734  1.0895 -0.2065
 2615SOL     OW19306   4.387   4.036   4.769  0.3556 -0.0685  0.1398
 2615SOL    HW119307   4.334   4.042   4.848  0.9754  2.0751  0.3705
 2615SOL    HW219308   4.345   3.963   4.722  1.1389 -0.4146 -0.0285
 2616SOL     OW19309   0.539   2.821  13.610 -0.1409  0.1399 -0.2026
 2616SOL    HW119310   0.580   2.906  13.623 -2.3560  0.9684  1.1752
 2616SOL    HW219311   0.621   2.775  13.629 -1.0415 -1.2680  0.3434
 2617SOL     OW19312   0.747   2.908   4.582 -0.0924  0.2904  0.3108
 2617SOL    HW119313   0.708   2.929   4.667  0.7693  1.2037  0.4733
 2617SOL    HW219314   0.683   2.890   4.514 -0.8965 -1.2869  1.4682
 2618SOL     OW19315   3.939   1.720   0.761 -0.6600 -0.3428  0.2263
 2618SOL    HW119316   3.893   1.741   0.680  0.8884 -0.2028 -0.6236
 2618SOL    HW219317   3.910   1.794   0.814 -1.7703 -1.5231  1.2717
 2619SOL     OW19318   0.600   0.499   3.822  0.2935 -0.3724 -0.3551
 2619SOL    HW119319   0.674   0.559   3.827  1.8709 -2.5130  1.4845
 2619SOL    HW219320   0.639   0.440   3.757  1.5135 -1.9465  1.8463
 2620SOL     OW19321   3.830   1.266   5.997  0.7875 -0.1763 -0.1449
 2620SOL    HW119322   3.925   1.259   5.996  0.8545  0.3067  3.3375
 2620SOL    HW219323   3.793   1.232   5.916 -0.5373 -0.5621  0.6251
 2621SOL     OW19324   3.685   2.693   3.774  0.1763 -0.2315  0.5858
 2621SOL    HW119325   3.622   2.665   3.708  2.0278 -0.3795 -1.1170
 2621SOL    HW219326   3.640   2.770   3.810 -2.7895 -1.9009  0.4692
 2622SOL     OW19327   3.839   2.658   8.269  0.0502 -0.3951 -0.7873
 2622SOL    HW119328   3.874   2.572   8.291 -1.2858 -0.5429  0.6959
 2622SOL    HW219329   3.809   2.644   8.179 -2.4581  2.6194 -0.4154
 2623SOL     OW19330   4.698   1.365   4.235 -0.7509 -0.2165 -0.6909
 2623SOL    HW119331   4.692   1.445   4.287 -1.3950  0.0923 -1.2454
 2623SOL    HW219332   0.011   1.388   4.152 -0.1502  0.6235 -0.1665
 2624SOL     OW19333   2.244   4.583   8.482 -0.0710 -0.1244 -0.3682
 2624SOL    HW119334   2.260   4.677   8.486 -0.7294 -0.0364  0.1890
 2624SOL    HW219335   2.247   4.559   8.574 -0.2704  0.6639 -0.1532
 2625SOL     OW19336   3.645   2.818   1.652  0.3275 -0.5366 -0.0078
 2625SOL    HW119337   3.643   2.809   1.747  1.1255 -3.0665 -0.2204
 2625SOL    HW219338   3.552   2.821   1.630  0.2568  4.3161  0.9453
 2626SOL     OW19339   2.358   3.571  14.968  0.4760  0.3177  0.0730
 2626SOL    HW119340   2.323   3.490  15.005  0.6111 -0.1793 -0.9163
 2626SOL    HW219341   2.360   3.633  15.041 -3.1709  0.3228  0.1465
 2627SOL     OW19342   4.437   4.659   2.253 -0.9274 -0.2991  0.2233
 2627SOL    HW119343   4.482   0.015   2.239 -0.1376 -0.5322  1.3417
 2627SOL    HW219344   4.349   4.695   2.245  0.0227  1.8534 -0.4824
 2628SOL     OW19345   0.347   0.953   3.281 -0.2408 -0.0726  0.1762
 2628SOL    HW119346   0.264   0.999   3.278  0.2176  0.8540  1.7379
 2628SOL    HW219347   0.406   1.026   3.264 -1.9235  1.1522 -0.3337
 2629SOL     OW19348   4.141   2.593   7.856  0.2010  0.4368 -0.2761
 2629SOL    HW119349   4.081   2.661   7.824  2.6076  2.5324 -0.3230
 2629SOL    HW219350   4.137   2.544   7.774 -0.8615  1.4625 -0.8456
 2630SOL     OW19351   2.081   4.676   1.149  0.2781  0.3931  0.1995
 2630SOL    HW119352   2.042   4.660   1.235 -0.1949 -0.6600 -0.2151
 2630SOL    HW219353   2.116   4.589   1.127  1.9836  1.4840 -1.3909
 2631SOL     OW19354   2.441   4.075   3.588 -0.0421 -0.0578  0.0849
 2631SOL    HW119355   2.460   4.123   3.507  2.2487  0.5201  0.9670
 2631SOL    HW219356   2.372   4.133   3.621 -0.2611 -0.4694  0.3552
 2632SOL     OW19357   0.215   4.176   3.008 -0.3413 -0.7511 -0.3506
 2632SOL    HW119358   0.289   4.127   2.971 -0.0091 -2.0902  2.1013
 2632SOL    HW219359   0.171   4.216   2.933 -1.4172 -0.0248  0.6760
 2633SOL     OW19360   2.569   1.948   2.773 -0.0594  0.0294 -0.4070
 2633SOL    HW119361   2.506   1.920   2.706 -0.5921  0.4445 -0.0738
 2633SOL    HW219362   2.520   2.023   2.806  1.5138  0.5341  0.7434
 2634SOL     OW19363   4.037   1.273   3.101  0.0405 -0.1565 -0.5037
 2634SOL    HW119364   4.132   1.266   3.107 -0.0038  1.0930  1.5918
 2634SOL    HW219365   4.011   1.232   3.184 -2.7658  1.8759 -0.4118
 2635SOL     OW19366   1.535   3.360   4.484 -0.1241  0.2174 -0.0334
 2635SOL    HW119367   1.533   3.265   4.479 -1.2060  0.3727 -2.5596
 2635SOL    HW219368   1.629   3.377   4.485  0.1867 -1.5461  1.6741
 2636SOL     OW19369   2.596   3.087   3.432 -0.2763  0.0143 -0.0177
 2636SOL    HW119370   2.559   3.006   3.468 -1.0207 -0.2476 -1.3735
 2636SOL    HW219371   2.518   3.143   3.423 -1.5505 -1.6628  0.4739
 2637SOL     OW19372   4.632   4.001   2.523 -0.3423  0.2379  0.4438
 2637SOL    HW119373   4.633   4.042   2.436 -2.2652  0.5084  0.5566
 2637SOL    HW219374   4.709   3.945   2.519 -0.3400  0.2457  0.3729
 2638SOL     OW19375   0.639   2.653   1.304  0.5939  0.1507 -0.4067
 2638SOL    HW119376   0.586   2.655   1.224 -1.2860  0.4758  0.8527
 2638SOL    HW219377   0.714   2.708   1.281  0.8773 -0.5452 -1.1432
 2639SOL     OW19378   1.096   4.498   4.501  0.1942  0.3372  0.1048
 2639SOL    HW119379   1.069   4.414   4.463  2.5669 -0.0844 -0.6715
 2639SOL    HW219380   1.158   4.529   4.435 -0.5790 -0.8552 -1.1810
 2640SOL     OW19381   0.631   3.672   0.886 -0.4300 -0.4591 -0.5312
 2640SOL    HW119382   0.646   3.747   0.829 -4.0278 -0.7767 -1.8846
 2640SOL    HW219383   0.539   3.660   0.861 -1.1959 -0.7212  2.4194
 2641SOL     OW19384   0.187   2.614   8.529 -0.6512 -0.1375 -0.0215
 2641SOL    HW119385   0.187   2.709   8.521 -2.7283 -0.0277  1.1414
 2641SOL    HW219386   0.254   2.599   8.596 -0.9959  1.4372  0.6847
 2642SOL     OW19387   3.408   4.292  10.800  1.0089  0.8548  0.2122
 2642SOL    HW119388   3.322   4.297  10.759  1.4105 -0.3040 -0.7729
 2642SOL    HW219389   3.464   4.306  10.724 -1.0834 -1.8678 -1.8250
 2643SOL     OW19390   1.960   0.741   2.806 -0.1970  0.8043 -0.0597
 2643SOL    HW119391   1.930   0.667   2.753 -1.0252  1.4306 -0.4504
 2643SOL    HW219392   1.876   0.768   2.844  0.0401  1.5708 -0.0907
 2644SOL     OW19393   0.889   0.962   8.626 -0.1787 -0.1893 -0.3458
 2644SOL    HW119394   0.900   1.030   8.692  1.1251 -0.4344 -0.3150
 2644SOL    HW219395   0.871   0.884   8.678  1.3303  0.6255  1.3987
 2645SOL     OW19396   4.145   2.521  11.784  0.2426  0.2610  0.1135
 2645SOL    HW119397   4.145   2.573  11.864 -1.1205 -1.2993  1.1260
 2645SOL    HW219398   4.193   2.440  11.803 -1.6516 -0.6179  1.2084
 2646SOL     OW19399   0.847   3.042  16.394 -0.1104  0.9170  0.4529
 2646SOL    HW119400   0.843   3.126  16.348 -1.2966  0.4509 -0.2942
 2646SOL    HW219401   0.842   2.986  16.316  0.1747 -1.9501  2.5054
 2647SOL     OW19402   1.616   3.331   8.973 -0.6345  0.5251 -0.3566
 2647SOL    HW119403   1.632   3.238   8.956  1.0118  0.9301 -1.0215
 2647SOL    HW219404   1.582   3.324   9.062  1.8474 -0.2352  0.5500
 2648SOL     OW19405   2.862   3.491   4.388 -0.2249 -0.9546  0.3542
 2648SOL    HW119406   2.831   3.579   4.407 -0.2880 -0.8932 -0.0419
 2648SOL    HW219407   2.816   3.487   4.305 -0.1319  2.2861  0.1718
 2649SOL     OW19408   1.149   0.922   6.938 -0.1549  0.5390  0.6899
 2649SOL    HW119409   1.208   0.877   6.998  1.1811  1.5831  0.1726
 2649SOL    HW219410   1.209   0.965   6.877 -1.5879  2.5501  0.6807
 2650SOL     OW19411   2.827   2.695   7.826  0.5869  0.4448  0.3377
 2650SOL    HW119412   2.860   2.750   7.755  2.3367 -1.4114 -0.3028
 2650SOL    HW219413   2.906   2.647   7.854 -0.6632 -1.8616 -0.0463
 2651SOL     OW19414   3.488   4.207  11.801  0.0473 -0.0377  0.4647
 2651SOL    HW119415   3.569   4.255  11.789  0.5679 -0.2594  2.9619
 2651SOL    HW219416   3.506   4.123  11.760 -0.0736 -0.7598  1.8684
 2652SOL     OW19417   4.570   2.872   3.549  0.4023  0.4626 -0.3981
 2652SOL    HW119418   4.494   2.834   3.505  0.8809 -0.0216 -0.8110
 2652SOL    HW219419   4.530   2.945   3.595 -1.7203  0.0956 -1.6840
 2653SOL     OW19420   3.467   2.832   6.779 -0.2642 -0.5624  0.0564
 2653SOL    HW119421   3.524   2.909   6.776 -0.6511 -0.3573 -1.9167
 2653SOL    HW219422   3.463   2.813   6.873  2.2960  2.0997  0.7152
 2654SOL     OW19423   2.444   4.645   9.068  0.2255 -0.2135  0.0790
 2654SOL    HW119424   2.388   4.573   9.096 -4.1567  3.1215 -0.1483
 2654SOL    HW219425   2.379   4.715   9.055  1.3970  1.0593  0.9929
 2655SOL     OW19426   1.031   2.112   5.776 -0.4487  0.1867 -0.2998
 2655SOL    HW119427   1.053   2.019   5.771 -0.0175  0.2481  0.4848
 2655SOL    HW219428   0.955   2.111   5.718  0.4775 -0.9377 -1.4944
 2656SOL     OW19429   3.736   4.411   2.614  0.3300  0.0122 -0.1975
 2656SOL    HW119430   3.818   4.376   2.579  0.2996  0.9450 -1.2017
 2656SOL    HW219431   3.677   4.344   2.579 -0.6990  0.1921  1.2187
 2657SOL     OW19432   3.091   4.494  14.836 -0.9670 -0.4775  0.5144
 2657SOL    HW119433   3.184   4.520  14.840 -0.3828 -2.3585 -0.7093
 2657SOL    HW219434   3.093   4.411  14.789 -0.4725  1.2012 -2.4897
 2658SOL     OW19435   3.169   0.678   5.162  0.1871  0.0837  0.1674
 2658SOL    HW119436   3.081   0.648   5.188  0.9232 -0.0917  2.4882
 2658SOL    HW219437   3.180   0.758   5.213 -1.0257  1.8538 -2.3744
 2659SOL     OW19438   2.529   2.856   3.555 -0.5935  0.3887  0.1086
 2659SOL    HW119439   2.593   2.867   3.626 -0.2321 -0.0102 -0.1486
 2659SOL    HW219440   2.527   2.761   3.544 -1.0382  0.6614 -2.1859
 2660SOL     OW19441   3.506   1.672   0.676  0.4159 -0.0335 -0.1330
 2660SOL    HW119442   3.546   1.706   0.756 -2.2960 -3.0926  2.5079
 2660SOL    HW219443   3.535   1.728   0.603 -0.1145 -0.5906 -0.7668
 2661SOL     OW19444   0.312   3.535   5.964 -0.2948  0.0724  0.1205
 2661SOL    HW119445   0.343   3.488   5.887  0.6050 -0.1459  0.6065
 2661SOL    HW219446   0.268   3.603   5.914  0.3102 -1.2626 -2.2275
 2662SOL     OW19447   4.035   4.202  16.248 -0.1229 -0.4493  0.4559
 2662SOL    HW119448   4.128   4.176  16.247  0.5498  2.0156 -0.5311
 2662SOL    HW219449   4.014   4.196  16.341  0.8924  0.1699  0.7246
 2663SOL     OW19450   2.606   0.409   2.303  0.4401 -0.2897 -0.0277
 2663SOL    HW119451   2.689   0.430   2.346  0.5528  1.3346 -1.0730
 2663SOL    HW219452   2.554   0.369   2.373 -0.3124  2.4771  1.0194
 2664SOL     OW19453   2.666   2.480   3.903  0.9227  0.4172 -0.3255
 2664SOL    HW119454   2.605   2.423   3.949 -0.8868  1.2031 -1.7327
 2664SOL    HW219455   2.620   2.473   3.819  0.4612  0.9235 -0.1158
 2665SOL     OW19456   0.033   4.683   8.131  0.0244 -0.2614  0.0098
 2665SOL    HW119457   0.100   0.016   8.163 -0.0102 -1.0959  1.6876
 2665SOL    HW219458   4.718   4.657   8.213  1.3405  1.0220  1.0959
 2666SOL     OW19459   3.627   1.444   2.204  0.4249 -0.0226  0.1162
 2666SOL    HW119460   3.641   1.349   2.211 -0.3720 -0.1500 -0.1026
 2666SOL    HW219461   3.612   1.447   2.109  2.2219  1.6496 -0.1197
 2667SOL     OW19462   4.489   3.560   2.837 -0.4116  0.4105  0.4572
 2667SOL    HW119463   4.466   3.650   2.858 -2.2861  0.2337 -0.8467
 2667SOL    HW219464   4.446   3.514   2.909 -0.0454  1.9004  1.6127
 2668SOL     OW19465   3.493   2.656   3.606 -0.2118 -0.2819 -0.1624
 2668SOL    HW119466   3.404   2.646   3.574 -0.9829 -0.6978  2.0655
 2668SOL    HW219467   3.540   2.597   3.547  2.2872  0.6587  0.8696
 2669SOL     OW19468   4.261   4.182  15.151 -0.0881 -0.2745  0.4003
 2669SOL    HW119469   4.333   4.118  15.147 -0.3127 -0.5649  0.8929
 2669SOL    HW219470   4.277   4.214  15.240  1.1677 -1.7818  0.7322
 2670SOL     OW19471   1.749   4.405   5.182  0.3155 -0.3150  0.2001
 2670SOL    HW119472   1.690   4.479   5.195 -2.9644 -2.6870 -1.1851
 2670SOL    HW219473   1.728   4.384   5.091  0.4561  1.1085 -0.1565
 2671SOL     OW19474   0.829   4.471   0.698 -0.0943  0.1338 -0.5445
 2671SOL    HW119475   0.788   4.557   0.685  1.4947  1.0092  0.2473
 2671SOL    HW219476   0.777   4.414   0.642  1.3167 -2.6523  1.0072
 2672SOL     OW19477   3.029   0.985   4.388  0.5282  0.2807 -0.2418
 2672SOL    HW119478   3.110   1.033   4.409  0.5968 -0.5133  1.3330
 2672SOL    HW219479   2.994   0.961   4.474  2.8604 -0.1598  0.5787
 2673SOL     OW19480   2.191   3.561   9.616 -1.1382 -0.6593 -0.1055
 2673SOL    HW119481   2.229   3.522   9.538 -0.4339  0.1903 -0.1920
 2673SOL    HW219482   2.167   3.650   9.589  0.8530 -0.2529 -0.5744
 2674SOL     OW19483   4.467   1.039   4.473 -0.1856 -0.2398  0.3536
 2674SOL    HW119484   4.462   0.985   4.394 -2.2716  1.2440 -0.5274
 2674SOL    HW219485   4.531   1.106   4.449 -1.4219  2.4082  4.5199
 2675SOL     OW19486   4.683   3.078   3.271  1.0135  0.0346  0.2488
 2675SOL    HW119487   4.671   2.983   3.265 -0.6817  0.1895  1.3543
 2675SOL    HW219488   0.048   3.086   3.294  0.7814  3.1392  0.0934
 2676SOL     OW19489   1.092   3.669   2.836  0.2823 -0.8467  0.0283
 2676SOL    HW119490   1.129   3.687   2.922 -1.3614  1.6154  0.2118
 2676SOL    HW219491   1.090   3.757   2.799 -0.2230 -0.9175 -0.1075
 2677SOL     OW19492   3.693   2.623  15.329  0.2073 -1.0140  0.1569
 2677SOL    HW119493   3.723   2.659  15.246  2.2722 -1.6229  0.6432
 2677SOL    HW219494   3.646   2.550  15.289 -0.2545  0.2481 -1.6123
 2678SOL     OW19495   4.409   0.859   5.961  0.0778 -0.1556  0.0874
 2678SOL    HW119496   4.315   0.862   5.981  0.0700 -0.4053  0.0947
 2678SOL    HW219497   4.405   0.934   5.902  1.9175  1.8294  2.4786
 2679SOL     OW19498   3.996   3.229  16.410  0.1481 -0.1882  0.0638
 2679SOL    HW119499   4.028   3.139  16.416  1.9311  0.4401 -0.2726
 2679SOL    HW219500   3.965   3.232  16.320  0.2053 -1.4971  0.0001
 2680SOL     OW19501   2.179   1.310   2.270  0.0465  0.0653 -0.4813
 2680SOL    HW119502   2.259   1.257   2.271 -0.3957 -0.6230 -1.2325
 2680SOL    HW219503   2.117   1.243   2.300  0.2557  1.0791  2.1642
 2681SOL     OW19504   0.877   2.044   7.351 -0.2580 -0.8142  0.3715
 2681SOL    HW119505   0.890   1.954   7.382  0.7003 -0.6848  0.3183
 2681SOL    HW219506   0.969   2.066   7.343 -0.0911 -0.7263  2.8116
 2682SOL     OW19507   4.080   3.394   0.234  0.2602  0.6795  0.4784
 2682SOL    HW119508   4.074   3.302   0.260 -0.4625  1.6800  3.7843
 2682SOL    HW219509   3.991   3.417   0.208  0.1344 -1.0002 -0.5875
 2683SOL     OW19510   0.026   1.113   9.973  0.1473  0.4125  0.3820
 2683SOL    HW119511   4.680   1.108   9.912 -0.9126 -2.0655  1.8724
 2683SOL    HW219512   4.710   1.085  10.054  0.0631 -0.7027 -0.0607
 2684SOL     OW19513   2.164   4.585  15.351  0.0558  0.8186  0.6379
 2684SOL    HW119514   2.107   4.611  15.424  0.9195  0.9095  1.2788
 2684SOL    HW219515   2.110   4.522  15.303 -0.3745  1.8894 -0.2808
 2685SOL     OW19516   0.092   2.344  10.036 -0.0701  0.2619 -0.1054
 2685SOL    HW119517   0.081   2.341   9.941 -0.2828 -1.3030 -0.0250
 2685SOL    HW219518   0.132   2.431  10.047  2.0394 -0.6937 -0.2335
 2686SOL     OW19519   0.671   0.316  16.786  0.0070  0.3730 -0.6817
 2686SOL    HW119520   0.747   0.361  16.749  0.8975  0.4827  1.2840
 2686SOL    HW219521   0.696   0.231  16.750 -0.8647  0.0515 -0.5239
 2687SOL     OW19522   2.582   0.303   9.216  0.2497  0.2814 -0.3745
 2687SOL    HW119523   2.569   0.212   9.190 -1.7515  0.8139 -1.2709
 2687SOL    HW219524   2.500   0.346   9.191 -0.1267  1.3255  2.6619
 2688SOL     OW19525   4.723   1.313  15.836 -0.3656 -0.0633 -0.1388
 2688SOL    HW119526   4.720   1.332  15.742  0.8339  2.3264  0.3058
 2688SOL    HW219527   4.679   1.391  15.871 -0.9659  0.9448 -3.1010
 2689SOL     OW19528   2.799   0.879   0.168 -0.5707  0.6367 -0.8255
 2689SOL    HW119529   2.808   0.974   0.172 -0.4051  0.7401 -3.7777
 2689SOL    HW219530   2.704   0.876   0.179 -0.4797  1.7462  0.2088
 2690SOL     OW19531   2.726   1.384   0.639 -0.5547 -0.0372  0.2901
 2690SOL    HW119532   2.694   1.456   0.585 -0.0001 -0.4460 -0.5816
 2690SOL    HW219533   2.653   1.391   0.700  0.9046  1.1479  1.9098
 2691SOL     OW19534   3.026   1.301   1.591 -0.3841  0.0656  0.1377
 2691SOL    HW119535   2.975   1.381   1.602 -1.7341 -0.8257  0.3554
 2691SOL    HW219536   3.071   1.327   1.510 -0.6994 -0.0811 -0.0876
 2692SOL     OW19537   0.566   4.595  13.178 -0.5825  0.7257  0.4120
 2692SOL    HW119538   0.527   4.544  13.107  1.0322 -2.0405  1.5095
 2692SOL    HW219539   0.655   4.618  13.152 -0.2162 -1.1947 -0.0697
 2693SOL     OW19540   0.550   2.057   6.628  0.2075 -0.0935  0.7749
 2693SOL    HW119541   0.615   2.089   6.565  0.3753  0.0365  1.0178
 2693SOL    HW219542   0.469   2.072   6.580 -0.0976  0.8568  1.5904
 2694SOL     OW19543   4.162   2.339   8.133 -0.2258 -0.1173  0.5941
 2694SOL    HW119544   4.213   2.265   8.166  0.3697 -0.0765 -0.2260
 2694SOL    HW219545   4.224   2.391   8.082  2.5591 -0.3276  3.7905
 2695SOL     OW19546   0.733   4.387  11.177  0.6693 -0.3508 -0.3229
 2695SOL    HW119547   0.751   4.479  11.197 -1.1778 -0.1141  0.1720
 2695SOL    HW219548   0.757   4.377  11.085  1.7440 -0.3140 -0.0557
 2696SOL     OW19549   3.576   4.673  14.854  0.2897 -0.0285  0.2792
 2696SOL    HW119550   3.588   4.641  14.764 -3.1665 -1.5325  0.3587
 2696SOL    HW219551   3.649   4.618  14.884  0.3192 -1.0739 -1.7374
 2697SOL     OW19552   2.054   3.416  10.649 -0.0988  0.2042 -0.0298
 2697SOL    HW119553   2.066   3.442  10.741  0.6658 -3.4923  0.9258
 2697SOL    HW219554   2.049   3.321  10.653 -0.4434  0.2844  1.6346
 2698SOL     OW19555   1.143   0.562   6.999  0.4757  0.4458  0.1544
 2698SOL    HW119556   1.147   0.560   6.904 -0.7228 -2.0893  0.1422
 2698SOL    HW219557   1.225   0.610   7.012  0.5720  0.3355 -0.0426
 2699SOL     OW19558   0.850   3.793   8.579 -0.0596  0.7017  0.2326
 2699SOL    HW119559   0.795   3.730   8.625 -1.2743  0.4567 -1.5452
 2699SOL    HW219560   0.785   3.831   8.520  0.5185 -0.8085 -1.3572
 2700SOL     OW19561   1.271   1.261  12.511  0.3189 -0.0890 -0.6579
 2700SOL    HW119562   1.288   1.206  12.434  0.2339  1.1932 -1.6121
 2700SOL    HW219563   1.284   1.349  12.476  1.5234  0.8601  2.2343
 2701SOL     OW19564   0.576   1.667  11.761  0.1202  0.2517  0.2418
 2701SOL    HW119565   0.566   1.665  11.666  1.9262  0.5613  0.0525
 2701SOL    HW219566   0.671   1.662  11.769 -0.0036  0.5297  1.8835
 2702SOL     OW19567   0.582   4.575  12.624 -0.0410  0.1565 -0.2047
 2702SOL    HW119568   0.651   4.512  12.603  2.5145  3.6468 -2.3589
 2702SOL    HW219569   0.611   4.601  12.712 -0.0402 -0.3213 -0.0609
 2703SOL     OW19570   2.946   3.802   4.505  0.0932  0.4120  0.3693
 2703SOL    HW119571   3.001   3.879   4.491  0.1635  0.3478  0.2888
 2703SOL    HW219572   2.917   3.815   4.595 -0.1894  0.3579  0.2860
 2704SOL     OW19573   1.874   3.674  15.257 -0.0898 -0.3454  0.1730
 2704SOL    HW119574   1.819   3.614  15.205 -0.3836  0.2491 -0.2053
 2704SOL    HW219575   1.912   3.618  15.325  0.7412 -0.2902 -0.2494
 2705SOL     OW19576   1.142   0.571   8.119  0.3086 -0.6351 -0.3082
 2705SOL    HW119577   1.155   0.550   8.211 -0.2645 -2.2244 -0.5847
 2705SOL    HW219578   1.069   0.633   8.123 -0.3772 -1.3906 -1.2324
 2706SOL     OW19579   3.375   1.033   4.222 -0.4605 -0.3365 -0.5839
 2706SOL    HW119580   3.469   1.037   4.236 -0.8511  3.8253  0.7107
 2706SOL    HW219581   3.346   1.057   4.310 -0.0639 -0.4376 -0.4268
 2707SOL     OW19582   1.828   2.933   4.772 -0.1149 -0.1866  0.3301
 2707SOL    HW119583   1.758   2.872   4.750  0.0306 -1.0033  2.0884
 2707SOL    HW219584   1.813   2.932   4.867 -3.4953 -3.1744 -0.2455
 2708SOL     OW19585   4.250   4.300   8.393  0.7557 -0.4407 -0.2517
 2708SOL    HW119586   4.272   4.219   8.438 -0.0873  1.3306  3.3103
 2708SOL    HW219587   4.216   4.346   8.469 -0.3212  0.1707 -1.0904
 2709SOL     OW19588   4.162   3.266   8.864  0.0797  0.4147  0.1894
 2709SOL    HW119589   4.177   3.264   8.959 -0.6020 -1.1048  0.2626
 2709SOL    HW219590   4.190   3.177   8.844 -0.7255  0.0002  0.8988
 2710SOL     OW19591   2.874   4.244   6.694  0.4217  0.5424 -0.1781
 2710SOL    HW119592   2.803   4.181   6.708  0.0341  0.8214 -0.8878
 2710SOL    HW219593   2.896   4.278   6.781 -0.0132 -0.3911  0.3025
 2711SOL     OW19594   3.921   3.983  11.882 -0.6853  0.3415  0.3841
 2711SOL    HW119595   3.872   4.015  11.958 -4.2296 -1.1494 -1.2635
 2711SOL    HW219596   3.924   4.063  11.831 -1.3497  1.4760  2.1118
 2712SOL     OW19597   4.108   2.421   7.661  0.1750 -0.1376  0.4502
 2712SOL    HW119598   4.142   2.348   7.712  2.0281  1.0483  0.9511
 2712SOL    HW219599   4.121   2.392   7.571 -0.2722  3.3153 -0.7521
 2713SOL     OW19600   2.887   1.838   6.919 -0.4510  0.0475  0.5603
 2713SOL    HW119601   2.808   1.806   6.875  1.1550 -3.4012  0.1790
 2713SOL    HW219602   2.861   1.817   7.009 -0.1535 -2.0209  0.1651
 2714SOL     OW19603   0.565   3.638  13.757 -0.3547 -0.1137 -0.1881
 2714SOL    HW119604   0.482   3.685  13.766 -0.9944 -0.9545 -1.7668
 2714SOL    HW219605   0.557   3.591  13.674  3.3400  1.2385 -1.2943
 2715SOL     OW19606   3.474   0.007   9.915  0.3375  0.2903  0.0028
 2715SOL    HW119607   3.517   0.003   9.830 -1.2826  0.7525 -0.8434
 2715SOL    HW219608   3.470   4.642   9.937  1.1925 -0.3636 -2.5700
 2716SOL     OW19609   0.954   0.309   4.642  0.6740 -0.2776 -0.1921
 2716SOL    HW119610   0.906   0.361   4.707 -0.2207 -0.9229 -0.3356
 2716SOL    HW219611   0.912   0.325   4.558  1.6105 -2.9251 -1.1629
 2717SOL     OW19612   0.893   0.478  16.720 -0.2358 -0.1903  0.6643
 2717SOL    HW119613   0.927   0.414  16.783 -1.1264 -0.9441  0.3925
 2717SOL    HW219614   0.942   0.550  16.759  1.8453 -1.3313  0.1324
 2718SOL     OW19615   1.422   2.039   7.784 -0.5973  0.1904 -0.1575
 2718SOL    HW119616   1.454   2.107   7.725 -2.5925  0.0640 -1.3482
 2718SOL    HW219617   1.328   2.050   7.771 -0.4404  1.9019  0.1572
 2719SOL     OW19618   2.879   3.709   1.837 -0.4424 -0.6133  0.3331
 2719SOL    HW119619   2.866   3.790   1.788 -0.7477 -1.7037 -1.3775
 2719SOL    HW219620   2.920   3.739   1.918  1.7578 -0.7555 -0.7298
 2720SOL     OW19621   4.505   1.957   2.885  0.8195 -0.6861 -0.0679
 2720SOL    HW119622   4.477   1.886   2.942  1.3341 -1.5645 -0.9173
 2720SOL    HW219623   4.553   2.010   2.950  2.4882 -0.6957 -1.2843
 2721SOL     OW19624   2.420   0.891   3.665  0.2641  0.0428 -0.3435
 2721SOL    HW119625   2.387   0.949   3.597  1.2056 -1.4201 -2.0386
 2721SOL    HW219626   2.474   0.840   3.604  1.0030  0.3419  0.0575
 2722SOL     OW19627   2.954   2.935   5.766 -0.1707  0.2428 -0.0865
 2722SOL    HW119628   2.864   2.931   5.734 -1.0122 -0.8447  2.3926
 2722SOL    HW219629   2.947   3.004   5.833 -0.5306 -1.2988  1.4781
 2723SOL     OW19630   1.787   2.776   3.669 -0.0955  0.1796  0.6387
 2723SOL    HW119631   1.796   2.685   3.698 -1.7704  0.4390  1.9290
 2723SOL    HW219632   1.740   2.757   3.588  1.4752 -1.2845  0.0676
 2724SOL     OW19633   2.054   1.153   8.995  0.5212  0.0779  0.0350
 2724SOL    HW119634   2.054   1.231   8.939  0.5713 -0.6170 -0.9333
 2724SOL    HW219635   2.144   1.123   8.985 -0.0286 -1.3843 -0.4618
 2725SOL     OW19636   2.152   2.597  15.208  0.5866 -0.3403  0.1859
 2725SOL    HW119637   2.216   2.610  15.278 -0.4736 -0.4850  1.1855
 2725SOL    HW219638   2.164   2.505  15.184 -2.3562 -0.8004  0.4936
 2726SOL     OW19639   1.994   0.595   4.763  0.1373 -0.7480  0.3121
 2726SOL    HW119640   2.082   0.560   4.777  0.6278  0.0493 -0.7809
 2726SOL    HW219641   1.996   0.688   4.786 -1.7552 -0.0084 -2.5112
 2727SOL     OW19642   1.316   1.081   6.178  0.4911  0.0470 -0.0530
 2727SOL    HW119643   1.407   1.101   6.202  0.8564 -0.2049 -1.2183
 2727SOL    HW219644   1.301   1.022   6.251  1.3586 -0.8369 -0.5814
 2728SOL     OW19645   2.995   2.136   0.258 -0.4489 -0.1503 -0.1238
 2728SOL    HW119646   3.015   2.229   0.255 -0.0548 -0.1874  1.5521
 2728SOL    HW219647   3.076   2.111   0.303 -0.5045  0.4516  0.3096
 2729SOL     OW19648   2.725   0.978  10.069  0.3943 -1.3766  0.6074
 2729SOL    HW119649   2.757   1.068  10.062  0.2815 -1.3077  0.9887
 2729SOL    HW219650   2.808   0.942  10.101  0.6157 -0.3345  1.2087
 2730SOL     OW19651   0.484   1.191   2.295  0.1680  0.2140  0.0026
 2730SOL    HW119652   0.563   1.233   2.327  0.8313  0.1036 -1.4905
 2730SOL    HW219653   0.441   1.276   2.296  0.5906  0.4615 -2.5722
 2731SOL     OW19654   0.826   4.273   4.130 -0.8432 -0.7336 -0.6455
 2731SOL    HW119655   0.846   4.221   4.052  1.3524  0.5930 -0.9513
 2731SOL    HW219656   0.806   4.352   4.080 -1.0166  0.4180  1.2572
 2732SOL     OW19657   2.049   2.402   5.068 -0.0927  0.2705 -0.4808
 2732SOL    HW119658   1.979   2.336   5.067  0.8567 -0.7525 -0.2815
 2732SOL    HW219659   2.070   2.410   4.975 -0.7393 -0.6785 -0.7143
 2733SOL     OW19660   0.271   1.415  11.659 -0.1041 -0.6298  0.0229
 2733SOL    HW119661   0.246   1.345  11.719 -0.4613 -1.5106 -1.1500
 2733SOL    HW219662   0.358   1.379  11.643 -1.7477 -3.5713 -2.4539
 2734SOL     OW19663   4.285   0.243  11.967  0.3195  0.4654 -0.5449
 2734SOL    HW119664   4.371   0.202  11.975  0.0104  0.3995  2.4959
 2734SOL    HW219665   4.244   0.238  12.053  0.0934  0.0580 -0.6812
 2735SOL     OW19666   0.176   2.807   6.911 -0.2622 -0.2882 -0.0969
 2735SOL    HW119667   0.143   2.762   6.989 -0.2379 -3.3610 -1.8654
 2735SOL    HW219668   0.223   2.729   6.881  1.0984  0.5060 -0.0393
 2736SOL     OW19669   2.001   1.363   7.676 -0.7246  0.2997 -0.2572
 2736SOL    HW119670   2.056   1.318   7.740 -2.3485 -1.8264 -0.3816
 2736SOL    HW219671   2.004   1.450   7.717 -0.2900  0.1864 -0.0452
 2737SOL     OW19672   3.998   3.548   6.347 -0.5772 -0.1827  0.4815
 2737SOL    HW119673   4.040   3.623   6.388 -1.5071 -0.0820  1.2425
 2737SOL    HW219674   3.939   3.592   6.285 -1.1437  1.7630  2.4019
 2738SOL     OW19675   4.344   1.518  16.698 -0.4955 -0.4473 -0.5191
 2738SOL    HW119676   4.380   1.606  16.705 -0.5946 -0.6102  2.0595
 2738SOL    HW219677   4.408   1.466  16.649 -0.8175 -0.2116 -1.1867
 2739SOL     OW19678   2.476   0.954   8.156  0.1184 -0.0253  0.2580
 2739SOL    HW119679   2.384   0.957   8.127  0.4161 -1.6184 -0.8128
 2739SOL    HW219680   2.472   0.962   8.252 -0.2899  2.3899  0.0542
 2740SOL     OW19681   4.617   1.563   2.852  0.2170 -0.1933 -0.7249
 2740SOL    HW119682   4.523   1.579   2.845  0.3557  1.5716  1.3975
 2740SOL    HW219683   4.655   1.644   2.817  0.5516  0.2575  0.6888
 2741SOL     OW19684   4.201   2.127   3.555 -0.3098 -0.2707 -0.5397
 2741SOL    HW119685   4.211   2.051   3.611 -3.5181 -0.6262 -0.4710
 2741SOL    HW219686   4.226   2.195   3.617 -1.5428 -1.6021  1.3958
 2742SOL     OW19687   1.072   3.202  12.444 -0.0425 -0.0989  0.3871
 2742SOL    HW119688   0.997   3.173  12.496 -1.2744  1.0484 -0.7488
 2742SOL    HW219689   1.082   3.129  12.384  0.1491 -0.4821  0.8892
 2743SOL     OW19690   3.977   1.840   4.566 -0.0486  0.4332  0.0199
 2743SOL    HW119691   3.926   1.856   4.645 -0.1410  1.3128 -0.2134
 2743SOL    HW219692   3.954   1.909   4.503  3.4236  2.4680  1.0030
 2744SOL     OW19693   4.610   1.277   4.706 -0.5341  0.0984 -0.7896
 2744SOL    HW119694   4.581   1.345   4.767 -0.1617  1.7513 -2.4800
 2744SOL    HW219695   4.662   1.329   4.645  0.1615 -0.7573 -0.9275
 2745SOL     OW19696   4.459   0.920   7.512 -0.1601  0.2595 -0.1792
 2745SOL    HW119697   4.450   0.859   7.585 -0.9694  0.2037 -0.3274
 2745SOL    HW219698   4.384   0.977   7.529 -0.0717  0.1859  0.4759
 2746SOL     OW19699   3.005   2.499   7.939  0.1184 -0.0239  1.0484
 2746SOL    HW119700   2.923   2.448   7.945 -0.6438  1.0694 -0.0743
 2746SOL    HW219701   3.025   2.509   8.032 -1.5107  1.0001  1.2861
 2747SOL     OW19702   1.076   3.078   3.693 -0.7973 -0.1556  0.4436
 2747SOL    HW119703   1.062   3.122   3.777 -3.2068  1.3517 -0.7602
 2747SOL    HW219704   1.096   3.155   3.639  1.0963 -1.9749 -1.4312
 2748SOL     OW19705   3.302   1.879  14.472  0.0861  0.5264  0.5139
 2748SOL    HW119706   3.278   1.893  14.380  1.5063 -1.8568 -0.2367
 2748SOL    HW219707   3.214   1.859  14.503 -0.3101 -0.4085 -1.2397
 2749SOL     OW19708   2.465   2.962  17.431 -0.5093  0.1794  0.0923
 2749SOL    HW119709   2.417   2.935  17.352  0.6621  1.0119 -0.8974
 2749SOL    HW219710   2.483   2.877  17.470 -0.2256  1.8199  3.4737
 2750SOL     OW19711   0.393   0.354   8.558  0.1012  0.0084  0.7674
 2750SOL    HW119712   0.404   0.380   8.649  1.6750  0.9742  0.3088
 2750SOL    HW219713   0.334   0.427   8.541 -1.4902 -1.2104  1.1173
 2751SOL     OW19714   2.717   1.120   9.681  0.1944  0.2402  0.7471
 2751SOL    HW119715   2.667   1.165   9.749 -0.8674 -0.5559  0.4865
 2751SOL    HW219716   2.647   1.068   9.642 -0.3935 -2.1105  4.9124
 2752SOL     OW19717   2.292   1.659   3.063 -0.2154 -0.7992  0.4315
 2752SOL    HW119718   2.334   1.743   3.081 -3.8645  0.7299  1.7112
 2752SOL    HW219719   2.374   1.612   3.044  0.6006  0.2314  1.3840
 2753SOL     OW19720   4.107   3.387  10.128 -0.2066  0.0933 -0.1303
 2753SOL    HW119721   4.123   3.468  10.079 -2.5541  0.9021  0.4590
 2753SOL    HW219722   4.167   3.387  10.202 -0.5346 -1.4294  0.1359
 2754SOL     OW19723   3.921   1.294  13.128 -0.6236 -0.0054  0.3497
 2754SOL    HW119724   3.881   1.325  13.209 -1.3146  1.3563 -0.5074
 2754SOL    HW219725   3.963   1.376  13.101 -0.2541 -0.6955 -1.1720
 2755SOL     OW19726   1.120   2.938  12.331 -0.5842  0.5473 -0.4990
 2755SOL    HW119727   1.172   2.877  12.383 -1.3410  1.1122  0.9446
 2755SOL    HW219728   1.156   2.924  12.244 -0.8182 -0.4286 -0.4388
 2756SOL     OW19729   1.588   0.719   5.205  0.4364  0.9108 -0.3389
 2756SOL    HW119730   1.668   0.756   5.167  1.0974  0.1475  0.3181
 2756SOL    HW219731   1.602   0.747   5.296  0.3918 -0.9592  0.2349
 2757SOL     OW19732   3.623   4.605  14.318 -0.4914 -0.6082 -0.7429
 2757SOL    HW119733   3.601   4.663  14.245 -1.0557  0.4988  0.2940
 2757SOL    HW219734   3.687   4.654  14.371 -0.3164 -0.4321 -1.1216
 2758SOL     OW19735   4.484   1.232   4.096 -0.4347  0.3320  0.6816
 2758SOL    HW119736   4.395   1.218   4.128 -0.2869  0.1817  1.0304
 2758SOL    HW219737   4.527   1.276   4.170  2.7850 -1.6200 -0.0413
 2759SOL     OW19738   2.978   1.223  12.473  0.5415 -0.4778 -0.0903
 2759SOL    HW119739   3.035   1.298  12.457 -1.4817  1.0208 -0.3455
 2759SOL    HW219740   2.893   1.259  12.497  1.0833 -0.0503  1.1810
 2760SOL     OW19741   2.236   4.534   8.192 -0.1171  0.5521 -0.9327
 2760SOL    HW119742   2.230   4.533   8.287 -0.5993 -1.1712 -0.9806
 2760SOL    HW219743   2.150   4.503   8.161  0.4083 -1.6788 -0.1484
 2761SOL     OW19744   3.743   2.259   6.750  0.7301 -0.2779  0.2780
 2761SOL    HW119745   3.746   2.314   6.828 -0.0356  0.1638 -0.0097
 2761SOL    HW219746   3.676   2.306   6.701 -0.0991 -0.0290  1.6868
 2762SOL     OW19747   2.638   0.373   7.993 -0.4226 -0.2867  0.8467
 2762SOL    HW119748   2.606   0.322   7.918 -0.6327  0.7819  0.2142
 2762SOL    HW219749   2.567   0.436   8.005  0.9166  1.3125  0.4522
 2763SOL     OW19750   4.294   2.662   7.503 -0.3227 -0.2086 -0.3881
 2763SOL    HW119751   4.248   2.583   7.475 -0.0803 -0.2611 -0.6365
 2763SOL    HW219752   4.355   2.674   7.430  0.0134  3.9344  0.5848
 2764SOL     OW19753   1.340   1.177   2.058  0.4355 -0.3485  0.2101
 2764SOL    HW119754   1.417   1.136   2.019  2.0816  1.9656  1.0211
 2764SOL    HW219755   1.367   1.269   2.064 -0.7693 -0.1150  1.9128
 2765SOL     OW19756   1.779   3.583   4.527 -0.0183 -0.5227 -0.2911
 2765SOL    HW119757   1.835   3.506   4.521  1.7031  0.8012 -1.2134
 2765SOL    HW219758   1.846   3.638   4.568 -0.2444 -0.3196 -0.1947
 2766SOL     OW19759   3.924   1.715   9.180  0.5451  0.4380 -0.2104
 2766SOL    HW119760   3.940   1.717   9.274 -0.6754 -0.9003  0.0247
 2766SOL    HW219761   3.829   1.703   9.181  0.3630  1.9349  0.1589
 2767SOL     OW19762   0.393   2.464   4.336  0.0205 -0.2454  0.4851
 2767SOL    HW119763   0.336   2.443   4.262 -1.4531  2.4967  0.8765
 2767SOL    HW219764   0.330   2.467   4.408  2.0711  0.1958  2.2822
 2768SOL     OW19765   0.019   3.024   8.357 -0.3897 -0.0632 -0.2697
 2768SOL    HW119766   4.662   3.000   8.394  0.4457 -1.7238  0.5505
 2768SOL    HW219767   0.055   2.946   8.315  4.8213  1.8103  0.7422
 2769SOL     OW19768   2.205   1.797   6.436  0.1009  0.1366  0.0173
 2769SOL    HW119769   2.133   1.832   6.384 -1.0335  1.5220  2.5262
 2769SOL    HW219770   2.255   1.878   6.447  0.0710  0.3388 -1.3601
 2770SOL     OW19771   4.611   4.582   1.932  0.3767  0.5243  0.4474
 2770SOL    HW119772   4.578   4.496   1.957  1.3275  0.0779  0.1587
 2770SOL    HW219773   4.627   4.628   2.014  0.2278 -0.3470  0.9619
 2771SOL     OW19774   2.908   0.986   3.159 -0.1916  0.0793  0.6640
 2771SOL    HW119775   2.857   0.966   3.081  1.3000 -3.8176  0.6443
 2771SOL    HW219776   2.998   0.970   3.131  0.1142  0.0251  1.6644
 2772SOL     OW19777   0.234   3.771   2.883  0.0620 -0.2825 -0.1532
 2772SOL    HW119778   0.297   3.731   2.823  1.3471  2.0188 -0.3446
 2772SOL    HW219779   0.157   3.714   2.879 -0.5015  0.4767 -0.2211
 2773SOL     OW19780   4.373   4.662   7.341  0.3085  0.6770  0.5861
 2773SOL    HW119781   4.446   4.720   7.363  1.3375 -0.7273  0.9272
 2773SOL    HW219782   4.336   4.644   7.428 -2.0797 -0.6061 -0.6854
 2774SOL     OW19783   3.254   2.667   1.147 -0.0291 -0.3025  0.3710
 2774SOL    HW119784   3.223   2.585   1.185 -0.4308  0.3795  1.5256
 2774SOL    HW219785   3.188   2.733   1.168  1.4342  1.2526  0.0190
 2775SOL     OW19786   2.757   4.496  14.964  0.1817  0.0836  0.0939
 2775SOL    HW119787   2.721   4.450  15.040 -3.1437  4.0956  0.9362
 2775SOL    HW219788   2.737   4.442  14.888 -1.5023 -1.1586  1.4360
 2776SOL     OW19789   4.350   1.789  13.277  0.1548  0.4172  0.2739
 2776SOL    HW119790   4.341   1.694  13.265  0.6866  0.2909  0.8121
 2776SOL    HW219791   4.277   1.794  13.339  0.5665  0.8826  0.7178
 2777SOL     OW19792   0.655   3.487   6.813  0.1638  0.2367 -0.3192
 2777SOL    HW119793   0.709   3.524   6.883  0.0373  1.5970 -0.9603
 2777SOL    HW219794   0.570   3.511   6.849 -1.0997 -1.8714 -1.8872
 2778SOL     OW19795   2.295   2.647   2.149  0.5252  0.8406 -0.0498
 2778SOL    HW119796   2.355   2.589   2.194 -1.1942 -1.9073 -1.3066
 2778SOL    HW219797   2.242   2.669   2.225  0.2117  1.4611 -0.4442
 2779SOL     OW19798   4.067   0.404   8.807  0.8374 -0.0277  0.3309
 2779SOL    HW119799   4.132   0.418   8.876  1.7957  0.6215 -0.7073
 2779SOL    HW219800   3.996   0.464   8.830 -0.7403 -1.6459 -0.3658
 2780SOL     OW19801   3.528   2.170   3.622 -0.4048  0.6582  0.6136
 2780SOL    HW119802   3.503   2.155   3.531 -0.9138 -0.3124  0.9189
 2780SOL    HW219803   3.528   2.265   3.638  0.7106  0.5818  1.0366
 2781SOL     OW19804   3.964   2.186   1.089  0.4062  0.7929  0.6989
 2781SOL    HW119805   3.946   2.167   1.181 -0.6500 -1.5565  0.0082
 2781SOL    HW219806   3.961   2.282   1.091  0.1306  0.7699  1.4561
 2782SOL     OW19807   3.614   2.343   4.257  0.3303  0.0852  0.0877
 2782SOL    HW119808   3.634   2.284   4.184  1.7550  1.2932 -0.4972
 2782SOL    HW219809   3.528   2.379   4.235 -0.6996 -2.0452  0.6433
 2783SOL     OW19810   4.481   4.042  15.445  0.2589 -0.1748 -0.0079
 2783SOL    HW119811   4.496   4.036  15.351  2.8236 -0.5749  0.4351
 2783SOL    HW219812   4.522   3.956  15.454  0.8926 -0.1232 -2.4034
 2784SOL     OW19813   0.414   1.272   4.598  0.2817 -0.0234 -0.3575
 2784SOL    HW119814   0.342   1.218   4.631 -1.0880  0.4899 -2.5081
 2784SOL    HW219815   0.485   1.207   4.599  0.2817  0.0291  2.5708
 2785SOL     OW19816   2.038   2.247   6.742  0.5954  0.2454 -0.1845
 2785SOL    HW119817   2.127   2.274   6.719  0.6158  0.8338  0.5495
 2785SOL    HW219818   2.042   2.203   6.827  1.1842 -1.3110 -1.0181
 2786SOL     OW19819   4.521   0.705  10.489  0.1178 -0.0057  0.2492
 2786SOL    HW119820   4.434   0.701  10.528  1.0553  1.7668  2.5564
 2786SOL    HW219821   4.506   0.677  10.399  0.2838 -0.9650  0.5187
 2787SOL     OW19822   1.600   3.834   5.574 -0.1590 -0.3570  0.5010
 2787SOL    HW119823   1.570   3.875   5.655 -0.8072  4.4277 -2.2279
 2787SOL    HW219824   1.523   3.858   5.522  0.6456  0.1256 -0.4579
 2788SOL     OW19825   0.007   0.300   3.754  0.1280  0.3197 -0.7335
 2788SOL    HW119826   4.658   0.257   3.792  1.2896 -1.4604 -0.4281
 2788SOL    HW219827   0.077   0.237   3.772 -0.9244 -0.8852 -0.8408
 2789SOL     OW19828   4.059   0.666   2.645 -0.4035  0.4911  0.0318
 2789SOL    HW119829   4.029   0.577   2.667 -0.3006 -0.1835 -2.4541
 2789SOL    HW219830   4.153   0.655   2.656 -0.6515 -0.7652  0.9221
 2790SOL     OW19831   4.416   1.700   3.037  0.4340  0.6488  0.5195
 2790SOL    HW119832   4.445   1.612   3.062  0.1519  0.9476  1.9395
 2790SOL    HW219833   4.415   1.732   3.128 -2.5060  0.3636  0.5803
 2791SOL     OW19834   0.835   0.234   2.451 -0.0732 -0.2121  0.1607
 2791SOL    HW119835   0.907   0.284   2.489  0.6569 -1.3214  0.2271
 2791SOL    HW219836   0.799   0.187   2.526  0.2093  0.0941  0.4861
 2792SOL     OW19837   1.071   1.886   1.528  0.4868  0.1355 -0.1652
 2792SOL    HW119838   1.138   1.818   1.524  0.1250 -0.1083 -2.0684
 2792SOL    HW219839   1.097   1.936   1.606 -0.2104 -1.2034  0.9332
 2793SOL     OW19840   0.662   1.166  15.504  0.1234  0.8381 -0.4987
 2793SOL    HW119841   0.688   1.074  15.493  0.4540  1.1212 -2.0444
 2793SOL    HW219842   0.727   1.172  15.574  0.0675  0.0887 -0.3786
 2794SOL     OW19843   0.921   4.577   3.059 -0.0116  0.1236 -0.0969
 2794SOL    HW119844   0.970   4.622   2.990 -0.1107 -1.7648 -1.3912
 2794SOL    HW219845   0.866   4.518   3.009 -0.0820 -1.4346  1.7863
 2795SOL     OW19846   1.362   3.264  11.043  0.1753 -0.3385 -0.3225
 2795SOL    HW119847   1.396   3.346  11.006  1.1844  0.1153  1.6232
 2795SOL    HW219848   1.304   3.238  10.972 -2.2304  1.3657  1.0042
 2796SOL     OW19849   4.334   4.463   6.840 -0.1291  0.4192 -0.3243
 2796SOL    HW119850   4.278   4.450   6.915  0.0210 -3.0035 -0.8029
 2796SOL    HW219851   4.415   4.489   6.884 -2.2371 -0.2559  3.9353
 2797SOL     OW19852   4.435   4.044   6.800  0.3070 -0.7090 -0.0782
 2797SOL    HW119853   4.346   4.039   6.836  0.4791 -0.7905  0.3400
 2797SOL    HW219854   4.432   4.126   6.750  1.3480  0.8778  2.4136
 2798SOL     OW19855   2.259   1.390  14.110  0.5797  0.0504 -0.0658
 2798SOL    HW119856   2.241   1.309  14.063 -1.2054  1.7791 -2.3602
 2798SOL    HW219857   2.173   1.429  14.126 -0.2153 -2.0994  0.7777
 2799SOL     OW19858   1.046   2.081   6.098  0.1313 -0.6260  0.2059
 2799SOL    HW119859   1.043   2.017   6.027 -1.6910 -0.2328 -0.0946
 2799SOL    HW219860   1.054   2.168   6.059  0.5903 -0.2493  1.1293
 2800SOL     OW19861   1.501   2.462   3.985 -0.3221  0.3314  0.1318
 2800SOL    HW119862   1.422   2.499   3.947  0.1298  0.4114 -0.7139
 2800SOL    HW219863   1.551   2.441   3.906 -0.7349  1.3888 -0.3967
 2801SOL     OW19864   3.561   2.168  17.149  0.7717 -0.6598 -0.1929
 2801SOL    HW119865   3.541   2.101  17.084 -1.9580  1.7345 -1.8230
 2801SOL    HW219866   3.476   2.181  17.192  0.5508  0.8098 -1.0592
 2802SOL     OW19867   0.096   4.481   3.816 -0.0080 -0.1545 -0.0244
 2802SOL    HW119868   0.033   4.502   3.885 -0.3556  2.0315 -1.0034
 2802SOL    HW219869   0.044   4.429   3.755  2.1305  0.0722 -2.0244
 2803SOL     OW19870   2.427   2.152   4.798 -0.3155  0.1429 -0.2722
 2803SOL    HW119871   2.439   2.103   4.716 -0.2795  2.7984 -1.8606
 2803SOL    HW219872   2.365   2.092   4.840 -0.5208 -0.3213 -1.2297
 2804SOL     OW19873   3.837   4.265  17.528 -0.4349  0.0435 -0.3053
 2804SOL    HW119874   3.888   4.344  17.508 -0.5329 -0.3585 -2.2076
 2804SOL    HW219875   3.914   4.213  17.550  0.7461  2.8075  2.1359
 2805SOL     OW19876   2.870   2.774   6.758 -0.0322  0.0233  0.6154
 2805SOL    HW119877   2.930   2.699   6.754 -3.5094 -2.5301 -3.5757
 2805SOL    HW219878   2.905   2.821   6.834  1.5939 -1.4519  0.7897
 2806SOL     OW19879   1.316   0.310   0.387  0.1014 -0.4158 -0.4800
 2806SOL    HW119880   1.291   0.242   0.324  1.4799  0.0022 -1.4891
 2806SOL    HW219881   1.405   0.292   0.417  2.0471  1.3635 -5.1650
 2807SOL     OW19882   3.367   1.595   6.923  0.0817 -0.4203  0.4742
 2807SOL    HW119883   3.346   1.604   7.016  2.4943 -1.4287  1.1256
 2807SOL    HW219884   3.323   1.510   6.910 -0.4288 -0.1439  0.3982
 2808SOL     OW19885   2.582   2.995   3.063 -0.0341  0.5966 -0.6394
 2808SOL    HW119886   2.674   2.995   3.087 -0.2858  0.8024  0.3099
 2808SOL    HW219887   2.592   2.939   2.986 -0.7765 -2.2956  1.3789
 2809SOL     OW19888   1.315   1.785  16.416  0.8132  0.1444  1.0502
 2809SOL    HW119889   1.368   1.716  16.455  1.1243 -1.0330 -1.4575
 2809SOL    HW219890   1.295   1.745  16.331 -1.1509 -0.2385  1.6880
 2810SOL     OW19891   0.623   3.038  15.075  0.0472  0.1166  0.2317
 2810SOL    HW119892   0.688   2.969  15.062  0.1247  0.0599  0.9432
 2810SOL    HW219893   0.662   3.080  15.151 -0.3064  3.1957 -1.2632
 2811SOL     OW19894   2.376   3.681  12.816 -0.3068 -0.2037  0.4468
 2811SOL    HW119895   2.388   3.620  12.744 -2.4715 -0.1167  0.0031
 2811SOL    HW219896   2.280   3.675  12.818 -0.4599  2.0294 -0.0053
 2812SOL     OW19897   3.483   1.008   7.907 -0.2993  0.0020  0.0541
 2812SOL    HW119898   3.397   1.042   7.931 -0.2717 -0.9036  1.4385
 2812SOL    HW219899   3.530   1.089   7.888  0.8977 -0.3616  1.3976
 2813SOL     OW19900   2.271   4.331   8.428 -0.2818 -0.6353 -0.0593
 2813SOL    HW119901   2.267   4.425   8.448 -1.4795 -0.5159 -0.8489
 2813SOL    HW219902   2.209   4.277   8.476  0.2186 -2.7435 -1.7728
 2814SOL     OW19903   0.441   3.470   6.538  0.2088 -0.9299  0.1509
 2814SOL    HW119904   0.406   3.396   6.588 -0.3947 -0.4802  0.3829
 2814SOL    HW219905   0.368   3.483   6.478 -0.8954  1.2697  1.9878
 2815SOL     OW19906   3.206   1.834   7.699 -0.3998  0.1183  0.1138
 2815SOL    HW119907   3.145   1.904   7.674 -0.7563 -1.1588 -2.5257
 2815SOL    HW219908   3.260   1.830   7.620 -0.1767  2.3551  0.1506
 2816SOL     OW19909   2.255   3.242   6.058 -0.3617  0.3140 -0.3279
 2816SOL    HW119910   2.217   3.231   6.145 -0.7528  0.3980 -0.4834
 2816SOL    HW219911   2.231   3.159   6.016  0.1694  0.0215 -0.0437
 2817SOL     OW19912   3.154   2.472   9.639  0.4095 -0.0288  0.2978
 2817SOL    HW119913   3.207   2.533   9.691  0.7445 -0.7078  0.7456
 2817SOL    HW219914   3.101   2.536   9.591 -1.2887 -1.1294  0.7393
 2818SOL     OW19915   1.800   3.273  10.802 -0.2413 -0.1100  0.4553
 2818SOL    HW119916   1.847   3.226  10.871 -1.2923 -2.6679 -0.5693
 2818SOL    HW219917   1.771   3.193  10.758  2.1873 -0.5207 -0.3859
 2819SOL     OW19918   2.815   4.249  13.262  0.1196  1.0179 -0.2181
 2819SOL    HW119919   2.884   4.288  13.208  0.0231  0.6531 -0.6026
 2819SOL    HW219920   2.859   4.185  13.319 -0.5830  0.6386 -0.1087
 2820SOL     OW19921   4.709   1.962   9.270  0.7754  0.1395 -0.1661
 2820SOL    HW119922   0.009   1.984   9.181  0.8524 -0.1382 -0.2107
 2820SOL    HW219923   0.017   2.029   9.329  0.8562  0.5694 -0.7033
 2821SOL     OW19924   3.254   1.116   4.517 -0.6999 -0.4908  0.3830
 2821SOL    HW119925   3.221   1.048   4.576  0.3702 -1.3542 -0.0159
 2821SOL    HW219926   3.269   1.200   4.560 -0.8467  0.5066 -1.4999
 2822SOL     OW19927   0.102   0.513   3.917 -0.3938  0.4647 -0.1923
 2822SOL    HW119928   0.091   0.435   3.862  0.5137 -0.8949  1.5452
 2822SOL    HW219929   0.157   0.467   3.981 -1.0893 -2.5527 -1.7365
 2823SOL     OW19930   4.279   3.812   7.882  0.0946  0.3919  0.0700
 2823SOL    HW119931   4.372   3.802   7.901  0.0725  0.8226  0.4034
 2823SOL    HW219932   4.249   3.721   7.884  2.5097 -0.3778  1.0375
 2824SOL     OW19933   2.619   1.914   3.484 -0.5805  0.2077 -0.3098
 2824SOL    HW119934   2.664   1.836   3.451 -0.8962  0.3966 -1.1826
 2824SOL    HW219935   2.590   1.877   3.567 -0.2223  0.0062 -0.2722
 2825SOL     OW19936   3.477   1.477  10.262 -0.2153 -0.1786  0.1420
 2825SOL    HW119937   3.405   1.487  10.324  0.1340 -1.2465  0.7290
 2825SOL    HW219938   3.509   1.566  10.250 -3.1443  0.7637 -0.6925
 2826SOL     OW19939   3.212   0.341   6.861 -0.2480  0.8005  0.3079
 2826SOL    HW119940   3.266   0.404   6.911  3.1830 -0.8999 -1.2507
 2826SOL    HW219941   3.250   0.362   6.776 -0.2141 -0.1207  0.1023
 2827SOL     OW19942   0.556   1.674   4.884 -0.5613 -0.5126 -0.4559
 2827SOL    HW119943   0.596   1.610   4.943 -0.6961 -0.9327 -0.8199
 2827SOL    HW219944   0.501   1.620   4.826 -1.5939 -0.4922  0.5001
 2828SOL     OW19945   4.590   1.490   6.259  0.2959 -0.4826  0.2300
 2828SOL    HW119946   4.624   1.413   6.305 -0.4586 -0.9370  0.0272
 2828SOL    HW219947   4.639   1.564   6.294 -0.1866 -0.1420  0.1751
 2829SOL     OW19948   4.466   3.749   4.860  0.4124  0.2997  0.6063
 2829SOL    HW119949   4.380   3.757   4.819  0.6852  2.0860  0.3996
 2829SOL    HW219950   4.474   3.841   4.883  0.1782  0.6499 -0.6852
 2830SOL     OW19951   4.218   2.364   8.489 -0.3812 -0.5515 -0.0575
 2830SOL    HW119952   4.291   2.403   8.538 -0.7114 -1.2665  0.9933
 2830SOL    HW219953   4.254   2.373   8.401 -2.2309 -0.7578 -0.8377
 2831SOL     OW19954   3.213   0.741   1.437 -0.0882  0.9226  0.0652
 2831SOL    HW119955   3.247   0.812   1.492  1.5156 -0.4152  0.8093
 2831SOL    HW219956   3.148   0.791   1.388 -1.1489  0.1296  0.6662
 2832SOL     OW19957   1.191   4.549   6.027 -0.1048 -0.5158 -0.2466
 2832SOL    HW119958   1.244   4.473   6.004  2.4393  0.6526  1.8328
 2832SOL    HW219959   1.197   4.558   6.122 -0.1553  2.1538 -0.5008
 2833SOL     OW19960   4.162   0.939   2.826  0.5177 -0.3581 -0.2429
 2833SOL    HW119961   4.081   0.887   2.827  0.8142 -0.8145 -0.2167
 2833SOL    HW219962   4.159   0.962   2.919  1.5862  0.4845 -0.4171
 2834SOL     OW19963   0.766   1.943   8.138  0.2340 -0.1758 -0.6563
 2834SOL    HW119964   0.671   1.955   8.138  0.4281  1.3240 -0.2610
 2834SOL    HW219965   0.793   1.966   8.050 -2.0308 -0.5042 -1.4425
 2835SOL     OW19966   1.323   2.863  15.954 -0.0339  0.0139 -1.0618
 2835SOL    HW119967   1.267   2.922  16.005 -0.8500 -0.4491 -1.4292
 2835SOL    HW219968   1.283   2.783  15.988 -0.0565 -0.1881 -1.5779
 2836SOL     OW19969   0.878   0.744   7.682  0.1368 -0.8155  0.4173
 2836SOL    HW119970   0.970   0.766   7.666 -0.1546 -0.1319 -0.2739
 2836SOL    HW219971   0.844   0.830   7.658  2.4712 -0.1671 -0.6178
 2837SOL     OW19972   4.519   4.575   6.062 -0.2434 -0.4113  0.0080
 2837SOL    HW119973   4.594   4.634   6.059  1.3055 -2.3477  0.2195
 2837SOL    HW219974   4.460   4.613   5.997 -0.7796 -0.7467  0.3037
 2838SOL     OW19975   3.354   4.098   3.183  0.0377  0.3803  0.4873
 2838SOL    HW119976   3.379   4.072   3.094 -1.6584 -3.0978  1.0043
 2838SOL    HW219977   3.424   4.157   3.212 -1.3353  1.1917  2.1520
 2839SOL     OW19978   1.437   0.900   8.403 -0.0516  0.2028 -0.2429
 2839SOL    HW119979   1.425   0.823   8.458 -0.1283  1.6553  1.7681
 2839SOL    HW219980   1.481   0.846   8.338  0.0666 -0.9586  0.8197
 2840SOL     OW19981   4.682   2.702   0.473 -0.1061  0.3289 -0.3326
 2840SOL    HW119982   4.639   2.757   0.538  0.8737 -0.8557  1.3335
 2840SOL    HW219983   4.623   2.632   0.445 -1.8828  1.3578  0.8573
 2841SOL     OW19984   4.253   2.096   4.411 -0.2380  0.2121 -0.0435
 2841SOL    HW119985   4.273   2.008   4.380  2.2774  1.0245 -0.7087
 2841SOL    HW219986   4.303   2.102   4.492 -0.9114  0.4827  0.3478
 2842SOL     OW19987   1.047   0.475   8.634  0.2342 -0.0851 -0.3763
 2842SOL    HW119988   0.960   0.488   8.595  1.3478  1.4526 -2.3643
 2842SOL    HW219989   1.066   0.393   8.589  1.2557  0.9357 -1.8165
 2843SOL     OW19990   0.848   3.766  16.781 -0.2394  0.6315  0.1261
 2843SOL    HW119991   0.902   3.687  16.784 -1.6895 -0.3166  1.4284
 2843SOL    HW219992   0.805   3.758  16.866 -0.2898  3.9358  0.3960
 2844SOL     OW19993   2.787   3.550  12.890  0.1945  0.0668  0.1143
 2844SOL    HW119994   2.798   3.637  12.852  3.8791 -0.0124  0.9727
 2844SOL    HW219995   2.712   3.576  12.944 -1.8098 -2.6910 -1.3287
 2845SOL     OW19996   0.333   2.920   5.336 -0.3196 -0.9343  0.6130
 2845SOL    HW119997   0.427   2.908   5.350  0.0974 -0.4130 -1.7749
 2845SOL    HW219998   0.321   2.999   5.390  0.1904  0.0168 -0.6553
 2846SOL     OW19999   3.676   0.132   8.173 -0.0344 -0.1944  1.0577
 2846SOL    HW120000   3.694   0.199   8.108 -1.5388  0.0690  0.8945
 2846SOL    HW220001   3.715   0.060   8.123 -3.4666 -1.2576 -0.1327
 2847SOL     OW20002   4.319   3.937  13.158 -0.2465  0.0664 -0.4150
 2847SOL    HW120003   4.238   3.887  13.144  0.0567 -0.4091 -0.4615
 2847SOL    HW220004   4.282   4.024  13.146 -0.9849 -0.1624  0.1388
 2848SOL     OW20005   4.505   3.887  11.440  0.2425 -0.4561 -0.3779
 2848SOL    HW120006   4.570   3.819  11.460  0.8502 -0.5177 -2.5470
 2848SOL    HW220007   4.446   3.864  11.512  0.5229  1.0556  0.3266
 2849SOL     OW20008   0.477   2.095   5.876  0.2003 -0.0880  0.3698
 2849SOL    HW120009   0.410   2.028   5.865 -0.0136  0.5711 -2.4257
 2849SOL    HW220010   0.471   2.123   5.785  2.2939 -1.7476 -0.2631
 2850SOL     OW20011   0.510   1.638   9.481 -0.8973  0.2008  0.6855
 2850SOL    HW120012   0.483   1.671   9.396 -0.7229  1.4748  1.1219
 2850SOL    HW220013   0.591   1.591   9.462 -1.2982 -0.7160  1.1841
 2851SOL     OW20014   2.112   1.683  17.320  0.8780  0.4734 -0.4860
 2851SOL    HW120015   2.064   1.724  17.392 -0.5917 -0.9241 -0.6768
 2851SOL    HW220016   2.200   1.690  17.356  1.7082 -1.3137 -2.2131
 2852SOL     OW20017   0.629   0.116   4.672 -0.0750 -0.1878  0.5400
 2852SOL    HW120018   0.679   0.080   4.599  2.3362 -0.0036  2.0978
 2852SOL    HW220019   0.589   0.037   4.707 -2.3739  0.8598  0.2632
 2853SOL     OW20020   1.406   2.208  15.711 -0.2371  0.3512  0.1116
 2853SOL    HW120021   1.440   2.262  15.640 -1.0729  0.0920 -0.4883
 2853SOL    HW220022   1.472   2.220  15.779  0.8581  0.5156 -0.9873
 2854SOL     OW20023   3.956   1.973   3.201 -0.1173  0.0691  0.4045
 2854SOL    HW120024   3.896   1.932   3.139 -0.2084  2.0671 -0.8256
 2854SOL    HW220025   4.030   1.999   3.148 -0.1463  0.5786  0.6128
 2855SOL     OW20026   2.215   1.906  14.298  0.3392  0.4767  0.6862
 2855SOL    HW120027   2.157   1.982  14.311  2.2186  1.6458  2.2058
 2855SOL    HW220028   2.160   1.837  14.333 -0.1918  0.8888  0.6689
 2856SOL     OW20029   2.167   3.949   6.650 -0.8723 -0.0723  0.0848
 2856SOL    HW120030   2.160   3.920   6.741  0.2544  0.0268  0.1971
 2856SOL    HW220031   2.150   4.044   6.651 -1.9357 -0.2361 -2.7694
 2857SOL     OW20032   0.373   3.264   7.024 -0.1894  0.3292  0.2149
 2857SOL    HW120033   0.418   3.320   7.087  1.7555  0.4349 -1.2729
 2857SOL    HW220034   0.429   3.287   6.951 -1.0912 -0.6765 -0.7805
 2858SOL     OW20035   0.379   4.191   6.351  0.0261 -0.3045  0.0740
 2858SOL    HW120036   0.468   4.221   6.331  0.5877 -0.7930  1.8755
 2858SOL    HW220037   0.334   4.275   6.353 -1.3481 -1.0857  1.4441
 2859SOL     OW20038   4.451   1.503   0.397  0.2715  0.2681 -0.4018
 2859SOL    HW120039   4.450   1.413   0.428 -2.0737  0.1219 -0.9346
 2859SOL    HW220040   4.520   1.551   0.443 -1.3444  2.8853 -0.7064
 2860SOL     OW20041   3.366   0.497   2.709  0.4658 -0.4714  0.2677
 2860SOL    HW120042   3.335   0.441   2.639  1.4894  0.7000 -1.1277
 2860SOL    HW220043   3.309   0.570   2.684 -0.7456 -1.1919  0.9250
 2861SOL     OW20044   0.022   2.213   3.567  0.3417  0.1150 -0.5791
 2861SOL    HW120045   4.695   2.150   3.520  0.0166  0.3701 -0.5479
 2861SOL    HW220046   0.059   2.158   3.636 -0.1607 -0.0662 -0.4516
 2862SOL     OW20047   2.105   0.582   2.059 -0.2732  0.2372  0.0706
 2862SOL    HW120048   2.027   0.617   2.102 -1.3644 -2.3951  0.2265
 2862SOL    HW220049   2.162   0.558   2.132  0.8515 -1.0471 -1.2457
 2863SOL     OW20050   1.849   4.448   1.198  0.2283  0.0984 -0.3829
 2863SOL    HW120051   1.920   4.406   1.150 -0.0789  1.1731 -1.7580
 2863SOL    HW220052   1.804   4.372   1.236  0.9693 -0.5754 -0.8543
 2864SOL     OW20053   2.878   1.404  12.252 -0.4175 -0.2226  0.0091
 2864SOL    HW120054   2.832   1.338  12.305 -2.6741 -0.4658 -2.2441
 2864SOL    HW220055   2.961   1.404  12.300 -1.0736 -2.2279  1.1479
 2865SOL     OW20056   0.698   1.114   3.519 -0.4989 -0.1335  0.8844
 2865SOL    HW120057   0.635   1.128   3.447 -0.6944 -0.1780  1.0464
 2865SOL    HW220058   0.664   1.041   3.571 -1.2540 -0.6138 -0.2787
 2866SOL     OW20059   3.154   2.161  10.926 -0.5484  0.0006  0.3868
 2866SOL    HW120060   3.067   2.198  10.940  1.1387  3.0382  2.9774
 2866SOL    HW220061   3.189   2.230  10.869  1.1597 -1.1424  0.0382
 2867SOL     OW20062   1.920   2.978   0.903  0.3344 -0.1260 -0.2552
 2867SOL    HW120063   1.894   2.938   0.820 -1.2177 -0.8070  0.5615
 2867SOL    HW220064   2.009   2.989   0.871 -1.0869  2.1220 -3.4818
 2868SOL     OW20065   4.426   0.403  17.301 -0.2086 -0.2929 -0.4761
 2868SOL    HW120066   4.338   0.436  17.321 -0.7571 -0.9376 -1.8257
 2868SOL    HW220067   4.432   0.406  17.205 -0.6421 -1.2803 -0.5347
 2869SOL     OW20068   2.050   2.894  12.498 -0.1296  0.1616 -0.3133
 2869SOL    HW120069   1.956   2.877  12.503 -0.1189 -0.4355 -2.4863
 2869SOL    HW220070   2.083   2.808  12.525  0.6576  0.8735  1.0273
 2870SOL     OW20071   1.773   0.112   1.379  0.5760  0.0577  0.6274
 2870SOL    HW120072   1.856   0.112   1.428  0.7763 -0.2394  0.2850
 2870SOL    HW220073   1.715   0.151   1.445 -1.2836 -0.6161 -0.6131
 2871SOL     OW20074   0.039   2.680   5.628  0.0728 -0.1470 -1.2813
 2871SOL    HW120075   4.714   2.600   5.632  0.8036 -0.5429  0.4303
 2871SOL    HW220076   4.710   2.749   5.594  0.8617  1.1912  0.1369
 2872SOL     OW20077   2.246   3.024  14.120 -0.0491 -0.0580 -0.3209
 2872SOL    HW120078   2.170   3.081  14.129 -0.9498 -1.0717 -1.4415
 2872SOL    HW220079   2.287   3.063  14.043  0.2416 -0.9997 -0.6530
 2873SOL     OW20080   3.472   4.084   6.918  0.0430 -0.4095 -0.1804
 2873SOL    HW120081   3.532   4.103   6.846  1.1327 -1.8449  0.3684
 2873SOL    HW220082   3.528   4.051   6.987 -0.9881 -0.7316  0.5063
 2874SOL     OW20083   3.457   3.428   7.942  0.2729 -0.0630 -0.5724
 2874SOL    HW120084   3.393   3.446   8.011  0.9101  0.5910 -0.1482
 2874SOL    HW220085   3.397   3.406   7.871 -0.1780  0.0094 -0.2134
 2875SOL     OW20086   2.602   2.247   7.787  0.5810  0.2172 -0.4622
 2875SOL    HW120087   2.567   2.159   7.799  0.3285  0.4419  0.4022
 2875SOL    HW220088   2.556   2.271   7.706 -0.9273  0.6282  0.5276
 2876SOL     OW20089   3.432   4.667   5.585  0.5145  0.3137  0.0811
 2876SOL    HW120090   3.484   0.019   5.583  0.1287  0.6306  3.4582
 2876SOL    HW220091   3.347   4.698   5.554  0.2193  0.1623  0.7501
 2877SOL     OW20092   2.598   3.843  10.665 -0.2211 -0.5963 -0.6201
 2877SOL    HW120093   2.605   3.872  10.574  0.1852 -0.4619 -0.5504
 2877SOL    HW220094   2.672   3.782  10.657 -0.8355 -1.2573 -1.2310
 2878SOL     OW20095   3.938   0.984   0.051  0.0552  0.3345 -0.1701
 2878SOL    HW120096   4.000   1.057   0.050  0.2137  0.2125  1.6296
 2878SOL    HW220097   3.859   1.025   0.016  0.2677  0.5984 -0.3379
 2879SOL     OW20098   2.838   2.220   3.121  0.8166  0.5010  0.1068
 2879SOL    HW120099   2.744   2.234   3.125  0.7142  0.3631 -1.9454
 2879SOL    HW220100   2.856   2.198   3.213 -3.0499  2.3099  1.2720
 2880SOL     OW20101   4.109   3.445   8.242 -0.5661 -0.1085  0.2735
 2880SOL    HW120102   4.194   3.407   8.264 -0.1132  0.0688 -1.1637
 2880SOL    HW220103   4.045   3.374   8.242 -1.1057  0.3822  1.4611
 2881SOL     OW20104   4.260   2.736   8.812  0.1866  0.3211  0.0123
 2881SOL    HW120105   4.319   2.711   8.742 -0.1209  0.7226 -0.3898
 2881SOL    HW220106   4.296   2.694   8.890 -0.7009 -0.0480  0.2287
 2882SOL     OW20107   3.665   1.653  16.792 -0.2926 -0.3992 -0.3932
 2882SOL    HW120108   3.703   1.566  16.781  0.6744 -0.1310  0.7803
 2882SOL    HW220109   3.683   1.651  16.886  0.1990 -0.7450 -0.4960
 2883SOL     OW20110   0.598   0.853   3.621 -0.0684  0.4286  0.1568
 2883SOL    HW120111   0.610   0.767   3.581 -2.1687  0.5255 -0.6582
 2883SOL    HW220112   0.504   0.865   3.613 -0.0474  0.3454 -0.2473
 2884SOL     OW20113   2.080   2.237   2.796  1.1912 -0.1083  0.5999
 2884SOL    HW120114   2.164   2.224   2.753 -0.0921 -1.6030 -1.4479
 2884SOL    HW220115   2.028   2.289   2.734 -1.0705 -1.4851  1.3310
 2885SOL     OW20116   4.375   2.157   6.956  0.2659 -0.0973 -0.2892
 2885SOL    HW120117   4.305   2.111   6.909  0.3343  0.4405 -0.9243
 2885SOL    HW220118   4.392   2.229   6.895  0.0172 -0.3489 -0.6609
 2886SOL     OW20119   3.815   2.133   8.337  0.3406  0.1882  0.1842
 2886SOL    HW120120   3.758   2.165   8.406  0.2445  2.1454 -0.7924
 2886SOL    HW220121   3.896   2.113   8.385  0.0141  0.5203  0.8684
 2887SOL     OW20122   0.267   2.573  15.061  0.1415 -0.1930  0.3948
 2887SOL    HW120123   0.186   2.526  15.041 -0.6494  0.6878  1.5697
 2887SOL    HW220124   0.304   2.566  14.973 -2.1196 -1.0601 -0.4851
 2888SOL     OW20125   3.530   3.648   4.240 -0.5739  0.5552 -0.3110
 2888SOL    HW120126   3.437   3.648   4.262 -0.3395  0.4023  0.6812
 2888SOL    HW220127   3.532   3.677   4.148 -0.3739  0.9502 -0.1805
 2889SOL     OW20128   4.327   2.779   3.451  0.6693  0.4651 -0.6243
 2889SOL    HW120129   4.258   2.811   3.510  0.5706  1.5666 -1.3301
 2889SOL    HW220130   4.280   2.725   3.389  2.3617 -0.2712 -1.2640
 2890SOL     OW20131   3.536   2.813  17.181  0.1291 -0.1874  0.1617
 2890SOL    HW120132   3.574   2.726  17.179  0.2578 -0.0920 -1.7539
 2890SOL    HW220133   3.450   2.791  17.217  1.0343 -0.7944  1.9269
 2891SOL     OW20134   3.973   0.913  16.863 -0.1423 -0.6816  0.2880
 2891SOL    HW120135   3.891   0.863  16.863 -1.0535  0.8192  0.6896
 2891SOL    HW220136   4.016   0.889  16.781  0.8398 -0.8952  0.8668
 2892SOL     OW20137   0.791   1.355  15.847  0.4143  0.2811 -0.7521
 2892SOL    HW120138   0.799   1.382  15.939  2.6869  0.7547 -1.0764
 2892SOL    HW220139   0.844   1.422  15.805 -0.4112  1.4516  0.0868
 2893SOL     OW20140   2.119   2.049   0.520  0.1701 -0.3038 -0.3114
 2893SOL    HW120141   2.140   1.970   0.570  0.8912 -0.0218 -0.1748
 2893SOL    HW220142   2.054   2.020   0.456 -1.2988 -0.4031  1.2408
 2894SOL     OW20143   3.037   3.039   4.268 -0.2189 -0.0780 -0.8349
 2894SOL    HW120144   3.057   2.993   4.350 -2.6229  0.5790  0.1299
 2894SOL    HW220145   2.954   3.083   4.290 -0.7966 -1.2629 -0.6082
 2895SOL     OW20146   0.389   1.046   7.139 -0.0365  0.3557 -0.1804
 2895SOL    HW120147   0.484   1.046   7.137 -0.0303  0.1454  0.1037
 2895SOL    HW220148   0.371   1.037   7.233  1.1166 -0.3756 -0.0352
 2896SOL     OW20149   2.742   0.124   4.808  0.7602  0.5157 -0.2740
 2896SOL    HW120150   2.820   0.167   4.842  1.4157 -0.9864  0.0969
 2896SOL    HW220151   2.671   0.189   4.809  0.1079 -0.2370  2.0972
 2897SOL     OW20152   4.064   0.302   2.521 -0.0553  0.7696 -0.1519
 2897SOL    HW120153   4.003   0.229   2.530  1.2889 -0.6615 -2.6030
 2897SOL    HW220154   4.145   0.273   2.563 -0.9832  1.2543  1.9351
 2898SOL     OW20155   1.246   1.588   8.320  0.4464 -0.4534 -0.3566
 2898SOL    HW120156   1.172   1.586   8.259  0.6257  0.9901 -0.6204
 2898SOL    HW220157   1.199   1.574   8.402 -0.4250 -1.9215 -1.1085
 2899SOL     OW20158   1.251   3.767   3.981  0.4755 -0.2124 -0.5365
 2899SOL    HW120159   1.270   3.857   4.007  0.2885 -0.0640 -0.9212
 2899SOL    HW220160   1.334   3.720   3.989 -0.7024 -2.0875  0.7238
 2900SOL     OW20161   2.122   3.871  12.260  0.2232 -0.4514  0.1873
 2900SOL    HW120162   2.169   3.806  12.208  1.7762  0.1379  0.8693
 2900SOL    HW220163   2.137   3.945  12.201  1.5172  1.3175  2.7452
 2901SOL     OW20164   2.078   2.400   3.626  0.0370 -0.2400  0.5674
 2901SOL    HW120165   2.075   2.315   3.582  1.7270  0.3219 -0.6373
 2901SOL    HW220166   1.998   2.439   3.592 -0.3031 -0.2928  1.3021
 2902SOL     OW20167   4.049   0.625   8.230  0.2595 -1.0526 -0.7047
 2902SOL    HW120168   3.970   0.653   8.185 -0.3934 -1.1429  0.3848
 2902SOL    HW220169   4.048   0.692   8.299 -0.5922  0.5702 -2.2994
 2903SOL     OW20170   0.148   3.384   2.674  0.4687 -0.2006  0.1746
 2903SOL    HW120171   0.154   3.449   2.745  0.0562 -1.2705  1.1886
 2903SOL    HW220172   0.234   3.342   2.668  0.6705  0.1880  0.3639
 2904SOL     OW20173   1.724   2.030   7.120  0.1983 -0.7286  0.1609
 2904SOL    HW120174   1.815   2.053   7.132  0.4360 -1.3497 -0.4238
 2904SOL    HW220175   1.697   2.090   7.050 -0.2720 -1.5361 -0.3570
 2905SOL     OW20176   0.909   1.677   6.246  0.0358  0.2428  0.2822
 2905SOL    HW120177   0.845   1.716   6.306 -0.3705  0.3905 -0.2396
 2905SOL    HW220178   0.846   1.654   6.177  0.4967  0.3108 -0.1630
 2906SOL     OW20179   3.559   3.442   7.010  0.0664 -0.0271  0.3884
 2906SOL    HW120180   3.505   3.490   6.947 -2.1273 -0.6298  1.7964
 2906SOL    HW220181   3.558   3.507   7.080 -2.6073 -1.5922  1.8162
 2907SOL     OW20182   3.075   0.095   3.796 -0.2393  0.5027 -0.1546
 2907SOL    HW120183   3.123   0.132   3.870  0.6590  0.0018 -0.4816
 2907SOL    HW220184   3.144   0.076   3.732 -0.1929  0.9928 -0.2553
 2908SOL     OW20185   2.684   3.899   3.518  0.2341 -0.6709  1.1978
 2908SOL    HW120186   2.599   3.943   3.524  0.0152 -0.9715  0.3168
 2908SOL    HW220187   2.727   3.928   3.599 -1.2717 -0.7943  2.0363
 2909SOL     OW20188   3.299   1.579   3.738 -0.1894 -0.0622 -0.3490
 2909SOL    HW120189   3.321   1.486   3.740 -2.6183 -0.6471 -0.9864
 2909SOL    HW220190   3.303   1.599   3.832 -0.1993 -0.2898 -0.2985
 2910SOL     OW20191   2.684   2.426  14.104 -0.3325  0.5059 -0.0233
 2910SOL    HW120192   2.672   2.365  14.177 -0.0548 -2.2419 -2.2743
 2910SOL    HW220193   2.619   2.490  14.136  2.0405  2.7026  0.4171
 2911SOL     OW20194   0.603   3.480   2.104  0.2944  0.1603 -0.4584
 2911SOL    HW120195   0.676   3.542   2.113 -0.3871  0.8382  0.3973
 2911SOL    HW220196   0.578   3.515   2.019 -0.0241 -0.8084 -0.7601
 2912SOL     OW20197   0.581   3.945   6.368  0.3093 -0.0298  0.3327
 2912SOL    HW120198   0.602   3.970   6.278  0.7716  0.5460  0.6025
 2912SOL    HW220199   0.664   3.949   6.415  0.9013  0.0416 -0.7132
 2913SOL     OW20200   0.864   2.945   0.495  0.0704  0.0346  0.5495
 2913SOL    HW120201   0.811   2.866   0.485 -1.6977  1.6309 -2.9114
 2913SOL    HW220202   0.933   2.926   0.432 -0.0167  1.4710  0.0083
 2914SOL     OW20203   0.813   1.211   3.898 -0.6804  0.4970  0.7201
 2914SOL    HW120204   0.900   1.235   3.930 -0.2303  2.8391 -2.2155
 2914SOL    HW220205   0.805   1.268   3.821  0.9937 -0.1414  0.0801
 2915SOL     OW20206   4.158   4.278  14.915  0.7282 -0.6296  0.3445
 2915SOL    HW120207   4.202   4.246  14.994 -1.2398  0.8750  2.0453
 2915SOL    HW220208   4.065   4.278  14.940  0.7332 -1.4269  0.3913
 2916SOL     OW20209   1.983   0.831   1.462  1.2168  0.4024  0.1014
 2916SOL    HW120210   1.985   0.744   1.424  0.8466  1.0107 -1.3187
 2916SOL    HW220211   1.911   0.875   1.416  2.4412  0.0956 -2.0731
 2917SOL     OW20212   3.950   0.466   5.445  0.2887  0.3655 -0.2294
 2917SOL    HW120213   3.918   0.464   5.355  0.0927  0.5704 -0.1647
 2917SOL    HW220214   3.964   0.371   5.455 -0.8987  0.2937  0.7919
 2918SOL     OW20215   3.802   3.942   2.311  0.3670  0.0325 -0.4499
 2918SOL    HW120216   3.756   3.968   2.391  0.8473  0.9130 -0.4499
 2918SOL    HW220217   3.894   3.961   2.331 -0.0568  0.9451  0.6575
 2919SOL     OW20218   0.221   0.012   2.727 -0.4880 -0.0909 -0.7451
 2919SOL    HW120219   0.259   4.666   2.678 -2.8319 -0.9348 -1.2796
 2919SOL    HW220220   0.277   0.085   2.703  1.7612 -2.4261 -2.6130
 2920SOL     OW20221   0.350   3.836  10.292 -0.2330  0.0910  0.6080
 2920SOL    HW120222   0.394   3.755  10.317  0.3178  0.2622  0.1888
 2920SOL    HW220223   0.354   3.869  10.381 -0.0814  1.8906 -0.0799
 2921SOL     OW20224   3.591   0.520  15.081 -0.3813 -0.1717  0.7065
 2921SOL    HW120225   3.530   0.552  15.148  0.1570  1.4310  0.4220
 2921SOL    HW220226   3.592   0.599  15.027 -1.5602 -1.1449 -0.7240
 2922SOL     OW20227   3.919   1.553  17.266  0.2224 -0.1690  0.0562
 2922SOL    HW120228   3.889   1.609  17.338  0.1014  0.5184 -0.5332
 2922SOL    HW220229   3.909   1.467  17.306 -0.7512 -0.7164 -1.3595
 2923SOL     OW20230   3.372   1.571   9.965 -0.0368  0.1087 -0.6584
 2923SOL    HW120231   3.297   1.627   9.945 -2.0279 -2.0792  0.6228
 2923SOL    HW220232   3.440   1.637   9.975 -1.4797  1.5118 -0.1871
 2924SOL     OW20233   2.418   0.511   1.882  0.0902  0.0778 -0.4026
 2924SOL    HW120234   2.461   0.483   1.801  2.4727 -1.1200  1.2953
 2924SOL    HW220235   2.346   0.565   1.849  0.7144  1.8146  1.0896
 2925SOL     OW20236   2.630   1.825  13.737 -0.3408 -0.4610 -0.1048
 2925SOL    HW120237   2.586   1.909  13.726  0.1491  0.0182  1.7294
 2925SOL    HW220238   2.584   1.783  13.810 -0.4232 -0.5742 -0.2201
 2926SOL     OW20239   1.486   1.258   3.044  0.0173 -0.2370  0.6322
 2926SOL    HW120240   1.564   1.286   2.996 -0.6692  0.6772  0.0516
 2926SOL    HW220241   1.418   1.321   3.022 -1.2705 -1.6822  0.4781
 2927SOL     OW20242   3.134   0.768  12.810  0.2750 -0.5563 -0.0994
 2927SOL    HW120243   3.166   0.701  12.750 -0.0608 -1.2177  0.4670
 2927SOL    HW220244   3.208   0.776  12.871  0.1154  0.1579  0.0060
 2928SOL     OW20245   3.109   2.240   3.501 -0.3713 -0.1541  0.0564
 2928SOL    HW120246   3.202   2.250   3.480 -0.8310  1.7583 -1.0470
 2928SOL    HW220247   3.093   2.316   3.557 -2.5478 -0.0924 -0.6731
 2929SOL     OW20248   0.195   3.042   5.118  0.1928  0.0758  0.2579
 2929SOL    HW120249   0.240   2.994   5.188  0.5342 -3.3203 -2.2998
 2929SOL    HW220250   0.148   3.105   5.172  0.3142 -0.8564  1.4505
 2930SOL     OW20251   3.597   1.070  12.956  0.5689 -0.0699  0.0892
 2930SOL    HW120252   3.539   0.994  12.945  1.3895 -1.0270  2.3517
 2930SOL    HW220253   3.665   1.036  13.015  0.6581  0.7757  0.4600
 2931SOL     OW20254   0.007   2.001   3.991  0.1391 -0.2178  0.0603
 2931SOL    HW120255   0.063   2.074   4.020 -0.8593  0.7186 -0.3763
 2931SOL    HW220256   4.688   2.043   3.919 -1.4561 -0.1764  1.1271
 2932SOL     OW20257   0.599   1.692  12.686  0.2976  0.9066 -0.2521
 2932SOL    HW120258   0.632   1.627  12.748 -0.1257  0.6019 -0.3482
 2932SOL    HW220259   0.588   1.769  12.741 -3.9961  0.7123 -0.8691
 2933SOL     OW20260   3.347   3.940   6.219  1.0638 -0.1533 -0.0914
 2933SOL    HW120261   3.333   3.897   6.135 -1.3536  0.2282  0.1203
 2933SOL    HW220262   3.316   3.870   6.277 -0.2909 -2.0073 -3.0708
 2934SOL     OW20263   2.929   1.511   5.941  0.3534 -0.1899  0.4209
 2934SOL    HW120264   2.887   1.459   5.873 -0.2492  0.4093  0.3373
 2934SOL    HW220265   3.023   1.496   5.928 -0.3835 -2.8533 -1.8746
 2935SOL     OW20266   3.885   3.126   7.804 -0.0006  1.0385  0.6757
 2935SOL    HW120267   3.895   3.034   7.781  1.8056  1.2041  0.7973
 2935SOL    HW220268   3.863   3.113   7.896  0.4863 -1.0667  0.4916
 2936SOL     OW20269   2.543   0.479   2.760 -0.7553  0.3835  0.0612
 2936SOL    HW120270   2.575   0.559   2.718  4.1717 -1.6249 -0.0475
 2936SOL    HW220271   2.509   0.427   2.688  1.2880 -1.1230  0.1903
 2937SOL     OW20272   3.735   4.248   0.946  0.6662  0.0072 -0.4431
 2937SOL    HW120273   3.820   4.226   0.982  0.3017 -1.3395 -0.4087
 2937SOL    HW220274   3.742   4.229   0.852 -0.3497 -2.2660 -0.0717
 2938SOL     OW20275   2.500   3.644   1.556 -0.0737 -0.4565  0.0559
 2938SOL    HW120276   2.431   3.579   1.541  1.8229 -2.0529 -1.6888
 2938SOL    HW220277   2.542   3.595   1.627  1.7969  3.6996  1.8011
 2939SOL     OW20278   4.680   4.022   2.250 -0.4961 -0.1656  0.1387
 2939SOL    HW120279   4.671   3.931   2.223 -0.2675  0.0679 -0.7512
 2939SOL    HW220280   0.027   4.042   2.194 -0.2451 -0.6814  0.2942
 2940SOL     OW20281   1.155   2.924   5.835  0.1439 -0.1824 -0.1568
 2940SOL    HW120282   1.124   2.994   5.892 -0.8606 -0.2128 -0.6656
 2940SOL    HW220283   1.161   2.852   5.896  0.8921 -0.6503 -0.7868
 2941SOL     OW20284   1.368   0.805   2.218  0.0840 -0.2815 -0.1292
 2941SOL    HW120285   1.360   0.719   2.177 -1.4949  0.4302 -1.3153
 2941SOL    HW220286   1.462   0.813   2.230  0.1405 -3.3036  1.5352
 2942SOL     OW20287   1.770   1.173   1.948 -0.0358  0.0298 -0.1779
 2942SOL    HW120288   1.684   1.136   1.931  0.1609 -0.5615  0.1246
 2942SOL    HW220289   1.805   1.102   2.001  0.1104  0.7096  0.6233
 2943SOL     OW20290   3.537   2.680   6.566  0.5282 -0.7314  0.1713
 2943SOL    HW120291   3.627   2.668   6.596  0.6389 -1.5490 -0.4938
 2943SOL    HW220292   3.499   2.736   6.634 -0.7781  0.6447 -1.7257
 2944SOL     OW20293   0.527   0.595   6.148  0.5616  0.2892  0.0941
 2944SOL    HW120294   0.550   0.518   6.097  0.5222 -0.2058  0.8236
 2944SOL    HW220295   0.610   0.642   6.160  0.2386  0.7583  0.4823
 2945SOL     OW20296   2.276   3.513   1.485  0.2828 -0.4150 -0.0354
 2945SOL    HW120297   2.250   3.487   1.397 -0.6212  0.5694 -0.0662
 2945SOL    HW220298   2.207   3.463   1.529 -1.9159  1.3025 -1.5077
 2946SOL     OW20299   4.669   3.605   5.507 -0.1436  0.2700  0.4319
 2946SOL    HW120300   4.609   3.614   5.581  0.7291 -0.6505  1.2613
 2946SOL    HW220301   0.022   3.601   5.559  0.1381  0.8788  0.0333
 2947SOL     OW20302   3.394   0.568  12.325  0.5176  0.3435  0.1136
 2947SOL    HW120303   3.393   0.664  12.334  1.1416  0.3118  0.4712
 2947SOL    HW220304   3.300   0.558  12.311  0.9571 -1.0421 -1.9676
 2948SOL     OW20305   4.126   3.601  11.806  0.0648 -0.0599  0.6222
 2948SOL    HW120306   4.091   3.628  11.890  0.4908 -0.4195  0.9125
 2948SOL    HW220307   4.165   3.517  11.830 -0.3773 -0.8937 -1.5144
 2949SOL     OW20308   1.865   0.382   3.756 -0.8456  0.1942  0.2148
 2949SOL    HW120309   1.858   0.314   3.688  0.2332  1.4728 -1.1838
 2949SOL    HW220310   1.960   0.396   3.760 -0.9047  0.0534  1.9456
 2950SOL     OW20311   0.269   1.992   1.806  0.1022  0.7038  0.0190
 2950SOL    HW120312   0.348   2.047   1.811  0.0526  0.9363 -1.8446
 2950SOL    HW220313   0.239   2.003   1.716 -3.2015 -1.2758  0.9112
 2951SOL     OW20314   1.664   3.561   0.417 -0.3508 -0.1578 -0.2560
 2951SOL    HW120315   1.726   3.624   0.379 -3.0273  2.9258  0.4459
 2951SOL    HW220316   1.592   3.623   0.430 -1.0113 -0.8572 -0.5878
 2952SOL     OW20317   4.725   3.051  12.682 -0.1458 -0.2285  0.0429
 2952SOL    HW120318   0.019   3.132  12.635 -0.7226  1.3516  2.4341
 2952SOL    HW220319   0.083   3.018  12.708 -1.0352 -2.6939 -0.2477
 2953SOL     OW20320   1.682   2.454   7.925  0.2479 -0.1268  0.2324
 2953SOL    HW120321   1.601   2.459   7.876  1.7322  0.2307 -2.1838
 2953SOL    HW220322   1.748   2.480   7.860  1.7691  0.3670  1.9627
 2954SOL     OW20323   4.079   1.253  15.416 -0.2059 -0.1656 -0.3788
 2954SOL    HW120324   4.117   1.297  15.340 -0.2041  0.0208 -0.2703
 2954SOL    HW220325   4.004   1.207  15.378  0.2808 -0.0706 -1.4578
 2955SOL     OW20326   4.520   3.634   5.115  0.3544 -0.0908 -0.0194
 2955SOL    HW120327   4.492   3.644   5.024  0.5617 -0.1367 -0.0901
 2955SOL    HW220328   4.437   3.603   5.151 -1.1317  2.5932 -1.0829
 2956SOL     OW20329   0.837   3.567  12.888  0.3734  0.6727  0.4677
 2956SOL    HW120330   0.850   3.608  12.802  0.8920 -0.0664  0.1979
 2956SOL    HW220331   0.900   3.495  12.888 -0.8849 -0.4706 -2.0120
 2957SOL     OW20332   1.786   0.981   8.439  0.5487 -0.6371  0.2831
 2957SOL    HW120333   1.718   1.019   8.383  0.8546 -1.1766 -0.4517
 2957SOL    HW220334   1.740   0.913   8.488 -1.2669 -0.8713 -1.8004
 2958SOL     OW20335   1.450   2.221   6.092  0.3534 -0.0463 -0.1121
 2958SOL    HW120336   1.385   2.183   6.151  0.0508 -0.3917 -0.6723
 2958SOL    HW220337   1.484   2.290   6.149  0.0449  0.9547 -1.1456
 2959SOL     OW20338   1.396   0.121   7.627  0.4068 -0.1361 -0.0643
 2959SOL    HW120339   1.314   0.096   7.671 -0.2946  1.0118 -0.7334
 2959SOL    HW220340   1.364   0.130   7.538  0.9692 -0.5522 -0.3080
 2960SOL     OW20341   0.414   0.620   5.797 -0.1900  0.0880  0.0870
 2960SOL    HW120342   0.336   0.563   5.798  0.1831 -0.4315 -0.0776
 2960SOL    HW220343   0.456   0.599   5.713  0.9189 -0.6414  0.8302
 2961SOL     OW20344   1.822   1.555   4.416  0.0679 -0.5365 -0.5270
 2961SOL    HW120345   1.860   1.495   4.480 -1.0547 -0.6983 -0.0105
 2961SOL    HW220346   1.879   1.628   4.439 -0.6145  0.2553 -1.3398
 2962SOL     OW20347   0.129   2.104   1.538 -0.5852 -0.6735  0.3632
 2962SOL    HW120348   0.035   2.111   1.555 -0.7087 -0.0675 -0.5349
 2962SOL    HW220349   0.160   2.194   1.551 -1.3149 -0.8647  3.3940
 2963SOL     OW20350   3.309   0.507   5.961 -0.1017  0.0753 -0.4126
 2963SOL    HW120351   3.274   0.466   6.040 -0.7613  0.2053 -0.6315
 2963SOL    HW220352   3.342   0.588   5.999  1.2841 -0.8381  0.3144
 2964SOL     OW20353   3.631   4.206  15.139  0.6886  0.5018 -0.8532
 2964SOL    HW120354   3.584   4.266  15.197  1.8398 -0.7946  1.4214
 2964SOL    HW220355   3.718   4.245  15.133  1.4918 -1.4345 -1.8613
 2965SOL     OW20356   1.187   4.234   8.643 -0.6599  0.3027 -0.0363
 2965SOL    HW120357   1.167   4.189   8.561  1.3855  0.5407 -0.6556
 2965SOL    HW220358   1.150   4.171   8.705  0.9841  0.7304  1.3891
 2966SOL     OW20359   1.273   1.695  16.172  0.0592 -0.1658  0.2924
 2966SOL    HW120360   1.263   1.667  16.081 -0.2402  0.5603  0.1013
 2966SOL    HW220361   1.314   1.780  16.154 -1.4911  0.0282 -2.2743
 2967SOL     OW20362   4.198   2.378   5.925 -0.2869  0.6079 -0.0356
 2967SOL    HW120363   4.175   2.348   5.837 -2.6292  0.4977  0.6236
 2967SOL    HW220364   4.293   2.385   5.913 -0.1174  0.8723  1.5511
 2968SOL     OW20365   3.776   4.718   2.607  0.3407 -0.4969 -0.5166
 2968SOL    HW120366   3.772   4.629   2.641  1.2607  0.0087  0.9179
 2968SOL    HW220367   3.693   0.033   2.627  1.0536  1.0890 -0.9322
 2969SOL     OW20368   3.510   2.461   0.078 -0.0263  0.1207  0.5473
 2969SOL    HW120369   3.513   2.488  17.697 -3.1741 -0.4300  0.2665
 2969SOL    HW220370   3.432   2.406   0.076  0.7945 -0.9669 -1.9262
 2970SOL     OW20371   4.180   3.385  15.229  0.0028  0.6827  0.7195
 2970SOL    HW120372   4.245   3.428  15.174  0.6427 -1.1014  0.0671
 2970SOL    HW220373   4.101   3.381  15.176  0.6342  1.9112 -0.3030
 2971SOL     OW20374   4.488   3.548  17.144 -0.4393 -0.7530 -0.0263
 2971SOL    HW120375   4.448   3.550  17.231 -1.2276  0.5114 -0.4225
 2971SOL    HW220376   4.568   3.598  17.161 -0.4486 -0.1942 -1.5988
 2972SOL     OW20377   3.006   1.898   9.034 -0.2026  0.4625 -1.0708
 2972SOL    HW120378   3.031   1.832   9.098 -1.6129 -0.2362 -1.2287
 2972SOL    HW220379   3.088   1.939   9.006  0.6622  1.2912  2.7059
 2973SOL     OW20380   1.922   2.920   3.017 -0.4683  0.0962 -0.2168
 2973SOL    HW120381   1.984   2.993   3.014 -0.3392  0.1707  4.4073
 2973SOL    HW220382   1.989   2.853   2.999 -0.2635  0.8296 -2.1357
 2974SOL     OW20383   0.553   1.592   5.782 -0.4259  0.5166  0.1280
 2974SOL    HW120384   0.518   1.503   5.781  3.3582 -0.9797  1.2264
 2974SOL    HW220385   0.646   1.576   5.770 -0.6892 -1.4446  0.6852
 2975SOL     OW20386   0.750   2.053   6.325  0.4443 -0.2455  0.6290
 2975SOL    HW120387   0.737   2.026   6.234  0.3496 -1.0888  0.8976
 2975SOL    HW220388   0.708   1.976   6.363  0.9857 -0.5305  0.6437
 2976SOL     OW20389   3.602   2.625   4.109  0.7579  0.1666  0.5051
 2976SOL    HW120390   3.553   2.673   4.042 -0.2392 -3.6650 -1.5057
 2976SOL    HW220391   3.634   2.560   4.047 -1.4134  0.8712 -1.3323
 2977SOL     OW20392   4.391   2.715   1.234 -0.4237  0.1652 -0.3293
 2977SOL    HW120393   4.414   2.801   1.198 -2.1065  0.3253 -1.0024
 2977SOL    HW220394   4.307   2.690   1.195 -0.4333 -0.5503  0.1377
 2978SOL     OW20395   1.388   2.244   2.975  0.3085 -0.3099  0.6009
 2978SOL    HW120396   1.328   2.176   3.006  0.6153 -0.0466  1.7551
 2978SOL    HW220397   1.328   2.301   2.926  0.2461 -0.3673  0.6104
 2979SOL     OW20398   1.495   1.113   8.638 -0.5697 -0.2301 -0.2267
 2979SOL    HW120399   1.580   1.126   8.680 -0.1229 -3.0757 -0.2430
 2979SOL    HW220400   1.518   1.054   8.567  3.3371 -0.3857  1.1761
 2980SOL     OW20401   2.770   3.729   8.960  0.3416 -0.5556  0.4636
 2980SOL    HW120402   2.766   3.756   9.051 -1.7840  0.1618  0.1622
 2980SOL    HW220403   2.681   3.739   8.925  0.7070  0.4418 -0.1841
 2981SOL     OW20404   1.449   2.078   5.296  0.5638 -0.5748 -0.1330
 2981SOL    HW120405   1.402   1.998   5.318  4.4349 -2.2567  2.0825
 2981SOL    HW220406   1.535   2.040   5.279 -0.6373 -2.7370 -1.4126
 2982SOL     OW20407   1.476   2.618   2.242 -0.4822  0.0612 -0.3008
 2982SOL    HW120408   1.567   2.589   2.244 -0.4302  0.1399 -1.8046
 2982SOL    HW220409   1.441   2.570   2.167  0.7351 -2.2835  0.6105
 2983SOL     OW20410   1.373   1.181   2.782 -0.1615 -0.1854  0.5679
 2983SOL    HW120411   1.410   1.230   2.856  1.0452  0.2007 -0.2824
 2983SOL    HW220412   1.374   1.243   2.709 -0.6544 -1.7334 -0.7491
 2984SOL     OW20413   4.659   2.645   5.216 -0.6947  0.2129 -0.2699
 2984SOL    HW120414   0.015   2.685   5.239 -1.3743  0.7118  1.3420
 2984SOL    HW220415   4.634   2.608   5.300 -0.0718 -2.8288 -1.4211
 2985SOL     OW20416   3.903   2.351   7.404  0.1326 -0.3143 -0.2584
 2985SOL    HW120417   3.912   2.290   7.477 -1.4324 -0.7966 -0.4737
 2985SOL    HW220418   3.821   2.397   7.423 -0.5756 -1.0962 -1.4697
 2986SOL     OW20419   1.149   0.951  14.764  0.3515 -0.2412  0.1108
 2986SOL    HW120420   1.134   0.961  14.670  0.3182  1.7442  0.3375
 2986SOL    HW220421   1.116   0.863  14.781 -2.1548 -0.1137 -4.3585
 2987SOL     OW20422   2.670   3.524   7.127 -0.0556  0.2520 -0.5061
 2987SOL    HW120423   2.598   3.572   7.085 -0.6536 -0.3188 -0.1226
 2987SOL    HW220424   2.625   3.440   7.136 -0.9821  0.5526 -2.3746
 2988SOL     OW20425   2.269   3.947   4.225  0.0911  0.9188  0.3109
 2988SOL    HW120426   2.307   3.860   4.232 -0.5072  0.4290 -2.8694
 2988SOL    HW220427   2.338   3.992   4.177  0.4993  1.3411  1.2870
 2989SOL     OW20428   0.911   4.432   6.652 -0.0754  0.2232 -0.0861
 2989SOL    HW120429   0.861   4.512   6.636 -0.7954 -0.3816 -0.8991
 2989SOL    HW220430   0.966   4.454   6.727 -0.1012  2.8124 -0.7981
 2990SOL     OW20431   1.914   4.039  13.003  0.2072 -0.3724  0.1957
 2990SOL    HW120432   1.957   4.003  13.081  2.1349 -2.2271 -1.7312
 2990SOL    HW220433   1.833   3.989  13.009  1.4673 -2.2839  1.1817
 2991SOL     OW20434   1.332   4.533   9.750  0.3706 -0.1589  0.4494
 2991SOL    HW120435   1.421   4.539   9.715  0.8556  0.6501  1.8062
 2991SOL    HW220436   1.306   4.441   9.748  1.8864 -0.6077  1.1244
 2992SOL     OW20437   1.751   1.835  10.396 -0.3673  0.6057 -0.3169
 2992SOL    HW120438   1.825   1.878  10.440 -0.5235 -1.8337  2.2883
 2992SOL    HW220439   1.749   1.894  10.320 -0.9269 -1.5417 -1.9449
 2993SOL     OW20440   4.195   3.089   8.285  0.1192  0.6007 -0.2573
 2993SOL    HW120441   4.114   3.133   8.258 -0.2909  0.9907  1.6087
 2993SOL    HW220442   4.242   3.155   8.336 -0.4491  0.0988  0.8872
 2994SOL     OW20443   3.134   2.149   3.012 -0.8167  0.4862 -0.0906
 2994SOL    HW120444   3.092   2.131   2.928 -2.8660 -0.2193  1.0701
 2994SOL    HW220445   3.222   2.113   3.002 -0.3716  1.2390  1.0947
 2995SOL     OW20446   0.056   2.282   6.161  0.5957  0.4381 -0.0567
 2995SOL    HW120447   0.060   2.374   6.188  1.1269 -0.2498  2.1727
 2995SOL    HW220448   0.083   2.295   6.070  0.9011  0.5183  0.0451
 2996SOL     OW20449   1.128   4.466   8.737 -0.3277 -0.1338  0.4576
 2996SOL    HW120450   1.034   4.462   8.719 -0.0469  1.8714 -1.4958
 2996SOL    HW220451   1.164   4.394   8.686  0.5827  0.6392 -0.0078
 2997SOL     OW20452   3.563   1.270   7.919  0.4859 -0.0442 -0.5017
 2997SOL    HW120453   3.484   1.276   7.866  0.0457 -1.9722 -0.0728
 2997SOL    HW220454   3.578   1.359   7.951  1.3051 -0.9593  1.6495
 2998SOL     OW20455   0.806   4.530   2.051 -0.0292 -0.0571 -0.0042
 2998SOL    HW120456   0.792   4.624   2.042  0.7541  0.1106  0.5790
 2998SOL    HW220457   0.749   4.498   1.980  1.3592 -1.1781 -0.6013
 2999SOL     OW20458   4.286   1.817   3.453 -0.4743 -0.2659 -0.5631
 2999SOL    HW120459   4.216   1.803   3.516  0.2934  2.5475  0.9068
 2999SOL    HW220460   4.251   1.767   3.379 -1.0851 -0.0052 -0.4484
 3000SOL     OW20461   0.737   3.760   4.342  0.4844 -0.2597 -0.5183
 3000SOL    HW120462   0.695   3.682   4.378  3.0893 -1.7739 -0.7126
 3000SOL    HW220463   0.674   3.792   4.279 -0.2022  0.3871  0.4899
 3001SOL     OW20464   2.017   4.455   7.206 -0.3859  0.1855 -0.0019
 3001SOL    HW120465   2.044   4.544   7.185 -1.2210  0.7906  1.5616
 3001SOL    HW220466   2.025   4.430   7.113  3.0872  0.3755  0.2302
 3002SOL     OW20467   3.953   0.121   8.733 -0.1573 -0.0969 -0.4567
 3002SOL    HW120468   3.941   0.208   8.695  0.9256  0.8035  1.2406
 3002SOL    HW220469   3.958   0.149   8.824  1.1024  0.0807 -0.5739
 3003SOL     OW20470   4.103   0.117   3.190 -0.2208  0.1868 -0.1162
 3003SOL    HW120471   4.166   0.120   3.262  0.3236  3.2756 -0.7399
 3003SOL    HW220472   4.037   0.178   3.224  0.5280 -0.4840  2.5574
 3004SOL     OW20473   0.946   4.207   7.911 -0.1597 -0.0513  0.4624
 3004SOL    HW120474   0.880   4.159   7.960 -0.0983 -1.1296 -0.5115
 3004SOL    HW220475   0.990   4.137   7.864 -2.9627 -0.7115 -1.1590
 3005SOL     OW20476   1.232   0.930  10.220  0.5997 -0.3280 -0.0181
 3005SOL    HW120477   1.149   0.963  10.185  0.9724 -0.0876 -0.6857
 3005SOL    HW220478   1.275   0.876  10.154  1.2092 -0.0804  0.1679
 3006SOL     OW20479   0.487   1.833   8.487 -0.0093  0.2661  0.1702
 3006SOL    HW120480   0.575   1.861   8.510  0.8476 -1.2760 -1.2964
 3006SOL    HW220481   0.508   1.770   8.419  0.2275  0.2378  0.2693
 3007SOL     OW20482   1.095   4.550  16.038  0.2551  0.2789 -0.0613
 3007SOL    HW120483   1.104   4.579  16.129 -0.7959  1.8810 -0.4735
 3007SOL    HW220484   1.078   4.630  15.989 -2.5603  0.1984  0.7519
 3008SOL     OW20485   3.444   1.949   2.097  1.4652 -0.1792 -0.5065
 3008SOL    HW120486   3.486   1.866   2.120  1.3415 -0.9913 -3.3029
 3008SOL    HW220487   3.510   2.004   2.140 -0.7255 -0.4938  3.2689
 3009SOL     OW20488   2.257   4.725   2.266  0.3523 -0.1282  0.0140
 3009SOL    HW120489   2.225   0.087   2.251  0.8652 -0.1737 -1.3863
 3009SOL    HW220490   2.175   4.687   2.297 -2.7292  4.3986 -2.5220
 3010SOL     OW20491   2.892   0.327  16.377  0.1104  0.5521  0.2730
 3010SOL    HW120492   2.896   0.283  16.462 -4.3282 -0.0230  0.1509
 3010SOL    HW220493   2.868   0.416  16.404 -1.8222  0.3422 -0.8049
 3011SOL     OW20494   3.621   2.435  11.028 -0.6963  0.5838 -0.3607
 3011SOL    HW120495   3.631   2.373  10.956 -0.2593  0.4169 -0.1575
 3011SOL    HW220496   3.700   2.422  11.081 -0.1730 -0.2772 -1.3426
 3012SOL     OW20497   4.067   0.375   1.906 -0.0082 -0.2134 -0.3231
 3012SOL    HW120498   4.149   0.354   1.951 -0.5264 -2.3404 -0.3973
 3012SOL    HW220499   4.030   0.439   1.968 -0.6283  0.4956 -1.4207
 3013SOL     OW20500   3.426   3.794   2.924  0.0612  0.0221  0.0524
 3013SOL    HW120501   3.487   3.775   2.995 -1.1161 -1.7640  0.5739
 3013SOL    HW220502   3.439   3.889   2.914 -1.0263 -0.0619 -2.1294
 3014SOL     OW20503   3.805   3.783   6.960 -0.5937  0.0926  0.4683
 3014SOL    HW120504   3.745   3.855   6.980 -1.7792 -0.7829  0.0577
 3014SOL    HW220505   3.784   3.709   7.016  1.7096 -1.0181 -0.1430
 3015SOL     OW20506   3.401   4.640   3.710  0.3376  0.0929 -1.0141
 3015SOL    HW120507   3.414   4.545   3.718  0.5021  0.1335 -0.8054
 3015SOL    HW220508   3.358   4.650   3.625 -1.0324  0.2335 -0.3116
 3016SOL     OW20509   3.641   1.953   1.052 -0.3262  0.3676  0.4627
 3016SOL    HW120510   3.688   1.989   0.977  0.3228  0.2679  0.8154
 3016SOL    HW220511   3.623   2.034   1.100 -0.3131  0.7854 -0.2502
 3017SOL     OW20512   2.661   0.957   3.280  0.2581  0.0630 -0.1344
 3017SOL    HW120513   2.738   0.987   3.232  0.1330  2.8357  1.3370
 3017SOL    HW220514   2.588   0.950   3.219 -2.6287 -1.2840  3.4488
 3018SOL     OW20515   0.847   0.235  13.840 -0.1381 -0.0622 -0.3267
 3018SOL    HW120516   0.806   0.225  13.926 -1.7381 -1.7688 -1.2924
 3018SOL    HW220517   0.894   0.152  13.842  0.3569  0.2048 -1.3744
 3019SOL     OW20518   2.561   1.977   0.867 -0.1402 -0.2846  0.3924
 3019SOL    HW120519   2.541   2.011   0.780 -1.3360  2.9328  1.9199
 3019SOL    HW220520   2.471   1.983   0.901  0.3250 -0.5386  1.6410
 3020SOL     OW20521   0.736   1.931   8.548  0.2636 -0.3488 -0.0501
 3020SOL    HW120522   0.784   1.964   8.472 -1.4907 -0.1593 -1.0775
 3020SOL    HW220523   0.771   1.843   8.559  1.2019 -0.1339 -1.3802
 3021SOL     OW20524   1.545   0.723  10.071  0.1895  0.2086 -0.1848
 3021SOL    HW120525   1.563   0.635  10.039  0.0443 -0.4276  1.4687
 3021SOL    HW220526   1.455   0.747  10.051 -0.7809 -2.0475  1.4267
 3022SOL     OW20527   2.118   1.885   5.783 -0.3321 -0.1550 -0.3287
 3022SOL    HW120528   2.087   1.795   5.778  1.7696 -0.8227 -1.1389
 3022SOL    HW220529   2.189   1.869   5.846 -0.7109  0.3370  0.2242
 3023SOL     OW20530   3.489   0.761  14.411 -0.5983 -0.1475  0.2259
 3023SOL    HW120531   3.527   0.750  14.324 -0.7585  1.8634 -0.0761
 3023SOL    HW220532   3.570   0.775  14.461 -1.0367  2.1084  0.2849
 3024SOL     OW20533   4.482   4.512  13.551 -0.3937  0.2804 -0.0820
 3024SOL    HW120534   4.447   4.429  13.521 -0.2606  0.3182 -0.3335
 3024SOL    HW220535   4.428   4.577  13.506 -0.7272  0.9951  1.3195
 3025SOL     OW20536   2.802   3.686  15.970  0.2223 -0.2864  0.1850
 3025SOL    HW120537   2.842   3.635  15.899 -1.7671 -0.1719 -0.9938
 3025SOL    HW220538   2.860   3.657  16.041  3.5208 -0.6974 -2.6570
 3026SOL     OW20539   2.358   3.796   8.631  0.0252  0.3186 -0.0406
 3026SOL    HW120540   2.332   3.704   8.626  1.4061 -0.0916  0.3577
 3026SOL    HW220541   2.317   3.837   8.555 -0.9305  0.8782  0.7775
 3027SOL     OW20542   3.641   1.039   8.182  0.7642  0.0920 -0.7865
 3027SOL    HW120543   3.640   1.135   8.189  0.3735 -0.1970  3.2658
 3027SOL    HW220544   3.589   1.034   8.102 -1.0246  0.1980  0.3783
 3028SOL     OW20545   0.451   3.390   4.244 -0.1181 -0.1608 -0.1715
 3028SOL    HW120546   0.433   3.431   4.159  1.6148  0.3813 -0.2910
 3028SOL    HW220547   0.407   3.308   4.221 -0.0890  0.3539 -2.0895
 3029SOL     OW20548   0.515   4.461  15.601  0.0834  0.3851 -0.0871
 3029SOL    HW120549   0.604   4.494  15.588  0.9780 -0.6983  3.3258
 3029SOL    HW220550   0.459   4.518  15.548  0.0407  0.3446 -0.0852
 3030SOL     OW20551   4.167   4.331  14.647 -0.0874 -0.1766  1.1114
 3030SOL    HW120552   4.158   4.324  14.742  1.9436 -0.7413  1.2594
 3030SOL    HW220553   4.258   4.361  14.646  0.3281 -1.5117 -0.6148
 3031SOL     OW20554   3.510   1.401   5.444  0.2674  0.5469 -0.1163
 3031SOL    HW120555   3.460   1.478   5.419  0.7150  0.6574 -0.6713
 3031SOL    HW220556   3.462   1.328   5.405  0.1066  1.2522 -1.2377
 3032SOL     OW20557   2.449   4.512   2.329  0.4512 -0.0593 -0.0601
 3032SOL    HW120558   2.371   4.469   2.364  0.5895  1.1826  1.7336
 3032SOL    HW220559   2.417   4.592   2.287 -0.1769 -1.7160 -2.8299
 3033SOL     OW20560   1.857   2.690   8.525  0.2100  0.0233  0.3144
 3033SOL    HW120561   1.778   2.701   8.577 -0.1488  1.2155 -0.4704
 3033SOL    HW220562   1.861   2.594   8.516  1.9194  0.1409 -0.1825
 3034SOL     OW20563   3.647   0.403   2.703  0.0138  0.0462 -0.3165
 3034SOL    HW120564   3.655   0.309   2.718  1.5990  0.3692  0.8881
 3034SOL    HW220565   3.553   0.412   2.719  0.0912  1.1137 -0.4550
 3035SOL     OW20566   2.550   0.035   9.299 -0.1306 -0.4841  0.3102
 3035SOL    HW120567   2.567   4.686   9.352  0.6045 -0.0476  0.7011
 3035SOL    HW220568   2.531   4.714   9.219  1.7203 -0.6729 -0.0223
 3036SOL     OW20569   4.566   2.842   5.536 -0.3267  0.4050 -0.6089
 3036SOL    HW120570   4.482   2.799   5.524 -0.4050  0.3990 -0.0416
 3036SOL    HW220571   4.559   2.899   5.460  3.4287 -1.3931 -2.3380
 3037SOL     OW20572   3.447   1.072   8.682  0.0109 -0.2460  0.1619
 3037SOL    HW120573   3.370   1.103   8.730 -0.4260 -1.8481  0.4920
 3037SOL    HW220574   3.396   1.030   8.613 -0.0332  0.7225 -0.3994
 3038SOL     OW20575   0.085   1.024   7.341 -0.1738  0.6368  0.1915
 3038SOL    HW120576   0.171   1.063   7.354  1.3477 -2.5696 -0.1336
 3038SOL    HW220577   0.090   0.950   7.401 -0.1311  0.1042 -0.4678
 3039SOL     OW20578   3.654   1.063  17.331  0.0426 -0.4526 -0.2053
 3039SOL    HW120579   3.670   1.070  17.237  0.5559 -3.3770 -0.3353
 3039SOL    HW220580   3.636   0.969  17.330  0.2889 -0.4930 -1.1485
 3040SOL     OW20581   3.238   0.753  13.079 -0.2002  0.4502 -0.3785
 3040SOL    HW120582   3.155   0.791  13.106 -0.5903 -0.7447  0.0863
 3040SOL    HW220583   3.285   0.731  13.160  1.7151 -0.3947 -1.7153
 3041SOL     OW20584   1.642   1.766   7.130 -0.1541 -0.2485  0.0295
 3041SOL    HW120585   1.658   1.860   7.128 -0.2616 -0.2372 -0.3456
 3041SOL    HW220586   1.547   1.751   7.134 -0.6523  2.8877 -0.3803
 3042SOL     OW20587   2.238   1.223   3.594 -0.4736  0.4762 -0.0130
 3042SOL    HW120588   2.319   1.173   3.589 -0.3954  0.6316 -0.3800
 3042SOL    HW220589   2.252   1.270   3.676 -0.7951 -0.2527  0.4516
 3043SOL     OW20590   0.647   4.394  17.449  0.6055  0.2077 -0.3823
 3043SOL    HW120591   0.566   4.444  17.460  0.6858 -0.0647  1.5399
 3043SOL    HW220592   0.713   4.462  17.437  0.8449 -0.3126 -1.9888
 3044SOL     OW20593   1.958   2.528   7.025  0.8946 -0.4723 -0.3161
 3044SOL    HW120594   1.988   2.445   6.987 -1.0435 -1.4977  0.3973
 3044SOL    HW220595   1.981   2.588   6.954 -2.3382 -1.1507 -1.8950
 3045SOL     OW20596   0.796   4.252   5.514 -0.1699  0.2000 -0.4189
 3045SOL    HW120597   0.767   4.163   5.495 -0.7155  0.0562  1.1174
 3045SOL    HW220598   0.713   4.295   5.493 -1.4078 -1.1239  1.8921
 3046SOL     OW20599   1.166   1.977   1.764 -0.1243 -0.2412 -0.0951
 3046SOL    HW120600   1.218   1.912   1.811 -0.6483  1.5587  2.9969
 3046SOL    HW220601   1.234   2.029   1.720 -1.2620  1.4591  0.1554
 3047SOL     OW20602   0.672   3.169   8.641  0.0731  0.0642 -0.3753
 3047SOL    HW120603   0.698   3.261   8.643  1.7757 -0.4077 -0.7560
 3047SOL    HW220604   0.725   3.132   8.712  2.2817 -0.0004 -2.0697
 3048SOL     OW20605   2.834   3.660   5.276 -0.4328 -0.0721 -0.2406
 3048SOL    HW120606   2.750   3.706   5.276 -1.1941 -1.4857  2.1688
 3048SOL    HW220607   2.841   3.615   5.360 -2.5610 -0.7943 -0.4650
 3049SOL     OW20608   4.017   1.587   1.793  0.4138 -0.5595  0.0005
 3049SOL    HW120609   3.953   1.537   1.742 -0.0494 -0.5619  0.5826
 3049SOL    HW220610   4.086   1.521   1.802  1.8283  0.6704 -1.8914
 3050SOL     OW20611   3.328   2.633  14.394 -0.2634  0.0166 -0.0046
 3050SOL    HW120612   3.243   2.603  14.363 -0.1615  0.1528 -0.4113
 3050SOL    HW220613   3.321   2.728  14.393 -0.3420  0.0063 -0.4080
 3051SOL     OW20614   4.535   0.600  13.323  0.3461 -0.0816 -0.1003
 3051SOL    HW120615   4.540   0.682  13.274 -1.2253  0.9064  1.4133
 3051SOL    HW220616   4.476   0.548  13.268  1.0049 -1.1826  0.2236
 3052SOL     OW20617   0.097   0.392   8.432 -0.2518 -0.0433  0.8722
 3052SOL    HW120618   0.138   0.478   8.447  0.6014 -0.1681 -0.7069
 3052SOL    HW220619   0.093   0.350   8.518  1.4267 -0.3928  0.7783
 3053SOL     OW20620   0.619   0.319   7.904  0.5238 -0.0544  1.0260
 3053SOL    HW120621   0.708   0.286   7.894  0.6124  0.8913 -1.4001
 3053SOL    HW220622   0.586   0.339   7.816 -0.4443  0.8534  1.6022
 3054SOL     OW20623   0.829   2.220   5.372 -0.1044 -0.4454 -0.0038
 3054SOL    HW120624   0.758   2.190   5.316 -0.0336  0.1908 -0.4314
 3054SOL    HW220625   0.901   2.158   5.367  1.8314  1.8910 -1.2994
 3055SOL     OW20626   1.329   1.838   2.263 -0.4475  0.5057 -0.0565
 3055SOL    HW120627   1.358   1.929   2.255 -2.5946  1.2805  0.8849
 3055SOL    HW220628   1.260   1.826   2.197  0.1882  0.5106 -0.7167
 3056SOL     OW20629   1.757   4.404   5.657 -0.3393 -0.1782  0.2431
 3056SOL    HW120630   1.705   4.459   5.599  2.7428  2.4228 -0.0336
 3056SOL    HW220631   1.713   4.411   5.741  0.5549  0.4998  0.6549
 3057SOL     OW20632   0.745   1.142   1.715  0.3536 -0.3622  0.0099
 3057SOL    HW120633   0.745   1.052   1.749  2.2490 -0.5521 -0.5344
 3057SOL    HW220634   0.811   1.139   1.647  1.9348  1.3919  1.4640
 3058SOL     OW20635   4.188   2.669   6.380  0.6467  0.3305  0.4196
 3058SOL    HW120636   4.182   2.658   6.286 -1.0700 -0.3276  0.5995
 3058SOL    HW220637   4.274   2.632   6.396  0.1138 -1.0626  0.0381
 3059SOL     OW20638   2.467   2.162   8.527  0.5628  0.0844  1.4458
 3059SOL    HW120639   2.385   2.180   8.480  0.1802  0.3146  2.2071
 3059SOL    HW220640   2.456   2.175   8.621 -0.0452 -2.9460  1.8076
 3060SOL     OW20641   1.808   0.969   6.121 -0.0113  0.6208  0.1703
 3060SOL    HW120642   1.892   0.986   6.079  0.3360 -0.8003  0.2803
 3060SOL    HW220643   1.783   0.892   6.070 -2.4725  0.0406  2.2647
 3061SOL     OW20644   3.227   3.064  11.065 -0.0013  0.1149 -0.4853
 3061SOL    HW120645   3.301   3.090  11.120 -0.6358  2.1423 -0.5762
 3061SOL    HW220646   3.256   2.992  11.010  0.1779  0.0345 -0.2894
 3062SOL     OW20647   0.852   0.535   2.953 -0.1245  0.0609 -0.2937
 3062SOL    HW120648   0.835   0.552   2.861  0.9628 -0.0410 -0.5058
 3062SOL    HW220649   0.920   0.588   2.994  0.6199  0.6542 -2.3371
 3063SOL     OW20650   4.118   1.983   6.789 -0.6355 -0.1820  0.1079
 3063SOL    HW120651   4.073   2.029   6.860  1.0116 -1.1049  1.7656
 3063SOL    HW220652   4.081   2.022   6.710 -1.6379  1.3302  1.3249
 3064SOL     OW20653   4.411   0.330   2.293  0.4683  0.0463 -0.0220
 3064SOL    HW120654   4.413   0.291   2.380  0.2025  0.6006  0.2341
 3064SOL    HW220655   4.447   0.417   2.311  0.0439  0.1614  0.2600
 3065SOL     OW20656   0.135   1.053   8.882 -0.2249  0.1928 -0.4438
 3065SOL    HW120657   0.095   1.135   8.912 -2.5776 -1.9067  2.1408
 3065SOL    HW220658   0.099   0.994   8.948  2.0144 -2.0334 -1.2020
 3066SOL     OW20659   1.505   2.245  10.788  0.0911  0.3045  0.6689
 3066SOL    HW120660   1.588   2.291  10.776  0.8755 -0.9712  1.1857
 3066SOL    HW220661   1.513   2.236  10.883 -3.0654  1.4808  1.0323
 3067SOL     OW20662   0.480   0.975  15.758 -0.1175 -0.5189 -0.4010
 3067SOL    HW120663   0.411   1.037  15.781 -0.7618 -2.3355  2.5725
 3067SOL    HW220664   0.562   1.005  15.799  1.1642 -1.7774 -2.0379
 3068SOL     OW20665   4.059   3.061   4.762  0.3569  0.4403 -0.2239
 3068SOL    HW120666   4.113   3.112   4.822  0.0406  0.4490  0.0546
 3068SOL    HW220667   4.064   2.983   4.818  0.0769 -0.3211 -1.2467
 3069SOL     OW20668   4.534   3.594  14.807 -0.3148  0.2819  0.1835
 3069SOL    HW120669   4.495   3.507  14.809  2.6965 -1.0886 -1.5022
 3069SOL    HW220670   4.627   3.570  14.813 -0.0954  1.5052  1.7908
 3070SOL     OW20671   2.619   2.521   1.447  0.4165 -0.3898  0.4468
 3070SOL    HW120672   2.668   2.529   1.365 -0.4631  0.7017  0.0290
 3070SOL    HW220673   2.583   2.432   1.452  0.3596 -0.4234 -0.5454
 3071SOL     OW20674   0.232   2.355   1.543 -0.2727  0.4404  0.0751
 3071SOL    HW120675   0.311   2.400   1.513 -0.0263  0.6804  1.0817
 3071SOL    HW220676   0.214   2.388   1.632  0.4113  0.3558  0.2446
 3072SOL     OW20677   0.193   4.275   7.055 -0.2024  0.4584  0.3748
 3072SOL    HW120678   0.210   4.307   7.143 -0.5563  0.7923  0.3225
 3072SOL    HW220679   0.199   4.179   7.053  2.7080  0.6620 -0.7308
 3073SOL     OW20680   4.721   3.776  15.363  0.5026 -0.1824 -0.1477
 3073SOL    HW120681   4.659   3.709  15.334 -0.4122 -0.2540  1.9957
 3073SOL    HW220682   0.068   3.717  15.354 -0.1792 -1.0056 -0.3920
 3074SOL     OW20683   3.492   1.293  15.084  0.2862  0.3648  0.0265
 3074SOL    HW120684   3.582   1.312  15.107  0.0480  2.6918 -0.8929
 3074SOL    HW220685   3.450   1.379  15.078 -1.8969 -0.6470  0.7129
 3075SOL     OW20686   0.027   2.147   7.712 -0.2421 -0.0429  0.0104
 3075SOL    HW120687   4.702   2.104   7.779  2.3823 -1.3931  1.2327
 3075SOL    HW220688   0.009   2.100   7.631 -1.0634  1.1204 -0.4781
 3076SOL     OW20689   1.954   2.551   2.271 -0.4157  0.0843  0.2836
 3076SOL    HW120690   1.891   2.572   2.340 -2.6442 -1.4281 -1.2750
 3076SOL    HW220691   2.033   2.569   2.322  0.5127 -0.5177 -0.9522
 3077SOL     OW20692   1.774   3.266   3.127 -0.2586  0.5458 -0.6459
 3077SOL    HW120693   1.775   3.278   3.032 -1.9991 -0.7757 -0.8191
 3077SOL    HW220694   1.684   3.259   3.158 -0.2991 -2.5550 -1.4336
 3078SOL     OW20695   4.702   1.630  16.801  0.4004  0.5590  0.4843
 3078SOL    HW120696   0.065   1.659  16.794 -0.1177  1.9971 -0.4367
 3078SOL    HW220697   4.663   1.706  16.844 -1.2310 -0.7010  1.2220
 3079SOL     OW20698   4.503   1.154   5.059 -0.0883 -0.2075 -0.1455
 3079SOL    HW120699   4.455   1.234   5.037 -0.5940 -0.1987  0.9685
 3079SOL    HW220700   4.439   1.090   5.027  1.4191 -1.2388 -1.0437
 3080SOL     OW20701   4.725   0.378   5.655  0.0653  0.3389  0.3452
 3080SOL    HW120702   0.035   0.434   5.723  0.6700 -1.5469  1.5555
 3080SOL    HW220703   4.690   0.304   5.705  0.2809 -0.0558 -0.0923
 3081SOL     OW20704   0.694   4.415   2.899  0.3662 -0.0596 -0.2947
 3081SOL    HW120705   0.715   4.388   2.810  1.6282 -0.3132  0.0697
 3081SOL    HW220706   0.602   4.440   2.892  0.3420  0.6201  2.2190
 3082SOL     OW20707   1.868   0.999   7.930  0.1205  0.0338  1.3714
 3082SOL    HW120708   1.875   1.091   7.905  0.0732 -0.8881 -1.9360
 3082SOL    HW220709   1.867   1.015   8.025 -0.1530  3.9316  0.7130
 3083SOL     OW20710   1.783   3.290   7.268  0.0876 -0.0109 -0.3434
 3083SOL    HW120711   1.706   3.301   7.211 -1.1510 -1.4115  1.0652
 3083SOL    HW220712   1.747   3.258   7.351 -0.0639 -1.5252 -1.0001
 3084SOL     OW20713   2.576   0.765   6.430  0.0807 -0.3394 -0.0115
 3084SOL    HW120714   2.576   0.860   6.419 -1.4224 -0.3155  0.2016
 3084SOL    HW220715   2.526   0.758   6.511  0.4452 -1.8832  0.0691
 3085SOL     OW20716   0.998   2.342  10.467  0.3143  0.1434  0.0748
 3085SOL    HW120717   1.078   2.294  10.446 -0.9132 -2.0399  0.4495
 3085SOL    HW220718   0.928   2.280  10.449 -0.5975  0.9987  0.6397
 3086SOL     OW20719   4.057   3.907   8.898  0.4985 -0.5886 -0.4618
 3086SOL    HW120720   4.059   3.864   8.813 -0.0572  0.5244 -1.0422
 3086SOL    HW220721   4.144   3.949   8.903  0.2534 -0.1731  0.2864
 3087SOL     OW20722   4.579   0.718  17.052 -0.8654 -0.0540 -0.3409
 3087SOL    HW120723   4.490   0.733  17.020 -0.5482  1.3203 -0.5797
 3087SOL    HW220724   4.567   0.756  17.139 -1.2029 -2.8474  0.8362
 3088SOL     OW20725   3.971   4.245  13.449 -0.8466  0.3967  0.2632
 3088SOL    HW120726   3.965   4.339  13.461 -0.0992  0.4654  0.0614
 3088SOL    HW220727   3.911   4.241  13.374 -1.0874  1.1518  0.4201
 3089SOL     OW20728   3.007   4.589  12.852 -0.3721 -0.3651 -0.3366
 3089SOL    HW120729   2.992   4.526  12.781 -0.0363  0.1847 -0.8888
 3089SOL    HW220730   2.933   4.648  12.837 -0.3139 -0.8382 -2.5009
 3090SOL     OW20731   0.767   0.097   3.842 -0.2216  0.0585  0.0415
 3090SOL    HW120732   0.719   0.030   3.794  1.0348  1.5435 -3.2502
 3090SOL    HW220733   0.757   0.175   3.788  1.3040  0.8856  0.9162
 3091SOL     OW20734   4.451   3.858  11.986 -0.2786  0.5625 -0.7247
 3091SOL    HW120735   4.386   3.870  12.055 -1.5680 -2.3289 -1.4186
 3091SOL    HW220736   4.531   3.855  12.037  0.4269  3.6654 -1.6409
 3092SOL     OW20737   0.410   0.414   7.209  0.1825  0.0919  0.0786
 3092SOL    HW120738   0.367   0.493   7.176 -0.4335 -0.5379 -0.6225
 3092SOL    HW220739   0.481   0.459   7.256  1.0093 -2.1412  0.9505
 3093SOL     OW20740   2.870   0.880   4.810  0.3253 -0.0712 -0.3648
 3093SOL    HW120741   2.813   0.815   4.851  0.8136 -0.7422 -0.7564
 3093SOL    HW220742   2.868   0.939   4.885  0.3189 -0.5299 -0.0045
 3094SOL     OW20743   1.358   1.737   6.185  0.0553  0.4465 -0.2292
 3094SOL    HW120744   1.274   1.698   6.161  0.8443 -2.2454  1.4511
 3094SOL    HW220745   1.347   1.719   6.279  4.5670  2.2131  0.6121
 3095SOL     OW20746   1.010   2.036  15.725 -0.0142  0.0672 -0.3448
 3095SOL    HW120747   1.013   2.007  15.816  1.7283 -0.5737 -0.6019
 3095SOL    HW220748   1.101   2.050  15.699  0.3019  0.6547  1.0833
 3096SOL     OW20749   3.826   2.926  15.303  0.1456 -0.0725 -0.4273
 3096SOL    HW120750   3.887   2.884  15.363  1.3020  0.2383 -1.3948
 3096SOL    HW220751   3.759   2.948  15.369 -2.1501 -1.6300 -2.2212
 3097SOL     OW20752   0.405   4.415  11.147  0.3715 -0.0406  0.5011
 3097SOL    HW120753   0.313   4.406  11.124  0.4915  2.1167 -0.7454
 3097SOL    HW220754   0.400   4.469  11.226 -0.1387 -1.4820  1.4569
 3098SOL     OW20755   1.456   3.596   4.126  0.2218  0.3908  0.5072
 3098SOL    HW120756   1.419   3.590   4.214 -0.8696 -0.6051 -0.0178
 3098SOL    HW220757   1.548   3.608   4.146 -0.1561  0.1564  2.3844
 3099SOL     OW20758   2.673   4.629   7.464  0.6169 -0.5342  0.0913
 3099SOL    HW120759   2.596   4.611   7.410  0.4136  0.4711  0.0515
 3099SOL    HW220760   2.657   4.574   7.541  1.9565 -2.9859 -1.3831
 3100SOL     OW20761   3.171   0.792   0.373 -0.1204  0.1214  0.0166
 3100SOL    HW120762   3.149   0.809   0.465 -1.9297 -0.4858 -0.2907
 3100SOL    HW220763   3.164   0.697   0.366  1.5700  0.1343 -1.7950
 3101SOL     OW20764   4.643   4.650   0.307  0.4202  0.7723 -0.1340
 3101SOL    HW120765   4.702   4.592   0.259 -1.5626 -1.3268 -0.0649
 3101SOL    HW220766   4.685   4.648   0.393 -3.0041 -1.9994  1.4595
 3102SOL     OW20767   4.160   1.586  10.685 -0.1177  0.0366  0.1391
 3102SOL    HW120768   4.211   1.666  10.682  1.0001 -0.6782 -0.0748
 3102SOL    HW220769   4.201   1.546  10.762  0.2724 -0.6313 -0.4108
 3103SOL     OW20770   2.829   0.578  15.991  0.3738 -0.2480 -0.3530
 3103SOL    HW120771   2.758   0.514  15.986 -0.1845  0.3236  0.2466
 3103SOL    HW220772   2.892   0.529  16.044 -2.3661 -1.6749  1.6020
 3104SOL     OW20773   2.485   1.105   3.512  0.1414 -0.3697 -0.1928
 3104SOL    HW120774   2.531   1.091   3.430  0.3069  2.4959 -0.5774
 3104SOL    HW220775   2.552   1.089   3.579  0.3094 -0.0671 -0.2893
 3105SOL     OW20776   3.344   3.546   3.215  0.2557 -0.5089  0.4345
 3105SOL    HW120777   3.417   3.485   3.223 -0.1828 -0.9794  0.8613
 3105SOL    HW220778   3.395   3.625   3.196 -1.4952  0.2542 -1.1185
 3106SOL     OW20779   2.612   0.285   5.757  0.3488  0.1150 -0.2135
 3106SOL    HW120780   2.606   0.190   5.763  1.7273 -0.0485 -1.4588
 3106SOL    HW220781   2.574   0.326   5.835 -1.7814  0.2245 -1.3263
 3107SOL     OW20782   0.878   3.997   4.367 -0.3671 -0.0237  0.4321
 3107SOL    HW120783   0.839   3.911   4.382 -2.2798  0.5070 -1.5316
 3107SOL    HW220784   0.807   4.032   4.314 -0.2344  1.8004  1.4545
 3108SOL     OW20785   2.928   3.865   3.351 -0.1220  0.3155  0.3706
 3108SOL    HW120786   2.841   3.872   3.391 -0.2316  2.6184 -0.2648
 3108SOL    HW220787   2.925   3.938   3.289 -0.4142 -1.1448 -1.3371
 3109SOL     OW20788   3.194   2.074   1.129  0.0368 -0.4422 -0.7936
 3109SOL    HW120789   3.208   1.985   1.094  0.8487 -1.2388  1.5522
 3109SOL    HW220790   3.099   2.082   1.131 -0.0039 -1.5818  2.3579
 3110SOL     OW20791   0.265   0.663   2.767 -0.1027  0.2392 -0.5321
 3110SOL    HW120792   0.299   0.648   2.679  0.5291 -1.3067 -0.0344
 3110SOL    HW220793   0.350   0.681   2.808  0.4471 -1.8526 -0.7149
 3111SOL     OW20794   0.914   4.636  17.111 -0.2774  0.1693  0.2679
 3111SOL    HW120795   0.856   4.707  17.086  0.0113  1.0131  1.9806
 3111SOL    HW220796   0.865   4.556  17.092  0.3126 -0.3904  1.0812
 3112SOL     OW20797   1.469   2.604   3.309  0.1392  0.2071 -0.3833
 3112SOL    HW120798   1.445   2.634   3.222 -0.2227 -0.1309 -0.4000
 3112SOL    HW220799   1.411   2.644   3.374  1.4284  2.0048 -0.3318
 3113SOL     OW20800   3.616   3.639  14.838  0.0517  0.1023 -0.4747
 3113SOL    HW120801   3.669   3.691  14.777  0.6890  2.7558  2.3339
 3113SOL    HW220802   3.627   3.702  14.910  0.8169 -1.3364  0.6574
 3114SOL     OW20803   0.612   3.378  14.939  0.2111 -0.2467 -0.4477
 3114SOL    HW120804   0.610   3.338  15.025  3.4591 -1.0992 -0.7888
 3114SOL    HW220805   0.550   3.315  14.901 -1.5992  0.3069  1.5831
 3115SOL     OW20806   1.114   3.241   7.953 -0.6797 -0.0100 -0.5251
 3115SOL    HW120807   1.076   3.212   8.036  0.3076 -0.7419 -0.3252
 3115SOL    HW220808   1.058   3.316   7.934 -0.9167 -0.2919 -0.9435
 3116SOL     OW20809   4.502   0.155   5.048 -0.4665  0.3631 -0.1512
 3116SOL    HW120810   4.579   0.125   5.001  1.0892  0.8561  2.1052
 3116SOL    HW220811   4.448   0.077   5.037  1.8331 -1.4244  1.1821
 3117SOL     OW20812   3.606   4.241   5.700 -0.1459  0.1436 -0.3718
 3117SOL    HW120813   3.628   4.334   5.702 -0.1710  0.1659 -1.6882
 3117SOL    HW220814   3.693   4.201   5.700 -0.2599 -0.1157  0.1708
 3118SOL     OW20815   1.891   1.408   7.427 -0.2238 -0.2840  0.5848
 3118SOL    HW120816   1.799   1.398   7.451 -0.6559 -1.3609 -1.4994
 3118SOL    HW220817   1.930   1.434   7.510 -0.1987 -1.1235  0.8330
 3119SOL     OW20818   0.150   0.096   1.855 -0.0933  0.1028 -0.6728
 3119SOL    HW120819   0.224   0.108   1.796  0.6832  0.1409  0.3084
 3119SOL    HW220820   0.184   0.105   1.945 -0.2680  1.4068 -0.7414
 3120SOL     OW20821   1.582   2.739   6.236  0.1173  0.0575  0.1192
 3120SOL    HW120822   1.584   2.832   6.258 -1.9950 -0.2697  1.7696
 3120SOL    HW220823   1.645   2.698   6.295  0.5332  0.4362 -0.0624
 3121SOL     OW20824   3.953   2.490  15.753 -0.1522  1.1561  0.2247
 3121SOL    HW120825   3.993   2.576  15.740  3.4730 -0.5596 -0.0754
 3121SOL    HW220826   3.922   2.476  15.664 -1.4574  1.0641  0.7003
 3122SOL     OW20827   0.093   1.911   5.517 -0.9675  0.3328  0.3286
 3122SOL    HW120828   0.043   1.840   5.558 -1.2919 -0.8530 -2.1702
 3122SOL    HW220829   0.184   1.883   5.528 -0.9291  0.0791 -0.6248
 3123SOL     OW20830   2.135   1.454   2.793  0.2375 -0.7226 -0.4650
 3123SOL    HW120831   2.117   1.394   2.720 -2.5140 -0.9051  0.3452
 3123SOL    HW220832   2.207   1.500   2.750  0.2777  0.1894  0.6076
 3124SOL     OW20833   3.920   1.582   1.260 -0.0616 -0.3931  0.0844
 3124SOL    HW120834   3.894   1.588   1.168  1.8395  1.2158 -0.3609
 3124SOL    HW220835   3.889   1.494   1.280  0.4226 -0.3211  1.1547
 3125SOL     OW20836   3.209   2.100   4.908  0.3031 -0.1172 -0.8244
 3125SOL    HW120837   3.215   2.130   4.817 -0.6616  0.5902 -0.6555
 3125SOL    HW220838   3.114   2.105   4.924  0.0249 -3.0611 -1.4396
 3126SOL     OW20839   0.152   2.629   1.653 -0.0756  0.7089 -0.1214
 3126SOL    HW120840   0.217   2.675   1.600  0.8047  0.6974  0.9352
 3126SOL    HW220841   0.160   2.666   1.741 -0.7328 -2.0425  1.1042
 3127SOL     OW20842   0.195   1.135   4.656 -0.0493  0.0616  0.6717
 3127SOL    HW120843   0.104   1.106   4.651  0.1255 -0.6234  1.5164
 3127SOL    HW220844   0.232   1.063   4.706  0.6335  0.2414  0.4251
 3128SOL     OW20845   3.939   3.909  14.137 -0.3288  0.0319  0.4190
 3128SOL    HW120846   3.937   3.824  14.180  0.1170 -0.6544 -0.8974
 3128SOL    HW220847   3.935   3.880  14.046 -0.9673  0.1656  0.4061
 3129SOL     OW20848   4.545   0.563   6.568  0.5195 -0.6523 -0.0845
 3129SOL    HW120849   4.598   0.503   6.619  2.2422 -0.5477 -1.7343
 3129SOL    HW220850   4.574   0.549   6.477  0.2623  0.6560 -0.3787
 3130SOL     OW20851   4.390   0.040  17.119  0.1701 -0.1040 -0.3272
 3130SOL    HW120852   4.432   0.073  17.040 -0.6377 -0.1378 -0.7718
 3130SOL    HW220853   4.435   4.685  17.137  0.1897  0.4194  1.9670
 3131SOL     OW20854   2.774   3.817  14.054  0.5532  0.2290 -0.2647
 3131SOL    HW120855   2.712   3.753  14.091  0.6329  0.3071  0.0083
 3131SOL    HW220856   2.735   3.834  13.969  3.4626  1.7210 -1.2892
 3132SOL     OW20857   4.291   1.681   7.294 -0.4699  0.0150  0.0715
 3132SOL    HW120858   4.359   1.747   7.282 -0.7476  0.3744  0.5250
 3132SOL    HW220859   4.202   1.716   7.293  0.4274  2.2459 -0.8975
 3133SOL     OW20860   4.215   1.042   7.558 -0.4207  0.4883 -0.2662
 3133SOL    HW120861   4.162   0.969   7.591  0.1513  1.8499  3.7031
 3133SOL    HW220862   4.181   1.107   7.620 -1.9044  0.2193 -0.8036
 3134SOL     OW20863   2.352   4.055  11.935 -0.2439 -0.0340 -0.1691
 3134SOL    HW120864   2.380   4.144  11.914  1.1786 -1.1134 -2.8866
 3134SOL    HW220865   2.407   4.029  12.009  0.0386 -0.5112 -0.5517
 3135SOL     OW20866   0.802   2.881   3.813 -0.1386  0.1957  0.2859
 3135SOL    HW120867   0.839   2.839   3.735 -0.0252  0.0825  0.4012
 3135SOL    HW220868   0.770   2.963   3.775  3.0718  1.2868 -0.0121
 3136SOL     OW20869   3.161   0.104   7.026 -0.2333 -0.1470 -0.5345
 3136SOL    HW120870   3.199   0.179   6.980  1.4030  0.8334  2.4374
 3136SOL    HW220871   3.145   0.042   6.955 -2.2986 -2.0792  1.5858
 3137SOL     OW20872   2.202   2.461   0.439  0.1758  0.2644 -0.0752
 3137SOL    HW120873   2.288   2.481   0.402  1.8051 -2.5347  2.2052
 3137SOL    HW220874   2.159   2.546   0.434  0.9487  0.7331  1.3599
 3138SOL     OW20875   2.904   2.604   6.352 -0.0371  0.6829  0.1389
 3138SOL    HW120876   2.960   2.675   6.383 -1.1907  1.3175  0.7879
 3138SOL    HW220877   2.817   2.617   6.389  0.4505  0.4365  1.3588
 3139SOL     OW20878   3.419   0.371   7.060  0.3964 -0.3216 -0.2066
 3139SOL    HW120879   3.480   0.328   7.120 -0.2059  0.0981  0.7071
 3139SOL    HW220880   3.433   0.463   7.079 -1.1235 -0.1611  0.0706
 3140SOL     OW20881   4.547   3.564   5.797  0.3444  0.1038 -0.2795
 3140SOL    HW120882   4.578   3.644   5.841 -0.9296 -0.1636  1.1044
 3140SOL    HW220883   4.495   3.540   5.874 -1.9778  1.2373 -1.4913
 3141SOL     OW20884   2.669   0.390   6.262 -0.2217 -0.2034 -0.4215
 3141SOL    HW120885   2.703   0.430   6.342  0.0375 -2.2579  0.4975
 3141SOL    HW220886   2.651   0.307   6.307 -0.8589  1.0119  1.5749
 3142SOL     OW20887   0.067   1.360   8.956 -0.1803 -0.4097  0.6961
 3142SOL    HW120888   0.123   1.337   9.031  2.2984 -0.9926 -1.3506
 3142SOL    HW220889   0.123   1.362   8.878  2.5871  3.1589  2.7387
 3143SOL     OW20890   0.316   1.735   1.908 -0.0285 -0.3136  0.0468
 3143SOL    HW120891   0.316   1.674   1.834 -0.5318 -0.2346 -0.0136
 3143SOL    HW220892   0.307   1.821   1.867 -1.2000 -0.7606 -0.6088
 3144SOL     OW20893   2.709   3.553   3.991  0.2786  0.2899  0.0090
 3144SOL    HW120894   2.624   3.566   3.949  0.0490  0.5901  0.5751
 3144SOL    HW220895   2.770   3.580   3.923 -0.9876  0.7326 -0.9482
 3145SOL     OW20896   0.911   3.129   4.571 -0.7985 -0.5823  0.1967
 3145SOL    HW120897   0.854   3.062   4.609 -1.5399 -0.0785 -0.0198
 3145SOL    HW220898   0.848   3.201   4.569 -0.9344 -0.6559  1.8026
 3146SOL     OW20899   3.696   1.674   7.774 -0.3813 -0.4297  0.1370
 3146SOL    HW120900   3.732   1.647   7.690 -0.5781  0.3466 -0.2023
 3146SOL    HW220901   3.640   1.750   7.756  0.4245 -0.0870 -0.8758
 3147SOL     OW20902   4.210   1.907   2.667 -0.1472 -0.1952 -0.1343
 3147SOL    HW120903   4.221   1.822   2.710 -2.7990 -0.6433 -0.3316
 3147SOL    HW220904   4.115   1.917   2.674  0.0100  1.9372 -1.0375
 3148SOL     OW20905   4.251   0.746   5.706 -0.2976 -0.1554  0.2453
 3148SOL    HW120906   4.188   0.718   5.640 -0.0802  1.8888 -0.8436
 3148SOL    HW220907   4.222   0.834   5.731  1.1504  0.1286  0.8815
 3149SOL     OW20908   4.422   4.121  14.364 -0.2533 -0.1426  0.1063
 3149SOL    HW120909   4.388   4.063  14.432  0.3411  2.0553  2.2612
 3149SOL    HW220910   4.347   4.143  14.309 -0.4316  0.1023  0.4472
 3150SOL     OW20911   3.015   3.845  10.959 -0.0174  0.2641 -0.3289
 3150SOL    HW120912   2.993   3.905  11.030  1.3237  1.2733 -0.7614
 3150SOL    HW220913   3.020   3.758  10.998 -1.4592  1.3427  2.2747
 3151SOL     OW20914   4.083   2.866   8.389 -0.3067  0.1262  0.0293
 3151SOL    HW120915   4.117   2.952   8.364 -0.5084  0.9492  2.5817
 3151SOL    HW220916   4.070   2.815   8.309 -2.2700 -0.8990  1.0047
 3152SOL     OW20917   2.436   2.309   5.510  0.1162  0.1234  0.2092
 3152SOL    HW120918   2.524   2.346   5.518 -0.7627  1.6013  3.1713
 3152SOL    HW220919   2.414   2.361   5.433  0.9405 -1.0836 -0.8395
 3153SOL     OW20920   2.015   1.534   1.369 -0.0911  0.1584  0.0953
 3153SOL    HW120921   2.103   1.545   1.405  0.8867 -0.0571 -2.2508
 3153SOL    HW220922   2.048   1.481   1.297  0.1192  0.4201 -0.0034
 3154SOL     OW20923   2.296   4.301   3.298  0.1155 -0.3468 -0.1744
 3154SOL    HW120924   2.269   4.264   3.214  0.8153  4.0870 -2.3528
 3154SOL    HW220925   2.212   4.317   3.340  0.2303 -1.8766  0.6439
 3155SOL     OW20926   2.130   0.505   7.728 -0.0728  0.5913  0.2555
 3155SOL    HW120927   2.211   0.515   7.677 -0.5789  1.8035 -0.2984
 3155SOL    HW220928   2.156   0.482   7.818 -0.4499 -0.8491 -0.0098
 3156SOL     OW20929   1.407   2.704   2.507  0.1269  0.3110  0.2068
 3156SOL    HW120930   1.436   2.671   2.422 -0.7211 -1.8369  0.7505
 3156SOL    HW220931   1.320   2.735   2.482  0.5288  0.1778 -1.3551
 3157SOL     OW20932   2.828   2.145   0.525 -0.7000  0.2089 -0.4725
 3157SOL    HW120933   2.757   2.206   0.547 -0.8150  0.1251 -0.6065
 3157SOL    HW220934   2.894   2.206   0.491 -0.2267  0.0327  0.1472
 3158SOL     OW20935   2.264   3.194  10.335  0.2876  0.3404 -0.0561
 3158SOL    HW120936   2.331   3.129  10.313 -1.2280 -1.0682 -0.5434
 3158SOL    HW220937   2.183   3.147  10.315 -0.4083  0.9580  1.2702
 3159SOL     OW20938   4.244   0.953   7.022  0.1908 -0.2551  0.5222
 3159SOL    HW120939   4.255   0.985   7.111  0.6763  2.4754 -0.5099
 3159SOL    HW220940   4.301   1.015   6.976 -3.7236  2.1158 -1.0724
 3160SOL     OW20941   0.103   2.777   1.126  0.3310 -0.4114 -0.4948
 3160SOL    HW120942   0.177   2.805   1.072 -0.4677 -0.3001 -1.5149
 3160SOL    HW220943   0.032   2.789   1.063  0.3628 -0.9429 -0.6337
 3161SOL     OW20944   1.789   2.514   6.028 -1.0815  0.3647 -0.6770
 3161SOL    HW120945   1.828   2.557   6.104 -0.6064 -0.3076 -0.5416
 3161SOL    HW220946   1.826   2.570   5.960 -0.8030 -0.2155 -1.0070
 3162SOL     OW20947   4.048   1.914   1.672  0.0502  0.1350 -0.1812
 3162SOL    HW120948   3.952   1.920   1.673  0.3010  3.6317  1.2697
 3162SOL    HW220949   4.043   1.820   1.654  0.2657  0.2169 -0.6764
 3163SOL     OW20950   0.933   2.147   6.972  0.0733  0.0208  0.2755
 3163SOL    HW120951   0.863   2.212   6.978 -0.7478 -0.8250 -0.1929
 3163SOL    HW220952   0.975   2.173   7.054  1.9138 -1.8096 -0.0786
 3164SOL     OW20953   4.609   2.847   0.698  0.2472  0.6450  0.0104
 3164SOL    HW120954   4.634   2.939   0.703 -0.1489  0.8105 -1.0152
 3164SOL    HW220955   4.584   2.825   0.788 -0.5319  0.5618 -0.2271
 3165SOL     OW20956   2.092   1.805   4.736 -0.4277 -0.2504  0.5108
 3165SOL    HW120957   2.093   1.786   4.642  1.8945  0.6309  0.3411
 3165SOL    HW220958   2.067   1.721   4.773  1.4946 -0.5532  1.1072
 3166SOL     OW20959   2.540   1.211   8.980  0.4663  0.2965 -0.2844
 3166SOL    HW120960   2.480   1.236   8.910 -0.2030  0.6038  0.4017
 3166SOL    HW220961   2.603   1.154   8.936  0.1003 -0.3887  0.0768
 3167SOL     OW20962   2.659   2.627   7.639  0.7487 -0.1053  0.1434
 3167SOL    HW120963   2.586   2.601   7.694 -1.6101  0.5253 -2.6977
 3167SOL    HW220964   2.728   2.651   7.701 -0.1490  2.7631  0.0574
 3168SOL     OW20965   3.334   1.110   1.334  0.4005 -0.0684  0.5904
 3168SOL    HW120966   3.352   1.069   1.249  2.0612 -1.2943  1.5353
 3168SOL    HW220967   3.274   1.179   1.306 -1.0797  0.3168  4.7447
 3169SOL     OW20968   0.433   1.571   3.111  0.5145 -0.1484 -0.2670
 3169SOL    HW120969   0.370   1.640   3.091  0.9893  0.2387 -0.4326
 3169SOL    HW220970   0.425   1.513   3.035 -1.1663 -0.8169  0.4374
 3170SOL     OW20971   0.418   3.144   5.800 -0.1636 -0.3246  0.5161
 3170SOL    HW120972   0.415   3.109   5.888 -0.6426 -2.0513 -0.1910
 3170SOL    HW220973   0.446   3.069   5.747  0.3525 -0.3225  0.7913
 3171SOL     OW20974   4.151   3.251   7.752  0.0933  0.4298 -0.0270
 3171SOL    HW120975   4.175   3.285   7.838  0.3585 -3.0466  1.2922
 3171SOL    HW220976   4.056   3.237   7.762  0.2892 -0.3723  0.7674
 3172SOL     OW20977   2.780   0.153   4.501 -0.2346  0.3263 -0.4444
 3172SOL    HW120978   2.754   0.136   4.592 -2.7809  0.3176 -1.1629
 3172SOL    HW220979   2.814   0.070   4.468  0.6824  0.3096  0.5383
 3173SOL     OW20980   4.654   3.105   4.376  0.1504 -0.2674 -0.4164
 3173SOL    HW120981   4.572   3.154   4.370 -0.9016 -1.9139  0.5020
 3173SOL    HW220982   4.711   3.169   4.419  0.7165  1.7669 -4.2592
 3174SOL     OW20983   3.033   1.120   4.892 -0.0789  0.5560  0.4874
 3174SOL    HW120984   3.050   1.042   4.944 -1.7800 -1.2414 -1.6524
 3174SOL    HW220985   3.120   1.142   4.858 -0.3877  0.2035 -0.5298
 3175SOL     OW20986   3.121   1.953   0.437 -0.8130 -0.0759  0.1369
 3175SOL    HW120987   3.175   1.890   0.389 -1.1162 -0.3453  0.1463
 3175SOL    HW220988   3.035   1.911   0.447 -0.4027 -1.3894 -1.8355
 3176SOL     OW20989   2.989   1.791   1.253  0.2069  0.0231  0.2922
 3176SOL    HW120990   3.020   1.812   1.165  2.4655 -0.5206  0.9615
 3176SOL    HW220991   2.969   1.877   1.290  1.1836 -0.3240  1.6413
 3177SOL     OW20992   3.093   3.873   2.787 -0.4110  0.0897 -0.2379
 3177SOL    HW120993   3.096   3.822   2.868 -0.0263 -0.0912 -0.3660
 3177SOL    HW220994   3.128   3.960   2.806  2.7445 -0.8409 -1.8770
 3178SOL     OW20995   0.512   1.453   3.761  0.1143 -0.5976  0.8204
 3178SOL    HW120996   0.488   1.392   3.691  0.4325  1.3778 -1.0018
 3178SOL    HW220997   0.442   1.517   3.747  0.6236 -0.0337  0.8605
 3179SOL     OW20998   1.399   0.980   8.953  0.3850  0.1638 -0.0114
 3179SOL    HW120999   1.384   0.902   8.900  0.6877  0.9393 -1.2273
 3179SOL    HW221000   1.472   0.959   9.011  0.5936 -2.2584 -1.1672
 3180SOL     OW21001   1.087   3.675  14.358  0.1493  0.0660  0.4608
 3180SOL    HW121002   1.088   3.627  14.276  0.2563  1.5182 -0.3848
 3180SOL    HW221003   1.143   3.619  14.412 -0.9673 -1.0505  0.4656
 3181SOL     OW21004   2.436   4.536   4.208  0.0055  0.1924  0.7776
 3181SOL    HW121005   2.476   4.619   4.182 -2.0216  1.3302  1.2719
 3181SOL    HW221006   2.360   4.572   4.254  0.7423  1.8486  0.7175
 3182SOL     OW21007   2.631   1.241  13.100  0.3060 -0.2347 -0.5910
 3182SOL    HW121008   2.582   1.223  13.020  0.0269  1.1725 -0.7397
 3182SOL    HW221009   2.652   1.152  13.126 -2.2817 -0.2516  1.5516
 3183SOL     OW21010   0.461   0.585   6.794 -0.8470  0.4453 -0.4928
 3183SOL    HW121011   0.543   0.592   6.843  0.0193 -0.7504 -1.7331
 3183SOL    HW221012   0.455   0.677   6.770  0.1855  0.5057 -0.5227
 3184SOL     OW21013   0.837   0.072   2.005  0.5079 -0.1046  0.0801
 3184SOL    HW121014   0.820   0.149   2.059 -0.3447 -1.4200  1.6788
 3184SOL    HW221015   0.862   0.116   1.923 -0.7880  0.6011  0.0545
 3185SOL     OW21016   0.037   1.383   6.929  0.0517 -0.1965 -0.1282
 3185SOL    HW121017   0.025   1.351   6.839 -0.1748 -2.3301  0.6654
 3185SOL    HW221018   0.117   1.340   6.959  0.6870  1.5824  0.7706
 3186SOL     OW21019   4.207   1.929   4.888  0.8407  0.0157  0.6572
 3186SOL    HW121020   4.270   1.966   4.949  1.1023  1.4385 -0.4707
 3186SOL    HW221021   4.143   1.999   4.880  3.1779  1.9789 -0.7925
 3187SOL     OW21022   3.549   1.587  17.370 -0.1820 -0.1062  0.3883
 3187SOL    HW121023   3.461   1.601  17.335  0.4055  1.0300 -0.6420
 3187SOL    HW221024   3.574   1.535  17.294 -2.6571 -1.2686  0.3754
 3188SOL     OW21025   4.126   2.423  10.824  0.2028  0.2259 -0.3301
 3188SOL    HW121026   4.155   2.459  10.907 -0.2978 -1.4276  0.5618
 3188SOL    HW221027   4.187   2.461  10.761  1.3091 -0.8051  0.1192
 3189SOL     OW21028   2.102   3.613   6.736 -0.3181 -0.0413  0.2824
 3189SOL    HW121029   2.120   3.682   6.799 -0.1613  0.1216  0.0609
 3189SOL    HW221030   2.159   3.639   6.663  1.5089 -0.4048  1.5839
 3190SOL     OW21031   1.263   1.180   3.197  0.3106  0.0708 -0.4572
 3190SOL    HW121032   1.250   1.257   3.253 -0.3223  0.5991 -1.3434
 3190SOL    HW221033   1.353   1.200   3.170 -0.5676 -0.7081 -3.8844
 3191SOL     OW21034   3.337   1.469  15.332 -0.1688 -0.7183  0.1874
 3191SOL    HW121035   3.274   1.488  15.263  0.1967 -0.3186 -0.0371
 3191SOL    HW221036   3.283   1.414  15.389 -3.2960  1.3522 -0.8214
 3192SOL     OW21037   2.258   2.248   5.720 -0.1988  0.3076  0.2808
 3192SOL    HW121038   2.313   2.232   5.643 -0.2501 -3.7177  1.1247
 3192SOL    HW221039   2.304   2.322   5.760  1.6353  0.0586 -1.3487
 3193SOL     OW21040   1.760   4.597   2.425 -0.2325  0.5398 -0.1749
 3193SOL    HW121041   1.788   4.524   2.369  0.8157  1.3264 -0.6901
 3193SOL    HW221042   1.709   4.650   2.363 -0.1750  2.5712  1.5082
 3194SOL     OW21043   0.482   0.197   3.654  0.0982 -0.8171 -0.2760
 3194SOL    HW121044   0.451   0.285   3.674 -1.4741 -1.5772  0.6876
 3194SOL    HW221045   0.505   0.212   3.563 -0.4485  1.2265 -0.0702
 3195SOL     OW21046   1.479   3.772   3.040  0.3109 -0.2316  0.3913
 3195SOL    HW121047   1.546   3.812   3.095 -0.8499 -1.5184  2.7591
 3195SOL    HW221048   1.522   3.754   2.957 -0.0633  0.8607 -0.0425
 3196SOL     OW21049   3.537   1.567   1.502  0.0865  0.4504 -0.4853
 3196SOL    HW121050   3.482   1.527   1.433  0.0121  1.8619 -1.2370
 3196SOL    HW221051   3.587   1.621   1.442 -0.6846 -0.6739 -2.1634
 3197SOL     OW21052   4.223   4.300   2.371 -0.3094 -0.0023 -0.4293
 3197SOL    HW121053   4.186   4.284   2.284  1.4097 -0.5707 -1.0443
 3197SOL    HW221054   4.279   4.224   2.383  0.8669  0.6989 -1.4785
 3198SOL     OW21055   3.319   0.917   0.181 -0.3648 -0.2288 -0.0248
 3198SOL    HW121056   3.296   1.005   0.153 -0.3791 -0.4030 -0.5719
 3198SOL    HW221057   3.246   0.896   0.239 -1.0301 -0.7676 -1.0646
 3199SOL     OW21058   1.811   3.272   6.434 -0.3097  0.2057 -0.7339
 3199SOL    HW121059   1.864   3.213   6.489  0.9272  1.2328 -0.8159
 3199SOL    HW221060   1.881   3.332   6.409  1.2550 -2.2584 -2.2570
 3200SOL     OW21061   2.369   2.890  10.929 -0.3317  0.2259 -0.2061
 3200SOL    HW121062   2.464   2.885  10.943 -0.3287  0.2564 -0.2160
 3200SOL    HW221063   2.344   2.976  10.963  0.6930  0.3531  0.2288
 3201SOL     OW21064   0.287   2.845   3.297  0.0922 -0.3013  0.1886
 3201SOL    HW121065   0.229   2.901   3.348  1.2169  2.1342 -1.2355
 3201SOL    HW221066   0.370   2.892   3.306 -0.5375  1.3324 -2.4633
 3202SOL     OW21067   4.449   4.033   1.208 -0.2828  0.6665  0.3011
 3202SOL    HW121068   4.464   4.021   1.302  0.7755  0.6309  0.1270
 3202SOL    HW221069   4.513   3.979   1.160  0.7941  0.8582  1.5170
 3203SOL     OW21070   3.069   0.913   6.089  0.0172 -0.6932 -0.5306
 3203SOL    HW121071   3.076   0.998   6.046  0.9078 -0.9468 -0.8977
 3203SOL    HW221072   3.047   0.869   6.007  0.5386 -0.9037 -0.5622
 3204SOL     OW21073   1.743   1.951   3.322 -0.0975  0.1588 -0.1645
 3204SOL    HW121074   1.681   1.921   3.256  0.5063  0.2142 -0.7611
 3204SOL    HW221075   1.756   2.043   3.300  3.5906 -0.3379 -0.1723
 3205SOL     OW21076   3.803   4.503  14.929  0.1626 -0.2881 -0.1433
 3205SOL    HW121077   3.871   4.533  14.869 -1.6021  0.2114 -1.8935
 3205SOL    HW221078   3.839   4.416  14.943  0.2595 -0.3113 -0.5191
 3206SOL     OW21079   2.459   2.570  14.223 -0.3366  0.4025  0.6372
 3206SOL    HW121080   2.483   2.567  14.316  2.2049  0.9622  0.0051
 3206SOL    HW221081   2.444   2.663  14.207 -0.1534  0.2657 -0.3578
 3207SOL     OW21082   2.896   4.250   0.685 -0.3472 -0.7750 -0.6436
 3207SOL    HW121083   2.942   4.214   0.761  1.5074  2.5603 -0.1575
 3207SOL    HW221084   2.814   4.280   0.725  1.6209  3.3765  0.2815
 3208SOL     OW21085   0.852   1.271   6.512 -0.2153 -0.0267 -0.0099
 3208SOL    HW121086   0.944   1.263   6.490  0.1331 -2.6989  2.3927
 3208SOL    HW221087   0.821   1.304   6.428  0.0723  1.5073  0.4782
 3209SOL     OW21088   4.047   3.861  13.298  0.5229 -0.0690  0.3145
 3209SOL    HW121089   4.080   3.784  13.345  0.8375  1.4694  2.5856
 3209SOL    HW221090   3.986   3.901  13.360  0.6043  0.3124  0.1428
 3210SOL     OW21091   2.296   0.894   3.912 -0.0074 -0.3989  0.4306
 3210SOL    HW121092   2.324   0.898   3.820 -0.6634  0.5928  0.2743
 3210SOL    HW221093   2.374   0.923   3.960  0.6062 -1.8872  0.3318
 3211SOL     OW21094   4.298   1.096   6.135 -0.2329 -0.0880  0.1192
 3211SOL    HW121095   4.386   1.088   6.170 -0.6586 -1.3577  0.9036
 3211SOL    HW221096   4.278   1.011   6.094 -0.0088  0.7912 -1.8126
 3212SOL     OW21097   2.294   2.001   4.483 -0.3096 -0.9053 -0.4392
 3212SOL    HW121098   2.366   1.942   4.507  0.8436  0.6169 -0.1248
 3212SOL    HW221099   2.342   2.082   4.464  0.1993 -0.3413  3.2261
 3213SOL     OW21100   2.542   0.866   0.234  0.0733  0.3320  0.0192
 3213SOL    HW121101   2.458   0.862   0.189 -0.4152 -3.8471  1.2487
 3213SOL    HW221102   2.522   0.900   0.321  0.7761 -1.3752  0.8563
 3214SOL     OW21103   2.558   3.498   3.323  0.5614 -0.7890  0.4298
 3214SOL    HW121104   2.630   3.435   3.318  0.9848 -0.1544 -1.0526
 3214SOL    HW221105   2.581   3.534   3.409  1.5681  0.9938 -0.6118
 3215SOL     OW21106   1.662   3.486   2.593  0.1985  0.0897 -0.1810
 3215SOL    HW121107   1.712   3.495   2.512 -1.2763  1.9951 -0.8980
 3215SOL    HW221108   1.579   3.460   2.553  0.7072 -1.8901  0.0551
 3216SOL     OW21109   1.060   2.074   8.516  0.3801 -0.5365  0.2600
 3216SOL    HW121110   1.029   1.988   8.545 -0.2334  0.2808  1.9815
 3216SOL    HW221111   0.996   2.092   8.447 -0.0027  1.5521  1.1641
 3217SOL     OW21112   0.390   3.497  15.115  0.2563  0.2082 -0.2404
 3217SOL    HW121113   0.376   3.468  15.025  0.1214 -1.3467  0.2824
 3217SOL    HW221114   0.457   3.432  15.140 -1.0230 -0.4601  1.5002
 3218SOL     OW21115   4.642   3.117  14.724  0.1820  0.1330 -0.4841
 3218SOL    HW121116   4.635   3.067  14.642 -0.4356 -1.3066  0.4475
 3218SOL    HW221117   4.580   3.069  14.780 -0.1312 -1.6461 -2.3551
 3219SOL     OW21118   2.502   0.813   4.591 -0.1036  0.0398  0.8181
 3219SOL    HW121119   2.475   0.862   4.514  0.4375 -1.4617 -0.3206
 3219SOL    HW221120   2.597   0.805   4.584 -0.1477  1.4860 -1.3913
 3220SOL     OW21121   1.249   0.686   2.436 -0.1425  0.6364 -0.3184
 3220SOL    HW121122   1.296   0.738   2.371  0.6309 -1.2237 -1.2678
 3220SOL    HW221123   1.300   0.605   2.442 -2.3463 -0.8751 -1.6610
 3221SOL     OW21124   1.789   1.058  12.271 -0.3314  0.3373 -0.3216
 3221SOL    HW121125   1.759   1.104  12.350 -1.2345 -0.4029 -0.2344
 3221SOL    HW221126   1.748   1.115  12.205 -1.1191 -0.0211 -0.1383
 3222SOL     OW21127   4.367   1.153   6.563 -0.2465 -0.2370  0.0433
 3222SOL    HW121128   4.398   1.206   6.637 -0.9755 -0.5313  0.5631
 3222SOL    HW221129   4.331   1.074   6.604 -2.4624  0.9851  0.4554
 3223SOL     OW21130   0.928   1.301  10.170  0.1821  0.3800 -0.0596
 3223SOL    HW121131   1.017   1.336  10.157  0.7651 -0.7174  0.9530
 3223SOL    HW221132   0.906   1.373  10.230 -0.8194  0.6720 -0.7885
 3224SOL     OW21133   1.736   1.645  10.674 -0.2918  0.6884  0.2979
 3224SOL    HW121134   1.751   1.722  10.618 -0.2826 -0.3963 -1.2110
 3224SOL    HW221135   1.782   1.669  10.755 -0.3403  0.3023  0.4380
 3225SOL     OW21136   1.781   0.091  16.699  0.3972 -0.7761 -0.1572
 3225SOL    HW121137   1.692   0.069  16.728  0.3745  0.8881  1.0742
 3225SOL    HW221138   1.770   0.169  16.646  0.8108 -2.3157 -2.4842
 3226SOL     OW21139   1.188   2.728   7.831 -0.1760 -0.2458 -0.0263
 3226SOL    HW121140   1.273   2.694   7.859  1.3225  1.6611 -2.1460
 3226SOL    HW221141   1.210   2.759   7.743 -1.0526  1.8087  0.4828
 3227SOL     OW21142   4.647   3.546   4.433  0.1277  0.0525 -0.7997
 3227SOL    HW121143   4.652   3.578   4.523  0.8624 -1.1834 -0.3892
 3227SOL    HW221144   4.704   3.469   4.432 -0.5205 -0.4403  0.9325
 3228SOL     OW21145   4.261   2.740   4.174  0.3946  0.2321 -0.4537
 3228SOL    HW121146   4.297   2.697   4.252  1.2884  1.8575  0.0281
 3228SOL    HW221147   4.189   2.796   4.203  1.4791  1.8469 -0.8590
 3229SOL     OW21148   0.529   1.327   1.688  0.3443  0.1458  0.0944
 3229SOL    HW121149   0.602   1.282   1.732  0.4111  0.9790  0.8347
 3229SOL    HW221150   0.499   1.268   1.619  2.7384 -1.1450  0.1690
 3230SOL     OW21151   1.891   4.234   7.552 -0.0295  0.4222 -0.7338
 3230SOL    HW121152   1.870   4.142   7.570  3.3089 -0.0080  0.8134
 3230SOL    HW221153   1.984   4.229   7.530 -0.0251  1.2133 -0.8811
 3231SOL     OW21154   0.984   4.232   0.759  0.0529 -0.5324  0.0093
 3231SOL    HW121155   0.937   4.303   0.717 -1.1207 -2.0289 -1.2064
 3231SOL    HW221156   0.996   4.265   0.848 -1.1525  0.1907 -0.0911
 3232SOL     OW21157   0.670   3.651  15.047 -0.1721  0.6637  0.3947
 3232SOL    HW121158   0.593   3.696  15.013  0.8144  1.2349 -1.0673
 3232SOL    HW221159   0.634   3.594  15.115 -1.5260  1.2409  0.1465
 3233SOL     OW21160   0.733   0.292   7.123 -0.2899 -0.0229  0.1986
 3233SOL    HW121161   0.759   0.205   7.152 -1.1630 -0.0726  0.8449
 3233SOL    HW221162   0.755   0.298   7.030 -0.3055  2.6246  0.3397
 3234SOL     OW21163   1.967   1.682   2.760  0.2741  0.2760 -0.0530
 3234SOL    HW121164   2.005   1.597   2.781  1.7941  0.7679 -0.8142
 3234SOL    HW221165   2.030   1.726   2.703 -1.0400 -0.2588 -1.9498
 3235SOL     OW21166   1.597   1.122   8.269 -0.1467  0.1219  0.1968
 3235SOL    HW121167   1.570   1.201   8.223 -0.4385 -0.6183 -0.9049
 3235SOL    HW221168   1.580   1.066   8.193  0.4115  1.6483 -1.0379
 3236SOL     OW21169   0.537   1.276   6.080 -0.0735 -0.1588  0.1884
 3236SOL    HW121170   0.503   1.245   5.996 -0.1781 -0.9318  0.5150
 3236SOL    HW221171   0.519   1.206   6.143  1.1460  1.0853  1.8903
 3237SOL     OW21172   0.817   1.841  16.339 -0.3962 -0.2217 -0.4728
 3237SOL    HW121173   0.893   1.793  16.307  0.6596  0.3638  1.1393
 3237SOL    HW221174   0.775   1.767  16.384  1.0504 -0.0031  1.2512
 3238SOL     OW21175   3.794   2.004   9.628 -0.3249 -0.1204 -0.7035
 3238SOL    HW121176   3.870   1.948   9.644 -0.0833  0.0411 -1.2847
 3238SOL    HW221177   3.822   2.081   9.578  0.8045 -1.0251 -1.4387
 3239SOL     OW21178   4.488   2.232  15.219 -0.0035  0.1212 -0.1565
 3239SOL    HW121179   4.464   2.200  15.132 -1.3270 -0.9026  0.5791
 3239SOL    HW221180   4.538   2.311  15.198  0.1043  0.5113  1.5303
 3240SOL     OW21181   2.023   4.661   8.755 -0.5295  0.6404  0.6947
 3240SOL    HW121182   2.006   4.576   8.797 -2.1145 -0.3892 -2.0336
 3240SOL    HW221183   1.939   4.705   8.766 -1.0661 -0.3746  0.6957
 3241SOL     OW21184   4.357   1.759   5.827 -0.1090 -0.4533  0.1819
 3241SOL    HW121185   4.287   1.823   5.816  1.3860  0.9103 -1.3900
 3241SOL    HW221186   4.322   1.707   5.900 -0.9493  2.4866  1.8447
 3242SOL     OW21187   1.940   2.009   2.401  0.4271  0.4408  0.3526
 3242SOL    HW121188   1.856   1.964   2.391  0.0281  0.5001  3.4532
 3242SOL    HW221189   1.913   2.100   2.399 -0.4945  0.1775  0.5852
 3243SOL     OW21190   4.264   3.090   9.884 -0.2729  0.1460 -0.7078
 3243SOL    HW121191   4.317   3.013   9.903 -0.5417  0.4430  1.2089
 3243SOL    HW221192   4.283   3.144   9.960 -0.4758 -1.2286  0.3232
 3244SOL     OW21193   1.026   4.488  13.244  0.1052 -0.0763 -0.5873
 3244SOL    HW121194   1.120   4.504  13.236 -0.5359  3.3975 -0.8544
 3244SOL    HW221195   1.026   4.401  13.285  0.1597 -0.3480 -1.1710
 3245SOL     OW21196   2.677   1.465   1.907  0.0009 -0.3894  0.2574
 3245SOL    HW121197   2.758   1.413   1.905  1.9050  2.5755  0.6742
 3245SOL    HW221198   2.636   1.447   1.822 -3.5413 -1.2382  2.1313
 3246SOL     OW21199   4.574   3.968  13.254 -0.0144 -0.8341 -0.3708
 3246SOL    HW121200   4.488   3.945  13.219 -0.1864 -1.4728  0.4741
 3246SOL    HW221201   4.581   4.063  13.246  0.9162 -0.9838 -1.3304
 3247SOL     OW21202   0.322   1.135   2.068 -0.2228 -0.2589 -0.5612
 3247SOL    HW121203   0.380   1.075   2.021  1.0069  0.0874  0.4998
 3247SOL    HW221204   0.372   1.156   2.147  0.4125 -0.4614 -0.9107
 3248SOL     OW21205   2.355   1.146   2.673  0.0120  0.7200 -0.3538
 3248SOL    HW121206   2.305   1.160   2.592  1.6501  0.2121 -1.4471
 3248SOL    HW221207   2.438   1.186   2.646  0.8313 -2.3239 -2.3231
 3249SOL     OW21208   1.316   2.836   8.612 -0.1904 -0.7748 -0.0327
 3249SOL    HW121209   1.284   2.749   8.590  0.8667 -0.8084 -1.4106
 3249SOL    HW221210   1.270   2.859   8.693  0.4708 -1.0681  0.4304
 3250SOL     OW21211   0.045   4.491   6.591 -0.1299  0.6064 -0.2813
 3250SOL    HW121212   0.044   4.571   6.644 -1.3423 -0.0034  0.6311
 3250SOL    HW221213   0.130   4.453   6.612 -1.1889 -1.5715  0.0255
 3251SOL     OW21214   3.092   4.526   4.563  0.2154  0.5035 -0.3230
 3251SOL    HW121215   3.120   4.448   4.516  1.2333  0.2760  0.6807
 3251SOL    HW221216   3.168   4.583   4.573  0.9116 -0.6649  1.0769
 3252SOL     OW21217   1.557   3.728   8.295  0.1042  0.0643 -0.1549
 3252SOL    HW121218   1.475   3.728   8.247 -1.3070  0.1672  2.2570
 3252SOL    HW221219   1.538   3.809   8.341  0.5140  0.5192 -0.7953
 3253SOL     OW21220   2.954   2.705   0.581 -0.3921  0.3344  0.1164
 3253SOL    HW121221   3.002   2.764   0.524  1.4123 -0.4227  0.8651
 3253SOL    HW221222   2.884   2.673   0.525  0.1551 -2.5602  1.1199
 3254SOL     OW21223   1.479   4.199   9.925 -0.6203 -0.0553  0.0042
 3254SOL    HW121224   1.542   4.170   9.860  1.4844 -0.0463  2.0021
 3254SOL    HW221225   1.410   4.133   9.924 -0.0221 -0.6547 -0.6166
 3255SOL     OW21226   2.148   2.607  14.107 -0.1261  0.4240 -0.2891
 3255SOL    HW121227   2.142   2.574  14.196 -1.3240  2.2216  0.2780
 3255SOL    HW221228   2.114   2.696  14.097 -1.0010  0.0254 -0.8934
 3256SOL     OW21229   2.620   1.045   6.072  0.1097  1.0991 -0.0837
 3256SOL    HW121230   2.558   1.103   6.028 -0.8803  0.8152  0.9636
 3256SOL    HW221231   2.556   1.016   6.136  0.7868 -2.3317 -0.9537
 3257SOL     OW21232   1.716   3.210  11.783 -0.5545  0.2228  0.7918
 3257SOL    HW121233   1.651   3.140  11.783 -1.7880  1.3533 -1.2533
 3257SOL    HW221234   1.684   3.275  11.721 -0.9430  0.1050  0.8686
 3258SOL     OW21235   3.730   3.419   7.902  0.1688  0.5076  0.1380
 3258SOL    HW121236   3.635   3.431   7.908  0.0637 -0.6407  0.8707
 3258SOL    HW221237   3.737   3.370   7.820  2.9165 -0.8886  1.2118
 3259SOL     OW21238   1.257   0.907   3.137  0.1046  0.0724 -0.1013
 3259SOL    HW121239   1.247   1.001   3.155  2.7653 -0.0790  2.1892
 3259SOL    HW221240   1.330   0.885   3.195  2.7805  1.9884 -2.7242
 3260SOL     OW21241   1.841   4.645  11.539 -0.0386  0.2302  0.1406
 3260SOL    HW121242   1.800   4.666  11.455  0.1253  2.0397  0.5265
 3260SOL    HW221243   1.931   4.660  11.510  0.2721  0.4267  1.2197
 3261SOL     OW21244   3.443   3.233   4.653  0.0066 -0.2466  0.4780
 3261SOL    HW121245   3.484   3.183   4.582  3.0341  1.4057  1.0531
 3261SOL    HW221246   3.359   3.189   4.654  0.7458 -1.6541  0.6974
 3262SOL     OW21247   1.422   2.081   2.268  0.4774 -0.3925 -0.1821
 3262SOL    HW121248   1.418   2.144   2.340 -0.0486  0.0819 -0.6315
 3262SOL    HW221249   1.496   2.104   2.212  1.2347 -0.8838  0.6147
 3263SOL     OW21250   1.388   2.901   3.196 -0.2868  0.4622  0.1252
 3263SOL    HW121251   1.366   2.858   3.278  1.5079 -0.6634  0.0206
 3263SOL    HW221252   1.368   2.832   3.132 -1.9090  0.4560  0.6298
 3264SOL     OW21253   0.719   2.895   2.777  0.2919 -0.0537 -0.5044
 3264SOL    HW121254   0.719   2.953   2.701 -0.0612  1.9127  1.0116
 3264SOL    HW221255   0.772   2.943   2.841  0.5694 -2.1378  0.8342
 3265SOL     OW21256   3.365   2.607   0.271 -0.5041  0.6951  0.0089
 3265SOL    HW121257   3.365   2.682   0.212  0.8053  0.5047 -0.2413
 3265SOL    HW221258   3.424   2.554   0.217 -0.2532  0.9269  0.0538
 3266SOL     OW21259   1.592   1.279   7.281 -0.2070 -0.6772 -0.2021
 3266SOL    HW121260   1.517   1.329   7.312 -1.1175 -3.4949  2.1751
 3266SOL    HW221261   1.560   1.189   7.276 -2.6390  0.1361  0.5191
 3267SOL     OW21262   2.581   4.378  15.217  0.5257 -0.0624  0.2190
 3267SOL    HW121263   2.589   4.353  15.309 -2.9178  1.1088  0.8212
 3267SOL    HW221264   2.653   4.325  15.181  1.4595  0.6148  1.0820
 3268SOL     OW21265   2.281   4.198   5.799 -0.4644 -0.1920 -0.1218
 3268SOL    HW121266   2.266   4.129   5.863  3.8491 -1.9031 -0.9412
 3268SOL    HW221267   2.210   4.180   5.738 -0.9841  0.8302  0.1736
 3269SOL     OW21268   0.160   2.012  11.858  0.5758 -0.1644  0.2687
 3269SOL    HW121269   0.158   1.971  11.945 -1.6925 -0.2208  0.1796
 3269SOL    HW221270   0.240   1.974  11.821  1.2946  1.6250 -0.0208
 3270SOL     OW21271   0.215   0.520  14.440  0.1828 -0.1128  0.4335
 3270SOL    HW121272   0.214   0.500  14.347 -1.3086  1.0393  0.2000
 3270SOL    HW221273   0.156   0.596  14.440 -0.2909 -0.4987 -1.6264
 3271SOL     OW21274   3.930   1.578   4.408  0.0664 -0.1901  0.5188
 3271SOL    HW121275   3.893   1.556   4.493  2.7311  0.5448  1.8714
 3271SOL    HW221276   3.961   1.665   4.436  0.6565 -0.1297 -0.3259
 3272SOL     OW21277   3.809   2.826   6.869  0.0439 -0.0756 -0.0977
 3272SOL    HW121278   3.731   2.873   6.899 -0.7182 -1.0261 -0.6122
 3272SOL    HW221279   3.868   2.823   6.945  2.7504 -1.2847 -2.2739
 3273SOL     OW21280   3.809   0.913   9.582 -0.6893  0.0590  0.2663
 3273SOL    HW121281   3.844   0.968   9.511  1.0648  0.6042  1.5394
 3273SOL    HW221282   3.863   0.944   9.655 -0.3765 -2.8351  1.2523
 3274SOL     OW21283   3.170   0.047   9.047  0.4457  0.4184  0.4708
 3274SOL    HW121284   3.232   4.711   9.012 -1.5091 -0.5013 -1.3704
 3274SOL    HW221285   3.175   0.121   8.986 -1.6420  0.7865  0.7407
 3275SOL     OW21286   0.661   0.821   1.420  0.0007 -0.0938  0.0938
 3275SOL    HW121287   0.588   0.827   1.482  1.1421 -1.1925  1.5276
 3275SOL    HW221288   0.734   0.809   1.480  0.4500  0.7390 -0.2829
 3276SOL     OW21289   1.711   0.989   3.206 -0.3426 -0.2637 -0.2814
 3276SOL    HW121290   1.694   0.994   3.300  1.1261 -0.3499 -0.0194
 3276SOL    HW221291   1.660   1.057   3.161 -0.4159 -0.9276 -1.1929
 3277SOL     OW21292   1.644   1.589  12.653  1.2273 -0.2433 -0.4319
 3277SOL    HW121293   1.606   1.504  12.630  1.2688  0.1209 -1.8762
 3277SOL    HW221294   1.708   1.553  12.714 -0.0342  0.5730  1.3471
 3278SOL     OW21295   3.180   2.877   2.571  0.1185  0.3236  0.6948
 3278SOL    HW121296   3.086   2.890   2.582 -0.0739  0.2355 -0.8417
 3278SOL    HW221297   3.203   2.906   2.660 -0.0834 -0.2687  0.9371
 3279SOL     OW21298   0.795   2.914  16.152 -0.3860 -0.2674 -0.5835
 3279SOL    HW121299   0.864   2.849  16.160  0.5440  0.6156 -1.4522
 3279SOL    HW221300   0.733   2.869  16.210  1.4698 -0.9299  0.8932
 3280SOL     OW21301   0.688   4.137   0.662 -0.2632  0.4570 -0.7173
 3280SOL    HW121302   0.703   4.139   0.756  3.3666 -2.7388 -1.2179
 3280SOL    HW221303   0.648   4.224   0.667  2.0563  1.5575 -1.3050
 3281SOL     OW21304   0.097   0.917   2.437  0.1115 -0.3738  0.4329
 3281SOL    HW121305   0.179   0.955   2.469 -1.5220  1.5538  2.2497
 3281SOL    HW221306   0.061   0.893   2.522  2.5931  0.2323  1.6498
 3282SOL     OW21307   1.668   4.285   1.351 -0.1817 -1.2335 -0.2132
 3282SOL    HW121308   1.593   4.319   1.400  1.4861  1.5222  0.3825
 3282SOL    HW221309   1.723   4.234   1.410 -1.0809 -0.8086  1.0011
 3283SOL     OW21310   3.068   3.444   5.372 -0.0341 -0.2604  0.7163
 3283SOL    HW121311   3.073   3.468   5.280  1.0547  0.5737  0.9909
 3283SOL    HW221312   2.981   3.478   5.395  0.3190  1.5705 -0.7119
 3284SOL     OW21313   1.004   2.732   8.907  0.1993 -0.4635 -0.5469
 3284SOL    HW121314   1.005   2.644   8.944  0.9678  0.7134  2.2244
 3284SOL    HW221315   1.057   2.771   8.977 -0.6986 -0.0699 -0.0850
 3285SOL     OW21316   4.642   1.476  11.346 -0.4210 -0.7623  0.4458
 3285SOL    HW121317   4.642   1.391  11.303 -0.3642 -1.1689  1.2482
 3285SOL    HW221318   4.720   1.516  11.306 -1.3366 -0.2692 -0.8406
 3286SOL     OW21319   0.572   2.277   9.429  0.7706  0.6417  0.5101
 3286SOL    HW121320   0.608   2.348   9.377  5.5162 -1.6254  0.6637
 3286SOL    HW221321   0.553   2.319   9.513  0.2386 -0.0055  0.7149
 3287SOL     OW21322   2.270   1.770   8.276  0.2585 -0.1736 -0.4234
 3287SOL    HW121323   2.342   1.829   8.250 -1.3320  1.5081 -1.0153
 3287SOL    HW221324   2.227   1.815   8.349  1.3059  0.1353  0.0072
 3288SOL     OW21325   1.586   1.055  14.230  0.1080  0.9142 -0.0316
 3288SOL    HW121326   1.620   1.076  14.142 -1.9113  1.9735 -0.5612
 3288SOL    HW221327   1.664   1.061  14.284  1.9033 -1.7426 -2.3074
 3289SOL     OW21328   1.280   4.553   3.468  0.0821  0.4774  0.1893
 3289SOL    HW121329   1.258   4.463   3.493  0.1360 -0.2111 -2.2426
 3289SOL    HW221330   1.205   4.563   3.408  0.9809 -1.5043 -1.2810
 3290SOL     OW21331   2.047   2.481   7.444 -0.1824 -0.0037 -0.1228
 3290SOL    HW121332   1.977   2.545   7.445  0.7425  1.0165 -0.4208
 3290SOL    HW221333   2.071   2.499   7.353 -1.4976  0.6334 -0.3388
 3291SOL     OW21334   4.268   1.190  16.715  0.1222  0.4697  0.4368
 3291SOL    HW121335   4.271   1.249  16.639  1.1448  1.2680  1.0944
 3291SOL    HW221336   4.337   1.125  16.703 -0.0857  0.2362  0.5110
 3292SOL     OW21337   3.381   1.422   8.143  0.4592  0.2428 -0.2323
 3292SOL    HW121338   3.414   1.512   8.153 -1.4894  0.7316  1.8252
 3292SOL    HW221339   3.292   1.446   8.117  0.1550 -1.1657 -0.4802
 3293SOL     OW21340   4.304   0.478   8.491  0.0933  0.2604 -0.2466
 3293SOL    HW121341   4.366   0.433   8.434 -0.5243 -1.3989  0.3888
 3293SOL    HW221342   4.363   0.503   8.561 -3.0025 -1.4008  2.9598
 3294SOL     OW21343   3.009   2.020   7.626 -0.4248 -0.2103  0.0025
 3294SOL    HW121344   2.943   2.025   7.557  0.6774  0.8133 -0.9822
 3294SOL    HW221345   3.019   2.112   7.652 -1.0050 -0.6649  1.8288
 3295SOL     OW21346   0.312   0.039   1.404  0.3567 -0.7975  0.0966
 3295SOL    HW121347   0.257   4.693   1.380 -0.5839 -0.4201  1.0927
 3295SOL    HW221348   0.279   0.111   1.350  2.5619 -0.4528 -0.7670
 3296SOL     OW21349   0.141   1.423   4.484 -0.1563  0.4475 -0.4448
 3296SOL    HW121350   0.171   1.480   4.556  0.4282 -0.8125  0.2966
 3296SOL    HW221351   0.059   1.472   4.473 -0.0785  1.0021  1.4664
 3297SOL     OW21352   3.391   2.611  13.376 -0.2736  0.1130 -0.2206
 3297SOL    HW121353   3.460   2.598  13.441  0.3457  3.3299 -0.2249
 3297SOL    HW221354   3.325   2.556  13.418  1.4996  0.1584  2.6822
 3298SOL     OW21355   1.593   1.333   1.289 -0.2581 -0.5665 -0.3599
 3298SOL    HW121356   1.541   1.313   1.210 -1.2795  1.2597 -0.1495
 3298SOL    HW221357   1.520   1.337   1.350  0.0695 -0.6079  0.0321
 3299SOL     OW21358   0.217   4.097   5.216 -0.0723 -0.0381 -0.1481
 3299SOL    HW121359   0.164   4.073   5.293 -1.5883  0.3770 -1.0533
 3299SOL    HW221360   0.306   4.106   5.248 -1.0508 -2.6797  3.2707
 3300SOL     OW21361   0.841   1.533   7.355  0.0752  0.1691 -0.2035
 3300SOL    HW121362   0.772   1.580   7.401  0.8341  2.0097 -0.9231
 3300SOL    HW221363   0.904   1.606   7.351 -0.8770  1.0593  1.1657
 3301SOL     OW21364   1.465   0.082   7.298 -0.4552 -0.2321  0.0937
 3301SOL    HW121365   1.521   0.048   7.228 -1.3020  2.1258 -1.7425
 3301SOL    HW221366   1.506   0.029   7.366  0.0379  1.0795  0.8228
 3302SOL     OW21367   0.762   1.346   7.182  0.6064 -0.2091 -0.2155
 3302SOL    HW121368   0.792   1.415   7.242  0.3609  0.3540 -0.7377
 3302SOL    HW221369   0.684   1.382   7.139 -0.5271 -1.8279  0.4674
 3303SOL     OW21370   2.534   1.778   3.716  0.1218  0.5315  0.7535
 3303SOL    HW121371   2.444   1.748   3.731  0.6361  0.5117  3.9787
 3303SOL    HW221372   2.582   1.697   3.729  0.5511  0.3490 -2.0668
 3304SOL     OW21373   1.725   0.059   7.970 -0.8818 -0.1238 -0.3079
 3304SOL    HW121374   1.674   0.129   8.010 -2.0587 -0.2346 -1.6078
 3304SOL    HW221375   1.814   0.052   8.006 -1.8832 -1.9632  1.8104
 3305SOL     OW21376   2.643   0.786  16.053  0.8562  0.6355  0.1683
 3305SOL    HW121377   2.697   0.729  15.998  0.0100  0.1938 -0.1969
 3305SOL    HW221378   2.559   0.771  16.011  0.0933 -0.0839  1.9727
 3306SOL     OW21379   0.567   2.622  12.426  0.5562 -0.0598  0.6791
 3306SOL    HW121380   0.502   2.563  12.466 -1.1545  0.4937 -1.2787
 3306SOL    HW221381   0.639   2.560  12.436  1.9190  1.2640 -0.8879
 3307SOL     OW21382   0.295   2.578   2.534  0.0880  0.0228 -0.0901
 3307SOL    HW121383   0.266   2.614   2.451  1.3946  0.3893 -0.3956
 3307SOL    HW221384   0.210   2.540   2.556 -0.5875  1.2016 -0.6631
 3308SOL     OW21385   3.566   3.467  17.571  0.1164 -0.2446  0.5654
 3308SOL    HW121386   3.661   3.469  17.572  0.1007  1.5491 -0.6059
 3308SOL    HW221387   3.540   3.559  17.565 -1.7874 -0.8092 -0.0511
 3309SOL     OW21388   3.416   1.792  16.007 -0.3379 -0.2922 -0.4778
 3309SOL    HW121389   3.448   1.702  16.009  0.8198  0.0968 -2.1890
 3309SOL    HW221390   3.498   1.840  16.001 -0.2925 -0.2347  0.5254
 3310SOL     OW21391   4.046   2.940   8.077  0.0729 -0.3528 -0.0401
 3310SOL    HW121392   3.971   2.950   8.018 -1.4449  0.8872  2.1208
 3310SOL    HW221393   4.091   3.025   8.075 -0.5715  0.0036  0.5002
 3311SOL     OW21394   4.379   2.938  13.953  0.6442 -0.1117  0.3817
 3311SOL    HW121395   4.455   2.919  14.007  1.4031  1.0704 -0.2707
 3311SOL    HW221396   4.361   3.029  13.977 -2.1401 -0.5672 -0.0266
 3312SOL     OW21397   3.593   1.294   7.500 -0.2147 -0.4945 -0.6268
 3312SOL    HW121398   3.546   1.377   7.510  0.1520 -0.4274  0.5229
 3312SOL    HW221399   3.628   1.312   7.414 -1.3398 -1.8468 -1.3798
 3313SOL     OW21400   0.462   1.203   8.240 -0.2477 -0.2556  0.1997
 3313SOL    HW121401   0.487   1.208   8.333  1.3162 -2.7964 -0.0983
 3313SOL    HW221402   0.499   1.120   8.210 -0.3263  1.3982 -4.4512
 3314SOL     OW21403   0.882   3.134  12.648 -0.3260 -0.1661  0.5888
 3314SOL    HW121404   0.807   3.095  12.603 -0.1931  0.2839 -0.0188
 3314SOL    HW221405   0.835   3.210  12.683 -0.7042 -0.1360  0.0146
 3315SOL     OW21406   0.286   3.985   4.462 -0.3229  0.4595  0.3360
 3315SOL    HW121407   0.230   4.030   4.525  0.0442 -0.7027  1.4768
 3315SOL    HW221408   0.233   3.919   4.418 -0.2034 -0.4942  1.6448
 3316SOL     OW21409   3.272   1.703   0.406  0.3846 -0.1497  0.0985
 3316SOL    HW121410   3.319   1.736   0.329 -0.5764 -0.2219 -0.5204
 3316SOL    HW221411   3.351   1.681   0.455 -0.5179 -2.3173  0.5793
 3317SOL     OW21412   1.788   2.298  15.500 -0.1146  0.4028 -0.2017
 3317SOL    HW121413   1.861   2.330  15.447  0.3332 -1.1194 -0.5095
 3317SOL    HW221414   1.717   2.268  15.443  0.6726 -0.8309 -0.5331
 3318SOL     OW21415   1.967   0.838   4.150 -0.0038 -0.1667 -0.0557
 3318SOL    HW121416   1.879   0.804   4.169  0.9755 -1.8449  1.4918
 3318SOL    HW221417   1.962   0.928   4.117 -3.1641  0.7700  2.9721
 3319SOL     OW21418   1.078   1.936  12.429  0.5721 -0.2337 -0.2431
 3319SOL    HW121419   1.158   1.896  12.394 -0.1167 -1.8346  0.0105
 3319SOL    HW221420   1.010   1.875  12.401  1.5928 -0.0847 -3.1302
 3320SOL     OW21421   2.850   4.526   3.900 -0.3023 -0.3019 -0.1964
 3320SOL    HW121422   2.902   4.451   3.871 -1.0061 -0.8012 -0.1771
 3320SOL    HW221423   2.904   4.570   3.965 -0.5655 -0.6300  0.2484
 3321SOL     OW21424   3.289   1.660   2.199 -0.2086  0.5510 -0.1720
 3321SOL    HW121425   3.270   1.632   2.109  0.8550  3.6762 -1.3908
 3321SOL    HW221426   3.378   1.695   2.197  0.0670 -0.0531  2.7059
 3322SOL     OW21427   0.049   2.212   9.397 -0.2902  0.7003 -0.1600
 3322SOL    HW121428   0.104   2.268   9.342  0.6867 -0.7306 -0.6488
 3322SOL    HW221429   4.701   2.268   9.415  0.6371  1.7654  0.3956
 3323SOL     OW21430   2.094   3.432  12.821 -0.0823 -0.4998  0.1878
 3323SOL    HW121431   2.140   3.435  12.737 -2.4871  0.7239 -1.1173
 3323SOL    HW221432   2.093   3.527  12.836 -1.3239 -0.6988  1.3762
 3324SOL     OW21433   3.537   1.136   3.617  0.1518 -0.3101 -0.2843
 3324SOL    HW121434   3.498   1.214   3.577 -1.7054 -1.3584 -0.5136
 3324SOL    HW221435   3.544   1.082   3.539  0.6764 -0.8165  0.1132
 3325SOL     OW21436   2.826   0.780   9.561 -0.4330 -0.4488  0.4510
 3325SOL    HW121437   2.841   0.852   9.499  0.7587  1.1883  2.6838
 3325SOL    HW221438   2.754   0.729   9.522 -0.0631 -2.4293  2.3945
 3326SOL     OW21439   0.903   3.499   4.432  0.1908 -0.1840 -0.2545
 3326SOL    HW121440   0.918   3.594   4.431 -1.8037  0.1344  0.2595
 3326SOL    HW221441   0.809   3.502   4.449  0.3806 -0.0920  0.7871
 3327SOL     OW21442   0.933   1.115   5.103 -0.3484  0.0140 -0.2286
 3327SOL    HW121443   0.877   1.187   5.076  0.3213  0.6569  0.0989
 3327SOL    HW221444   0.869   1.082   5.166  0.6601 -1.2209  0.1547
 3328SOL     OW21445   0.357   2.539  16.335  0.2157  0.0756 -0.5084
 3328SOL    HW121446   0.340   2.624  16.295 -2.4775  0.6650  1.8870
 3328SOL    HW221447   0.445   2.523  16.300 -0.3396  0.0621 -1.9111
 3329SOL     OW21448   1.824   4.454  11.734  0.3579  0.4102 -0.9590
 3329SOL    HW121449   1.794   4.539  11.700 -0.8816  0.8034  1.1456
 3329SOL    HW221450   1.818   4.469  11.828 -0.1615  0.2726 -0.9690
 3330SOL     OW21451   0.699   0.524   7.261  0.1279 -0.4702  0.1367
 3330SOL    HW121452   0.793   0.523   7.241 -0.1219 -2.3974 -0.8214
 3330SOL    HW221453   0.685   0.431   7.248 -2.3600 -0.0016 -0.5277
 3331SOL     OW21454   4.340   1.940   5.368  0.0439  0.2467  0.1050
 3331SOL    HW121455   4.253   1.917   5.337 -0.0919  0.7444  0.1280
 3331SOL    HW221456   4.363   1.873   5.432 -1.1240 -0.1325  0.1172
 3332SOL     OW21457   3.104   3.214  15.408  0.2401 -0.2715 -0.1580
 3332SOL    HW121458   3.197   3.230  15.394  0.3403 -1.9286 -1.3923
 3332SOL    HW221459   3.075   3.219  15.318 -1.8155 -0.6571  0.4790
 3333SOL     OW21460   3.430   2.492   5.096  0.1959 -0.1414  0.1256
 3333SOL    HW121461   3.440   2.527   5.185 -3.1247 -2.3946  1.3731
 3333SOL    HW221462   3.351   2.438   5.098 -0.4436  0.7665 -0.3843
 3334SOL     OW21463   3.352   1.083   6.241  0.1629 -0.0362 -0.2754
 3334SOL    HW121464   3.369   1.166   6.286 -2.0006  0.5613 -0.5620
 3334SOL    HW221465   3.270   1.050   6.279 -1.7439  3.9517 -0.9578
 3335SOL     OW21466   1.000   2.779  16.251  0.2255 -0.4426  1.3743
 3335SOL    HW121467   1.081   2.824  16.272  0.3214  0.8200 -1.7970
 3335SOL    HW221468   0.962   2.771  16.339  0.2551 -0.2323  1.4066
 3336SOL     OW21469   3.940   1.878  16.324 -0.2944 -0.3108  0.3511
 3336SOL    HW121470   3.882   1.877  16.248 -0.1508 -1.5848  0.2620
 3336SOL    HW221471   3.895   1.936  16.386 -0.8646  1.2362 -1.5380
 3337SOL     OW21472   4.705   0.913  12.916  0.7239 -0.2112 -0.2289
 3337SOL    HW121473   4.680   0.894  12.826 -0.1927  1.2089 -0.2682
 3337SOL    HW221474   4.687   1.007  12.912  0.7455 -0.2822 -1.9200
 3338SOL     OW21475   3.846   4.641   4.600 -0.0602 -0.1667 -0.1148
 3338SOL    HW121476   3.904   4.565   4.609 -0.7178 -0.7708 -0.9736
 3338SOL    HW221477   3.914   4.707   4.585  1.6229 -1.9235 -0.2381
 3339SOL     OW21478   3.942   3.211   0.725 -0.6078  0.1774  0.1962
 3339SOL    HW121479   3.972   3.139   0.669  0.1428 -1.8616  3.2246
 3339SOL    HW221480   4.000   3.285   0.708 -1.4476  0.9053  0.4912
 3340SOL     OW21481   1.301   3.332   7.463 -0.1613 -0.3849 -0.1541
 3340SOL    HW121482   1.294   3.426   7.446  0.1129 -0.0701  1.4418
 3340SOL    HW221483   1.247   3.316   7.541  0.8701 -0.8857  0.4616
 3341SOL     OW21484   2.770   0.893   3.920 -0.7220 -0.2535 -0.6186
 3341SOL    HW121485   2.708   0.939   3.977  0.8473 -0.2111  1.0450
 3341SOL    HW221486   2.722   0.819   3.882 -1.9929  0.5821 -0.6619
 3342SOL     OW21487   1.686   2.092   2.988  0.0570  0.0180  0.4233
 3342SOL    HW121488   1.698   2.187   2.999 -0.1794  0.0934  0.0076
 3342SOL    HW221489   1.768   2.062   2.948 -0.4919  1.5981 -1.8780
 3343SOL     OW21490   2.561   1.519   8.598  0.3002  0.1794  0.4794
 3343SOL    HW121491   2.643   1.487   8.636  0.9595 -1.5096 -2.3336
 3343SOL    HW221492   2.558   1.612   8.623  0.4228  0.0145  1.1019
 3344SOL     OW21493   0.388   2.139   7.212  0.0397  0.4483 -0.1415
 3344SOL    HW121494   0.322   2.099   7.155 -0.0747 -2.0032  1.7088
 3344SOL    HW221495   0.467   2.088   7.197 -0.6096  0.0742 -2.2169
 3345SOL     OW21496   3.722   1.916   3.525 -0.1445 -0.1171 -0.1541
 3345SOL    HW121497   3.813   1.944   3.522  0.0590 -0.6834  0.6819
 3345SOL    HW221498   3.680   1.998   3.498 -2.3497 -0.2975  2.7609
 3346SOL     OW21499   4.630   1.972   3.737  0.5217  0.1719  0.9579
 3346SOL    HW121500   4.539   1.998   3.752  0.3577  1.3988 -2.1588
 3346SOL    HW221501   4.648   1.997   3.647  0.6741 -0.9965  0.6601
 3347SOL     OW21502   2.658   3.306   6.814 -0.2181 -0.3090  0.1494
 3347SOL    HW121503   2.744   3.346   6.811 -0.8767  1.3068  3.1978
 3347SOL    HW221504   2.607   3.384   6.791  1.0493  0.2815 -0.6287
 3348SOL     OW21505   0.714   4.083  11.263 -0.2866 -0.3251 -0.2293
 3348SOL    HW121506   0.792   4.115  11.217 -0.6702  1.6843  0.5127
 3348SOL    HW221507   0.754   4.036  11.335 -2.2708  0.5672  1.4654
 3349SOL     OW21508   1.466   1.017   7.304 -0.1553  0.5253 -0.0877
 3349SOL    HW121509   1.371   1.017   7.293 -0.2911 -0.3783  1.2395
 3349SOL    HW221510   1.476   0.932   7.347  0.8522  1.0513  0.6976
 3350SOL     OW21511   0.237   1.813   6.516 -0.2750 -0.6698  0.4736
 3350SOL    HW121512   0.171   1.816   6.585  0.2991  1.3867  0.9319
 3350SOL    HW221513   0.278   1.733   6.550 -1.5993 -1.5092  0.0791
 3351SOL     OW21514   3.527   0.210   1.081 -0.3600  0.3733  0.2171
 3351SOL    HW121515   3.514   0.304   1.069  1.6319  0.5811 -0.3236
 3351SOL    HW221516   3.496   0.175   0.998 -1.0186  0.9776  0.2036
 3352SOL     OW21517   1.242   0.490   6.275 -0.1890  0.1187 -0.0380
 3352SOL    HW121518   1.296   0.423   6.234  0.6639 -1.2974  3.3406
 3352SOL    HW221519   1.262   0.488   6.369  0.0139 -1.5640 -0.1071
 3353SOL     OW21520   2.251   1.974   4.900  0.2137 -0.1884 -0.1950
 3353SOL    HW121521   2.229   1.891   4.857 -3.7861  0.6625  0.1594
 3353SOL    HW221522   2.169   1.988   4.948 -0.6736 -2.3803 -1.0826
 3354SOL     OW21523   4.596   1.574   1.331  0.1365  0.0155  0.9926
 3354SOL    HW121524   4.660   1.627   1.284  2.1053 -1.3409  2.1755
 3354SOL    HW221525   4.525   1.573   1.267  0.9134 -0.9819  0.1459
 3355SOL     OW21526   0.671   2.810  14.757 -0.4400 -0.6692  0.4061
 3355SOL    HW121527   0.587   2.789  14.716 -0.4725 -2.8383  1.5673
 3355SOL    HW221528   0.740   2.799  14.691  1.9439  0.5180  2.7238
 3356SOL     OW21529   1.883   2.984   8.783  0.3552  0.1942 -0.1806
 3356SOL    HW121530   1.870   2.989   8.689 -2.4395 -1.3191  0.1395
 3356SOL    HW221531   1.940   2.909   8.804 -0.1749  0.5233  2.5390
 3357SOL     OW21532   3.497   4.404   6.231  0.5686 -0.2250  0.9580
 3357SOL    HW121533   3.498   4.334   6.165 -2.7477 -0.9210  1.6397
 3357SOL    HW221534   3.424   4.457   6.198  0.6677 -0.8015 -0.2047
 3358SOL     OW21535   0.527   1.314   8.000  0.1102  0.1440 -0.2742
 3358SOL    HW121536   0.447   1.365   7.992 -1.1428 -1.9229 -0.7868
 3358SOL    HW221537   0.513   1.291   8.092  1.7827  2.7558  0.6564
 3359SOL     OW21538   4.692   3.183   5.007  0.4112 -0.4839  0.6447
 3359SOL    HW121539   4.691   3.134   5.090  1.2300 -1.7955 -0.1160
 3359SOL    HW221540   0.055   3.178   4.977  0.0646 -0.1176 -0.4427
 3360SOL     OW21541   0.984   3.379  16.021  0.3368 -0.2401 -0.0673
 3360SOL    HW121542   1.048   3.337  16.079 -2.9235 -0.9361  2.9809
 3360SOL    HW221543   0.909   3.324  16.040 -0.4958  0.4186 -1.4628
 3361SOL     OW21544   0.213   0.100  16.124  0.3587 -0.0105  0.2950
 3361SOL    HW121545   0.256   0.170  16.075  0.5602  0.6834  1.4767
 3361SOL    HW221546   0.162   0.064  16.051  3.4501  0.1233 -1.9501
 3362SOL     OW21547   3.956   2.302   3.703  0.1243  0.0752  0.2232
 3362SOL    HW121548   3.999   2.341   3.779  2.8196 -1.0282 -0.7200
 3362SOL    HW221549   3.905   2.232   3.743  0.4869  1.0694  2.4249
 3363SOL     OW21550   0.587   0.025   0.984 -0.0980 -0.0366 -0.1682
 3363SOL    HW121551   0.501   0.043   1.023  1.0361  0.6888  1.9963
 3363SOL    HW221552   0.631   0.110   0.980  0.0197 -0.0667  0.5468
 3364SOL     OW21553   3.630   2.686   4.975 -0.0172  0.5793 -0.6748
 3364SOL    HW121554   3.647   2.645   4.891 -0.8625 -2.9461  0.8595
 3364SOL    HW221555   3.560   2.627   5.003 -0.0260 -0.1008 -2.1831
 3365SOL     OW21556   0.600   3.845   5.702 -0.2877  0.3168  0.2330
 3365SOL    HW121557   0.692   3.842   5.673  0.0709  2.7335  1.0932
 3365SOL    HW221558   0.576   3.753   5.694  0.3639  0.4403 -3.3208
 3366SOL     OW21559   0.387   3.526   0.885 -0.2647  0.0566 -0.3497
 3366SOL    HW121560   0.360   3.448   0.837 -2.0927  0.7613 -0.5048
 3366SOL    HW221561   0.416   3.491   0.969 -2.1552 -0.6178  0.0365
 3367SOL     OW21562   1.390   1.852   5.938  0.3577 -0.4308 -0.1726
 3367SOL    HW121563   1.354   1.860   6.026 -2.1098 -0.5848 -1.1589
 3367SOL    HW221564   1.355   1.933   5.899 -0.7049  0.7429  3.2344
 3368SOL     OW21565   0.233   1.310   4.935  0.1340  0.0691  0.2323
 3368SOL    HW121566   0.170   1.247   4.972 -0.2810  0.6257  0.4740
 3368SOL    HW221567   0.243   1.280   4.845  2.5039  2.2871 -0.2186
 3369SOL     OW21568   4.652   1.348   8.044 -0.6244  0.2141  0.1918
 3369SOL    HW121569   4.704   1.417   8.003  2.8547 -1.9247  0.9660
 3369SOL    HW221570   4.577   1.328   7.989  0.4826  1.8178 -1.8939
 3370SOL     OW21571   2.746   0.054   6.067 -0.3163  0.0903 -0.4129
 3370SOL    HW121572   2.721   4.702   6.114  0.7644 -0.3478 -0.5881
 3370SOL    HW221573   2.659   0.074   6.032 -1.0468 -0.1559  1.2458
 3371SOL     OW21574   4.398   0.676   7.807  0.5840 -0.7283  0.6227
 3371SOL    HW121575   4.328   0.641   7.752  1.4184 -0.5340 -0.5406
 3371SOL    HW221576   4.380   0.634   7.891 -0.9266  0.8984  1.1127
 3372SOL     OW21577   4.581   1.084  13.843 -0.3078 -0.4071  0.1545
 3372SOL    HW121578   4.675   1.100  13.844 -0.4008  0.0693  2.0783
 3372SOL    HW221579   4.571   1.035  13.924  1.2619 -0.1603  0.4922
 3373SOL     OW21580   2.528   3.239   4.714  0.0878  0.3077  0.0890
 3373SOL    HW121581   2.547   3.145   4.713 -0.4832  0.1730  1.9848
 3373SOL    HW221582   2.483   3.247   4.630 -0.5724  0.7839  0.4940
 3374SOL     OW21583   4.013   0.558   7.049 -0.3485 -0.8061  0.3583
 3374SOL    HW121584   4.037   0.575   6.957  0.6584 -0.7455  0.6337
 3374SOL    HW221585   4.056   0.628   7.098 -0.4074 -0.9737  0.6481
 3375SOL     OW21586   1.968   4.054   2.396  0.1428  0.3317  0.2118
 3375SOL    HW121587   1.997   4.121   2.333  2.3109  0.4047  1.2854
 3375SOL    HW221588   1.875   4.065   2.380 -0.3359  1.9500  3.9993
 3376SOL     OW21589   2.631   0.679   3.796 -0.5694 -0.3962  0.4483
 3376SOL    HW121590   2.611   0.752   3.737  0.8053 -0.0526  0.4133
 3376SOL    HW221591   2.550   0.660   3.844 -1.2574  0.0953 -0.5034
 3377SOL     OW21592   0.108   2.042   8.692  0.0622 -0.2314  0.0542
 3377SOL    HW121593   0.189   2.083   8.662 -1.3218  2.5576  0.1177
 3377SOL    HW221594   0.076   2.115   8.744 -0.7685 -0.2116 -0.4814
 3378SOL     OW21595   1.064   0.559  17.698 -0.3922 -0.0947 -0.6192
 3378SOL    HW121596   1.003   0.517   0.048  0.2866 -0.1409  0.0353
 3378SOL    HW221597   1.130   0.491  17.684  0.8216  0.8074  0.6725
 3379SOL     OW21598   3.383   1.566   5.031  0.4235 -0.7213 -0.4004
 3379SOL    HW121599   3.308   1.550   5.089  0.1642  0.7417 -0.3325
 3379SOL    HW221600   3.434   1.622   5.088 -0.0371 -1.1013  0.3863
 3380SOL     OW21601   1.060   3.553   7.916 -0.2589 -0.2813  0.1010
 3380SOL    HW121602   1.046   3.537   8.010 -0.4734  1.3386  0.3431
 3380SOL    HW221603   1.121   3.627   7.922  0.3977 -0.8353  0.2949
 3381SOL     OW21604   0.315   4.034   0.677  0.2525  0.2903 -0.5331
 3381SOL    HW121605   0.271   4.109   0.715  0.5032 -0.6824  1.6558
 3381SOL    HW221606   0.238   3.980   0.658 -0.8696  0.6554  3.1603
 3382SOL     OW21607   1.208   0.361   1.936  0.1432  0.1540 -0.2428
 3382SOL    HW121608   1.127   0.352   1.886 -0.2706  2.5037 -0.0026
 3382SOL    HW221609   1.254   0.280   1.912  0.6894  0.1021  0.9813
 3383SOL     OW21610   3.405   2.117   0.827  0.6205 -0.7465  0.1597
 3383SOL    HW121611   3.378   2.026   0.841  3.1808 -1.5043  0.1629
 3383SOL    HW221612   3.358   2.130   0.745 -0.9308  0.4174  1.2380
 3384SOL     OW21613   0.917   0.163   7.599 -0.0294  0.0198 -0.1572
 3384SOL    HW121614   0.830   0.125   7.585  0.1415 -0.3345 -0.2508
 3384SOL    HW221615   0.901   0.251   7.633  1.5745  0.7995 -1.4391
 3385SOL     OW21616   0.411   1.456   2.291 -0.3561  0.1675  0.6888
 3385SOL    HW121617   0.425   1.534   2.345  3.2924 -0.7307  1.0334
 3385SOL    HW221618   0.464   1.483   2.215 -1.1206  1.6539  0.6868
 3386SOL     OW21619   2.189   3.799   5.583 -0.3366  0.4253  0.4008
 3386SOL    HW121620   2.142   3.874   5.547  1.9951  0.1878 -3.1580
 3386SOL    HW221621   2.165   3.815   5.674  0.1016  1.5683  0.3169
 3387SOL     OW21622   1.965   2.149   0.986 -0.1655  0.0555  0.0678
 3387SOL    HW121623   1.987   2.242   0.996 -0.9022  0.0042  2.1227
 3387SOL    HW221624   1.896   2.153   0.920 -0.0237  0.0481 -0.0827
 3388SOL     OW21625   0.248   0.657   8.344 -0.1155  1.2964 -0.1564
 3388SOL    HW121626   0.169   0.664   8.291 -1.1743 -0.3330  1.2097
 3388SOL    HW221627   0.305   0.725   8.306  0.6815 -0.3253 -1.8657
 3389SOL     OW21628   1.546   2.827   4.739  0.4692  0.1571  0.4180
 3389SOL    HW121629   1.459   2.865   4.724  0.0256 -0.9126  0.2837
 3389SOL    HW221630   1.539   2.743   4.694 -3.4666  1.4580 -1.4119
 3390SOL     OW21631   0.130   3.683   7.969  0.0923  0.0440 -0.1364
 3390SOL    HW121632   0.087   3.597   7.967  0.1752 -0.0537  1.9531
 3390SOL    HW221633   0.088   3.726   8.043  1.9395  2.1661 -0.3401
 3391SOL     OW21634   2.158   0.404  10.314 -0.1613 -0.0205  0.0177
 3391SOL    HW121635   2.131   0.324  10.359 -0.1920 -1.5245 -2.6701
 3391SOL    HW221636   2.253   0.395  10.306 -0.2947 -0.5666 -0.9099
 3392SOL     OW21637   2.805   1.879   4.725  0.8178  0.3287 -0.2272
 3392SOL    HW121638   2.850   1.794   4.717  1.0333  0.1633  2.5032
 3392SOL    HW221639   2.854   1.925   4.657 -0.4483 -1.6015 -2.4294
 3393SOL     OW21640   4.269   0.123  14.426 -0.5631  0.0208 -0.2227
 3393SOL    HW121641   4.306   0.212  14.427  2.4180 -1.1871 -2.4332
 3393SOL    HW221642   4.346   0.071  14.401 -0.8618  0.2566 -1.6219
 3394SOL     OW21643   2.213   0.693  13.449  0.1838  0.1153  0.4569
 3394SOL    HW121644   2.119   0.709  13.459 -0.5808 -1.6844 -3.7733
 3394SOL    HW221645   2.206   0.612  13.399 -1.9531  0.6918 -0.2235
 3395SOL     OW21646   4.128   2.971   2.164 -0.4226 -0.1919  0.0675
 3395SOL    HW121647   4.059   2.916   2.200 -0.5695  0.9531  1.5148
 3395SOL    HW221648   4.171   2.911   2.103 -0.7315 -0.4183  0.0749
 3396SOL     OW21649   2.840   2.794   8.196 -0.8254 -0.1249 -1.0511
 3396SOL    HW121650   2.749   2.764   8.194 -0.2202 -2.1106  2.3932
 3396SOL    HW221651   2.898   2.726   8.162 -0.5441 -0.1600 -0.5066
 3397SOL     OW21652   0.136   1.132  14.631 -0.1471 -0.2784 -0.0917
 3397SOL    HW121653   0.175   1.055  14.591 -0.2988 -1.9441  2.9446
 3397SOL    HW221654   0.056   1.138  14.578 -0.8134  0.8436  1.0452
 3398SOL     OW21655   1.467   4.645   0.081 -0.2680 -0.1597  0.2084
 3398SOL    HW121656   1.447   4.556   0.050 -1.2982  0.1716 -0.0786
 3398SOL    HW221657   1.519   4.675   0.007  0.1673 -0.9226  0.2042
 3399SOL     OW21658   2.089   3.361   3.546  0.1619 -0.6375 -0.5035
 3399SOL    HW121659   2.101   3.408   3.463  1.0378 -0.8848 -0.5152
 3399SOL    HW221660   2.027   3.293   3.520 -0.0806  0.3929 -2.6744
 3400SOL     OW21661   3.661   2.496   5.560  0.6610 -0.1679  0.0520
 3400SOL    HW121662   3.599   2.426   5.582  2.1144 -1.3509  0.3594
 3400SOL    HW221663   3.672   2.537   5.646 -0.8953 -0.1136  0.2337
 3401SOL     OW21664   1.630   3.156   4.965 -0.3394 -0.3469  0.0526
 3401SOL    HW121665   1.546   3.196   4.986  0.1692  1.3936 -1.2237
 3401SOL    HW221666   1.653   3.185   4.877  1.3067  1.5575  1.1032
 3402SOL     OW21667   2.310   4.593   3.146  1.0546  0.3261  0.1387
 3402SOL    HW121668   2.389   4.551   3.114  1.4401  0.9047  0.3223
 3402SOL    HW221669   2.239   4.556   3.093 -0.3022  0.3485  1.9050
 3403SOL     OW21670   0.569   0.909   8.799 -0.3928 -0.2074 -0.6886
 3403SOL    HW121671   0.569   0.854   8.877  0.4888  1.1569  0.2461
 3403SOL    HW221672   0.664   0.908   8.785 -0.3613 -0.5295 -0.4512
 3404SOL     OW21673   0.856   0.898  17.596 -0.6991  0.1106 -0.4560
 3404SOL    HW121674   0.909   0.883  17.674 -1.4621  0.6192  0.1668
 3404SOL    HW221675   0.855   0.994  17.590  0.8846  0.0723 -1.2026
 3405SOL     OW21676   2.536   3.595  15.885  0.5939 -0.0838  0.0200
 3405SOL    HW121677   2.485   3.557  15.957 -0.3116  1.1417  0.0345
 3405SOL    HW221678   2.614   3.632  15.927  2.1168 -2.4828 -0.7324
 3406SOL     OW21679   1.053   2.751   4.326  1.5099  0.4169 -0.1528
 3406SOL    HW121680   1.052   2.809   4.402 -0.8459  0.0389  0.0923
 3406SOL    HW221681   1.072   2.820   4.263  2.2658  0.6693  0.3430
 3407SOL     OW21682   3.058   1.026   6.348 -0.3721  0.0070  0.1336
 3407SOL    HW121683   3.023   1.106   6.310  0.4816 -0.0602 -0.8109
 3407SOL    HW221684   3.043   0.981   6.265 -1.2121 -0.6489  0.6403
 3408SOL     OW21685   1.845   2.611   0.542  0.2474  0.7256 -0.4292
 3408SOL    HW121686   1.755   2.643   0.544  0.2087  0.5589  0.4118
 3408SOL    HW221687   1.852   2.534   0.599  0.8970  0.4587 -0.8726
 3409SOL     OW21688   2.824   3.361   6.222 -0.7784  0.1198  0.1168
 3409SOL    HW121689   2.905   3.324   6.256 -1.8058 -1.8080  0.4549
 3409SOL    HW221690   2.802   3.426   6.288  0.1413 -0.0431  0.5723
 3410SOL     OW21691   2.442   2.847  14.202 -0.2803  0.2692 -0.2320
 3410SOL    HW121692   2.367   2.903  14.182 -0.8838  0.3567  2.2980
 3410SOL    HW221693   2.457   2.815  14.113 -1.1134  3.0137 -1.3601
 3411SOL     OW21694   4.609   3.997   4.940  0.5829  0.4419  0.2762
 3411SOL    HW121695   4.641   4.087   4.951 -0.2593  0.6374  1.1752
 3411SOL    HW221696   4.542   4.016   4.874 -0.2665 -0.5591  0.8513
 3412SOL     OW21697   1.683   0.025   2.186 -0.1746 -0.5856 -0.4411
 3412SOL    HW121698   1.653   0.114   2.168  1.0000 -0.3121 -1.0086
 3412SOL    HW221699   1.616   4.706   2.136 -0.2738  0.5635 -1.3608
 3413SOL     OW21700   0.257   1.093   4.141  0.1129  0.0663 -0.0183
 3413SOL    HW121701   0.202   1.140   4.079  0.5500  0.5802 -0.0142
 3413SOL    HW221702   0.229   1.002   4.128 -1.3816  0.3833  1.0945
 3414SOL     OW21703   3.327   0.032   8.039  0.0509  0.7295  0.1136
 3414SOL    HW121704   3.368   4.679   8.071 -1.4209 -0.7434 -1.6857
 3414SOL    HW221705   3.341   0.089   8.114 -0.5250 -0.4989  1.1661
 3415SOL     OW21706   1.658   3.403   3.389 -0.0272 -0.2496 -0.7107
 3415SOL    HW121707   1.663   3.427   3.296  1.1150  0.4152 -0.4787
 3415SOL    HW221708   1.622   3.314   3.384  0.2726 -0.4223  0.2415
 3416SOL     OW21709   0.361   3.634  11.497  0.0979 -0.0481  0.3919
 3416SOL    HW121710   0.320   3.598  11.419  1.0679  2.1853 -1.1400
 3416SOL    HW221711   0.408   3.701  11.448 -0.1207 -0.6064 -0.5718
 3417SOL     OW21712   1.634   0.628   8.911 -0.1237  0.0083 -0.1325
 3417SOL    HW121713   1.688   0.696   8.950  1.5844 -1.4043 -0.0300
 3417SOL    HW221714   1.703   0.589   8.858  0.2392 -0.7000  0.8573
 3418SOL     OW21715   2.363   2.340  15.617  0.1719  0.0812 -0.0280
 3418SOL    HW121716   2.430   2.300  15.673 -0.9898 -3.7621 -1.3393
 3418SOL    HW221717   2.417   2.394  15.560 -1.1532  4.0643  2.4730
 3419SOL     OW21718   2.343   2.039  13.886 -0.2246 -0.5388  0.3132
 3419SOL    HW121719   2.410   2.066  13.949  1.5558  1.2851 -2.3598
 3419SOL    HW221720   2.377   2.062  13.800  0.4097 -2.8516 -0.0417
 3420SOL     OW21721   2.254   0.530  14.657  0.1822  0.0094  0.4487
 3420SOL    HW121722   2.310   0.502  14.585  0.9495  2.7466 -0.0336
 3420SOL    HW221723   2.272   0.624  14.663 -0.3582  0.0918  0.8360
 3421SOL     OW21724   3.423   0.561   5.180 -0.6519  0.5574 -0.5019
 3421SOL    HW121725   3.340   0.608   5.172  0.1384  1.7555 -1.7184
 3421SOL    HW221726   3.423   0.535   5.272 -2.0697  0.6751 -0.4737
 3422SOL     OW21727   0.513   4.648   1.711 -0.2695  0.5903 -0.1743
 3422SOL    HW121728   0.421   4.647   1.735 -0.2204  3.1426  0.1003
 3422SOL    HW221729   0.498   4.699   1.631  1.1092 -0.7262 -1.2790
 3423SOL     OW21730   2.250   0.488   4.812 -0.0044 -0.3351  0.2312
 3423SOL    HW121731   2.248   0.509   4.905 -0.1507 -1.6638  0.5361
 3423SOL    HW221732   2.341   0.486   4.782 -0.2922 -2.1299 -0.5570
 3424SOL     OW21733   3.883   2.810   2.228 -0.5983  0.3606  0.1308
 3424SOL    HW121734   3.825   2.863   2.282  1.1865 -0.4643  2.8205
 3424SOL    HW221735   3.916   2.741   2.286 -1.6123  0.1799  0.4972
 3425SOL     OW21736   2.081   2.381   5.494  0.0887  0.0566 -0.2749
 3425SOL    HW121737   2.045   2.441   5.559 -2.3007 -1.6191 -0.0155
 3425SOL    HW221738   2.154   2.339   5.537 -1.5760 -1.4646  1.0710
 3426SOL     OW21739   3.010   2.222  12.684 -0.0517  0.1135 -0.0032
 3426SOL    HW121740   2.973   2.150  12.734 -3.0107  0.3981 -1.8106
 3426SOL    HW221741   3.070   2.181  12.621 -0.2416 -1.6259  0.9769
 3427SOL     OW21742   3.651   4.518   7.726  0.4007  0.3685  0.1201
 3427SOL    HW121743   3.738   4.478   7.726 -0.0212 -0.5255  1.5021
 3427SOL    HW221744   3.663   4.583   7.656  2.8015  0.6317  0.7529
 3428SOL     OW21745   0.999   4.264   4.389  0.1005  0.0083  0.0990
 3428SOL    HW121746   0.930   4.235   4.329 -0.4650 -1.5872  1.5235
 3428SOL    HW221747   1.072   4.216   4.350 -1.6564 -0.2645 -2.8306
 3429SOL     OW21748   4.129   1.462   7.805 -0.2081  0.4119 -0.2333
 3429SOL    HW121749   4.086   1.492   7.885 -1.4718  0.9806 -1.1198
 3429SOL    HW221750   4.096   1.372   7.798  1.6342 -0.2585 -0.2774
 3430SOL     OW21751   1.198   2.374   3.609 -0.2523 -0.6687 -0.5395
 3430SOL    HW121752   1.243   2.299   3.569 -0.6259 -1.5004  0.6194
 3430SOL    HW221753   1.146   2.340   3.682 -1.5560 -0.2421 -1.2870
 3431SOL     OW21754   0.480   3.923   2.557  0.7027 -0.5263 -0.6074
 3431SOL    HW121755   0.466   4.004   2.607  1.6122 -0.2928 -0.7349
 3431SOL    HW221756   0.451   3.944   2.468 -0.1564  0.6359 -0.0660
 3432SOL     OW21757   2.011   3.082  16.590  0.7876  0.4707  0.4961
 3432SOL    HW121758   2.027   3.169  16.554 -0.2354  1.3338  2.1333
 3432SOL    HW221759   1.939   3.102  16.651  0.6225  1.7812 -0.1246
 3433SOL     OW21760   4.561   0.661   7.427 -0.3082  0.2191  0.2077
 3433SOL    HW121761   4.553   0.754   7.446 -1.6746 -0.1421  1.3956
 3433SOL    HW221762   4.473   0.640   7.395 -0.6200 -1.2696  2.0232
 3434SOL     OW21763   0.077   4.339   1.691  0.5089  0.3383 -0.0905
 3434SOL    HW121764   0.036   4.399   1.628  2.5993  2.2272  0.3673
 3434SOL    HW221765   0.082   4.259   1.639  2.3813  1.4280 -1.6132
 3435SOL     OW21766   2.373   0.479  15.048  0.5878 -0.6399  0.0239
 3435SOL    HW121767   2.354   0.419  15.120  1.5899 -0.7047  0.2311
 3435SOL    HW221768   2.311   0.547  15.074 -0.5456 -0.6516 -2.6727
 3436SOL     OW21769   1.273   3.685  11.430  0.2399 -0.2884 -0.3547
 3436SOL    HW121770   1.233   3.765  11.464  4.6952  0.9577  1.9295
 3436SOL    HW221771   1.211   3.663  11.361 -0.3205 -1.7033  0.5968
 3437SOL     OW21772   1.848   3.416  13.005 -0.2227 -0.3721 -1.0200
 3437SOL    HW121773   1.913   3.392  12.939  1.1511 -1.4819  0.7207
 3437SOL    HW221774   1.803   3.332  13.018  1.9421 -1.3526  0.1778
 3438SOL     OW21775   3.154   1.697  13.463 -0.8495 -0.4033  0.5018
 3438SOL    HW121776   3.220   1.765  13.480 -0.4382 -1.2648  2.3686
 3438SOL    HW221777   3.083   1.748  13.501  0.3380  0.8032  1.1297
 3439SOL     OW21778   3.048   0.799   2.086 -0.7165 -0.2463 -0.0187
 3439SOL    HW121779   3.130   0.836   2.117 -0.4814  1.4993 -2.6920
 3439SOL    HW221780   3.021   0.886   2.055 -3.4263 -1.1377 -0.2101
 3440SOL     OW21781   3.675   1.284  10.426 -0.4280 -0.0068 -0.3040
 3440SOL    HW121782   3.645   1.375  10.420  1.6045  0.6936  0.1680
 3440SOL    HW221783   3.647   1.259  10.338  0.8688 -1.0451 -0.4197
 3441SOL     OW21784   2.552   4.521   5.881 -0.3259 -0.2453  0.3371
 3441SOL    HW121785   2.484   4.489   5.823 -1.4179 -0.8375  1.9439
 3441SOL    HW221786   2.525   4.607   5.915 -1.3742 -0.2368 -0.5509
 3442SOL     OW21787   2.006   0.846  17.278  0.3175 -0.1543  0.1496
 3442SOL    HW121788   1.950   0.856  17.201 -1.9721  0.9828  1.9823
 3442SOL    HW221789   1.950   0.790  17.330 -3.3809  1.9873 -1.4885
 3443SOL     OW21790   0.825   3.423   8.160  0.5696 -0.0692  0.0440
 3443SOL    HW121791   0.823   3.399   8.253 -0.7862  0.3528  0.1269
 3443SOL    HW221792   0.826   3.518   8.153 -0.7670 -0.1528 -1.2679
 3444SOL     OW21793   3.138   2.369  11.221  0.2320  0.3629 -1.0729
 3444SOL    HW121794   3.090   2.395  11.300  1.2919 -1.1060  0.0701
 3444SOL    HW221795   3.149   2.454  11.179 -2.0281  1.0219 -0.3728
 3445SOL     OW21796   1.524   3.154   7.227 -0.1029  0.2895 -0.3485
 3445SOL    HW121797   1.504   3.241   7.194  0.6694  1.0443  1.1651
 3445SOL    HW221798   1.562   3.120   7.146 -0.9034 -0.2481 -0.4965
 3446SOL     OW21799   1.181   3.489   3.685  0.4414 -0.0159 -0.0486
 3446SOL    HW121800   1.247   3.439   3.733  0.6347  2.8524  2.6814
 3446SOL    HW221801   1.127   3.510   3.761  0.7368 -1.0716  0.4619
 3447SOL     OW21802   3.765   2.858   4.059 -0.1288  0.1085 -0.4671
 3447SOL    HW121803   3.724   2.809   4.130 -1.0505  1.9456  0.2816
 3447SOL    HW221804   3.696   2.876   3.995  1.4125  1.9835 -1.6146
 3448SOL     OW21805   1.007   2.142   6.456 -0.0020 -0.3282 -0.8066
 3448SOL    HW121806   0.949   2.147   6.381  0.0094 -0.4349 -0.8227
 3448SOL    HW221807   1.027   2.048   6.459 -1.4576 -0.6605 -1.6686
 3449SOL     OW21808   2.213   0.903   8.158  0.3694 -0.2131 -0.2551
 3449SOL    HW121809   2.120   0.928   8.162  0.6517  0.5521  1.2959
 3449SOL    HW221810   2.213   0.834   8.223 -1.6760  2.2910  2.4022
 3450SOL     OW21811   0.176   0.874  15.671 -0.1962  0.0117  0.7047
 3450SOL    HW121812   0.134   0.956  15.696 -1.9929 -0.5242 -0.5805
 3450SOL    HW221813   0.151   0.859  15.580  1.7459  0.8695  0.0256
 3451SOL     OW21814   2.097   3.164   6.299 -0.1695  0.0307  0.0977
 3451SOL    HW121815   2.192   3.164   6.313 -0.2817 -0.5793  0.8741
 3451SOL    HW221816   2.067   3.090   6.351 -1.6839  0.9950  0.6090
 3452SOL     OW21817   2.919   1.236   9.319  0.3710 -0.3379 -0.2454
 3452SOL    HW121818   2.903   1.289   9.396  0.0989 -1.1478  0.2551
 3452SOL    HW221819   2.860   1.287   9.263 -1.8723 -3.1275 -0.4374
 3453SOL     OW21820   1.323   3.325   4.209  0.3446 -0.4225 -0.0737
 3453SOL    HW121821   1.377   3.388   4.256 -1.5339  1.8515 -1.0118
 3453SOL    HW221822   1.245   3.325   4.265  0.0209 -1.5053 -0.5142
 3454SOL     OW21823   4.678   0.545   4.692  0.4976  0.3042 -0.2361
 3454SOL    HW121824   0.010   0.500   4.752 -1.8482 -1.0081  1.1252
 3454SOL    HW221825   4.597   0.516   4.733 -0.5339 -0.1774 -2.6285
 3455SOL     OW21826   3.782   3.552   3.062 -0.0132  0.1051  0.2069
 3455SOL    HW121827   3.759   3.557   2.969 -2.9591 -0.2471  0.9133
 3455SOL    HW221828   3.851   3.486   3.057 -0.8458 -0.8480  1.2292
 3456SOL     OW21829   1.091   3.384   2.988  0.0112 -0.2400 -0.2611
 3456SOL    HW121830   1.112   3.431   3.069 -0.4597 -0.3372 -0.0869
 3456SOL    HW221831   1.177   3.398   2.948 -0.2059  0.2546 -0.5534
 3457SOL     OW21832   3.301   3.086  17.237 -0.0402  0.5050 -0.2503
 3457SOL    HW121833   3.308   3.136  17.155 -1.2439  1.8442  0.4646
 3457SOL    HW221834   3.367   3.126  17.293 -1.2030 -0.8164  2.0675
 3458SOL     OW21835   3.116   0.935   4.685 -0.4870  0.7212 -0.3573
 3458SOL    HW121836   3.156   0.869   4.742 -0.2145  0.9006 -0.3383
 3458SOL    HW221837   3.025   0.946   4.712 -0.5703 -0.7865 -0.0080
 3459SOL     OW21838   1.112   3.403  14.657  0.0510  0.3613 -0.6114
 3459SOL    HW121839   1.018   3.404  14.674  0.3375 -2.0668  1.1999
 3459SOL    HW221840   1.157   3.387  14.740  0.6832  0.5399 -0.9177
 3460SOL     OW21841   3.875   4.080  11.396 -0.4246  0.2332  0.4651
 3460SOL    HW121842   3.834   4.009  11.346 -1.3009  0.0394  1.4589
 3460SOL    HW221843   3.851   4.155  11.341 -1.4108  0.3212  1.0084
 3461SOL     OW21844   3.423   3.944   2.041  0.2450 -0.4395  0.2718
 3461SOL    HW121845   3.375   3.873   2.083 -2.0549  0.6288 -0.5598
 3461SOL    HW221846   3.351   3.970   1.984 -0.3642  1.0133  1.7300
 3462SOL     OW21847   4.569   3.053  16.868 -0.3632 -0.0489 -0.0287
 3462SOL    HW121848   4.479   3.045  16.900  0.2024  0.2015  1.5963
 3462SOL    HW221849   4.575   2.982  16.803  2.0370  0.6408 -0.5662
 3463SOL     OW21850   1.541   1.629   4.803 -0.1860 -0.3811  0.3832
 3463SOL    HW121851   1.448   1.648   4.819  0.3900  1.6644  1.2948
 3463SOL    HW221852   1.556   1.697   4.738  0.6388 -0.1454  0.8281
 3464SOL     OW21853   2.479   4.675   7.771  0.3068  0.7652  0.2199
 3464SOL    HW121854   2.406   4.661   7.831  0.4524 -0.6060  0.0772
 3464SOL    HW221855   2.545   4.639   7.831  0.7420 -0.5491 -1.0538
 3465SOL     OW21856   2.533   0.354   6.006 -0.0105 -0.3515 -0.0992
 3465SOL    HW121857   2.578   0.371   6.089  1.0740 -1.7089 -0.4128
 3465SOL    HW221858   2.446   0.332   6.040  0.3057 -1.6993 -0.1580
 3466SOL     OW21859   2.105   0.265   2.278 -0.0476 -0.3671 -0.0939
 3466SOL    HW121860   2.059   0.297   2.355 -1.6623  1.0014 -1.6368
 3466SOL    HW221861   2.031   0.227   2.230 -0.0568 -0.3732 -0.0746
 3467SOL     OW21862   0.108   1.219   5.192  0.8362  0.2960  0.1254
 3467SOL    HW121863   0.105   1.155   5.264  0.7055  1.5732  1.2625
 3467SOL    HW221864   0.055   1.175   5.126 -1.1767 -0.1732  2.0365
 3468SOL     OW21865   4.707   3.336   8.345 -0.2064  0.1376 -0.2485
 3468SOL    HW121866   0.016   3.248   8.337 -0.7204  0.0644 -1.7039
 3468SOL    HW221867   4.684   3.352   8.437 -0.7596  0.7898 -0.5000
 3469SOL     OW21868   3.405   4.091   7.884  0.1316  0.1036  0.4547
 3469SOL    HW121869   3.398   4.082   7.979  0.7302 -1.8624  0.3205
 3469SOL    HW221870   3.333   4.152   7.868  1.4280  1.8380  1.3351
 3470SOL     OW21871   1.750   4.576   4.182 -0.7054  0.1072  0.5602
 3470SOL    HW121872   1.786   4.516   4.117  1.8087  2.2125 -0.0004
 3470SOL    HW221873   1.656   4.571   4.165 -0.5061 -0.6805 -0.3137
 3471SOL     OW21874   3.935   3.968  13.561 -0.4542 -0.3109  0.1112
 3471SOL    HW121875   3.842   3.948  13.571 -1.0831  1.0900 -3.0964
 3471SOL    HW221876   3.982   3.886  13.578 -0.0692 -0.1721 -0.2834
 3472SOL     OW21877   0.592   3.156   4.078 -0.5125 -0.1266 -0.6218
 3472SOL    HW121878   0.626   3.143   3.990 -0.3298  2.9865 -1.0102
 3472SOL    HW221879   0.498   3.137   4.084 -0.4245 -0.2319  0.5138
 3473SOL     OW21880   3.180   3.870   3.161 -0.3213  0.1482 -0.2063
 3473SOL    HW121881   3.104   3.925   3.143 -1.6519 -1.1092  1.5918
 3473SOL    HW221882   3.246   3.939   3.168 -1.4614  1.2160 -0.0804
 3474SOL     OW21883   2.240   1.222  13.889 -0.0025 -0.0229  0.5827
 3474SOL    HW121884   2.191   1.168  13.826  0.5818 -2.1232  1.9364
 3474SOL    HW221885   2.265   1.292  13.829 -3.3535 -0.1784 -1.0421
 3475SOL     OW21886   3.806   2.223   4.706 -0.4744 -0.3572  0.1285
 3475SOL    HW121887   3.767   2.203   4.621 -0.4404  1.1056 -0.2411
 3475SOL    HW221888   3.729   2.187   4.750 -0.9536  0.8828  0.3186
 3476SOL     OW21889   2.025   1.294  12.568 -0.3069 -0.0188  0.5430
 3476SOL    HW121890   1.944   1.307  12.616 -0.6676 -0.1092 -0.0349
 3476SOL    HW221891   2.086   1.312  12.639  2.6963 -1.6074 -1.6143
 3477SOL     OW21892   0.170   3.127   7.136  0.2541 -0.1025 -0.1360
 3477SOL    HW121893   0.246   3.168   7.096 -0.2750  0.0035 -1.0438
 3477SOL    HW221894   0.185   3.163   7.223 -1.7726 -3.2139  1.4923
 3478SOL     OW21895   3.854   3.546  11.755  0.6911  0.0916  0.6328
 3478SOL    HW121896   3.942   3.540  11.793  0.5683 -1.1758  0.7047
 3478SOL    HW221897   3.824   3.455  11.750  0.3220  0.1811  1.3527
 3479SOL     OW21898   1.097   3.654   0.009 -0.5520  0.0006 -0.7097
 3479SOL    HW121899   1.078   3.728   0.068 -2.2496 -0.5603 -0.5395
 3479SOL    HW221900   1.087   3.580   0.069 -0.9087  0.0617 -0.6939
 3480SOL     OW21901   3.796   1.206   2.198 -0.4304 -0.4572  0.2418
 3480SOL    HW121902   3.877   1.258   2.193  0.0221 -1.2743 -0.8888
 3480SOL    HW221903   3.837   1.133   2.244  0.0543 -0.6588 -0.5016
 3481SOL     OW21904   3.848   1.574   0.997 -0.6660 -0.0849 -0.6938
 3481SOL    HW121905   3.923   1.626   0.969  1.6381 -1.6482  2.5883
 3481SOL    HW221906   3.870   1.491   0.953 -0.7262 -0.4221 -0.0855
 3482SOL     OW21907   3.968   4.488   5.730  0.0391  0.0674 -0.5828
 3482SOL    HW121908   3.908   4.413   5.735 -0.8881  0.9038  0.8993
 3482SOL    HW221909   4.030   4.452   5.794 -0.8394  0.7808  0.6742
 3483SOL     OW21910   1.352   2.650   2.784 -0.6541  0.3061  0.1828
 3483SOL    HW121911   1.394   2.660   2.699 -0.9145  1.5071  0.1944
 3483SOL    HW221912   1.270   2.699   2.778 -0.8566  0.1857  1.8625
 3484SOL     OW21913   2.550   2.765   9.647  0.1777  0.1343  0.2094
 3484SOL    HW121914   2.536   2.859   9.632 -1.0490 -0.2861 -1.2664
 3484SOL    HW221915   2.507   2.723   9.573 -0.6453 -0.2258  0.8952
 3485SOL     OW21916   2.520   4.387   6.600 -0.2078 -0.2462 -0.1972
 3485SOL    HW121917   2.480   4.365   6.516  0.3144 -1.1089 -0.2177
 3485SOL    HW221918   2.584   4.451   6.567 -0.2964 -0.0076  0.0922
 3486SOL     OW21919   3.032   2.665   5.776 -0.5458  0.0702 -0.3998
 3486SOL    HW121920   3.001   2.752   5.750 -1.0146  0.1222  0.3285
 3486SOL    HW221921   3.065   2.692   5.862 -2.4322  1.2574 -0.0290
 3487SOL     OW21922   2.204   2.434  11.172  0.7238  0.3206 -0.1167
 3487SOL    HW121923   2.147   2.423  11.096  0.6137 -1.6764  0.2689
 3487SOL    HW221924   2.248   2.352  11.147  0.6134  0.5506 -1.0729
 3488SOL     OW21925   1.092   2.546   3.428 -0.0541  0.2311  0.0498
 3488SOL    HW121926   0.998   2.540   3.444  0.1826 -3.2107  0.1817
 3488SOL    HW221927   1.125   2.476   3.484  1.3129 -0.0011 -1.0281
 3489SOL     OW21928   2.184   0.393   2.946 -0.0694 -0.0314 -0.2040
 3489SOL    HW121929   2.184   0.424   2.855 -0.7371  0.9616  0.1378
 3489SOL    HW221930   2.198   0.300   2.927 -0.4813 -0.3640  1.1088
 3490SOL     OW21931   2.887   3.424   6.844  0.0318  0.3527  0.2237
 3490SOL    HW121932   2.977   3.405   6.869  0.1409 -0.4561 -0.7786
 3490SOL    HW221933   2.866   3.509   6.884  1.1519  0.7167  0.0384
 3491SOL     OW21934   2.359   3.782  15.189 -0.0338 -0.1968 -0.2328
 3491SOL    HW121935   2.367   3.800  15.283  4.2724 -1.0397 -0.4372
 3491SOL    HW221936   2.265   3.788  15.171 -0.2076 -0.2753  0.6490
 3492SOL     OW21937   2.166   0.452   0.832  0.3289  0.0202 -0.0953
 3492SOL    HW121938   2.148   0.390   0.762 -2.9648  0.7652  0.0601
 3492SOL    HW221939   2.256   0.477   0.812 -0.4135  2.0065 -1.0207
 3493SOL     OW21940   3.060   1.073  13.235  0.2523 -0.0705  0.2233
 3493SOL    HW121941   3.013   1.147  13.195  0.8906  0.6054  0.7297
 3493SOL    HW221942   3.140   1.082  13.184  0.9234  0.7842  1.4302
 3494SOL     OW21943   3.263   2.250   0.366 -0.0804 -0.3087 -0.2306
 3494SOL    HW121944   3.245   2.268   0.274 -1.6131  0.3111  0.1895
 3494SOL    HW221945   3.231   2.329   0.410  1.9526  0.1937  0.3290
 3495SOL     OW21946   0.245   1.607  16.132  0.7432  0.4398  0.1081
 3495SOL    HW121947   0.185   1.674  16.099  0.7408  0.6052  0.4394
 3495SOL    HW221948   0.177   1.558  16.178  0.1362  0.4042 -0.8333
 3496SOL     OW21949   1.368   2.779   4.032  0.3930 -0.1068 -0.9279
 3496SOL    HW121950   1.428   2.726   4.086  0.0650  0.9601  0.4765
 3496SOL    HW221951   1.424   2.851   4.004  1.6783 -0.4635  0.7046
 3497SOL     OW21952   2.625   2.378   2.796  0.2763 -0.3801 -0.0229
 3497SOL    HW121953   2.681   2.417   2.863 -1.3142 -0.7878  1.5487
 3497SOL    HW221954   2.688   2.405   2.730 -1.2433  1.8324 -0.5651
 3498SOL     OW21955   3.325   1.328   6.901 -0.4002  0.1395  0.3718
 3498SOL    HW121956   3.358   1.239   6.887 -1.3370 -0.1789  0.2413
 3498SOL    HW221957   3.351   1.338   6.992 -0.6196  0.0152  0.4465
 3499SOL     OW21958   2.185   2.085   3.227 -0.5604 -0.7750  0.1344
 3499SOL    HW121959   2.128   2.009   3.233 -1.7853 -0.0324 -1.8962
 3499SOL    HW221960   2.269   2.045   3.204  0.0759  0.1492  0.8199
 3500SOL     OW21961   2.030   4.198  13.393 -0.4375 -0.8382  0.3348
 3500SOL    HW121962   2.039   4.122  13.335 -0.7107 -0.4561 -0.2107
 3500SOL    HW221963   1.934   4.195  13.403 -0.1901  0.6167  3.1319
 3501SOL     OW21964   2.708   4.266   0.876 -0.4921  0.2016 -0.0538
 3501SOL    HW121965   2.657   4.347   0.882 -1.5560 -0.2890 -2.0712
 3501SOL    HW221966   2.719   4.230   0.964  1.9615 -1.2580 -0.9657
 3502SOL     OW21967   1.505   1.906  16.632 -0.1901 -0.3397  0.2149
 3502SOL    HW121968   1.464   1.863  16.707 -0.9132 -0.6711 -0.3754
 3502SOL    HW221969   1.545   1.832  16.587  0.7531  0.0298  0.4390
 3503SOL     OW21970   0.700   4.038   2.251 -0.0831  0.7826  0.4890
 3503SOL    HW121971   0.648   3.970   2.209 -0.0184  1.3997 -0.5974
 3503SOL    HW221972   0.648   4.113   2.222  0.8991  0.6665 -1.5544
 3504SOL     OW21973   1.626   1.096   7.582 -0.1596  0.1795  0.5367
 3504SOL    HW121974   1.599   1.094   7.490 -0.0764  2.5824  0.4765
 3504SOL    HW221975   1.689   1.024   7.582 -0.6540 -0.2722 -2.4220
 3505SOL     OW21976   1.488   0.370   6.861  0.2511 -0.3844 -0.6632
 3505SOL    HW121977   1.506   0.441   6.800  0.1621 -1.1509 -1.5806
 3505SOL    HW221978   1.463   0.424   6.936  0.9277 -0.8758 -0.0822
 3506SOL     OW21979   0.189   4.012   2.057  0.1703  0.6649  0.0381
 3506SOL    HW121980   0.257   3.946   2.043  1.0360  1.4655  0.4310
 3506SOL    HW221981   0.209   4.067   1.981  0.6785  0.4848  0.0418
 3507SOL     OW21982   0.923   0.413   1.917 -0.6239  0.1690 -0.1755
 3507SOL    HW121983   0.852   0.476   1.912 -0.6351  0.3742  2.6339
 3507SOL    HW221984   0.940   0.418   2.011 -0.5363 -2.0162 -0.0677
 3508SOL     OW21985   2.807   0.092   9.171 -0.0216 -0.6388  0.2288
 3508SOL    HW121986   2.764   0.101   9.086  2.2517  1.0137 -0.7392
 3508SOL    HW221987   2.749   0.135   9.235  1.4140  1.6280 -0.0105
 3509SOL     OW21988   1.976   3.346  13.356  0.2756 -0.5929 -0.3009
 3509SOL    HW121989   2.021   3.294  13.290  1.9949 -0.1736  0.5450
 3509SOL    HW221990   2.048   3.379  13.410 -0.2217  0.0920 -0.0596
 3510SOL     OW21991   0.971   3.974   7.601 -0.3959  0.1335 -0.7562
 3510SOL    HW121992   1.051   4.013   7.565  0.5359  0.8191  2.0570
 3510SOL    HW221993   0.999   3.969   7.693 -0.4542  1.1662 -0.6883
 3511SOL     OW21994   4.358   4.435   8.164  0.8631 -0.0775 -0.0018
 3511SOL    HW121995   4.394   4.512   8.207 -0.0065 -0.0424  0.6585
 3511SOL    HW221996   4.313   4.390   8.235  1.5641  0.5871  0.8556
 3512SOL     OW21997   3.552   3.013   5.148  0.2972  0.3830 -0.1125
 3512SOL    HW121998   3.584   3.048   5.065 -1.6491  1.9214 -0.1983
 3512SOL    HW221999   3.458   3.003   5.133 -0.3121  1.1726  3.0381
 3513SOL     OW22000   1.977   0.030   1.555 -0.3207 -0.3578  0.4499
 3513SOL    HW122001   2.063   0.067   1.534 -0.8945  0.3248 -0.6596
 3513SOL    HW222002   1.977   0.047   1.650 -0.2506  1.0147  0.2060
 3514SOL     OW22003   3.866   4.325  15.694 -0.2194  0.0359  0.0311
 3514SOL    HW122004   3.874   4.417  15.719 -0.6988 -0.3704  1.6958
 3514SOL    HW222005   3.908   4.280  15.767 -1.4754  2.1334  2.0729
 3515SOL     OW22006   1.243   4.119   9.459  0.1873 -0.2528 -0.0322
 3515SOL    HW122007   1.338   4.127   9.467  0.1147 -0.8484  1.5419
 3515SOL    HW222008   1.235   4.023   9.455  3.0629 -0.6118  3.2838
 3516SOL     OW22009   4.473   4.149  11.490 -0.4962 -0.0001 -0.1600
 3516SOL    HW122010   4.419   4.170  11.413 -2.4765 -1.9439  0.7230
 3516SOL    HW222011   4.474   4.054  11.494  1.0150 -0.1478 -3.7487
 3517SOL     OW22012   0.690   1.507   2.555 -0.2024 -0.4593 -0.0782
 3517SOL    HW122013   0.645   1.587   2.528 -0.4383 -0.6942 -0.3771
 3517SOL    HW222014   0.682   1.504   2.650  0.5102 -0.9543 -0.0337
 3518SOL     OW22015   4.000   0.241  10.190 -0.4349 -0.4257  0.3851
 3518SOL    HW122016   4.033   0.181  10.257  0.3885  0.3185  0.6522
 3518SOL    HW222017   4.003   0.177  10.119  0.3005 -0.7392  0.6916
 3519SOL     OW22018   1.547   0.140   4.052 -0.8886 -0.0687 -0.7836
 3519SOL    HW122019   1.478   0.199   4.021  0.3300  1.5753 -0.3568
 3519SOL    HW222020   1.627   0.182   4.022  0.0504 -0.8771  0.6005
 3520SOL     OW22021   1.851   0.838   3.772 -0.4840 -0.2579 -0.0150
 3520SOL    HW122022   1.937   0.816   3.809 -0.2197  0.3015 -0.3057
 3520SOL    HW222023   1.785   0.818   3.838  1.0231  0.0600  1.6015
 3521SOL     OW22024   2.991   4.542   1.356  0.3469 -0.7373  0.1136
 3521SOL    HW122025   2.995   4.638   1.353  0.2690 -0.7737 -1.0786
 3521SOL    HW222026   2.911   4.513   1.312 -0.6025  0.7134  0.8743
 3522SOL     OW22027   2.419   2.725   5.940  0.1068  0.0160  0.4846
 3522SOL    HW122028   2.434   2.787   6.011 -2.2609 -0.6312  1.5413
 3522SOL    HW222029   2.389   2.787   5.873  2.5372 -0.6064 -1.1772
 3523SOL     OW22030   1.688   1.135   3.971 -0.2742  0.4787  0.1583
 3523SOL    HW122031   1.726   1.050   3.993 -0.1185  0.0331 -1.8255
 3523SOL    HW222032   1.678   1.182   4.053  0.9334  1.1222 -0.0600
 3524SOL     OW22033   2.751   1.153   7.533  0.4124  0.1883 -0.2393
 3524SOL    HW122034   2.677   1.199   7.572  0.3420 -1.7900  1.9706
 3524SOL    HW222035   2.826   1.171   7.590  0.2045 -1.0552  0.4228
 3525SOL     OW22036   1.584   2.094   8.039  0.5146 -0.0939  0.5018
 3525SOL    HW122037   1.628   2.011   8.022  1.2017  0.6901 -1.6463
 3525SOL    HW222038   1.554   2.118   7.951  1.2522 -0.3857  0.1758
 3526SOL     OW22039   0.972   0.494   7.222 -0.7097 -0.2872  0.5259
 3526SOL    HW122040   1.006   0.533   7.141  1.1744  0.3602  1.6485
 3526SOL    HW222041   0.993   0.407   7.188 -0.0412 -0.8562  2.3877
 3527SOL     OW22042   2.195   0.266   6.435 -0.4311 -0.3027 -0.2319
 3527SOL    HW122043   2.242   0.298   6.512 -2.1260  1.0771  0.2456
 3527SOL    HW222044   2.114   0.315   6.453  1.2507  1.6584  1.9703
 3528SOL     OW22045   4.451   4.030   7.132  0.3137 -0.1849 -0.6357
 3528SOL    HW122046   4.510   3.990   7.068  3.8110  0.2273  2.3868
 3528SOL    HW222047   4.447   4.122   7.105 -0.0098  0.1134  0.4197
 3529SOL     OW22048   2.777   3.011   8.978  0.1926 -0.4885  0.2392
 3529SOL    HW122049   2.778   3.018   9.074  1.1163 -2.2781  0.3603
 3529SOL    HW222050   2.693   3.052   8.958  0.4405 -1.3399 -2.4861
 3530SOL     OW22051   3.363   0.336   4.908 -0.4843  0.2525 -0.6977
 3530SOL    HW122052   3.337   0.367   4.995  0.1856 -1.9697  0.2943
 3530SOL    HW222053   3.279   0.347   4.864 -1.4007 -0.5501  0.8254
 3531SOL     OW22054   4.521   0.228  13.305 -0.1459  0.1239  0.4809
 3531SOL    HW122055   4.514   0.291  13.377 -1.1280  1.3827 -0.7175
 3531SOL    HW222056   4.473   0.155  13.345  0.1874 -0.3785 -0.0409
 3532SOL     OW22057   1.429   4.195   3.821 -0.1373  0.1724  0.5294
 3532SOL    HW122058   1.397   4.135   3.753  0.5184  0.5482 -0.1142
 3532SOL    HW222059   1.463   4.135   3.887  0.3468 -1.2766 -1.0292
 3533SOL     OW22060   2.441   0.464  12.094  0.0612 -0.0193  0.2932
 3533SOL    HW122061   2.417   0.525  12.025 -2.5954 -0.4670  0.8219
 3533SOL    HW222062   2.526   0.506  12.110  0.2784  0.4130 -2.0642
 3534SOL     OW22063   2.845   2.533   7.248 -0.2447 -0.1374 -0.0699
 3534SOL    HW122064   2.854   2.587   7.327 -2.9431  1.5806 -0.9288
 3534SOL    HW222065   2.930   2.503   7.217 -1.1656  0.4961 -3.1825
 3535SOL     OW22066   3.082   2.595   6.865  0.4062 -0.4324 -0.2801
 3535SOL    HW122067   3.155   2.534   6.853  2.1871  1.6250 -0.0039
 3535SOL    HW222068   3.113   2.673   6.818 -1.0132  0.6593  0.6099
 3536SOL     OW22069   3.436   2.596   7.755  0.0552 -0.1279  0.0057
 3536SOL    HW122070   3.474   2.554   7.833  1.0904  0.8069 -0.0006
 3536SOL    HW222071   3.474   2.680   7.778  1.7595 -0.9397  0.1291
 3537SOL     OW22072   3.189   4.488  15.996 -0.6400  0.0193  0.1451
 3537SOL    HW122073   3.206   4.497  16.090 -0.2248  0.1139  0.0614
 3537SOL    HW222074   3.228   4.402  15.982  1.0434  0.3789  2.5720
 3538SOL     OW22075   1.308   3.443   5.416  0.2934 -0.9739 -0.0709
 3538SOL    HW122076   1.401   3.463   5.430 -0.3452  2.5273 -0.7735
 3538SOL    HW222077   1.256   3.514   5.453 -0.2029 -1.0137 -0.6909
 3539SOL     OW22078   3.831   3.916   8.482 -0.4953 -0.4673  0.4793
 3539SOL    HW122079   3.862   3.876   8.401 -2.9770 -0.3446 -0.5463
 3539SOL    HW222080   3.751   3.955   8.446 -0.4886 -0.0781  0.8876
 3540SOL     OW22081   1.833   0.914  13.348 -0.2846  0.4186  0.3387
 3540SOL    HW122082   1.883   0.989  13.315 -0.8162 -0.1356 -1.7194
 3540SOL    HW222083   1.802   0.961  13.426 -2.4621 -1.0062  0.3258
 3541SOL     OW22084   1.656   2.311   2.503 -0.0913  0.2087  0.5941
 3541SOL    HW122085   1.700   2.307   2.418 -0.3617  0.0428  0.4567
 3541SOL    HW222086   1.729   2.289   2.559  0.5846  0.2480 -0.2736
 3542SOL     OW22087   0.450   2.100   3.620  0.3599 -0.4482  0.1962
 3542SOL    HW122088   0.448   2.085   3.715  0.7783  1.7789  0.5581
 3542SOL    HW222089   0.491   2.018   3.592  0.8589 -0.3300  0.5708
 3543SOL     OW22090   4.108   4.624   7.147  0.0963  0.0971 -0.2775
 3543SOL    HW122091   4.195   4.664   7.143  0.2739 -0.3107 -0.4602
 3543SOL    HW222092   4.132   4.548   7.095  0.1832 -0.4020  0.4911
 3544SOL     OW22093   4.261   3.469  13.983 -0.5577  0.2159 -0.3818
 3544SOL    HW122094   4.284   3.485  13.891  0.0171  1.4612 -0.0144
 3544SOL    HW222095   4.241   3.557  14.014  0.7873  0.8058 -1.1925
 3545SOL     OW22096   1.218   1.815   5.387  0.7791 -0.5052 -0.1744
 3545SOL    HW122097   1.230   1.737   5.333  0.0907  0.5928 -1.9248
 3545SOL    HW222098   1.275   1.802   5.463  2.7705  0.2136 -1.5678
 3546SOL     OW22099   1.665   0.262   2.493  0.1435  0.8106  0.4547
 3546SOL    HW122100   1.663   0.325   2.565 -1.1913  0.0006  1.1301
 3546SOL    HW222101   1.756   0.234   2.497 -0.5568 -1.4222  0.5640
 3547SOL     OW22102   0.569   2.904   5.774 -0.0124 -0.0231 -0.0151
 3547SOL    HW122103   0.534   2.820   5.803  1.2216  0.7365  3.7175
 3547SOL    HW222104   0.649   2.914   5.826  0.4936 -1.3442 -0.5536
 3548SOL     OW22105   0.578   1.077   4.550 -0.5008 -0.2872  0.0988
 3548SOL    HW122106   0.612   0.994   4.583  0.6921 -0.4751 -1.6151
 3548SOL    HW222107   0.532   1.050   4.471  0.7737  0.3422 -0.8554
 3549SOL     OW22108   2.386   2.328   4.111 -0.0386  0.4996  0.0442
 3549SOL    HW122109   2.466   2.278   4.096 -0.8037 -0.8037  0.2990
 3549SOL    HW222110   2.352   2.360   4.028  0.7121  1.2421  0.0226
 3550SOL     OW22111   0.990   0.708   2.304 -0.3314 -0.4117 -0.2902
 3550SOL    HW122112   0.994   0.786   2.358  0.3964  1.6034 -3.2258
 3550SOL    HW222113   1.081   0.678   2.305  0.6115  2.6364  2.0351
 3551SOL     OW22114   1.584   2.694   6.523  0.0821  0.5237 -0.1592
 3551SOL    HW122115   1.489   2.701   6.538  0.2623 -1.4100  1.8902
 3551SOL    HW222116   1.625   2.780   6.538 -0.3624  0.6781  0.1752
 3552SOL     OW22117   2.584   2.011   9.761  0.1297 -0.0973  0.5235
 3552SOL    HW122118   2.676   1.994   9.742  0.1605  0.8039 -0.1401
 3552SOL    HW222119   2.589   2.024   9.856  0.3404  0.3365  0.4509
 3553SOL     OW22120   2.187   2.764   3.049  0.1787 -0.1052  0.1833
 3553SOL    HW122121   2.227   2.822   2.985  0.2554  0.1514  0.4637
 3553SOL    HW222122   2.250   2.775   3.120 -0.5916 -0.8787  0.9891
 3554SOL     OW22123   3.076   1.280   2.454 -0.2850  0.2146  0.0757
 3554SOL    HW122124   3.164   1.257   2.426  0.0560  1.4859  0.0948
 3554SOL    HW222125   3.095   1.321   2.538  2.5807  2.6819 -1.7843
 3555SOL     OW22126   3.606   0.535   6.891 -0.4021  0.1141 -0.2372
 3555SOL    HW122127   3.638   0.467   6.950  0.4285  3.0305  2.6044
 3555SOL    HW222128   3.561   0.599   6.946  0.2696 -0.5429  1.0721
 3556SOL     OW22129   2.438   2.196  13.079 -0.2275  0.2475 -0.2473
 3556SOL    HW122130   2.431   2.106  13.113 -0.5714  0.0907 -0.7359
 3556SOL    HW222131   2.452   2.242  13.161 -0.5775 -0.9623  0.4957
 3557SOL     OW22132   0.357   4.537   4.893 -0.4034  0.2186  0.2582
 3557SOL    HW122133   0.325   4.499   4.975  2.0962 -1.7859  0.3024
 3557SOL    HW222134   0.419   4.601   4.928 -0.1419 -0.4686  1.0444
 3558SOL     OW22135   1.033   1.867  15.934 -0.4422 -0.0586  0.2144
 3558SOL    HW122136   0.986   1.786  15.912  0.6982 -1.0059  1.2459
 3558SOL    HW222137   0.954   1.918  15.952 -0.9442 -1.3132  1.5414
 3559SOL     OW22138   4.119   1.338   9.090 -0.3165  0.4738 -0.4196
 3559SOL    HW122139   4.165   1.422   9.091  0.7354 -0.1024 -1.4035
 3559SOL    HW222140   4.188   1.276   9.113 -0.7584 -0.1266 -0.7131
 3560SOL     OW22141   2.991   0.379  16.135 -0.1502 -0.7112 -0.0283
 3560SOL    HW122142   2.950   0.406  16.217  0.7492  1.0715 -0.1584
 3560SOL    HW222143   2.948   0.296  16.116  1.3780 -1.5050  0.0140
 3561SOL     OW22144   2.393   1.655   2.751  0.6777  0.3607  0.5847
 3561SOL    HW122145   2.399   1.745   2.783 -0.2311  0.5690  0.1923
 3561SOL    HW222146   2.431   1.666   2.664 -2.4450  2.6892 -0.4703
 3562SOL     OW22147   2.188   3.000   6.706  0.0984  0.3923 -0.1620
 3562SOL    HW122148   2.251   3.004   6.634 -1.0405  2.1854 -1.0770
 3562SOL    HW222149   2.233   3.051   6.774  0.9790 -0.4657 -0.1080
 3563SOL     OW22150   3.190   0.529   3.121  0.1066 -0.2243  0.2093
 3563SOL    HW122151   3.255   0.581   3.073 -0.0488 -0.5102 -0.3193
 3563SOL    HW222152   3.127   0.596   3.144  0.9440  0.4876  0.4432
 3564SOL     OW22153   2.825   2.722   5.439  0.7071  0.3920  0.0306
 3564SOL    HW122154   2.896   2.753   5.495  1.2721  0.6718 -0.8298
 3564SOL    HW222155   2.768   2.675   5.499  2.3999 -1.5242  0.1345
 3565SOL     OW22156   3.017   0.271   3.391 -0.4081  0.2975  0.3948
 3565SOL    HW122157   3.091   0.225   3.429 -0.2543  0.5914  0.4558
 3565SOL    HW222158   2.989   0.331   3.461 -0.6163  1.0960 -0.3666
 3566SOL     OW22159   1.514   1.050   1.840 -0.2562 -0.4110  0.2175
 3566SOL    HW122160   1.541   1.092   1.758  0.1329 -1.7728 -0.3451
 3566SOL    HW222161   1.481   0.964   1.814 -0.1324 -0.0643 -1.1132
 3567SOL     OW22162   3.368   1.436   7.179 -0.2725  0.1664 -0.1171
 3567SOL    HW122163   3.327   1.396   7.255  2.0903 -0.7322  0.6640
 3567SOL    HW222164   3.435   1.494   7.216 -1.0729 -0.1234  1.7750
 3568SOL     OW22165   2.682   3.842   8.620 -0.1750  0.7546  0.0042
 3568SOL    HW122166   2.659   3.913   8.680  0.9803  0.6544  0.5745
 3568SOL    HW222167   2.591   3.840   8.592 -0.9656  2.9904  2.4797
 3569SOL     OW22168   0.091   2.806  14.604  0.2017  0.0391 -0.0714
 3569SOL    HW122169   0.068   2.896  14.580 -0.2041 -0.4623 -1.5635
 3569SOL    HW222170   0.102   2.803  14.699 -1.3229 -0.4062  0.0935
 3570SOL     OW22171   3.850   1.095  14.208  0.7228 -0.2758 -0.0903
 3570SOL    HW122172   3.898   1.048  14.276  0.0002 -1.1146 -0.1612
 3570SOL    HW222173   3.766   1.116  14.251 -0.5381 -1.3592 -2.0554
 3571SOL     OW22174   2.263   1.652   8.663 -0.5251  0.0805 -0.0183
 3571SOL    HW122175   2.328   1.672   8.730 -0.9291  0.6969  0.1806
 3571SOL    HW222176   2.284   1.713   8.592 -1.3546  0.3449 -0.0376
 3572SOL     OW22177   1.892   4.390   4.040 -0.3690  0.2910 -0.2307
 3572SOL    HW122178   1.928   4.419   3.956  0.2726 -0.9253 -0.3713
 3572SOL    HW222179   1.966   4.335   4.066  0.2069  0.6356 -1.1292
 3573SOL     OW22180   3.144   4.262   7.813 -0.4780  0.5393 -0.0497
 3573SOL    HW122181   3.223   4.317   7.813 -2.0224  2.7762 -2.0789
 3573SOL    HW222182   3.124   4.275   7.906  1.9858 -1.4447  0.7515
 3574SOL     OW22183   0.607   2.823  12.246 -0.3205  0.1650  0.3048
 3574SOL    HW122184   0.594   2.754  12.311 -0.9992  0.2511  0.2631
 3574SOL    HW222185   0.699   2.802  12.229 -0.4455  0.6039 -0.8905
 3575SOL     OW22186   4.362   0.577   8.083  0.2833  0.0425  0.2919
 3575SOL    HW122187   4.349   0.645   8.149 -1.0560  1.2163 -1.1738
 3575SOL    HW222188   4.455   0.561   8.101  0.2808  0.2671  0.5118
 3576SOL     OW22189   3.428   3.508   2.373  0.1083  0.3155 -0.5779
 3576SOL    HW122190   3.439   3.514   2.278  1.7837  1.8172 -0.2869
 3576SOL    HW222191   3.385   3.591   2.395  1.1123  0.8802 -0.7435
 3577SOL     OW22192   2.569   2.302   7.001 -0.1319 -0.1890  0.2672
 3577SOL    HW122193   2.653   2.340   6.977 -1.6822  1.9821 -1.7222
 3577SOL    HW222194   2.598   2.242   7.070  0.5968  1.8286  1.6921
 3578SOL     OW22195   1.858   0.195   4.836 -0.2660 -0.4478  0.5129
 3578SOL    HW122196   1.810   0.265   4.791 -0.8092 -2.3905 -1.9646
 3578SOL    HW222197   1.796   0.168   4.904  1.1083  0.6375  2.1769
 3579SOL     OW22198   1.468   3.821   9.159  0.2552  0.8424 -0.5004
 3579SOL    HW122199   1.515   3.742   9.133  0.3827  0.5466  0.6263
 3579SOL    HW222200   1.447   3.849   9.070 -2.0535 -2.2186 -0.9091
 3580SOL     OW22201   2.279   3.265  11.506 -0.6584  0.0436 -0.5817
 3580SOL    HW122202   2.232   3.210  11.568 -1.7486  0.0099 -1.4313
 3580SOL    HW222203   2.368   3.243  11.536  0.2850  2.3929 -1.6001
 3581SOL     OW22204   2.084   0.073   5.028  0.9536 -0.4779  0.5971
 3581SOL    HW122205   2.095   0.141   5.094 -0.6545 -0.1427  0.5300
 3581SOL    HW222206   2.089   0.122   4.945 -1.8997  1.4201  1.5587
 3582SOL     OW22207   3.917   2.735   0.296 -0.5347  0.2006 -0.4461
 3582SOL    HW122208   3.928   2.751   0.390 -0.3201 -1.8137 -0.1334
 3582SOL    HW222209   4.003   2.707   0.265 -1.5042 -2.2101 -0.9318
 3583SOL     OW22210   2.901   2.318   2.341 -0.3142  0.2322 -0.1782
 3583SOL    HW122211   2.829   2.377   2.362 -1.9550 -1.4853 -1.0374
 3583SOL    HW222212   2.864   2.301   2.254  0.0899  2.4472 -0.7847
 3584SOL     OW22213   2.693   3.797   1.430  0.3453 -0.6084  0.0541
 3584SOL    HW122214   2.739   3.840   1.502  2.1195 -1.0358 -0.8409
 3584SOL    HW222215   2.643   3.734   1.482  0.7168 -0.5527  0.4731
 3585SOL     OW22216   2.464   2.970  14.459  0.8239 -0.6395 -0.4444
 3585SOL    HW122217   2.516   3.022  14.398  0.5667 -1.4688 -1.3561
 3585SOL    HW222218   2.454   2.885  14.416  1.4925 -1.0058  0.1216
 3586SOL     OW22219   4.393   1.601   6.914 -0.3811 -0.3710  0.1547
 3586SOL    HW122220   4.337   1.678   6.926  0.5284 -0.0804  2.6080
 3586SOL    HW222221   4.343   1.546   6.975  0.5273 -2.7299 -1.2458
 3587SOL     OW22222   3.786   0.752   5.572 -0.0758  0.2254 -0.2627
 3587SOL    HW122223   3.823   0.738   5.659  0.5853 -0.3338 -0.6353
 3587SOL    HW222224   3.730   0.676   5.551  2.5578 -1.1738 -2.2352
 3588SOL     OW22225   1.554   1.134   6.629  0.0895  0.3013  0.3636
 3588SOL    HW122226   1.600   1.075   6.569 -1.4795 -0.4829 -0.0789
 3588SOL    HW222227   1.602   1.216   6.622 -0.5125  0.9063  3.6680
 3589SOL     OW22228   0.013   3.751   6.259 -0.0286  0.3079  0.1900
 3589SOL    HW122229   4.648   3.766   6.276 -0.3461  1.6954 -2.7554
 3589SOL    HW222230   0.052   3.839   6.265  1.1733 -0.1051 -1.5317
 3590SOL     OW22231   4.481   4.452   3.767 -0.2011 -0.1865  0.1722
 3590SOL    HW122232   4.559   4.442   3.713 -0.8197 -0.5006 -0.6623
 3590SOL    HW222233   4.475   4.359   3.789  1.4625 -0.5524 -1.0136
 3591SOL     OW22234   2.989   3.181   6.925  0.0199  0.3120  0.4040
 3591SOL    HW122235   2.990   3.088   6.904  0.0666  0.4829 -0.3520
 3591SOL    HW222236   3.057   3.186   6.993  2.0017  0.4660 -1.6000
 3592SOL     OW22237   4.026   2.140   4.858 -0.1065 -0.2511  0.2017
 3592SOL    HW122238   4.073   2.162   4.778  0.8068 -0.3049  0.7229
 3592SOL    HW222239   3.941   2.173   4.830  1.0480 -0.0548 -3.0777
 3593SOL     OW22240   3.835   0.396   4.012  0.4158  0.2754 -0.3512
 3593SOL    HW122241   3.861   0.440   4.093  1.3926  0.9078 -1.0202
 3593SOL    HW222242   3.902   0.434   3.956  0.8420 -3.5693 -2.4665
 3594SOL     OW22243   4.185   1.911   6.437 -0.3725  0.1492  0.3618
 3594SOL    HW122244   4.251   1.906   6.506 -1.5641  1.9283  1.6404
 3594SOL    HW222245   4.236   1.911   6.357 -1.9286 -1.8559 -0.6257
 3595SOL     OW22246   3.115   3.616   7.559  0.5473 -0.2093  0.4931
 3595SOL    HW122247   3.122   3.710   7.548 -1.7757 -0.4204 -2.7273
 3595SOL    HW222248   3.185   3.602   7.623 -0.3335 -2.2675  1.0194
 3596SOL     OW22249   1.180   0.080   2.330  0.2878 -0.3374 -0.5655
 3596SOL    HW122250   1.193   0.010   2.266  1.8409  0.8118 -1.5228
 3596SOL    HW222251   1.167   0.033   2.412  3.7949  1.5715  1.0974
 3597SOL     OW22252   0.800   0.135   3.525 -0.7433 -0.2146 -0.3204
 3597SOL    HW122253   0.756   0.206   3.479 -3.1823 -1.1778  0.5358
 3597SOL    HW222254   0.795   0.069   3.455 -0.9321  0.0685 -0.5737
 3598SOL     OW22255   4.398   0.129  13.557 -0.5532 -0.4138  0.1201
 3598SOL    HW122256   4.338   0.057  13.538  0.3738 -1.2505  0.3201
 3598SOL    HW222257   4.345   0.202  13.589 -0.1177  0.2365 -0.6301
 3599SOL     OW22258   2.946   3.208   8.389  0.1492  0.0534 -0.5057
 3599SOL    HW122259   2.908   3.259   8.461  2.2251  2.2680 -1.0066
 3599SOL    HW222260   2.947   3.119   8.425  1.3942  0.5774  0.7651
 3600SOL     OW22261   2.600   2.100   3.287 -0.1797  0.5439 -0.5463
 3600SOL    HW122262   2.608   2.034   3.355  0.5237  1.0473 -0.1475
 3600SOL    HW222263   2.656   2.171   3.318  0.3993  0.6315 -1.8168
 3601SOL     OW22264   2.631   1.429  13.836 -0.3912 -0.1768 -0.1951
 3601SOL    HW122265   2.619   1.410  13.929  0.7195  1.1891  0.2240
 3601SOL    HW222266   2.550   1.479  13.823 -0.4138 -0.2495 -0.3276
 3602SOL     OW22267   4.365   4.452  12.205  0.2081 -0.2158 -0.1632
 3602SOL    HW122268   4.288   4.442  12.148 -0.2609 -0.7924  0.5768
 3602SOL    HW222269   4.330   4.417  12.287 -3.1133  0.1530 -1.4328
 3603SOL     OW22270   1.121   0.751   5.350  0.0229 -0.5406 -0.1087
 3603SOL    HW122271   1.157   0.772   5.265  1.2801  3.7541  1.5028
 3603SOL    HW222272   1.091   0.833   5.390  1.5957  1.0696 -2.2488
 3604SOL     OW22273   4.498   3.291   0.696 -0.6873 -0.3798 -0.4772
 3604SOL    HW122274   4.503   3.380   0.662 -0.0178 -1.0093 -2.0438
 3604SOL    HW222275   4.405   3.292   0.718 -0.3360 -0.0506  0.9769
 3605SOL     OW22276   4.166   0.526  16.510  0.2399 -0.2364  0.1839
 3605SOL    HW122277   4.243   0.472  16.494  0.5925  0.3117  0.0591
 3605SOL    HW222278   4.170   0.591  16.440 -1.4337 -1.8476 -1.4298
 3606SOL     OW22279   2.665   1.478   2.454 -0.5574  0.3138 -0.1777
 3606SOL    HW122280   2.737   1.520   2.408 -1.1795  1.8925  0.2904
 3606SOL    HW222281   2.707   1.490   2.539  0.6624  2.2270 -1.0579
 3607SOL     OW22282   4.605   2.404  11.701 -0.0255  0.0335  0.2578
 3607SOL    HW122283   4.666   2.331  11.687 -1.3892 -1.0285 -0.1563
 3607SOL    HW222284   4.615   2.416  11.795  1.0578 -0.0434  0.1445
 3608SOL     OW22285   3.243   0.733  16.645  0.9257  0.2070 -0.4094
 3608SOL    HW122286   3.305   0.662  16.628 -0.9546 -1.6051  0.2943
 3608SOL    HW222287   3.165   0.679  16.634  0.0919  0.7174  2.9210
 3609SOL     OW22288   0.976   4.134  13.722  0.3534 -0.0907  0.1998
 3609SOL    HW122289   1.030   4.087  13.659  0.8171  0.9484 -0.1733
 3609SOL    HW222290   1.004   4.225  13.720 -0.6558  0.2437  0.9331
 3610SOL     OW22291   3.239   4.713   7.303  0.3060  0.1883 -0.7726
 3610SOL    HW122292   3.171   4.693   7.367  1.4986 -1.1947  0.0635
 3610SOL    HW222293   3.183   0.013   7.231 -1.6347 -1.7440 -0.0252
 3611SOL     OW22294   3.880   4.184   8.838  0.0436 -0.0743  0.2797
 3611SOL    HW122295   3.852   4.198   8.748  0.2472 -1.1214  0.0570
 3611SOL    HW222296   3.916   4.271   8.856  2.6811 -1.1884  0.3472
 3612SOL     OW22297   2.187   0.635   1.793  0.0842 -0.3393  0.4294
 3612SOL    HW122298   2.139   0.558   1.764  1.0046 -0.1201 -1.6496
 3612SOL    HW222299   2.148   0.650   1.880  0.0137  1.1136  0.1429
 3613SOL     OW22300   3.207   2.486   6.190 -0.3233 -0.2914 -0.0805
 3613SOL    HW122301   3.192   2.462   6.282  1.8003 -1.2337  0.0326
 3613SOL    HW222302   3.267   2.559   6.205 -1.6990  0.3047  2.3647
 3614SOL     OW22303   2.457   2.534   7.803  0.2378  0.0048  0.0588
 3614SOL    HW122304   2.473   2.452   7.849 -0.5238 -0.1973 -0.0464
 3614SOL    HW222305   2.445   2.601   7.871  3.5873 -0.0853  0.7192
 3615SOL     OW22306   2.062   0.868   1.143  0.1313 -0.7835 -0.3245
 3615SOL    HW122307   2.082   0.781   1.178  0.1322 -0.6897 -0.0850
 3615SOL    HW222308   2.040   0.843   1.054  0.8308  0.2099 -0.7669
 3616SOL     OW22309   2.323   3.598   7.211 -0.3888 -0.0705 -0.0197
 3616SOL    HW122310   2.239   3.555   7.225 -0.1309 -1.3154 -2.4113
 3616SOL    HW222311   2.338   3.616   7.304  2.5701  1.2583 -0.7267
 3617SOL     OW22312   0.003   1.060  17.051  0.3288  0.3083  0.0915
 3617SOL    HW122313   4.692   1.133  17.003  2.1578 -0.5295 -2.6617
 3617SOL    HW222314   4.662   1.040  17.114 -1.3007  2.6127 -0.9702
 3618SOL     OW22315   0.954   4.177  10.017  0.2010 -0.0875 -0.3200
 3618SOL    HW122316   0.965   4.265  10.053  1.5782 -0.5267  0.3154
 3618SOL    HW222317   1.034   4.167   9.965 -0.5107  1.5327 -1.7284
 3619SOL     OW22318   2.251   4.622  12.133 -0.1305 -0.6173  0.5501
 3619SOL    HW122319   2.301   4.686  12.084 -1.0600  1.8764  2.8648
 3619SOL    HW222320   2.298   4.602  12.214 -0.7396  0.4904  1.1741
 3620SOL     OW22321   1.730   4.715   7.295  0.5805 -0.7549 -0.2840
 3620SOL    HW122322   1.756   4.665   7.372 -1.0865 -1.0060  0.1121
 3620SOL    HW222323   1.816   0.004   7.257  1.1851  0.9432  1.8568
 3621SOL     OW22324   4.204   4.449   5.503  0.0786  0.2807  0.7991
 3621SOL    HW122325   4.236   4.539   5.516 -0.2226  0.6456 -1.0525
 3621SOL    HW222326   4.289   4.418   5.473  0.7727  3.2113 -0.2533
 3622SOL     OW22327   0.483   2.404   4.630  0.0608  0.6164  0.4084
 3622SOL    HW122328   0.539   2.327   4.637 -1.6322 -0.7361 -1.0249
 3622SOL    HW222329   0.404   2.379   4.679 -0.2705  0.0053 -0.4412
 3623SOL     OW22330   3.691   3.440   6.063 -0.0363  0.1194 -0.7965
 3623SOL    HW122331   3.734   3.525   6.057 -0.6519  0.5375  0.5978
 3623SOL    HW222332   3.744   3.400   6.132 -0.0125  2.0210  0.2959
 3624SOL     OW22333   2.948   0.835  11.800  0.6379  0.1484  0.6028
 3624SOL    HW122334   2.897   0.899  11.750 -1.5723 -0.7606  1.6920
 3624SOL    HW222335   2.996   0.890  11.862 -0.2461  0.0389  1.3747
 3625SOL     OW22336   1.696   2.938   3.172  0.3679  0.4112 -0.2317
 3625SOL    HW122337   1.783   2.932   3.133  0.5695 -1.9553  0.5765
 3625SOL    HW222338   1.641   2.931   3.093  1.0037  1.7775 -0.7894
 3626SOL     OW22339   2.403   4.527   3.448  0.1388  0.4899 -0.3404
 3626SOL    HW122340   2.314   4.542   3.481  0.7658  0.2141  1.5082
 3626SOL    HW222341   2.377   4.454   3.393  2.1640 -0.3434 -0.2011
 3627SOL     OW22342   4.079   3.957  12.303 -0.2173 -0.5278 -0.0699
 3627SOL    HW122343   4.133   3.962  12.382 -2.7038  2.0449  1.4679
 3627SOL    HW222344   4.000   3.916  12.337 -0.4073  0.0850  0.2355
 3628SOL     OW22345   3.511   1.902   1.599 -0.0025  0.0959 -0.1055
 3628SOL    HW122346   3.497   1.930   1.690  1.0030  0.4777 -0.0697
 3628SOL    HW222347   3.422   1.892   1.568 -0.3515  0.3905  0.7871
 3629SOL     OW22348   0.189   3.879  13.898 -0.1314  0.3834 -0.2674
 3629SOL    HW122349   0.252   3.817  13.861  1.1533  1.1570  0.6626
 3629SOL    HW222350   0.250   3.926  13.955 -1.5599 -0.8082  2.2803
 3630SOL     OW22351   4.714   4.243  13.446  0.0753  0.1161 -0.9082
 3630SOL    HW122352   4.675   4.261  13.361  0.6207 -0.8665 -1.3679
 3630SOL    HW222353   4.699   4.148  13.448 -1.8324  0.4066 -2.1643
 3631SOL     OW22354   2.686   1.059   7.858  0.7817 -0.3549  0.2441
 3631SOL    HW122355   2.627   0.988   7.834  0.7148  0.2050 -1.2697
 3631SOL    HW222356   2.773   1.025   7.839  0.8523 -1.6706  2.9816
 3632SOL     OW22357   2.989   0.010  14.846  0.0051  0.2300  0.0682
 3632SOL    HW122358   3.073   0.055  14.860 -1.3598  2.1901  1.9715
 3632SOL    HW222359   3.020   4.650  14.826  1.2786  0.5596  0.5457
 3633SOL     OW22360   3.975   3.903   7.182  0.5012 -0.5758  0.0566
 3633SOL    HW122361   3.934   3.816   7.186  2.2365 -1.3505  0.9182
 3633SOL    HW222362   3.904   3.959   7.213  1.2754  0.2142  0.3901
 3634SOL     OW22363   2.080   2.498   5.986 -0.0771  0.0925  0.6407
 3634SOL    HW122364   2.089   2.456   6.072  0.2488 -2.7483 -0.7860
 3634SOL    HW222365   2.015   2.439   5.951  2.5852 -1.6934 -1.2736
 3635SOL     OW22366   0.678   3.075   6.817  0.1316 -0.6466 -0.3416
 3635SOL    HW122367   0.673   3.148   6.880 -1.9513 -0.1892 -1.0600
 3635SOL    HW222368   0.625   3.012   6.865  0.3268  0.1045  0.8604
 3636SOL     OW22369   3.066   3.621   3.254  0.4247 -0.4318 -0.1765
 3636SOL    HW122370   3.152   3.663   3.258  0.6997 -1.2301  2.4392
 3636SOL    HW222371   3.017   3.703   3.260  2.2578  0.6813 -0.2253
 3637SOL     OW22372   0.120   0.403   4.851  0.8843 -0.4924  0.0413
 3637SOL    HW122373   0.183   0.423   4.921 -0.5518 -4.1530  2.4002
 3637SOL    HW222374   0.069   0.332   4.890  1.5260 -0.8606  0.2093
 3638SOL     OW22375   0.614   2.804   6.742 -0.0867  0.2990  0.1253
 3638SOL    HW122376   0.676   2.871   6.715  2.0701 -1.5172  0.6064
 3638SOL    HW222377   0.529   2.849   6.748  0.2056  0.8837 -0.0917
 3639SOL     OW22378   0.104   0.189   8.681  0.8539 -0.2766 -0.0617
 3639SOL    HW122379   0.056   0.241   8.745  1.0385 -1.1506  0.7770
 3639SOL    HW222380   0.194   0.181   8.713  0.6489  0.6720  0.7236
 3640SOL     OW22381   1.356   1.772   0.634 -0.2142 -0.4134  0.4547
 3640SOL    HW122382   1.286   1.822   0.592  0.8486  0.1619 -0.6454
 3640SOL    HW222383   1.434   1.782   0.578  0.1534 -0.5604  0.9394
 3641SOL     OW22384   2.707   1.616   7.012  0.3281 -0.0903  0.0665
 3641SOL    HW122385   2.716   1.526   6.983  3.2206  0.2226 -0.0161
 3641SOL    HW222386   2.739   1.612   7.102 -1.6102  1.8611  0.8456
 3642SOL     OW22387   0.757   2.421   0.186  0.2113 -0.7351  0.2108
 3642SOL    HW122388   0.833   2.394   0.135 -0.1788 -2.1105  0.3491
 3642SOL    HW222389   0.729   2.495   0.132  0.4860  0.5002  1.7646
 3643SOL     OW22390   3.906   4.042  16.579  0.0665 -0.5697 -0.1415
 3643SOL    HW122391   3.979   4.044  16.641 -0.6443 -0.2397  0.6865
 3643SOL    HW222392   3.837   4.074  16.637 -0.2426 -1.3424 -0.0804
 3644SOL     OW22393   3.626   0.235   3.825  0.2408  0.7378  0.0249
 3644SOL    HW122394   3.651   0.327   3.823  3.4511 -0.1381  0.0637
 3644SOL    HW222395   3.532   0.242   3.841  0.0944  1.7951 -1.3047
 3645SOL     OW22396   3.014   2.430  12.917 -0.4075  0.2744  0.1380
 3645SOL    HW122397   3.100   2.470  12.908 -0.5562  0.8022  1.0936
 3645SOL    HW222398   3.018   2.378  12.836 -2.0445  1.2140 -0.5344
 3646SOL     OW22399   1.901   3.641   3.187 -0.5443 -0.1222 -0.0948
 3646SOL    HW122400   1.855   3.677   3.263  2.2050  0.7185  1.1673
 3646SOL    HW222401   1.839   3.581   3.145 -0.2263  0.9917 -2.2013
 3647SOL     OW22402   3.875   0.563   7.508  0.5366  0.7198 -0.1222
 3647SOL    HW122403   3.924   0.559   7.590 -1.9353 -1.1029  1.2848
 3647SOL    HW222404   3.938   0.581   7.438 -0.3607 -0.3237 -1.1926
 3648SOL     OW22405   1.236   2.589   5.448 -0.7234 -0.1470 -0.2786
 3648SOL    HW122406   1.235   2.665   5.506  1.0490  0.5753 -1.1825
 3648SOL    HW222407   1.201   2.523   5.508 -2.1677  1.9074  1.1031
 3649SOL     OW22408   0.031   1.811   2.842 -0.5695 -0.2332  0.8154
 3649SOL    HW122409   0.082   1.834   2.764  0.6554 -1.3637  1.2751
 3649SOL    HW222410   4.683   1.870   2.839  0.7745  1.3358 -2.4741
 3650SOL     OW22411   1.456   0.480   2.351 -0.2167  0.0540 -0.3832
 3650SOL    HW122412   1.494   0.556   2.395 -0.0622  0.3761 -1.0658
 3650SOL    HW222413   1.521   0.413   2.371  0.2217  0.8852  0.9709
 3651SOL     OW22414   0.489   3.077   2.423  0.5578 -0.5796 -0.0338
 3651SOL    HW122415   0.436   3.025   2.483 -0.4916  0.8973  0.3281
 3651SOL    HW222416   0.471   3.038   2.338 -0.6555 -1.4112  0.6111
 3652SOL     OW22417   3.922   0.251  16.061 -0.0398  0.2361  0.4123
 3652SOL    HW122418   3.966   0.316  16.115 -0.5374  0.5289  0.4687
 3652SOL    HW222419   3.834   0.289  16.061 -0.3002 -0.3117 -2.7958
 3653SOL     OW22420   0.751   0.845   9.024 -0.4280 -0.5604 -0.1956
 3653SOL    HW122421   0.751   0.938   9.049  0.9813 -0.1922 -1.5193
 3653SOL    HW222422   0.813   0.822   9.094  0.1243  0.9053 -0.1984
 3654SOL     OW22423   4.659   3.051  12.940  0.0254  0.0715 -0.1592
 3654SOL    HW122424   0.023   3.074  12.955  0.1670 -1.4038  1.1830
 3654SOL    HW222425   4.665   3.053  12.844  0.1375  2.1027 -0.1106
 3655SOL     OW22426   4.288   4.675   4.157  0.0667  0.1001 -0.0051
 3655SOL    HW122427   4.299   4.581   4.166  0.2485  0.0177 -1.0590
 3655SOL    HW222428   4.305   4.682   4.063  2.0254 -1.9638  0.2008
 3656SOL     OW22429   0.439   4.036   3.535 -0.1726 -0.1967  0.1204
 3656SOL    HW122430   0.359   4.016   3.583  0.4194 -0.8443  0.8446
 3656SOL    HW222431   0.464   4.123   3.565  2.2572 -1.4836  1.8942
 3657SOL     OW22432   3.437   2.561  13.867 -0.1800 -0.1730 -0.2352
 3657SOL    HW122433   3.533   2.557  13.862 -0.3417 -1.1726 -2.4387
 3657SOL    HW222434   3.425   2.650  13.834 -0.5213 -0.1834 -0.1357
 3658SOL     OW22435   1.870   2.674   4.972 -0.6634  0.1314  0.3037
 3658SOL    HW122436   1.878   2.762   5.009  2.7900  1.1273 -2.7879
 3658SOL    HW222437   1.814   2.623   5.030  0.5165 -0.2247  1.1215
 3659SOL     OW22438   3.890   3.407   8.563  0.5282  0.5535  0.3681
 3659SOL    HW122439   3.906   3.315   8.541 -0.9010  0.1152  1.1644
 3659SOL    HW222440   3.897   3.412   8.658 -2.4634 -1.6963  0.6947
 3660SOL     OW22441   1.372   1.009  12.651  0.5189  0.5281  0.2145
 3660SOL    HW122442   1.416   1.054  12.723  1.2067  2.1865 -1.2618
 3660SOL    HW222443   1.412   0.924  12.670 -1.2158 -0.4609 -0.5457
 3661SOL     OW22444   4.064   4.436   4.153  0.2310 -0.4599 -0.2521
 3661SOL    HW122445   4.013   4.497   4.099  0.1661  1.5913  2.1543
 3661SOL    HW222446   3.994   4.371   4.161  0.4302 -0.6288  0.1188
 3662SOL     OW22447   4.243   2.121   9.229  0.5019  0.3005  0.7788
 3662SOL    HW122448   4.158   2.082   9.209  0.1396  0.6847  1.5714
 3662SOL    HW222449   4.296   2.044   9.249 -0.9574 -1.1436 -0.9875
 3663SOL     OW22450   0.217   1.009   5.865  0.8654 -0.2137 -0.6074
 3663SOL    HW122451   0.164   0.943   5.820 -1.6555  0.1193  1.8438
 3663SOL    HW222452   0.296   0.958   5.880  1.6920  0.6298 -2.1656
 3664SOL     OW22453   1.878   0.273  14.486  0.1156  0.3252 -0.1526
 3664SOL    HW122454   1.797   0.231  14.513  1.3930 -2.4542 -0.6103
 3664SOL    HW222455   1.914   0.211  14.422  0.7075 -1.0507  1.4917
 3665SOL     OW22456   4.004   0.370   8.317 -0.4989  0.7706 -0.0175
 3665SOL    HW122457   4.048   0.455   8.310 -0.2458  0.5699 -0.7927
 3665SOL    HW222458   4.033   0.328   8.236 -2.2192  0.1179 -0.3061
 3666SOL     OW22459   3.868   4.360   1.833 -0.2794 -0.3412 -0.2650
 3666SOL    HW122460   3.883   4.445   1.793  0.7251  0.0531  0.9338
 3666SOL    HW222461   3.939   4.354   1.897 -0.2166  0.2231 -0.2790
 3667SOL     OW22462   3.041   0.744   7.145  0.8537 -0.5466 -0.0885
 3667SOL    HW122463   3.120   0.730   7.092  1.1966  0.9669  0.0197
 3667SOL    HW222464   2.988   0.805   7.095  0.7573  0.0382  0.7229
 3668SOL     OW22465   4.484   4.517   7.564  0.4832 -0.4280 -0.0717
 3668SOL    HW122466   4.575   4.534   7.539  0.9183 -0.1822  1.6450
 3668SOL    HW222467   4.493   4.501   7.658 -0.4049 -0.3842  0.0177
 3669SOL     OW22468   0.559   4.576   3.335  0.2995 -0.1284 -0.0690
 3669SOL    HW122469   0.610   4.514   3.284 -0.3206 -1.4766  0.9450
 3669SOL    HW222470   0.613   4.654   3.324 -1.1146  0.8774  0.0754
 3670SOL     OW22471   2.521   0.830   7.821 -0.1825 -0.5597  0.1024
 3670SOL    HW122472   2.428   0.833   7.846 -0.5409 -2.0816 -1.0474
 3670SOL    HW222473   2.559   0.811   7.906 -0.7608 -0.6776  0.3385
 3671SOL     OW22474   0.784   4.525   6.993 -0.7149  0.1078 -0.6963
 3671SOL    HW122475   0.873   4.491   7.000 -0.8600  0.3629  2.4197
 3671SOL    HW222476   0.737   4.451   7.031  0.7431 -0.0552  0.7776
 3672SOL     OW22477   2.717   4.601   4.742 -0.0430 -0.1329  0.0641
 3672SOL    HW122478   2.622   4.610   4.742  0.0550  0.8999  1.3181
 3672SOL    HW222479   2.740   4.691   4.763 -1.1778 -0.1974  1.5705
 3673SOL     OW22480   0.253   0.129   2.096 -0.2446 -0.2614  0.0781
 3673SOL    HW122481   0.240   0.222   2.081 -1.3921 -0.3792  0.3684
 3673SOL    HW222482   0.340   0.140   2.135 -1.4365  0.2526  2.5478
 3674SOL     OW22483   0.002   1.777  11.478  0.2603  0.5048 -0.1322
 3674SOL    HW122484   4.666   1.747  11.543  0.8804 -0.3190  0.0937
 3674SOL    HW222485   0.078   1.721  11.492  0.7319  0.9700 -0.8061
 3675SOL     OW22486   0.144   3.574  15.251 -0.3312 -0.6913 -0.3421
 3675SOL    HW122487   0.159   3.496  15.304  0.8596  0.8453  1.5589
 3675SOL    HW222488   0.210   3.562  15.182  0.1467 -1.3316  0.2282
 3676SOL     OW22489   2.313   2.188  16.340 -0.1744  0.2025 -0.3500
 3676SOL    HW122490   2.260   2.142  16.404  0.1025  1.6762  0.9257
 3676SOL    HW222491   2.255   2.223  16.272  0.3947  0.9124 -0.4793
 3677SOL     OW22492   2.214   0.040   2.641  0.2567 -0.3105 -0.1758
 3677SOL    HW122493   2.269   4.708   2.592  0.5074 -1.2186  1.2030
 3677SOL    HW222494   2.130   0.002   2.615  0.2588 -0.9845  0.7759
 3678SOL     OW22495   2.767   2.229  15.604 -0.6516  0.2646 -0.5890
 3678SOL    HW122496   2.682   2.232  15.647  0.4789 -2.0489  1.7761
 3678SOL    HW222497   2.742   2.259  15.516 -0.2080  0.8652 -0.5122
 3679SOL     OW22498   0.510   4.491   0.885  0.3334  0.0738 -0.6095
 3679SOL    HW122499   0.537   4.581   0.906  1.6043 -0.5473  0.4405
 3679SOL    HW222500   0.500   4.480   0.790  0.2760  0.6624 -0.6762
 3680SOL     OW22501   3.311   1.612   5.724 -0.6905 -0.3226  0.3546
 3680SOL    HW122502   3.323   1.542   5.788 -2.3328 -2.2226 -1.4279
 3680SOL    HW222503   3.276   1.562   5.651 -1.9163  1.6396 -0.4125
 3681SOL     OW22504   0.379   3.180   9.479 -0.4574  0.3158  0.2561
 3681SOL    HW122505   0.470   3.200   9.455 -1.1505  0.1361 -2.5419
 3681SOL    HW222506   0.376   3.230   9.561 -0.8620  4.5285 -2.3344
 3682SOL     OW22507   0.585   4.653   3.647 -0.4620 -0.5785 -0.2098
 3682SOL    HW122508   0.553   0.016   3.641  1.3498  0.2265  2.2677
 3682SOL    HW222509   0.506   4.600   3.659  0.1111 -1.5768 -0.8454
 3683SOL     OW22510   2.129   0.674   3.617 -0.1253 -0.2856  0.1807
 3683SOL    HW122511   2.123   0.703   3.708  0.0102 -0.5697  0.2816
 3683SOL    HW222512   2.176   0.744   3.570  3.5525 -1.6923  1.7118
 3684SOL     OW22513   1.453   2.816  11.488 -0.4190 -0.6637 -0.3891
 3684SOL    HW122514   1.510   2.768  11.547 -0.6220  0.2864  0.5821
 3684SOL    HW222515   1.404   2.739  11.458 -1.0346 -0.3997 -0.0674
 3685SOL     OW22516   1.458   4.652   8.804 -0.3658 -0.3268 -0.0398
 3685SOL    HW122517   1.419   4.565   8.796  1.7620 -1.0690 -2.3797
 3685SOL    HW222518   1.545   4.636   8.840 -1.7047  0.2454  3.4581
 3686SOL     OW22519   0.931   2.414   3.179 -0.2396  0.4256  0.1261
 3686SOL    HW122520   0.908   2.466   3.256  2.5076 -0.2773  1.4264
 3686SOL    HW222521   0.875   2.337   3.183 -1.2289  1.1395  0.0295
 3687SOL     OW22522   2.662   1.543   0.261  0.0453  0.0301 -0.9216
 3687SOL    HW122523   2.655   1.581   0.174 -1.6308 -0.1164 -0.8457
 3687SOL    HW222524   2.593   1.477   0.260 -2.1735  2.3954 -2.5305
 3688SOL     OW22525   3.225   2.249   4.370 -0.2069  0.0474  0.3922
 3688SOL    HW122526   3.140   2.241   4.327  0.3675  0.1111 -0.7702
 3688SOL    HW222527   3.272   2.199   4.303 -0.4309 -0.2564  0.4626
 3689SOL     OW22528   4.535   2.643   2.921 -0.5359  0.2429  0.9188
 3689SOL    HW122529   4.503   2.638   2.831  1.2966  1.8221  0.1911
 3689SOL    HW222530   4.473   2.585   2.966 -0.8661 -1.0247 -1.1414
 3690SOL     OW22531   3.730   3.604  11.053 -0.5568 -0.1075 -0.2942
 3690SOL    HW122532   3.753   3.674  10.992  0.1293  0.7171  0.9065
 3690SOL    HW222533   3.798   3.537  11.053 -1.2864 -0.8462  0.0529
 3691SOL     OW22534   3.316   0.774   5.467  0.6331  0.5321 -0.1362
 3691SOL    HW122535   3.345   0.697   5.417  1.6943  0.5476  0.4646
 3691SOL    HW222536   3.288   0.743   5.553 -0.4634 -1.8808 -1.3631
 3692SOL     OW22537   3.546   1.287   9.722  0.4565 -0.0375  0.0588
 3692SOL    HW122538   3.632   1.324   9.701 -0.3072  1.6146 -0.1766
 3692SOL    HW222539   3.500   1.308   9.641  0.1848  1.1533  0.5305
 3693SOL     OW22540   0.562   0.888   3.913  0.0731 -0.5813 -0.1112
 3693SOL    HW122541   0.532   0.979   3.905  0.1608 -0.5959 -0.6082
 3693SOL    HW222542   0.609   0.867   3.833 -0.0730 -0.5926 -0.1936
 3694SOL     OW22543   0.773   0.240   8.576  0.0424 -0.2715 -0.0139
 3694SOL    HW122544   0.855   0.278   8.544  0.4864 -1.1576  0.0886
 3694SOL    HW222545   0.716   0.312   8.547 -3.1668 -2.6232  0.4574
 3695SOL     OW22546   2.964   3.178  16.301 -0.1242 -0.0582  0.2682
 3695SOL    HW122547   3.014   3.165  16.381  0.0839  0.2085  0.1833
 3695SOL    HW222548   3.016   3.128  16.239  1.6948 -0.0003  1.7655
 3696SOL     OW22549   4.645   2.846   7.837 -0.5311  0.1889 -0.3102
 3696SOL    HW122550   4.567   2.855   7.891 -1.3508 -0.6943 -1.3484
 3696SOL    HW222551   4.628   2.905   7.764  1.8659 -0.2394 -1.2268
 3697SOL     OW22552   0.516   4.623   7.547 -0.0136 -0.5199 -0.1995
 3697SOL    HW122553   0.569   4.616   7.627 -0.1775 -2.7096 -0.2850
 3697SOL    HW222554   0.428   4.623   7.583  0.3175  0.4837  0.6006
 3698SOL     OW22555   3.618   2.453   3.470 -0.2375 -0.3114 -0.4678
 3698SOL    HW122556   3.682   2.385   3.448  1.0935  0.6188  0.4917
 3698SOL    HW222557   3.645   2.522   3.410  0.9680 -0.5624 -0.2092
 3699SOL     OW22558   4.524   3.629  12.473  0.0448  0.3927  0.2427
 3699SOL    HW122559   4.611   3.594  12.489 -0.1033 -0.4685 -0.8407
 3699SOL    HW222560   4.493   3.645  12.562  0.4830 -1.5019  0.7235
 3700SOL     OW22561   1.059   2.905  13.659 -0.5144  0.5056  0.1807
 3700SOL    HW122562   1.089   2.995  13.650  1.0327 -0.0546 -0.4629
 3700SOL    HW222563   1.097   2.848  13.591 -1.1065  0.9299 -0.4932
 3701SOL     OW22564   1.740   1.108  14.428 -0.6222  0.4135 -0.0796
 3701SOL    HW122565   1.788   1.187  14.456 -0.7485  0.5672 -0.2979
 3701SOL    HW222566   1.677   1.102  14.500 -1.2278  1.8919 -0.4781
 3702SOL     OW22567   1.978   0.566   0.967  0.3063  0.4711 -0.8681
 3702SOL    HW122568   2.026   0.525   0.895 -0.7689 -0.5421 -1.0001
 3702SOL    HW222569   1.971   0.497   1.032  0.6646  1.0454 -0.2274
 3703SOL     OW22570   0.476   0.549   5.504  0.0820  0.0043  0.2938
 3703SOL    HW122571   0.490   0.555   5.409 -0.8704 -1.8587  0.0448
 3703SOL    HW222572   0.401   0.609   5.506 -1.4205 -1.9106  1.1218
 3704SOL     OW22573   1.535   3.035  16.306 -0.0135 -0.5172 -0.3599
 3704SOL    HW122574   1.595   2.971  16.267  0.0587 -0.6652 -0.0093
 3704SOL    HW222575   1.581   3.118  16.297  0.9181 -0.8047  1.7296
 3705SOL     OW22576   2.785   1.872   2.014  0.0707 -0.5116  0.7600
 3705SOL    HW122577   2.714   1.821   2.051 -0.8656 -0.7927 -1.4199
 3705SOL    HW222578   2.734   1.946   1.980  0.3637 -2.4077 -3.8299
 3706SOL     OW22579   2.960   1.630   3.314  0.3887 -0.1186 -0.3470
 3706SOL    HW122580   2.922   1.717   3.302  0.5811  0.2489  1.8274
 3706SOL    HW222581   3.025   1.631   3.244 -0.5951 -0.0304 -1.2671
 3707SOL     OW22582   3.018   3.869  10.598 -0.1465 -0.0057 -0.6014
 3707SOL    HW122583   3.064   3.861  10.515  0.1398 -0.4392 -0.4023
 3707SOL    HW222584   3.085   3.821  10.646 -0.1298 -0.5335 -1.1491
 3708SOL     OW22585   3.020   1.188   3.966  0.0670 -0.1994  0.1234
 3708SOL    HW122586   2.943   1.140   3.996  0.0152 -0.6233 -0.7045
 3708SOL    HW222587   3.087   1.120   3.974  2.0227  1.6489 -0.1681
 3709SOL     OW22588   3.324   2.096   8.372  0.2932 -0.1107  0.1220
 3709SOL    HW122589   3.357   2.017   8.416  0.0885 -0.2124  0.0973
 3709SOL    HW222590   3.299   2.155   8.443 -0.2155 -0.2101  0.0279
 3710SOL     OW22591   1.917   0.203   7.074 -0.7991  0.0101 -0.0714
 3710SOL    HW122592   1.938   0.294   7.097  0.4216 -0.9227  2.5297
 3710SOL    HW222593   1.956   0.155   7.148  1.0705  1.8727  0.1599
 3711SOL     OW22594   3.206   2.856  13.941 -0.0784 -0.0503 -0.4156
 3711SOL    HW122595   3.291   2.833  13.979  0.5012 -0.6161 -2.0205
 3711SOL    HW222596   3.193   2.949  13.960 -0.5190 -0.9044  3.4333
 3712SOL     OW22597   3.209   3.495   0.241 -0.0717 -0.1136  1.2959
 3712SOL    HW122598   3.159   3.432   0.190 -1.0185  2.0920 -0.4441
 3712SOL    HW222599   3.235   3.552   0.169 -3.1704  2.7878  2.4620
 3713SOL     OW22600   0.214   3.281   6.444  0.2270  0.1257  0.1383
 3713SOL    HW122601   0.219   3.249   6.353 -0.0551  1.0771 -0.2077
 3713SOL    HW222602   0.172   3.207   6.489  0.2385 -1.7890 -2.9456
 3714SOL     OW22603   2.284   4.093  11.075 -0.2142  0.2709  0.1107
 3714SOL    HW122604   2.318   4.099  11.164 -0.6256  4.1448 -0.0266
 3714SOL    HW222605   2.353   4.133  11.023 -0.3287 -0.5763 -0.6899
 3715SOL     OW22606   4.123   2.037   4.038 -0.7929 -0.0060 -0.4624
 3715SOL    HW122607   4.080   1.972   4.094 -1.4199  0.0809 -0.8466
 3715SOL    HW222608   4.113   2.002   3.950 -0.6493  0.0976 -0.5203
 3716SOL     OW22609   1.493   3.650   2.019 -0.2877  0.7481 -0.0689
 3716SOL    HW122610   1.565   3.673   1.962  0.4194  0.4236  0.6917
 3716SOL    HW222611   1.531   3.572   2.059  0.7237  0.3348 -1.8505
 3717SOL     OW22612   3.770   4.540   6.841 -0.5947 -0.3149 -0.1971
 3717SOL    HW122613   3.779   4.467   6.902  0.0169  1.2647  1.5919
 3717SOL    HW222614   3.855   4.582   6.831 -0.0837 -0.9520  1.4384
 3718SOL     OW22615   0.390   3.502   8.237 -0.1150 -0.6577 -0.0228
 3718SOL    HW122616   0.479   3.489   8.269 -0.5313 -0.7483  1.1268
 3718SOL    HW222617   0.387   3.592   8.271  1.3119 -0.7227  0.2572
 3719SOL     OW22618   0.663   0.910  14.521 -0.0238 -0.7162  0.3025
 3719SOL    HW122619   0.636   0.857  14.446 -3.5584  1.6400 -0.0614
 3719SOL    HW222620   0.614   0.867  14.591 -0.2918 -1.0370 -0.0830
 3720SOL     OW22621   1.622   2.160   7.348 -0.5761  0.1176 -0.2555
 3720SOL    HW122622   1.659   2.142   7.262 -1.1216 -2.1103 -0.0218
 3720SOL    HW222623   1.656   2.247   7.367  2.8328 -1.3438  0.3879
 3721SOL     OW22624   0.384   3.499   4.604 -0.0554  0.0043  0.0433
 3721SOL    HW122625   0.419   3.498   4.693 -0.7891  0.0233  0.3274
 3721SOL    HW222626   0.357   3.408   4.597  0.3274 -0.1518  0.5812
 3722SOL     OW22627   1.972   1.674   7.657  0.0168  0.2721 -0.0509
 3722SOL    HW122628   2.035   1.670   7.585  0.3778  2.3615  0.1640
 3722SOL    HW222629   2.008   1.749   7.704 -1.1819  0.4444  0.5804
 3723SOL     OW22630   4.661   3.000   9.926  0.3290  0.0125  0.5170
 3723SOL    HW122631   4.615   3.077   9.890  1.4740  0.1220 -0.7082
 3723SOL    HW222632   4.588   2.939   9.914 -1.2705  1.9006  0.5510
 3724SOL     OW22633   3.181   3.355   8.040  0.3363 -0.0576  0.3310
 3724SOL    HW122634   3.102   3.393   8.003 -0.2934 -1.5547  0.1399
 3724SOL    HW222635   3.176   3.270   7.997  0.0327  0.0233  0.2066
 3725SOL     OW22636   1.017   2.912   7.489 -0.5088  0.0627  0.1208
 3725SOL    HW122637   0.940   2.863   7.460  1.4262 -2.0670 -1.3609
 3725SOL    HW222638   0.980   2.988   7.535 -1.5866 -0.1295 -0.4373
 3726SOL     OW22639   3.756   1.167  11.455 -0.2390  0.4709  0.5384
 3726SOL    HW122640   3.784   1.244  11.405 -0.1884  0.6894  0.9021
 3726SOL    HW222641   3.674   1.138  11.414 -0.1958  0.5353  0.4052
 3727SOL     OW22642   1.961   4.486   8.100  0.3068 -0.2625  0.2710
 3727SOL    HW122643   1.953   4.401   8.057  1.3205 -0.7513  1.0472
 3727SOL    HW222644   1.901   4.454   8.168 -0.4395  0.2312 -0.1562
 3728SOL     OW22645   1.687   3.519   8.422  0.5593  0.1899 -0.5781
 3728SOL    HW122646   1.627   3.583   8.383 -0.4964  0.4620  1.4840
 3728SOL    HW222647   1.631   3.441   8.424 -1.2198  1.5077  0.2108
 3729SOL     OW22648   3.608   3.763   3.397  0.1444  0.4333 -0.0225
 3729SOL    HW122649   3.652   3.848   3.388  0.1159  0.3723 -0.7778
 3729SOL    HW222650   3.539   3.765   3.463 -1.0655  0.6026 -1.2905
 3730SOL     OW22651   2.353   1.681  15.796 -0.3775 -0.5763  0.8842
 3730SOL    HW122652   2.404   1.693  15.716 -1.4763 -0.9814  0.1142
 3730SOL    HW222653   2.270   1.718  15.766  0.4087 -1.6049 -2.5106
 3731SOL     OW22654   3.951   2.551   7.172  0.2753  0.1411 -0.0344
 3731SOL    HW122655   3.873   2.595   7.208 -1.5469 -1.9363 -1.4809
 3731SOL    HW222656   3.937   2.462   7.204  0.3854 -0.4389 -1.5901
 3732SOL     OW22657   3.817   4.079   5.989 -0.0514  0.1425 -0.6359
 3732SOL    HW122658   3.857   4.159   5.953  0.7951 -0.1329 -0.3005
 3732SOL    HW222659   3.725   4.076   5.963  0.2909 -0.5863 -1.7452
 3733SOL     OW22660   0.049   3.114   6.608  0.4870 -0.1252 -0.4620
 3733SOL    HW122661   4.722   3.085   6.535 -1.2781 -0.3297  0.9472
 3733SOL    HW222662   4.725   3.106   6.688 -0.4051  0.3704 -0.9888
 3734SOL     OW22663   4.519   4.187   8.737 -0.3376  0.4212 -0.4263
 3734SOL    HW122664   4.451   4.208   8.802  1.7911  1.5046  1.4400
 3734SOL    HW222665   4.537   4.276   8.707 -1.6451  0.8924  0.1589
 3735SOL     OW22666   2.357   0.068  11.961  0.1289  0.4286 -0.5757
 3735SOL    HW122667   2.344   0.093  11.869  0.7619 -1.7815 -1.2555
 3735SOL    HW222668   2.443   0.104  11.986  1.5012 -2.6407 -0.8856
 3736SOL     OW22669   1.388   1.978   5.591 -0.2520  0.3678 -0.7828
 3736SOL    HW122670   1.465   2.032   5.609 -1.1765  1.2682  0.4704
 3736SOL    HW222671   1.338   2.007   5.667  1.7973  1.7300  0.0452
 3737SOL     OW22672   3.913   2.164   9.429 -0.1098 -0.3219 -0.3018
 3737SOL    HW122673   3.883   2.091   9.375  0.5266  0.7367 -2.1170
 3737SOL    HW222674   3.997   2.180   9.386  0.0050  0.9948  0.4001
 3738SOL     OW22675   1.954   1.392   4.588 -0.5102  0.3436 -0.3783
 3738SOL    HW122676   2.019   1.372   4.655 -0.0880  0.6416 -0.6912
 3738SOL    HW222677   1.927   1.306   4.555 -2.6896  0.1868  1.8930
 3739SOL     OW22678   0.951   3.017  11.789 -0.2014 -0.2657 -1.0349
 3739SOL    HW122679   0.908   2.984  11.868 -1.0185 -0.0024 -1.3686
 3739SOL    HW222680   0.907   3.099  11.766  0.4009 -0.2453 -2.1560
 3740SOL     OW22681   1.370   0.507   3.016  0.7871  0.7255 -0.0108
 3740SOL    HW122682   1.436   0.575   3.007 -0.3132  1.8729  0.5120
 3740SOL    HW222683   1.426   0.438   3.051  1.7213  0.7824 -1.4061
 3741SOL     OW22684   4.494   2.210   9.160 -0.7037  0.0146  0.0778
 3741SOL    HW122685   4.402   2.199   9.186 -0.6361  0.8620  0.6772
 3741SOL    HW222686   4.491   2.163   9.077 -1.1636  1.3258 -0.6416
 3742SOL     OW22687   2.172   1.909   8.958 -0.1816  0.0907  0.1235
 3742SOL    HW122688   2.078   1.917   8.972 -0.3445  1.5843 -1.8239
 3742SOL    HW222689   2.184   1.818   8.929  1.5083 -0.5558  2.8397
 3743SOL     OW22690   0.433   1.684  14.502  0.3539 -0.3974  0.4746
 3743SOL    HW122691   0.503   1.680  14.437 -0.1765 -2.1368  0.0064
 3743SOL    HW222692   0.474   1.737  14.570  1.3433  1.6158 -1.6788
 3744SOL     OW22693   3.863   1.578   7.267 -0.0912  0.6576 -0.9327
 3744SOL    HW122694   3.901   1.584   7.180 -0.9696 -0.4118 -1.3980
 3744SOL    HW222695   3.910   1.648   7.311  2.3999 -0.4636 -1.8327
 3745SOL     OW22696   4.224   2.173   6.077  0.4031 -0.1855 -0.0647
 3745SOL    HW122697   4.135   2.186   6.109  0.1277 -0.1301 -0.8555
 3745SOL    HW222698   4.238   2.256   6.032  4.6410 -0.3462  0.9750
 3746SOL     OW22699   0.675   1.313   4.176  0.4622  0.0885  0.0087
 3746SOL    HW122700   0.749   1.296   4.235  1.0229 -0.6244 -0.8839
 3746SOL    HW222701   0.703   1.378   4.112 -0.8805  0.8420  0.2133
 3747SOL     OW22702   4.176   0.389   8.091 -0.1703 -0.5306 -0.3037
 3747SOL    HW122703   4.227   0.470   8.090 -2.7271  1.0812  0.7896
 3747SOL    HW222704   4.103   0.418   8.036  0.0398  3.8290  1.7732
 3748SOL     OW22705   1.899   0.387   6.263  0.1104 -0.0144  0.8132
 3748SOL    HW122706   1.855   0.342   6.191  1.1241  0.5495 -0.1662
 3748SOL    HW222707   1.854   0.347   6.338 -1.7414  2.6152  1.1050
 3749SOL     OW22708   2.511   2.577   6.274 -0.2920 -0.0039  0.2603
 3749SOL    HW122709   2.493   2.639   6.203  1.4526 -0.7637 -0.8290
 3749SOL    HW222710   2.571   2.620   6.335 -0.0125  3.4238 -2.4138
 3750SOL     OW22711   4.345   4.050   8.445 -0.5268 -0.4402  0.1088
 3750SOL    HW122712   4.353   4.064   8.351 -3.2601 -0.7360 -0.1542
 3750SOL    HW222713   4.436   4.036   8.470  0.1394 -2.0631 -3.2213
 3751SOL     OW22714   2.371   0.126  13.442 -0.1657 -0.0793  0.3431
 3751SOL    HW122715   2.441   0.184  13.473 -1.2911  1.3302  0.2283
 3751SOL    HW222716   2.382   0.134  13.347 -0.3581 -0.6912  0.2665
 3752SOL     OW22717   1.070   4.529   0.629  0.0225  0.0111  0.3535
 3752SOL    HW122718   1.098   4.577   0.707  0.7415  0.4579 -0.1812
 3752SOL    HW222719   0.981   4.507   0.655 -0.5720  1.3875 -0.5194
 3753SOL     OW22720   3.457   3.163  11.191  0.3212 -0.2016  0.2827
 3753SOL    HW122721   3.434   3.254  11.207 -0.0257 -0.2469  0.0248
 3753SOL    HW222722   3.510   3.147  11.270  0.6719  0.7259  0.2300
 3754SOL     OW22723   2.683   4.538  10.058 -0.2100  0.1051 -0.0344
 3754SOL    HW122724   2.761   4.555  10.006 -0.0107 -2.3081 -0.5004
 3754SOL    HW222725   2.728   4.513  10.139 -1.1628  0.6201  0.6714
 3755SOL     OW22726   1.086   1.478   6.464  0.3592  0.0902 -0.2775
 3755SOL    HW122727   1.038   1.436   6.392 -2.4464 -1.6829  2.6534
 3755SOL    HW222728   1.139   1.406   6.497  1.5307  1.0300 -0.0949
 3756SOL     OW22729   3.563   4.570   8.655 -0.3256  0.2825  0.6089
 3756SOL    HW122730   3.587   4.612   8.572 -0.0510 -2.2114 -0.5747
 3756SOL    HW222731   3.612   4.625   8.716 -1.8850 -0.6580  2.6999
 3757SOL     OW22732   0.327   3.173  15.115 -0.1132  0.0803 -0.2660
 3757SOL    HW122733   0.409   3.220  15.128 -0.9962  1.4464  0.4784
 3757SOL    HW222734   0.304   3.190  15.024  1.1758 -0.2254 -0.6458
 3758SOL     OW22735   1.153   3.739  14.795 -0.4079 -0.0686  0.5253
 3758SOL    HW122736   1.194   3.654  14.813 -0.7917 -0.2631  0.4863
 3758SOL    HW222737   1.230   3.785  14.762 -0.9629  2.0925  2.2229
 3759SOL     OW22738   1.448   3.483   8.800 -0.3875 -0.0726  0.2277
 3759SOL    HW122739   1.474   3.574   8.816  3.1245 -0.4528 -3.0914
 3759SOL    HW222740   1.519   3.437   8.845 -0.1456 -2.1594 -2.2804
 3760SOL     OW22741   4.672   0.561   7.823 -0.5623  0.0358 -0.1940
 3760SOL    HW122742   4.586   0.588   7.792 -0.9554 -1.0603 -0.0238
 3760SOL    HW222743   4.647   0.537   7.912 -0.5426  1.0553  0.0848
 3761SOL     OW22744   0.688   3.167   9.407  0.2402  1.1047  0.0479
 3761SOL    HW122745   0.700   3.151   9.500  1.7447 -2.1451 -0.7210
 3761SOL    HW222746   0.761   3.117   9.369 -0.3917 -0.6701  1.2035
 3762SOL     OW22747   0.866   2.685   1.852  0.3453 -0.5513  0.5811
 3762SOL    HW122748   0.861   2.662   1.945 -1.5155 -0.1041  0.5931
 3762SOL    HW222749   0.863   2.596   1.818  3.8194 -1.0825  1.7109
 3763SOL     OW22750   4.663   3.484   3.879  0.9608  0.4359  0.1815
 3763SOL    HW122751   4.637   3.538   3.804 -1.8113  1.0867  1.6351
 3763SOL    HW222752   0.030   3.481   3.861  0.3526 -2.1335 -2.7864
 3764SOL     OW22753   3.048   0.014   4.788 -0.2737 -0.5445  0.0815
 3764SOL    HW122754   3.041   0.008   4.693  1.2230  0.0768 -0.0659
 3764SOL    HW222755   3.113   4.675   4.809  1.2262  0.7919 -0.3482
 3765SOL     OW22756   3.000   0.522   8.310  0.1126  0.2441  0.2585
 3765SOL    HW122757   3.055   0.533   8.232 -0.2872 -1.3464 -0.2452
 3765SOL    HW222758   2.944   0.451   8.280 -2.7015  1.0596  3.5695
 3766SOL     OW22759   2.830   3.052   6.348  0.3877 -0.0801 -0.4939
 3766SOL    HW122760   2.888   3.123   6.319  1.2604 -0.4321  0.3962
 3766SOL    HW222761   2.887   2.994   6.399 -1.0268  1.2792  2.5938
 3767SOL     OW22762   4.277   3.913   3.318 -0.3780 -0.0088  0.1510
 3767SOL    HW122763   4.372   3.915   3.312 -0.4377 -1.3564 -1.0866
 3767SOL    HW222764   4.252   3.984   3.259 -2.3297 -2.0593 -1.5122
 3768SOL     OW22765   0.351   3.928  10.009 -0.7646  0.2557 -0.3939
 3768SOL    HW122766   0.417   3.996   9.998 -1.0395  0.4000 -1.1999
 3768SOL    HW222767   0.365   3.908  10.101  2.4013 -1.4424 -1.2433
 3769SOL     OW22768   2.086   0.999  14.765  0.3278 -0.1850  0.2934
 3769SOL    HW122769   2.063   0.952  14.845  0.7556 -0.8325  0.0443
 3769SOL    HW222770   2.003   0.997  14.717  0.8980 -0.7466 -0.6806
 3770SOL     OW22771   4.596   0.664   9.206 -0.7171 -0.6093 -0.0580
 3770SOL    HW122772   4.666   0.647   9.143  0.1408  0.4521  0.6012
 3770SOL    HW222773   4.529   0.621   9.153  1.6425 -0.4434 -3.1622
 3771SOL     OW22774   2.052   4.274  13.779 -0.0172  0.3474  0.0587
 3771SOL    HW122775   1.969   4.226  13.774 -0.1317  0.6269 -0.7072
 3771SOL    HW222776   2.054   4.310  13.690  0.3623 -2.3914 -1.0447
 3772SOL     OW22777   2.995   1.840   6.516  0.0875  0.6442  0.2787
 3772SOL    HW122778   2.994   1.856   6.421 -1.3598  0.9787  0.3536
 3772SOL    HW222779   2.926   1.896   6.551  1.4153  1.0442  2.2348
 3773SOL     OW22780   3.536   0.988  14.045 -0.3354 -0.2886  0.0017
 3773SOL    HW122781   3.482   0.909  14.034 -1.0800  0.1084  0.7984
 3773SOL    HW222782   3.494   1.027  14.121 -0.9908 -1.8231  0.4265
 3774SOL     OW22783   4.691   0.037   2.646  0.4349  0.0145  0.1770
 3774SOL    HW122784   4.651   0.103   2.702  1.8679  2.6238 -1.8813
 3774SOL    HW222785   0.033   0.002   2.702 -0.6906 -1.7171  0.5110
 3775SOL     OW22786   1.642   4.552   9.342 -0.1228 -0.2467 -0.0963
 3775SOL    HW122787   1.562   4.570   9.294  0.8484 -0.9081 -1.9626
 3775SOL    HW222788   1.686   4.634   9.318 -0.6647 -0.0836 -0.5431
 3776SOL     OW22789   0.777   0.876   2.395  0.2438  0.5672  0.2591
 3776SOL    HW122790   0.811   0.789   2.372  0.5529  0.7660 -0.0376
 3776SOL    HW222791   0.855   0.919   2.430  0.8583  0.2751 -0.7632
 3777SOL     OW22792   1.874   2.434   8.652 -0.1361  0.0639 -0.0228
 3777SOL    HW122793   1.826   2.353   8.634 -0.9927  0.6313 -0.3168
 3777SOL    HW222794   1.956   2.396   8.684  0.1158  0.4866 -0.1571
 3778SOL     OW22795   3.194   2.264  16.391  0.1971 -1.0767 -0.1327
 3778SOL    HW122796   3.202   2.253  16.296  1.3253 -3.2701  0.2344
 3778SOL    HW222797   3.166   2.177  16.419 -3.0725 -0.9266 -2.8336
 3779SOL     OW22798   3.369   0.824   4.043  0.1104 -0.0657 -0.3820
 3779SOL    HW122799   3.390   0.759   4.110  1.1872  1.7173  1.0046
 3779SOL    HW222800   3.348   0.901   4.096 -2.4560 -0.1512 -1.3084
 3780SOL     OW22801   3.988   1.139   3.322 -0.8844 -0.0435  0.1982
 3780SOL    HW122802   3.924   1.185   3.377 -0.4517 -0.1431  0.7923
 3780SOL    HW222803   4.027   1.081   3.388  0.9587  1.8876  0.8044
 3781SOL     OW22804   1.178   3.419   8.770  0.5392 -0.0296 -0.5165
 3781SOL    HW122805   1.271   3.398   8.764  0.3124 -2.2440  3.9133
 3781SOL    HW222806   1.173   3.482   8.842 -2.9303 -1.1524  0.2132
 3782SOL     OW22807   1.827   4.223   8.507  0.5028  0.1433 -0.5216
 3782SOL    HW122808   1.839   4.128   8.504 -1.8456 -0.2379  2.0048
 3782SOL    HW222809   1.781   4.248   8.587 -1.4221 -1.2195 -1.1916
 3783SOL     OW22810   1.659   1.388   6.592 -0.0783 -0.2928 -0.0079
 3783SOL    HW122811   1.591   1.446   6.625 -1.0995 -0.0144 -2.5949
 3783SOL    HW222812   1.734   1.431   6.634 -0.0893  0.7055 -1.0289
 3784SOL     OW22813   4.054   0.841   4.806  0.0175  0.1603 -0.2957
 3784SOL    HW122814   4.050   0.865   4.899  1.9103 -1.0228  0.0912
 3784SOL    HW222815   4.053   0.924   4.759  1.7243  0.4507  0.1809
 3785SOL     OW22816   1.923   2.053   2.886  0.1851  0.6383 -0.3701
 3785SOL    HW122817   1.972   2.133   2.869 -1.0425  1.0839 -1.7961
 3785SOL    HW222818   1.873   2.034   2.807  0.5720 -2.7378  0.2077
 3786SOL     OW22819   2.114   0.087   3.177 -0.7825 -0.1992  0.0687
 3786SOL    HW122820   2.094   4.722   3.189  0.8584 -0.7572 -1.5365
 3786SOL    HW222821   2.187   0.085   3.115 -0.1880  1.6837  0.7050
 3787SOL     OW22822   2.870   1.643  15.696 -0.0006  0.0491  0.2344
 3787SOL    HW122823   2.871   1.730  15.655 -1.2098 -0.9446 -1.8783
 3787SOL    HW222824   2.961   1.615  15.688 -0.3068 -0.8637 -0.0064
 3788SOL     OW22825   0.270   3.624   6.355 -0.5501  0.1350 -0.1130
 3788SOL    HW122826   0.181   3.652   6.334 -0.2357  0.9920 -0.2987
 3788SOL    HW222827   0.297   3.707   6.393 -3.7815  0.9500  0.4077
 3789SOL     OW22828   2.763   1.529  13.073  0.2413  0.6414  0.5405
 3789SOL    HW122829   2.810   1.580  13.139 -1.1351  0.9621  1.2752
 3789SOL    HW222830   2.682   1.581  13.075 -0.0107  0.2465  0.4584
 3790SOL     OW22831   4.001   3.601   3.480  0.2177  0.0620 -0.4629
 3790SOL    HW122832   4.059   3.677   3.486 -0.2097  0.3841 -0.4032
 3790SOL    HW222833   3.970   3.620   3.392  0.0334 -3.5942 -1.1667
 3791SOL     OW22834   1.680   1.573  10.354 -0.6172  0.8170  0.0566
 3791SOL    HW122835   1.707   1.664  10.366 -3.4880  1.5624  0.8949
 3791SOL    HW222836   1.669   1.539  10.443  1.7733  2.5334  1.0030
 3792SOL     OW22837   3.774   1.676   1.853  0.0270 -0.1087  0.2196
 3792SOL    HW122838   3.865   1.648   1.864 -0.8806 -3.2441 -0.2618
 3792SOL    HW222839   3.776   1.753   1.910  0.3640 -0.1892  0.3186
 3793SOL     OW22840   4.401   0.885   3.330  0.1865  0.0729 -0.6535
 3793SOL    HW122841   4.469   0.835   3.374 -1.2097 -0.9707  0.3315
 3793SOL    HW222842   4.398   0.838   3.247  1.0109 -0.7763 -0.1998
 3794SOL     OW22843   1.090   3.470  13.132 -0.3039  0.6022  0.6041
 3794SOL    HW122844   1.074   3.442  13.042 -2.4787  2.4751  0.3925
 3794SOL    HW222845   1.005   3.509  13.154 -0.2013  0.2694  1.5784
 3795SOL     OW22846   4.665   4.184   6.078 -0.1235 -0.5165 -0.4533
 3795SOL    HW122847   0.020   4.228   6.097 -0.0450 -1.3474  1.0854
 3795SOL    HW222848   4.682   4.159   5.987 -0.3937  0.2394 -0.7150
 3796SOL     OW22849   3.789   4.251  11.637 -0.2032 -0.1562 -0.3927
 3796SOL    HW122850   3.819   4.265  11.727  1.0780  1.9062 -1.1462
 3796SOL    HW222851   3.851   4.185  11.604  1.7709  1.0679  0.8885
 3797SOL     OW22852   0.115   1.867  12.072  0.3778  0.4333  0.1264
 3797SOL    HW122853   0.149   1.885  12.160 -0.7158  1.1987  0.3945
 3797SOL    HW222854   0.075   1.780  12.083 -0.7718  1.0334  0.7630
 3798SOL     OW22855   1.943   4.464  12.228  0.6303  0.4135 -0.1776
 3798SOL    HW122856   2.013   4.494  12.170  0.6464 -1.0729 -0.9263
 3798SOL    HW222857   1.989   4.387  12.261  0.0820 -0.4503 -1.4155
 3799SOL     OW22858   4.392   4.584   7.930 -0.4403 -0.1803 -0.7018
 3799SOL    HW122859   4.487   4.578   7.936 -0.5814 -1.4217  0.2902
 3799SOL    HW222860   4.366   4.532   8.006  0.1857 -0.0311 -0.3789
 3800SOL     OW22861   2.160   3.147  13.236 -0.0612 -0.2545  0.1276
 3800SOL    HW122862   2.217   3.182  13.304 -0.5352 -1.9889  1.4211
 3800SOL    HW222863   2.097   3.090  13.281 -2.3341  1.2884 -1.1093
 3801SOL     OW22864   2.649   3.462   4.234  0.2527  0.3236 -0.1817
 3801SOL    HW122865   2.614   3.379   4.201  0.2364  0.1319  0.3156
 3801SOL    HW222866   2.663   3.512   4.154 -1.3376 -1.7722 -1.7793
 3802SOL     OW22867   3.037   4.339   3.892  0.0450  0.5689  0.5533
 3802SOL    HW122868   3.108   4.361   3.952  0.3939  1.9448 -0.3576
 3802SOL    HW222869   3.072   4.273   3.833 -2.3255 -0.5923  0.4236
 3803SOL     OW22870   3.274   3.230   2.198 -0.8170 -0.0137 -0.2182
 3803SOL    HW122871   3.201   3.182   2.158  0.7721 -1.3976 -1.4131
 3803SOL    HW222872   3.236   3.246   2.285  1.0687 -1.8053  0.9226
 3804SOL     OW22873   3.203   2.784   5.558 -0.1327  0.2201  0.3889
 3804SOL    HW122874   3.239   2.824   5.637  0.1339  1.4497 -0.3558
 3804SOL    HW222875   3.260   2.812   5.487 -1.6480 -1.2551 -1.4334
 3805SOL     OW22876   2.641   3.781   6.387  0.2560  0.5632 -0.7233
 3805SOL    HW122877   2.688   3.826   6.457 -0.6352  0.4295 -0.0197
 3805SOL    HW222878   2.554   3.821   6.394  0.7737  1.5610 -0.1133
 3806SOL     OW22879   1.402   2.488   2.039 -0.8356  0.2635 -0.8158
 3806SOL    HW122880   1.431   2.400   2.064  0.3252  0.8774  0.0348
 3806SOL    HW222881   1.353   2.467   1.960 -1.4638  3.1161 -1.1937
 3807SOL     OW22882   4.707   2.669  15.285  1.1709  0.0316 -0.2291
 3807SOL    HW122883   0.050   2.729  15.261 -0.0066  1.8327  0.8867
 3807SOL    HW222884   4.639   2.726  15.321  1.2347  1.0622 -1.7652
 3808SOL     OW22885   2.010   1.829   3.007 -0.7731  0.2641 -0.2412
 3808SOL    HW122886   1.978   1.911   2.969 -0.0819  0.9337  0.6172
 3808SOL    HW222887   1.987   1.771   2.934  0.8780 -0.4898 -0.1602
 3809SOL     OW22888   0.587   0.650   2.615 -0.0410 -1.0429  0.4385
 3809SOL    HW122889   0.519   0.583   2.618 -3.0380  1.8670 -1.9940
 3809SOL    HW222890   0.660   0.590   2.599  0.4825  0.1378 -1.5327
 3810SOL     OW22891   1.298   1.325   4.811  0.3049 -0.3751 -0.1267
 3810SOL    HW122892   1.276   1.238   4.845  5.4512 -1.5332  0.3845
 3810SOL    HW222893   1.239   1.334   4.737  0.5603 -0.2177 -0.3107
 3811SOL     OW22894   4.130   2.592   3.066  0.4139  0.2398 -0.1468
 3811SOL    HW122895   4.191   2.528   3.030  1.8408  1.7331 -0.3704
 3811SOL    HW222896   4.110   2.651   2.994  2.3429 -0.0770 -0.9229
 3812SOL     OW22897   0.977   1.370   4.202  0.0587 -0.3370  0.2229
 3812SOL    HW122898   1.016   1.361   4.115  2.7604 -0.5751  1.4567
 3812SOL    HW222899   1.051   1.330   4.248  0.5322  1.1082  0.7108
 3813SOL     OW22900   0.653   3.173  14.657  0.1740 -0.0751 -0.4249
 3813SOL    HW122901   0.646   3.085  14.619  2.7365 -0.4003 -0.1406
 3813SOL    HW222902   0.579   3.172  14.718  1.1478  0.9228  0.7427
 3814SOL     OW22903   3.948   1.160   7.241 -0.3034 -0.2036 -0.2782
 3814SOL    HW122904   3.906   1.246   7.234  0.4541  0.1120 -0.9581
 3814SOL    HW222905   3.883   1.116   7.296 -2.1393  3.2342  0.2959
 3815SOL     OW22906   0.166   4.632   7.533  0.2791  0.0042 -0.7918
 3815SOL    HW122907   0.133   4.544   7.552  1.6941 -0.3604 -0.0113
 3815SOL    HW222908   0.094   4.690   7.557  1.3377  1.6103 -1.5053
 3816SOL     OW22909   2.220   3.702  14.714 -0.8131 -0.3894 -0.0466
 3816SOL    HW122910   2.236   3.795  14.726  1.0106 -0.5341 -1.3002
 3816SOL    HW222911   2.152   3.693  14.781 -1.7182 -3.9415 -1.4573
 3817SOL     OW22912   4.192   3.088   9.630  0.0638 -0.0277 -0.3115
 3817SOL    HW122913   4.115   3.143   9.646 -0.1861 -0.5033  0.1158
 3817SOL    HW222914   4.229   3.075   9.718  0.7163  2.4652 -0.2130
 3818SOL     OW22915   1.947   1.250   1.431 -0.1417 -0.5571 -0.5151
 3818SOL    HW122916   1.908   1.228   1.515  0.3061 -0.0115 -0.1679
 3818SOL    HW222917   2.039   1.226   1.439  0.2604  1.3068  0.2058
 3819SOL     OW22918   3.590   1.642   8.807  0.2559  0.2209 -0.1946
 3819SOL    HW122919   3.661   1.701   8.835 -1.4134  1.4321  1.5372
 3819SOL    HW222920   3.516   1.701   8.818  0.5026  0.6534 -0.8998
 3820SOL     OW22921   3.610   3.356  11.703  0.3223  0.9956  0.4874
 3820SOL    HW122922   3.525   3.314  11.716  0.1991  0.8516 -0.7885
 3820SOL    HW222923   3.610   3.376  11.610  0.5161 -0.6494  0.1343
 3821SOL     OW22924   4.308   0.272  16.794 -0.4970  0.5003  0.1689
 3821SOL    HW122925   4.319   0.182  16.827  1.1387  0.6296 -0.0499
 3821SOL    HW222926   4.325   0.252  16.702  0.0895  1.3897  0.0886
 3822SOL     OW22927   1.729   0.233   6.107 -0.5360  0.2839  0.7741
 3822SOL    HW122928   1.768   0.168   6.049 -2.9965 -1.0575  0.6433
 3822SOL    HW222929   1.650   0.193   6.142 -0.7130 -1.5274 -1.7263
 3823SOL     OW22930   0.631   3.363   5.642 -0.2328  0.2630  0.0592
 3823SOL    HW122931   0.623   3.290   5.582  1.4833 -0.3998  0.6497
 3823SOL    HW222932   0.676   3.330   5.720  0.7226 -1.4178 -1.2130
 3824SOL     OW22933   3.613   2.049  10.683 -0.3965 -0.0407  0.0262
 3824SOL    HW122934   3.534   1.997  10.699  0.1653 -0.9207 -0.1131
 3824SOL    HW222935   3.662   1.978  10.643  1.5824  0.9366  0.7113
 3825SOL     OW22936   2.048   1.575   5.724 -0.1193 -0.1035 -0.2563
 3825SOL    HW122937   1.963   1.610   5.751  0.1704  0.9720 -0.7144
 3825SOL    HW222938   2.028   1.563   5.631 -0.6980 -0.7846 -0.0423
 3826SOL     OW22939   2.548   2.727   1.862  0.0208  0.2054  0.3854
 3826SOL    HW122940   2.474   2.729   1.802 -0.9870  1.7958  1.7001
 3826SOL    HW222941   2.548   2.640   1.900  2.0521 -0.7940 -1.8580
 3827SOL     OW22942   3.065   1.819   2.988  0.5144 -0.0085  0.3105
 3827SOL    HW122943   3.117   1.876   2.931  0.9820  0.0109  0.7596
 3827SOL    HW222944   2.980   1.862   2.976 -0.5851 -2.0882  0.7610
 3828SOL     OW22945   3.196   1.482   6.004 -0.4435  0.2040 -0.1471
 3828SOL    HW122946   3.206   1.576   6.019 -1.1770 -0.3852  3.8719
 3828SOL    HW222947   3.254   1.448   6.072 -1.2416  1.1961  1.0244
 3829SOL     OW22948   3.305   0.297  11.828  0.0160 -0.1218  0.2074
 3829SOL    HW122949   3.351   0.337  11.902  0.1728  0.5321 -0.2459
 3829SOL    HW222950   3.371   0.274  11.762 -0.5261 -0.8816 -0.0662
 3830SOL     OW22951   1.618   0.635   3.089  0.3647  0.2262 -0.1514
 3830SOL    HW122952   1.656   0.590   3.164 -1.2081 -1.9209 -0.6357
 3830SOL    HW222953   1.549   0.683   3.135  1.8666  0.7325  1.5530
 3831SOL     OW22954   4.632   2.589  10.970 -0.2391  0.8317 -0.1202
 3831SOL    HW122955   4.539   2.584  10.990 -0.5715 -1.7585 -2.3321
 3831SOL    HW222956   4.626   2.648  10.895  1.3039 -0.6175 -1.3857
 3832SOL     OW22957   2.962   4.347  11.928  0.0977  0.3122  0.4076
 3832SOL    HW122958   2.987   4.310  12.013  3.1092  0.7746 -0.2766
 3832SOL    HW222959   3.051   4.365  11.897  0.5110 -0.0839  1.3479
 3833SOL     OW22960   0.801   3.149   4.977  0.2287 -0.1292  0.1085
 3833SOL    HW122961   0.729   3.132   4.916 -1.1921  0.1049  1.7436
 3833SOL    HW222962   0.859   3.073   4.966 -1.2193 -1.2851  0.5051
 3834SOL     OW22963   3.027   2.403   0.187 -0.1272 -0.0413 -0.2764
 3834SOL    HW122964   2.963   2.407   0.259 -0.0573  0.1387 -0.2253
 3834SOL    HW222965   3.011   2.476   0.127 -0.7865 -0.4610 -0.6152
 3835SOL     OW22966   0.810   3.988   1.439 -0.1205 -0.2681 -0.0293
 3835SOL    HW122967   0.884   3.965   1.495 -1.2235 -0.6909  1.2612
 3835SOL    HW222968   0.817   4.083   1.430 -0.6547 -0.1795  0.4940
 3836SOL     OW22969   3.691   4.053   4.717 -0.1295 -0.2249  0.0110
 3836SOL    HW122970   3.749   3.999   4.664 -2.6675 -1.1334 -1.8244
 3836SOL    HW222971   3.627   3.986   4.739 -1.5431  0.2569 -2.6660
 3837SOL     OW22972   0.462   3.818  15.001 -0.3996  0.1641  0.6798
 3837SOL    HW122973   0.399   3.776  14.943  0.4934  1.4691 -1.2242
 3837SOL    HW222974   0.406   3.877  15.053  0.3136  0.2201  1.3846
 3838SOL     OW22975   3.042   2.025   2.762 -0.1973  1.0342  0.1875
 3838SOL    HW122976   2.967   2.031   2.704  0.5661  2.4270 -0.6526
 3838SOL    HW222977   3.100   1.964   2.717 -0.3687 -1.7464  3.7034
 3839SOL     OW22978   4.419   1.967  15.923 -0.0524  0.7466 -0.1172
 3839SOL    HW122979   4.489   1.986  15.860 -1.2881  1.8205 -1.1513
 3839SOL    HW222980   4.424   2.049  15.973  0.7731  1.6060 -1.5895
 3840SOL     OW22981   3.045   2.067   3.272  0.0963 -0.2476  0.2165
 3840SOL    HW122982   3.089   2.127   3.332  1.3735 -1.8688  0.8967
 3840SOL    HW222983   3.063   2.111   3.190  1.4742  1.3859  1.4040
 3841SOL     OW22984   3.446   0.550  16.708 -0.9134  0.3528 -0.3153
 3841SOL    HW122985   3.423   0.506  16.789  1.8648  1.3348  1.0064
 3841SOL    HW222986   3.542   0.552  16.710 -0.9237  3.0975 -1.4907
 3842SOL     OW22987   3.361   0.496   7.353 -0.3546  0.1969 -0.0845
 3842SOL    HW122988   3.453   0.520   7.363 -0.7668  0.7130  2.4065
 3842SOL    HW222989   3.321   0.583   7.348  1.0223  0.7619 -1.1173
 3843SOL     OW22990   4.332   4.281  15.391  0.1732  0.1076 -0.5193
 3843SOL    HW122991   4.290   4.259  15.474 -0.5775  1.5911 -0.5028
 3843SOL    HW222992   4.387   4.357  15.413  0.1222 -0.1789  0.6137
 3844SOL     OW22993   0.706   3.027   1.483  1.0257  0.1836 -0.3275
 3844SOL    HW122994   0.615   3.000   1.471  1.4728 -1.9128  0.9865
 3844SOL    HW222995   0.715   3.037   1.577  1.0781 -0.9817 -0.2084
 3845SOL     OW22996   3.757   3.550   4.591  0.1524  0.3127  0.3220
 3845SOL    HW122997   3.690   3.514   4.649  0.8901 -1.3758  0.1198
 3845SOL    HW222998   3.841   3.532   4.632  0.4667  2.8085  0.7848
 3846SOL     OW22999   1.373   2.628   8.046  0.6883  0.1408  0.2378
 3846SOL    HW123000   1.330   2.707   8.078 -1.8641 -1.5661  0.9710
 3846SOL    HW223001   1.462   2.661   8.036  0.6179 -0.0893 -1.2353
 3847SOL     OW23002   0.239   2.144   3.303 -0.6331 -0.0498 -0.4113
 3847SOL    HW123003   0.179   2.206   3.263 -1.8634 -1.0473 -0.1111
 3847SOL    HW223004   0.199   2.066   3.264  0.0290 -0.6373  0.0631
 3848SOL     OW23005   0.105   2.471   7.468 -1.1850  0.0793 -0.1274
 3848SOL    HW123006   0.104   2.550   7.522  1.8348  0.0338  0.0376
 3848SOL    HW223007   0.028   2.421   7.494 -1.3413  0.2651 -0.2428
 3849SOL     OW23008   0.470   3.219   3.447  0.2549  0.0073  0.1081
 3849SOL    HW123009   0.552   3.244   3.489 -0.3046  0.0402  1.1720
 3849SOL    HW223010   0.490   3.272   3.369 -0.6444 -0.5568 -0.5177
 3850SOL     OW23011   3.329   3.055   1.089  0.2630  0.6037  0.0635
 3850SOL    HW123012   3.369   3.088   1.009 -0.7710  0.2884 -0.5941
 3850SOL    HW223013   3.306   2.967   1.059 -1.6148  1.6738 -1.6799
 3851SOL     OW23014   0.604   2.453   7.992 -0.6089  0.1491  0.0741
 3851SOL    HW123015   0.577   2.539   8.022 -1.3302 -1.3924  3.9132
 3851SOL    HW223016   0.689   2.442   8.034 -0.4535 -0.7633 -0.4610
 3852SOL     OW23017   1.787   0.460   2.953  0.2406 -0.1456 -0.4799
 3852SOL    HW123018   1.842   0.456   3.031  1.8638 -0.1481 -1.6312
 3852SOL    HW223019   1.726   0.531   2.972 -0.0338 -0.5365  0.1013
 3853SOL     OW23020   3.477   2.884   5.776  0.0626 -0.6883 -0.3791
 3853SOL    HW123021   3.439   2.934   5.703  1.1061  0.5864 -0.0294
 3853SOL    HW223022   3.482   2.944   5.850  0.3313 -0.4952 -0.5517
 3854SOL     OW23023   4.722   1.674  16.531 -0.0010  0.1297 -0.1495
 3854SOL    HW123024   4.671   1.755  16.527  0.3593  0.2873 -1.4800
 3854SOL    HW223025   4.715   1.650  16.624  1.7851  0.1576  0.0042
 3855SOL     OW23026   1.459   2.455  15.592  0.7369 -0.0937 -1.0145
 3855SOL    HW123027   1.521   2.512  15.548  1.1707 -0.5959 -1.0443
 3855SOL    HW223028   1.378   2.502  15.572 -0.1974 -0.1134  2.7249
 3856SOL     OW23029   0.875   4.599   5.491  0.0002 -0.0309  0.1646
 3856SOL    HW123030   0.853   4.542   5.564  1.5021 -0.9870 -0.1331
 3856SOL    HW223031   0.845   4.550   5.415 -3.6427 -0.1887  1.7264
 3857SOL     OW23032   1.852   4.659   5.071  0.4818 -0.4785  0.5724
 3857SOL    HW123033   1.928   4.703   5.031 -0.9652  1.2981 -0.1949
 3857SOL    HW223034   1.780   4.708   5.032  0.0088 -0.4070  1.5553
 3858SOL     OW23035   4.432   2.228   4.628  0.1633 -0.1720  0.3375
 3858SOL    HW123036   4.459   2.305   4.577 -1.3697  1.0220  1.2978
 3858SOL    HW223037   4.444   2.261   4.717 -1.5320  1.3175  0.0268
 3859SOL     OW23038   2.355   0.504   7.584 -0.5102  0.6352  0.2103
 3859SOL    HW123039   2.417   0.439   7.616 -0.8543  1.1037  1.8033
 3859SOL    HW223040   2.393   0.591   7.591  0.9163 -0.0726  1.2022
 3860SOL     OW23041   1.286   0.399   4.671  0.0929 -0.0741 -0.2674
 3860SOL    HW123042   1.277   0.372   4.580  2.1449 -0.4154 -0.3672
 3860SOL    HW223043   1.335   0.480   4.662 -0.0331 -0.0224 -0.4897
 3861SOL     OW23044   3.979   4.316   2.994 -0.2557  0.0827  0.4066
 3861SOL    HW123045   3.989   4.394   2.940 -2.5811 -0.8770 -1.4049
 3861SOL    HW223046   4.063   4.269   2.986 -1.1922 -1.5553  0.2237
 3862SOL     OW23047   2.526   0.452  15.731 -1.1119 -0.1116  0.0193
 3862SOL    HW123048   2.594   0.385  15.725 -2.2619 -1.1002 -2.2449
 3862SOL    HW223049   2.452   0.409  15.774 -2.8111  2.6581 -0.1324
 3863SOL     OW23050   2.469   1.724   1.529 -0.2740  0.0186  0.1714
 3863SOL    HW123051   2.429   1.769   1.603  0.4793  1.5080 -0.3234
 3863SOL    HW223052   2.543   1.784   1.519  1.5985 -2.7598 -2.8268
 3864SOL     OW23053   1.702   2.238  15.769  0.3138  0.1210  1.0095
 3864SOL    HW123054   1.787   2.269  15.800  1.3378 -1.3163 -0.3471
 3864SOL    HW223055   1.705   2.269  15.679  0.6914 -0.7678  0.7174
 3865SOL     OW23056   2.586   0.719   2.635  0.2757  0.6944 -0.2581
 3865SOL    HW123057   2.535   0.736   2.714 -0.7863  2.3325 -1.2944
 3865SOL    HW223058   2.667   0.768   2.654 -0.0669  0.6639  1.3112
 3866SOL     OW23059   4.642   1.852   8.940 -0.2472 -0.2687  0.5799
 3866SOL    HW123060   4.660   1.760   8.961  0.4640 -0.7654 -2.1703
 3866SOL    HW223061   0.003   1.887   8.929 -0.2901 -0.8219 -1.6384
 3867SOL     OW23062   3.295   1.896  11.584  0.3209 -0.4266 -0.0937
 3867SOL    HW123063   3.286   1.986  11.613 -1.5378 -1.3812  2.2575
 3867SOL    HW223064   3.383   1.877  11.617  1.5827 -2.1172 -4.3533
 3868SOL     OW23065   2.180   2.307   3.886  0.4028 -0.3286 -0.1409
 3868SOL    HW123066   2.131   2.350   3.816 -2.8217  0.2705  2.4676
 3868SOL    HW223067   2.177   2.213   3.871  1.5735 -0.5203  0.7986
 3869SOL     OW23068   2.415   1.961   3.148 -0.0848  0.5476  0.1448
 3869SOL    HW123069   2.427   1.873   3.184 -0.0379  0.2030 -0.7121
 3869SOL    HW223070   2.492   2.011   3.175  0.0175  0.7588 -0.5442
 3870SOL     OW23071   3.091   0.764   9.523  0.4320  0.0562  0.3636
 3870SOL    HW123072   3.099   0.698   9.455 -0.1221 -0.8706  1.1942
 3870SOL    HW223073   2.997   0.755   9.544  0.5742  0.8374  1.3682
 3871SOL     OW23074   0.612   0.351   6.076 -0.8107 -0.0606  0.5375
 3871SOL    HW123075   0.583   0.268   6.038  0.1690 -0.7467  1.2917
 3871SOL    HW223076   0.604   0.326   6.168  0.4667 -0.7372  0.4637
 3872SOL     OW23077   3.629   2.534  10.150  0.8958  0.1613  0.3503
 3872SOL    HW123078   3.539   2.509  10.132  0.9960  2.3824 -3.1941
 3872SOL    HW223079   3.607   2.627  10.160  0.2123  0.1990 -1.5976
 3873SOL     OW23080   4.432   4.723   5.288  0.6604  0.0272 -0.3384
 3873SOL    HW123081   4.458   0.083   5.261 -0.8232  0.2612 -0.9877
 3873SOL    HW223082   4.428   4.676   5.204 -2.0980 -0.0485 -0.1790
 3874SOL     OW23083   1.633   2.736  11.710  0.9325  0.2012 -0.2427
 3874SOL    HW123084   1.712   2.778  11.675  2.2436 -2.7967 -0.9002
 3874SOL    HW223085   1.670   2.663  11.760  0.6404  0.4722  0.3630
 3875SOL     OW23086   0.939   3.796  15.875  0.3318  0.5044 -0.2466
 3875SOL    HW123087   0.926   3.762  15.963  2.6517  0.9852  0.3055
 3875SOL    HW223088   0.982   3.721  15.834  1.0648  0.4885  0.5461
 3876SOL     OW23089   1.298   0.596   5.932  0.1232  0.3981  0.4847
 3876SOL    HW123090   1.391   0.616   5.924  0.5782 -1.1013  1.8237
 3876SOL    HW223091   1.289   0.604   6.027  0.7609 -0.3022  0.6135
 3877SOL     OW23092   2.964   2.928   8.425 -0.4031  0.1610  0.9040
 3877SOL    HW123093   3.036   2.870   8.400  0.8127  0.8902  2.7151
 3877SOL    HW223094   2.894   2.888   8.373  2.1738 -0.0042 -2.4352
 3878SOL     OW23095   2.796   0.947   2.915 -0.4413  0.2573 -0.0733
 3878SOL    HW123096   2.750   1.027   2.891 -2.4841 -1.2999 -1.4011
 3878SOL    HW223097   2.825   0.930   2.825 -0.5855  1.6536 -0.3743
 3879SOL     OW23098   4.257   0.524   9.759  0.1019  0.2194  0.3083
 3879SOL    HW123099   4.277   0.504   9.667  1.2612 -0.2875  0.6685
 3879SOL    HW223100   4.339   0.570   9.777  0.8751 -1.7314  1.7182
 3880SOL     OW23101   4.552   4.637  12.495  0.6782 -0.3896 -0.2465
 3880SOL    HW123102   4.594   4.586  12.564 -1.2364 -0.0247  1.1619
 3880SOL    HW223103   4.495   4.689  12.550  0.1107 -0.1840 -1.0237
 3881SOL     OW23104   1.615   2.361   4.992 -0.0102  0.7570 -0.1450
 3881SOL    HW123105   1.526   2.337   5.018  0.6440 -2.7764 -1.0515
 3881SOL    HW223106   1.638   2.439   5.041 -1.2676  1.5704 -0.8581
 3882SOL     OW23107   3.553   0.025   5.027  0.4013 -0.2680  0.1129
 3882SOL    HW123108   3.592   0.108   5.002  0.3882 -0.6686 -1.2305
 3882SOL    HW223109   3.549   4.709   4.942 -0.3431 -1.2076  0.6317
 3883SOL     OW23110   4.125   4.041   8.610 -0.5496  0.2601  0.5906
 3883SOL    HW123111   4.209   4.038   8.563 -0.8291 -0.7971  0.1541
 3883SOL    HW223112   4.101   3.949   8.622 -2.4872  0.7477  0.4282
 3884SOL     OW23113   3.465   1.126   5.615 -0.1504  0.3823  0.2518
 3884SOL    HW123114   3.487   1.093   5.527  1.0690  0.4878  0.5184
 3884SOL    HW223115   3.374   1.154   5.606  0.3982  2.0538 -0.0224
 3885SOL     OW23116   3.514   0.250   1.967 -0.4515 -0.2819 -0.0035
 3885SOL    HW123117   3.529   0.168   2.012  3.0766  1.1799  1.4359
 3885SOL    HW223118   3.600   0.277   1.936  0.2521  0.2151  2.4184
 3886SOL     OW23119   3.822   1.154   4.747  0.1675 -0.8604  0.6109
 3886SOL    HW123120   3.765   1.077   4.744 -0.3547 -0.4519 -0.0219
 3886SOL    HW223121   3.820   1.194   4.834 -1.3073  0.2563  0.0816
 3887SOL     OW23122   3.836   2.511  15.525  0.4942  0.2304  0.0453
 3887SOL    HW123123   3.846   2.466  15.441 -1.3277 -1.4842  0.7534
 3887SOL    HW223124   3.779   2.581  15.494 -0.6124 -0.8013 -0.2457
 3888SOL     OW23125   4.224   3.368   6.936  0.3560  0.2610 -0.0826
 3888SOL    HW123126   4.294   3.345   6.997 -1.3214  1.9400  2.5099
 3888SOL    HW223127   4.206   3.287   6.889 -0.9046 -1.1267  2.7829
 3889SOL     OW23128   3.181   2.384   5.887 -0.2748  0.3775  0.0261
 3889SOL    HW123129   3.121   2.309   5.887 -0.5611  0.6073 -2.7968
 3889SOL    HW223130   3.116   2.451   5.868 -0.7388  0.2887  1.3523
 3890SOL     OW23131   4.212   1.734   4.687 -0.1452 -0.0377 -0.7725
 3890SOL    HW123132   4.129   1.764   4.649 -0.8747 -0.6243  0.3396
 3890SOL    HW223133   4.229   1.802   4.752  0.1683  0.3297 -1.2408
 3891SOL     OW23134   2.341   3.113   6.932  0.7849  0.0221 -0.4314
 3891SOL    HW123135   2.271   3.176   6.951  1.0544  0.9210 -2.3702
 3891SOL    HW223136   2.344   3.063   7.013  0.8845 -1.1334 -1.1466
 3892SOL     OW23137   2.357   3.237   8.667 -0.3004 -0.1701 -0.0769
 3892SOL    HW123138   2.382   3.172   8.733 -1.4187  1.0204  1.5267
 3892SOL    HW223139   2.439   3.253   8.622  0.4673 -1.3637  0.8898
 3893SOL     OW23140   1.933   1.016   8.207 -0.6419 -0.6737 -0.7924
 3893SOL    HW123141   1.977   1.101   8.218  1.5723 -1.7148 -1.6629
 3893SOL    HW223142   1.914   0.989   8.297  1.5602 -1.8927 -0.6958
 3894SOL     OW23143   3.145   3.739  10.021 -0.3759  0.6115 -0.2713
 3894SOL    HW123144   3.125   3.776   9.935 -2.1593 -1.7399 -0.8542
 3894SOL    HW223145   3.204   3.810  10.048 -0.7501  1.1122 -0.7783
 3895SOL     OW23146   3.559   1.650  11.175  0.2495  0.2019  0.5830
 3895SOL    HW123147   3.491   1.606  11.225 -0.2715 -0.3946 -0.6296
 3895SOL    HW223148   3.585   1.576  11.119  0.7620 -1.2154  2.6900
 3896SOL     OW23149   4.048   1.448   5.344 -0.4751 -0.1738 -0.2085
 3896SOL    HW123150   4.127   1.492   5.315 -0.6662 -1.3835 -2.5300
 3896SOL    HW223151   3.986   1.493   5.286 -0.7029 -2.5553 -1.8010
 3897SOL     OW23152   4.166   3.113  17.268  0.3458  0.5574  0.8150
 3897SOL    HW123153   4.118   3.131  17.188 -0.1387 -2.6173  0.3668
 3897SOL    HW223154   4.252   3.147  17.245  0.8762  0.1425  2.1621
 3898SOL     OW23155   3.885   2.354   2.098  0.2060 -0.0412 -0.0160
 3898SOL    HW123156   3.892   2.309   2.183  0.4229  0.1593  0.0742
 3898SOL    HW223157   3.885   2.446   2.122 -2.0175 -0.2800  0.9030
 3899SOL     OW23158   4.062   2.685   5.414 -0.1391 -0.1786 -0.0944
 3899SOL    HW123159   4.026   2.763   5.455  0.8867  1.3732 -2.1417
 3899SOL    HW223160   3.984   2.629   5.418 -0.7104  0.5312 -1.3776
 3900SOL     OW23161   0.089   0.064   8.426  0.1660  0.0856  0.1156
 3900SOL    HW123162   0.067   0.110   8.507  0.9450 -2.7766  1.9560
 3900SOL    HW223163   0.111   4.706   8.462  2.2969  0.1464 -1.0450
 3901SOL     OW23164   4.405   2.102  12.726 -0.3575 -0.5317 -0.2541
 3901SOL    HW123165   4.368   2.135  12.808 -1.7879 -2.4518 -0.1107
 3901SOL    HW223166   4.362   2.163  12.666  4.5703  0.1687 -3.0291
 3902SOL     OW23167   1.081   3.987   0.131  0.0976 -0.5835 -0.1373
 3902SOL    HW123168   1.120   4.062   0.176 -1.8819 -1.4584  3.0052
 3902SOL    HW223169   1.048   4.029   0.051  0.1850 -1.2433 -0.5252
 3903SOL     OW23170   1.388   3.452   2.478  0.0759 -0.3825  0.0368
 3903SOL    HW123171   1.383   3.391   2.551  1.5195  0.0698  0.5128
 3903SOL    HW223172   1.309   3.501   2.498 -0.5243 -1.6085  0.6514
 3904SOL     OW23173   2.881   4.125  10.059  0.0574  0.0146 -0.0263
 3904SOL    HW123174   2.849   4.116   9.970  0.2321 -1.5335  0.0580
 3904SOL    HW223175   2.812   4.174  10.103 -1.0201  0.5701 -2.3473
 3905SOL     OW23176   1.820   1.177   4.539  0.5402 -0.5717  0.4377
 3905SOL    HW123177   1.805   1.150   4.630 -0.7678  0.3265  0.5008
 3905SOL    HW223178   1.730   1.172   4.506  0.6709  0.0008  0.0041
 3906SOL     OW23179   4.004   4.382   0.769  0.2283 -0.1050  0.4584
 3906SOL    HW123180   3.949   4.310   0.739 -1.4726  1.0958  0.7401
 3906SOL    HW223181   4.051   4.330   0.834  0.0825 -1.0295 -0.1785
 3907SOL     OW23182   4.016   0.070   2.701 -0.0034 -0.2605 -0.2636
 3907SOL    HW123183   3.982   0.150   2.740 -1.0891 -0.4793 -0.7469
 3907SOL    HW223184   3.938   0.027   2.665 -1.7594  0.2016  3.0444
 3908SOL     OW23185   2.084   0.260   4.496  0.1569 -0.0009  0.1612
 3908SOL    HW123186   2.165   0.289   4.538  0.2210  3.3791 -2.2850
 3908SOL    HW223187   2.041   0.202   4.559 -1.0290  0.7106 -0.0031
 3909SOL     OW23188   2.892   3.912   7.087  0.2148  0.1057  0.6396
 3909SOL    HW123189   2.938   3.957   7.158 -0.0429 -0.8809  1.4225
 3909SOL    HW223190   2.892   3.822   7.117 -0.8219  0.5487  1.9731
 3910SOL     OW23191   2.030   1.156   3.437 -0.7645 -0.5191 -0.1179
 3910SOL    HW123192   1.996   1.230   3.387  0.5235  1.3650  1.7980
 3910SOL    HW223193   2.109   1.196   3.473 -0.7960 -1.2079  0.7314
 3911SOL     OW23194   3.623   3.495   3.468  0.0227  0.0245 -0.1151
 3911SOL    HW123195   3.646   3.583   3.497 -3.4699  0.8357  0.0620
 3911SOL    HW223196   3.580   3.524   3.388  0.5163  1.6395  0.2174
 3912SOL     OW23197   2.788   3.451   2.283 -0.1238  0.0524  0.4100
 3912SOL    HW123198   2.801   3.465   2.190 -2.5562  0.7175  0.1837
 3912SOL    HW223199   2.819   3.536   2.316 -0.8012  0.2079  0.6448
 3913SOL     OW23200   0.617   3.677   2.788  0.2928  0.6194  0.2647
 3913SOL    HW123201   0.632   3.745   2.854  1.2369  1.5533 -0.8961
 3913SOL    HW223202   0.682   3.611   2.810 -1.2790  0.2450  3.7396
 3914SOL     OW23203   4.043   1.454   3.606  0.3354  0.2360 -0.5990
 3914SOL    HW123204   3.972   1.391   3.593 -0.1394 -0.1136  3.8122
 3914SOL    HW223205   3.995   1.535   3.623  0.2561  0.3006 -1.1317
 3915SOL     OW23206   0.451   4.648   2.577 -0.3726  0.2509  0.3170
 3915SOL    HW123207   0.405   4.694   2.507 -3.0911 -0.7629  1.4666
 3915SOL    HW223208   0.537   4.691   2.574 -0.2135 -0.1384 -0.6147
 3916SOL     OW23209   3.491   0.223   5.920  0.3619 -0.1969 -0.8740
 3916SOL    HW123210   3.499   0.162   5.993 -0.7206 -1.8483 -2.1398
 3916SOL    HW223211   3.398   0.213   5.903  0.3601  0.3482 -1.1877
 3917SOL     OW23212   1.462   4.717   8.545  0.3522  0.5535 -0.1572
 3917SOL    HW123213   1.440   4.704   8.637  2.0106 -1.3208 -0.0360
 3917SOL    HW223214   1.553   0.016   8.560  0.6764  0.6843 -2.4429
 3918SOL     OW23215   1.582   4.539  17.357  0.3555  0.0562 -0.0297
 3918SOL    HW123216   1.566   4.584  17.274  1.3797 -2.9212 -1.8604
 3918SOL    HW223217   1.677   4.543  17.368  0.5153 -0.1887 -1.3686
 3919SOL     OW23218   4.501   3.012   6.055  0.0876 -0.6860 -0.0764
 3919SOL    HW123219   4.414   2.994   6.093  1.2990 -1.3318  2.4290
 3919SOL    HW223220   4.483   2.988   5.964 -2.0682  2.8012 -0.5731
 3920SOL     OW23221   4.693   4.211   7.793 -0.4167 -0.6663  0.0458
 3920SOL    HW123222   4.693   4.119   7.765  1.3909 -0.7401  0.2746
 3920SOL    HW223223   4.661   4.251   7.712 -1.8260 -0.0218  0.9226
 3921SOL     OW23224   1.383   4.330   6.126  0.2562 -0.0459  0.1924
 3921SOL    HW123225   1.306   4.278   6.151  0.7150 -0.3828  0.9023
 3921SOL    HW223226   1.440   4.299   6.196  0.3029  1.2534  0.7397
 3922SOL     OW23227   4.664   1.058  15.716 -0.1309 -0.2538 -0.0628
 3922SOL    HW123228   4.717   1.125  15.760 -1.8154  1.2447 -0.3205
 3922SOL    HW223229   4.575   1.066  15.752 -0.5604 -1.6429 -0.8309
 3923SOL     OW23230   1.890   2.707   7.574 -0.0867 -0.3747  0.3751
 3923SOL    HW123231   1.889   2.779   7.637  1.5563 -1.0613  1.1610
 3923SOL    HW223232   1.879   2.749   7.488 -2.8883  1.2736  1.5326
 3924SOL     OW23233   2.519   1.878   4.602  0.2578  0.3271 -0.0839
 3924SOL    HW123234   2.609   1.848   4.606  0.2539  0.0030 -2.5807
 3924SOL    HW223235   2.466   1.836   4.671  1.8762 -1.4857  0.0526
 3925SOL     OW23236   4.520   0.696   3.641  0.0448 -0.2784  0.3786
 3925SOL    HW123237   4.575   0.696   3.720 -0.6178 -0.7898  0.8377
 3925SOL    HW223238   4.493   0.604   3.640  0.0546 -0.3136  2.1142
 3926SOL     OW23239   2.857   1.074   4.177 -0.3175  0.6932 -0.2046
 3926SOL    HW123240   2.909   1.079   4.257  2.7351 -3.7799 -1.9019
 3926SOL    HW223241   2.778   1.122   4.204 -0.3575 -0.3929  1.5984
 3927SOL     OW23242   1.376   1.513   2.945 -0.0434 -0.5617  0.0910
 3927SOL    HW123243   1.295   1.516   2.894 -0.9140  0.3429  1.5091
 3927SOL    HW223244   1.426   1.585   2.906  0.5237 -0.3270  1.2409
 3928SOL     OW23245   0.050   2.256   9.739 -0.0940  0.0913  0.2867
 3928SOL    HW123246   0.126   2.199   9.733 -0.5510 -0.5434  0.5325
 3928SOL    HW223247   0.053   2.302   9.655 -2.4089  1.3929  0.9091
 3929SOL     OW23248   1.823   4.089   6.239 -0.2053  0.5858  0.2314
 3929SOL    HW123249   1.789   4.153   6.302 -0.0788  1.2591 -0.3793
 3929SOL    HW223250   1.815   4.137   6.156 -1.3860 -1.1607 -0.6531
 3930SOL     OW23251   1.029   2.199   2.344  0.3820 -0.4628 -0.1136
 3930SOL    HW123252   1.104   2.254   2.321  0.8141 -0.0272  2.3823
 3930SOL    HW223253   1.012   2.169   2.254 -0.7989  1.8085 -0.6706
 3931SOL     OW23254   1.270   4.343   0.767  0.0064 -0.5086  0.8307
 3931SOL    HW123255   1.358   4.381   0.764 -0.2877  0.0645 -0.6776
 3931SOL    HW223256   1.261   4.344   0.862 -4.8369  1.6200  0.3824
 3932SOL     OW23257   0.231   4.176   1.811  0.3202  0.6657 -0.1053
 3932SOL    HW123258   0.181   4.255   1.792 -0.9224 -0.7171 -2.5495
 3932SOL    HW223259   0.279   4.157   1.731  0.2897  0.6368 -0.1169
 3933SOL     OW23260   1.728   2.631   2.986  0.1381 -0.1942 -0.2302
 3933SOL    HW123261   1.821   2.612   3.003 -1.2893 -5.0997  1.8860
 3933SOL    HW223262   1.679   2.553   3.009 -0.1576  0.0719  0.0446
 3934SOL     OW23263   4.092   3.192  15.880 -0.5180  0.4199  0.1368
 3934SOL    HW123264   4.175   3.202  15.926  0.4340  1.0967 -1.7288
 3934SOL    HW223265   4.115   3.233  15.797 -0.2465 -0.7774 -0.3798
 3935SOL     OW23266   3.125   4.613   5.767 -0.1681 -0.4285 -0.3992
 3935SOL    HW123267   3.217   4.583   5.768  0.3012  0.9764 -3.2703
 3935SOL    HW223268   3.124   4.654   5.854  0.8124 -0.4284 -0.3868
 3936SOL     OW23269   3.735   3.784   1.947  0.2741  0.3944 -0.4088
 3936SOL    HW123270   3.686   3.768   2.028  1.3581  0.2667  0.2148
 3936SOL    HW223271   3.789   3.705   1.953  1.4241  1.2301  0.2091
 3937SOL     OW23272   2.126   4.557   2.858  0.4185 -0.1369 -0.3988
 3937SOL    HW123273   2.217   4.541   2.832  0.9886  1.0333  0.8925
 3937SOL    HW223274   2.086   4.512   2.784 -1.7345 -0.3126  0.8716
 3938SOL     OW23275   3.172   4.515  11.861  0.1351 -0.0019 -0.3225
 3938SOL    HW123276   3.111   4.541  11.791 -0.5897  0.6683  0.5549
 3938SOL    HW223277   3.128   4.559  11.934  0.8988  2.7066 -1.4880
 3939SOL     OW23278   1.547   3.044  11.104 -0.3711 -0.3148  0.1486
 3939SOL    HW123279   1.476   3.107  11.089  0.0421 -0.3197 -1.7779
 3939SOL    HW223280   1.568   3.054  11.197  0.1176 -0.3793  0.0402
 3940SOL     OW23281   3.421   1.189  11.597  0.4874  0.0865  0.1779
 3940SOL    HW123282   3.435   1.096  11.615 -0.9328 -0.5065 -1.6953
 3940SOL    HW223283   3.357   1.201  11.667  3.2862 -0.1815  2.7880
 3941SOL     OW23284   2.444   0.541   8.946 -0.3981  0.0088  0.1966
 3941SOL    HW123285   2.369   0.560   8.888 -0.4112  1.2606  0.6325
 3941SOL    HW223286   2.405   0.515   9.029 -1.0338  1.2507  0.2864
 3942SOL     OW23287   4.660   0.357  16.507 -0.5532 -0.2565  0.3026
 3942SOL    HW123288   4.710   0.375  16.586  2.3241 -2.7461 -0.9710
 3942SOL    HW223289   4.620   0.443  16.494  1.5694  0.7445  0.3825
 3943SOL     OW23290   0.891   2.645  16.464  0.4777 -0.1605  0.3662
 3943SOL    HW123291   0.958   2.581  16.442  2.4880  1.0812  2.7976
 3943SOL    HW223292   0.886   2.636  16.559  1.6388  0.0497  0.4382
 3944SOL     OW23293   3.915   2.529   8.680 -0.3565  0.2240 -0.4432
 3944SOL    HW123294   3.830   2.493   8.653  1.0402 -1.4548 -2.5767
 3944SOL    HW223295   3.920   2.615   8.638 -1.2783  1.4168  1.8420
 3945SOL     OW23296   3.140   2.518   5.559  0.2609 -0.3632 -0.0292
 3945SOL    HW123297   3.075   2.542   5.626 -1.2174  1.1623 -1.9959
 3945SOL    HW223298   3.187   2.601   5.559 -0.5166  0.0860 -0.9405
 3946SOL     OW23299   1.141   1.608   4.143 -0.0435  0.1884  0.2492
 3946SOL    HW123300   1.139   1.653   4.059  0.1502  0.6014  0.4624
 3946SOL    HW223301   1.057   1.563   4.148 -1.2009  2.1814 -1.0635
 3947SOL     OW23302   1.796   2.710  10.496  0.1273  0.5013  0.1139
 3947SOL    HW123303   1.880   2.713  10.452  0.8758 -0.7021  1.4471
 3947SOL    HW223304   1.786   2.619  10.524 -2.1866  0.9486  0.7506
 3948SOL     OW23305   1.457   1.793   3.824 -0.4691  0.1043 -0.6239
 3948SOL    HW123306   1.364   1.806   3.845 -0.1668  2.0540 -0.4836
 3948SOL    HW223307   1.455   1.767   3.731 -1.0782  1.4297 -0.9881
 3949SOL     OW23308   3.454   2.642   8.650  0.2164 -0.0810  0.2708
 3949SOL    HW123309   3.438   2.580   8.721 -0.1876  0.6368  0.8089
 3949SOL    HW223310   3.509   2.706   8.695 -0.7598  1.4032 -0.6531
 3950SOL     OW23311   2.506   3.875   5.501 -0.7436 -0.0543  0.1237
 3950SOL    HW123312   2.468   3.963   5.509 -1.5385 -0.2401 -1.6306
 3950SOL    HW223313   2.585   3.873   5.554 -0.8706 -1.0953  0.2729
 3951SOL     OW23314   0.839   3.655   2.107  0.0662 -0.3262  0.1455
 3951SOL    HW123315   0.879   3.739   2.125 -2.4679  0.7713  0.6776
 3951SOL    HW223316   0.867   3.628   2.020 -1.4836 -0.1468 -0.4176
 3952SOL     OW23317   0.100   1.846   2.327  0.0826 -0.6254 -0.6085
 3952SOL    HW123318   0.012   1.879   2.312  0.3756  0.6493  0.5206
 3952SOL    HW223319   0.155   1.897   2.268  1.4531 -0.6324  0.6642
 3953SOL     OW23320   3.706   4.304   2.993 -0.1037 -0.0782  0.3602
 3953SOL    HW123321   3.707   4.380   2.935  2.7642 -0.9779 -0.7359
 3953SOL    HW223322   3.795   4.293   3.025  0.1401 -0.0486 -0.3184
 3954SOL     OW23323   3.685   2.200   4.465 -0.2225  0.2219  0.2594
 3954SOL    HW123324   3.675   2.226   4.374  0.2704  0.5939  0.3150
 3954SOL    HW223325   3.599   2.166   4.489 -0.4655  1.1986  0.7534
 3955SOL     OW23326   0.801   3.547  11.313  0.1378  0.3313  0.2677
 3955SOL    HW123327   0.743   3.570  11.386  2.0867  2.5718  1.1253
 3955SOL    HW223328   0.746   3.590  11.247 -1.4031 -1.0871  0.6144
 3956SOL     OW23329   2.629   0.655   9.434 -0.2599  0.2339  0.1433
 3956SOL    HW123330   2.687   0.582   9.410 -0.3771  0.6614 -1.4229
 3956SOL    HW223331   2.547   0.621   9.397 -1.5821  1.6731  1.7611
 3957SOL     OW23332   1.213   1.081   1.671  1.1018  0.2830 -0.1312
 3957SOL    HW123333   1.300   1.046   1.652  1.7140  1.7834 -0.0249
 3957SOL    HW223334   1.178   1.013   1.729  0.2050  1.5596  0.8060
 3958SOL     OW23335   3.610   1.296   8.269  0.4182 -0.5118  0.1613
 3958SOL    HW123336   3.528   1.336   8.240  0.8927 -0.0807 -0.5949
 3958SOL    HW223337   3.594   1.286   8.363 -1.6675 -2.2671 -0.3886
 3959SOL     OW23338   3.015   3.604   5.986  0.0517 -0.1198 -0.4504
 3959SOL    HW123339   2.982   3.596   5.896  0.2451  0.3351 -0.5650
 3959SOL    HW223340   2.970   3.687   6.004 -0.1105 -0.7068  1.7503
 3960SOL     OW23341   0.192   3.856  12.241 -0.3939  0.1534 -0.4911
 3960SOL    HW123342   0.281   3.820  12.251  0.0817  0.8782 -2.1044
 3960SOL    HW223343   0.156   3.822  12.323  0.2405 -0.6926 -0.5581
 3961SOL     OW23344   4.453   3.134   4.023  0.0672 -0.5936  0.1275
 3961SOL    HW123345   4.363   3.155   4.048  0.0930 -0.3094 -0.0159
 3961SOL    HW223346   4.505   3.198   4.071 -1.4155  0.0264  0.8899
 3962SOL     OW23347   4.048   1.105  13.897  0.1964  0.5644 -0.5235
 3962SOL    HW123348   4.114   1.036  13.895  0.6373  0.9537  0.4330
 3962SOL    HW223349   3.966   1.057  13.889  1.6535 -2.0121 -0.0588
 3963SOL     OW23350   1.727   1.818   8.278 -0.1987 -0.6576 -0.3937
 3963SOL    HW123351   1.644   1.843   8.318 -0.2486 -0.7724 -0.4249
 3963SOL    HW223352   1.731   1.722   8.276  0.0762 -0.6441 -0.4811
 3964SOL     OW23353   2.860   0.237   8.767 -0.0059  0.0196 -0.6770
 3964SOL    HW123354   2.873   0.239   8.672  0.0885  0.4169 -0.6568
 3964SOL    HW223355   2.914   0.312   8.793  0.6594  0.1013 -2.3126
 3965SOL     OW23356   2.371   3.557   4.689 -0.3050  0.5995  0.2933
 3965SOL    HW123357   2.307   3.515   4.631 -1.9810  1.4780  1.5044
 3965SOL    HW223358   2.442   3.583   4.629 -0.2153 -0.4608 -0.0604
 3966SOL     OW23359   3.480   0.054   7.178  0.5953  0.2594 -0.1777
 3966SOL    HW123360   3.525   0.138   7.189  2.4529 -0.3464 -3.1498
 3966SOL    HW223361   3.414   0.058   7.247  0.5550  1.2821 -0.2742
 3967SOL     OW23362   0.977   2.801   8.663 -0.0298  0.2356  0.5428
 3967SOL    HW123363   1.018   2.728   8.618 -1.9348 -1.2820  1.2884
 3967SOL    HW223364   0.980   2.772   8.754 -1.5176 -4.2207 -0.8450
 3968SOL     OW23365   2.511   4.605   3.688  0.0848  0.2819 -0.0180
 3968SOL    HW123366   2.494   4.590   3.595 -0.3802  0.8220 -0.0145
 3968SOL    HW223367   2.487   4.697   3.698 -0.1166  0.3792 -1.4241
 3969SOL     OW23368   0.050   2.609   7.693  0.4898 -0.1739  0.5277
 3969SOL    HW123369   0.109   2.571   7.758  0.0115  0.2377  1.2117
 3969SOL    HW223370   4.698   2.615   7.746 -0.0776 -3.7240  0.0568
 3970SOL     OW23371   2.167   1.864   0.714  0.2658  0.0852  0.1906
 3970SOL    HW123372   2.253   1.824   0.727  0.7658  1.3400  0.7846
 3970SOL    HW223373   2.122   1.827   0.790 -0.0631  1.7383  0.8088
 3971SOL     OW23374   0.942   3.628  16.098 -0.1608 -0.0079  0.6008
 3971SOL    HW123375   0.920   3.601  16.187 -0.8486 -0.2884  0.3454
 3971SOL    HW223376   0.974   3.547  16.058 -1.1932 -0.9256  1.6534
 3972SOL     OW23377   3.799   1.817   8.862  0.2532  0.7715 -0.2318
 3972SOL    HW123378   3.836   1.896   8.823  2.6291  0.7796  2.0303
 3972SOL    HW223379   3.784   1.853   8.949  1.3741 -0.2372  0.3752
 3973SOL     OW23380   1.290   2.211   2.029  0.0227 -0.0266 -0.1625
 3973SOL    HW123381   1.376   2.198   2.069 -1.0226 -0.6314  1.8864
 3973SOL    HW223382   1.235   2.150   2.078  0.4697  0.5346  1.0702
 3974SOL     OW23383   2.023   2.040   7.953 -0.3063 -0.0711  0.3219
 3974SOL    HW123384   1.969   2.116   7.934 -0.3475 -0.4862 -1.2187
 3974SOL    HW223385   2.006   2.019   8.045 -1.9403  0.7886  0.2044
 3975SOL     OW23386   3.218   0.961   8.541 -0.6804  0.2519 -0.3595
 3975SOL    HW123387   3.138   0.959   8.592 -0.6501  0.7536 -0.2955
 3975SOL    HW223388   3.230   0.866   8.536  0.2750  0.3388  0.3446
 3976SOL     OW23389   2.832   4.698   5.262  0.0030 -0.1096  0.0253
 3976SOL    HW123390   2.911   4.697   5.208  0.2942  2.1966  0.3859
 3976SOL    HW223391   2.823   0.065   5.274  0.5490 -0.1435  0.7476
 3977SOL     OW23392   0.797   4.339   5.986 -0.0607  0.0436  0.0346
 3977SOL    HW123393   0.848   4.288   6.049  0.1676  2.0156  1.4629
 3977SOL    HW223394   0.859   4.331   5.914  1.6745  2.5249  1.2472
 3978SOL     OW23395   1.839   4.026   4.338  0.0324 -0.4748  0.3559
 3978SOL    HW123396   1.815   4.081   4.263 -1.3927 -0.1873  1.0160
 3978SOL    HW223397   1.919   4.072   4.364 -0.1738  0.4171 -0.5644
 3979SOL     OW23398   4.320   0.010   0.709 -0.0173  0.5157 -0.3301
 3979SOL    HW123399   4.404   0.056   0.704 -1.1981  2.6752 -0.3947
 3979SOL    HW223400   4.334   4.699   0.796 -0.9091  0.6806 -0.1141
 3980SOL     OW23401   3.081   0.236   8.040 -0.5554 -0.0265  0.6989
 3980SOL    HW123402   3.019   0.201   7.976  0.5445 -1.4637  0.4054
 3980SOL    HW223403   3.091   0.159   8.096  0.3867 -0.3084  0.1394
 3981SOL     OW23404   0.963   3.813   5.973 -0.5361 -0.1345  0.1032
 3981SOL    HW123405   1.005   3.866   5.906 -0.7782 -0.4125 -0.2714
 3981SOL    HW223406   1.033   3.764   6.014 -1.0940  1.0927  2.5253
 3982SOL     OW23407   0.965   2.855   1.648 -0.5133 -0.7031 -0.5911
 3982SOL    HW123408   0.929   2.780   1.696  1.5512 -2.7003 -2.1533
 3982SOL    HW223409   0.929   2.923   1.704  1.1690 -0.1769 -0.1801
 3983SOL     OW23410   3.830   3.162  11.239 -0.0034  0.2462  0.2868
 3983SOL    HW123411   3.889   3.092  11.266  0.0694  0.0557 -0.3643
 3983SOL    HW223412   3.759   3.152  11.302 -0.4904  1.8127 -0.0109
 3984SOL     OW23413   2.916   3.389   8.607  0.1922 -0.2185  0.1630
 3984SOL    HW123414   2.860   3.461   8.636 -0.1984 -0.8566  0.9732
 3984SOL    HW223415   2.924   3.325   8.678 -1.2745 -0.4275  0.1296
 3985SOL     OW23416   4.096   1.310   1.779  0.0795 -0.4354 -0.2190
 3985SOL    HW123417   4.096   1.298   1.684  0.9276  0.3059 -0.3082
 3985SOL    HW223418   4.152   1.235   1.800  0.4050 -0.6944 -1.9886
 3986SOL     OW23419   0.124   4.091  17.652  0.1945 -0.4828  0.0390
 3986SOL    HW123420   0.163   4.076   0.026 -0.8583  0.4212  0.6694
 3986SOL    HW223421   0.201   4.137  17.618  0.6198 -1.3862 -0.2332
 3987SOL     OW23422   4.317   1.793  16.940 -0.2142  0.1501  0.0817
 3987SOL    HW123423   4.249   1.850  16.905  0.2812  1.4739  1.2227
 3987SOL    HW223424   4.273   1.712  16.915 -0.4853  0.2650  0.1836
 3988SOL     OW23425   2.245   3.750   9.310  0.0724  0.5132 -0.7939
 3988SOL    HW123426   2.212   3.796   9.387  2.6423  0.8166  0.1423
 3988SOL    HW223427   2.215   3.802   9.236 -0.3488 -0.5506 -1.3746
 3989SOL     OW23428   0.606   3.177   5.445 -0.0692  0.4093 -0.0689
 3989SOL    HW123429   0.698   3.160   5.425  0.0009  0.4813  0.1834
 3989SOL    HW223430   0.585   3.098   5.495  1.6933  0.6429  1.0565
 3990SOL     OW23431   2.714   2.889   1.990  0.6933  0.3684  0.8746
 3990SOL    HW123432   2.651   2.828   1.951  0.9892  0.5699  0.0639
 3990SOL    HW223433   2.716   2.945   1.912  2.3241  0.4559  0.9702
 3991SOL     OW23434   3.825   1.521   4.641 -0.3846 -0.0759 -0.5120
 3991SOL    HW123435   3.738   1.511   4.681 -0.6425  1.8833 -0.5717
 3991SOL    HW223436   3.868   1.567   4.714 -1.5424 -1.1864  0.8726
 3992SOL     OW23437   1.126   1.049   4.445  0.1472  0.4444 -0.4310
 3992SOL    HW123438   1.041   1.093   4.444 -0.0814  0.0204  0.0095
 3992SOL    HW223439   1.166   1.092   4.370 -0.4539 -0.4486 -1.2738
 3993SOL     OW23440   3.962   4.282   2.532  0.5638 -0.3369 -0.4069
 3993SOL    HW123441   4.044   4.301   2.487  1.0994  0.2307  0.7991
 3993SOL    HW223442   3.988   4.208   2.588  0.3312 -0.1065  0.0030
 3994SOL     OW23443   1.865   1.376   2.149 -0.1656  0.1306 -0.3148
 3994SOL    HW123444   1.946   1.401   2.103  0.6084 -1.1062  0.3665
 3994SOL    HW223445   1.829   1.329   2.074  0.0467 -0.7985  0.1583
 3995SOL     OW23446   4.711   0.901   2.679  0.0190 -0.0603  0.1867
 3995SOL    HW123447   4.680   0.815   2.706  1.0994 -0.0178  1.5914
 3995SOL    HW223448   4.630   0.951   2.666  0.4771  0.3166 -1.2330
 3996SOL     OW23449   3.474   2.082   4.595  0.3015 -0.5461 -0.8713
 3996SOL    HW123450   3.392   2.128   4.613  1.0438  1.7390 -3.3156
 3996SOL    HW223451   3.441   1.993   4.580  1.1175 -1.1531  0.9646
 3997SOL     OW23452   2.039   1.698   7.975 -0.1731  0.0266 -0.3409
 3997SOL    HW123453   2.130   1.684   7.947 -0.5092  1.2571 -2.0992
 3997SOL    HW223454   2.022   1.783   7.935 -0.5821  1.4085  2.7996
 3998SOL     OW23455   2.199   1.223   0.223 -0.3288 -0.3766  0.1160
 3998SOL    HW123456   2.238   1.304   0.256 -0.4179  0.9175 -3.0049
 3998SOL    HW223457   2.111   1.223   0.262 -0.1691 -0.4693  0.4799
 3999SOL     OW23458   3.248   4.433   4.325 -0.2266  0.1011  0.4854
 3999SOL    HW123459   3.155   4.441   4.304  0.2680 -0.3597 -1.8681
 3999SOL    HW223460   3.260   4.338   4.327 -0.9015  0.0177  0.6624
 4000SOL     OW23461   0.765   1.328   4.967 -0.2005  0.1499  0.7905
 4000SOL    HW123462   0.686   1.275   4.981  0.0007 -0.2499  0.4355
 4000SOL    HW223463   0.735   1.400   5.023 -0.9711  0.0165  0.5510
 4001SOL     OW23464   1.954   3.364   5.686 -0.1169  0.2295  0.1202
 4001SOL    HW123465   2.042   3.348   5.652  0.1095 -0.5575  1.0740
 4001SOL    HW223466   1.901   3.336   5.611 -1.1743  0.5576  0.7550
 4002SOL     OW23467   1.788   1.212  12.716  0.1810 -0.2826  0.2952
 4002SOL    HW123468   1.831   1.164  12.786  0.1943  0.4358  0.7854
 4002SOL    HW223469   1.761   1.287  12.770 -1.2071  0.4124 -1.3457
 4003SOL     OW23470   1.556   4.343   3.317 -0.1389  0.0305  0.2452
 4003SOL    HW123471   1.614   4.347   3.393 -0.8787 -4.2163  1.0016
 4003SOL    HW223472   1.497   4.273   3.344 -2.7496  2.2636  0.4184
 4004SOL     OW23473   1.972   4.650   4.602  0.2471 -0.5833 -0.0379
 4004SOL    HW123474   1.890   4.665   4.555 -0.6676 -2.1641  1.0112
 4004SOL    HW223475   1.929   4.590   4.664 -0.7663 -0.3494 -0.5182
 4005SOL     OW23476   0.592   0.907   2.636  0.2709 -0.1349  0.0617
 4005SOL    HW123477   0.559   0.819   2.618 -1.8425  0.7097 -0.2034
 4005SOL    HW223478   0.666   0.916   2.575  0.5293 -1.6518  0.1587
 4006SOL     OW23479   4.198   1.297   2.713  0.1995 -0.3181 -0.1529
 4006SOL    HW123480   4.148   1.302   2.632 -2.1325 -0.0811  1.3093
 4006SOL    HW223481   4.243   1.213   2.699 -0.4080 -0.5482 -0.7304
 4007SOL     OW23482   0.489   0.380   1.815 -0.3426  0.6451  0.0779
 4007SOL    HW123483   0.458   0.313   1.754  1.8278 -1.6800  1.5405
 4007SOL    HW223484   0.448   0.356   1.897 -0.9582 -0.0104 -0.4247
 4008SOL     OW23485   1.152   3.276   0.508 -0.7530  0.0508 -0.3003
 4008SOL    HW123486   1.083   3.228   0.552 -1.3092  0.1267 -1.0904
 4008SOL    HW223487   1.154   3.351   0.566 -0.2487 -0.9364  0.9546
 4009SOL     OW23488   4.450   3.147   8.480 -0.1552  0.2126  0.2265
 4009SOL    HW123489   4.366   3.162   8.524 -0.4476 -1.0301  0.1018
 4009SOL    HW223490   4.474   3.066   8.525 -0.9340 -0.0686  0.1475
 4010SOL     OW23491   2.486   4.404  13.360 -0.0973 -0.3753 -0.5951
 4010SOL    HW123492   2.453   4.372  13.276 -1.9917 -1.4380  0.5461
 4010SOL    HW223493   2.407   4.391  13.413 -1.2717  0.5422 -2.1062
 4011SOL     OW23494   1.129   2.590   8.567 -0.2979 -0.5376 -0.1169
 4011SOL    HW123495   1.117   2.512   8.512 -0.6259 -1.2137  0.9179
 4011SOL    HW223496   1.163   2.660   8.511  0.3997  0.4389  1.5178
 4012SOL     OW23497   0.171   4.695  10.650  0.1898 -0.3708  0.3633
 4012SOL    HW123498   0.181   4.629  10.718 -0.4770 -0.1778  0.6437
 4012SOL    HW223499   0.188   0.051  10.693 -1.0746  0.2621 -0.3994
 4013SOL     OW23500   4.302   1.040  15.241 -0.5328  0.5432 -0.4565
 4013SOL    HW123501   4.366   1.000  15.181  0.3550 -0.0241  0.8555
 4013SOL    HW223502   4.359   1.067  15.313  2.1557 -0.0832 -2.3339
 4014SOL     OW23503   3.493   1.760   6.730 -0.1657  0.0689  0.0078
 4014SOL    HW123504   3.424   1.800   6.678 -0.1148 -0.0383 -0.1425
 4014SOL    HW223505   3.440   1.695   6.776 -0.5175 -0.4043 -1.0747
 4015SOL     OW23506   4.116   1.562   2.523 -0.3948 -0.0793 -0.3112
 4015SOL    HW123507   4.031   1.566   2.566 -1.0941 -0.3449 -1.6785
 4015SOL    HW223508   4.108   1.494   2.456  3.4465  0.3510 -1.1966
 4016SOL     OW23509   1.127   2.289   5.472 -0.0118  0.9270 -0.2058
 4016SOL    HW123510   1.078   2.210   5.449  0.9412  1.0214 -2.5672
 4016SOL    HW223511   1.144   2.325   5.384 -2.3068  0.0715 -0.9883
 4017SOL     OW23512   4.548   3.591  12.201 -0.5597  0.5033 -0.2122
 4017SOL    HW123513   4.540   3.607  12.295 -0.4986 -0.4781 -0.0306
 4017SOL    HW223514   4.485   3.660  12.183 -0.5248  0.2968 -1.1552
 4018SOL     OW23515   0.705   2.299   2.061  0.3439 -0.0591  0.0291
 4018SOL    HW123516   0.631   2.281   2.119 -0.0317 -0.0777 -0.4512
 4018SOL    HW223517   0.780   2.265   2.108  0.5476  1.0467  0.5127
 4019SOL     OW23518   1.034   4.296   9.431  0.2386 -0.1452 -0.3719
 4019SOL    HW123519   1.108   4.236   9.426  0.5387  0.2543 -0.7114
 4019SOL    HW223520   0.973   4.236   9.474  0.3304  0.1687  0.1978
 4020SOL     OW23521   1.663   3.059   8.902  0.3094  0.3817  0.1108
 4020SOL    HW123522   1.651   2.981   8.956  0.6404  0.1788 -0.1088
 4020SOL    HW223523   1.739   3.033   8.849  1.0818  1.3526  0.7461
 4021SOL     OW23524   4.310   1.886   1.858 -0.0693  0.3012 -0.9213
 4021SOL    HW123525   4.350   1.955   1.911 -1.9143 -0.7235  1.8661
 4021SOL    HW223526   4.223   1.917   1.833 -1.1795 -2.6192 -0.7407
 4022SOL     OW23527   2.019   3.328   7.487 -0.1034  0.0714 -0.7045
 4022SOL    HW123528   2.083   3.380   7.534 -1.1599 -0.5314  1.4255
 4022SOL    HW223529   2.061   3.243   7.475  0.9852  0.4754  0.2465
 4023SOL     OW23530   3.584   3.273   2.410  0.5268  0.2329 -0.1295
 4023SOL    HW123531   3.532   3.352   2.393  1.7374  1.3366  1.2363
 4023SOL    HW223532   3.547   3.226   2.336  2.0940 -1.6726  0.2953
 4024SOL     OW23533   0.913   4.093   9.543 -0.2454  0.3681 -0.2477
 4024SOL    HW123534   0.824   4.112   9.573  0.4415  1.1889  1.2806
 4024SOL    HW223535   0.882   4.017   9.495 -0.9715  0.5163 -0.0110
 4025SOL     OW23536   1.039   0.958   2.442  0.0723  0.2119  0.4973
 4025SOL    HW123537   1.079   0.983   2.526  1.3710  0.0561 -0.0673
 4025SOL    HW223538   1.114   0.947   2.384 -3.3705  0.6798 -3.9999
 4026SOL     OW23539   3.763   3.611  15.230  0.1390  0.3691 -0.1013
 4026SOL    HW123540   3.783   3.518  15.218  1.6523  0.4461  1.7741
 4026SOL    HW223541   3.842   3.637  15.277 -1.0753  1.0019  1.5736
 4027SOL     OW23542   0.980   0.450   6.205 -0.7257 -0.1183  0.0542
 4027SOL    HW123543   1.065   0.479   6.238 -0.5297 -1.1639  0.4825
 4027SOL    HW223544   0.955   0.388   6.273  0.4769 -1.1290 -0.4167
 4028SOL     OW23545   3.970   1.074   1.356  0.1671 -0.2546  0.1257
 4028SOL    HW123546   4.052   1.026   1.343  1.8347  1.9212  2.6614
 4028SOL    HW223547   3.927   1.052   1.274 -1.1295 -0.2534  0.8154
 4029SOL     OW23548   4.207   0.135   9.069 -0.0972  0.1717 -0.9420
 4029SOL    HW123549   4.240   0.071   9.006  2.7172  0.0766  0.5875
 4029SOL    HW223550   4.236   0.216   9.027  1.9008  0.7821  1.5762
 4030SOL     OW23551   1.292   3.805  15.709 -0.3038 -0.4038  0.3081
 4030SOL    HW123552   1.224   3.740  15.723  1.1953 -1.9691  0.3114
 4030SOL    HW223553   1.262   3.859  15.636  1.8902 -0.1720 -0.4330
 4031SOL     OW23554   0.323   2.602   5.202  0.2241  0.3237  0.1958
 4031SOL    HW123555   0.236   2.619   5.238 -0.1802 -0.3898 -0.4304
 4031SOL    HW223556   0.381   2.641   5.267  0.0102  2.4688 -0.8964
 4032SOL     OW23557   0.904   4.001  10.245 -0.1730  0.7259  0.1127
 4032SOL    HW123558   0.904   4.065  10.173 -2.7492 -2.9751 -3.1791
 4032SOL    HW223559   0.951   3.926  10.211 -0.1098 -0.0283  1.8570
 4033SOL     OW23560   1.226   0.991   5.727  1.0326 -0.1415  0.4372
 4033SOL    HW123561   1.176   1.017   5.804 -0.2652 -0.0179 -0.4581
 4033SOL    HW223562   1.193   1.050   5.660 -1.5713 -2.7122 -0.5046
 4034SOL     OW23563   0.425   2.105   2.630  0.0856 -0.0702  0.1522
 4034SOL    HW123564   0.454   2.197   2.634 -0.3069  0.0582  0.0570
 4034SOL    HW223565   0.502   2.064   2.591  0.5662 -0.4963  1.5610
 4035SOL     OW23566   3.294   1.328  11.168  0.2478  0.1864  0.0586
 4035SOL    HW123567   3.303   1.398  11.232 -2.3688  2.1430 -1.7333
 4035SOL    HW223568   3.202   1.335  11.143  0.3395 -0.8187 -0.5837
 4036SOL     OW23569   3.866   0.991   2.365  0.2423 -0.1720  0.4023
 4036SOL    HW123570   3.917   0.976   2.444  0.2527  2.9791  0.9956
 4036SOL    HW223571   3.876   0.905   2.326  1.7537  0.5802 -0.8874
 4037SOL     OW23572   3.687   2.152  11.435  0.1854 -0.4666  0.5578
 4037SOL    HW123573   3.666   2.072  11.387  0.0092 -0.4226  0.5600
 4037SOL    HW223574   3.607   2.163  11.487 -0.7758 -1.0058 -0.8104
 4038SOL     OW23575   1.864   1.093   0.557 -0.1461 -0.2340  0.1421
 4038SOL    HW123576   1.783   1.068   0.511  0.0520 -2.7157  1.1416
 4038SOL    HW223577   1.876   1.184   0.529 -0.9263 -0.3587 -0.6075
 4039SOL     OW23578   0.137   1.592   8.629 -0.3350  0.0759  0.2270
 4039SOL    HW123579   0.214   1.646   8.647  0.1187  0.0967 -1.7390
 4039SOL    HW223580   0.185   1.513   8.653  1.0734  0.6697 -0.6385
 4040SOL     OW23581   2.062   3.499   5.426 -0.7990 -0.0874  0.3414
 4040SOL    HW123582   2.115   3.505   5.346  1.6344  0.1807  1.9586
 4040SOL    HW223583   2.025   3.587   5.428  0.6545  0.4787  2.6522
 4041SOL     OW23584   3.198   3.390  17.377  0.8666  0.4061  0.0235
 4041SOL    HW123585   3.169   3.476  17.348  2.0470  1.0618  0.7898
 4041SOL    HW223586   3.128   3.334  17.344  0.9439 -1.3613  2.8179
 4042SOL     OW23587   4.274   3.001   8.872 -0.1042 -0.2314  0.5080
 4042SOL    HW123588   4.254   2.919   8.826 -4.3065 -0.2883  2.4201
 4042SOL    HW223589   4.369   3.004   8.882  0.1603 -0.0435 -1.9828
 4043SOL     OW23590   3.925   2.762   7.783 -0.4823  0.2296 -0.5587
 4043SOL    HW123591   3.901   2.680   7.738  0.7975 -1.0486  1.0738
 4043SOL    HW223592   3.875   2.744   7.862 -0.6826  3.0757 -0.0682
 4044SOL     OW23593   3.889   4.512  13.490 -0.2664  0.1190  0.1909
 4044SOL    HW123594   3.941   4.585  13.522 -1.3547  0.9431  0.0993
 4044SOL    HW223595   3.835   4.557  13.425  0.8997  1.2261 -0.0154
 4045SOL     OW23596   3.625   2.871   7.563  0.6997 -0.0088 -0.1488
 4045SOL    HW123597   3.540   2.872   7.520 -0.0634  0.2400  1.3558
 4045SOL    HW223598   3.609   2.959   7.599 -0.3551  0.5547 -2.0174
 4046SOL     OW23599   3.784   0.179   1.086  0.2757 -0.0788 -0.0424
 4046SOL    HW123600   3.808   0.226   1.166 -0.5818 -3.1961  2.0295
 4046SOL    HW223601   3.689   0.181   1.100  0.3484  1.4200  0.2913
 4047SOL     OW23602   1.681   2.169   5.954 -0.2694  0.6718 -0.1359
 4047SOL    HW123603   1.608   2.185   6.014  1.4804 -2.3536  2.7728
 4047SOL    HW223604   1.646   2.204   5.872 -1.1719 -1.0879 -0.5026
 4048SOL     OW23605   3.210   0.365  10.515  0.0733  0.5672  0.0881
 4048SOL    HW123606   3.118   0.393  10.521  0.2662  0.9514  1.3299
 4048SOL    HW223607   3.219   0.350  10.421 -1.7834 -2.8489  0.4466
 4049SOL     OW23608   2.748   2.326   8.816  0.4285 -0.5474  0.1110
 4049SOL    HW123609   2.735   2.420   8.806  1.3515 -0.5174 -0.7371
 4049SOL    HW223610   2.760   2.321   8.911 -0.2333  0.1724  0.2307
 4050SOL     OW23611   4.460   0.380   6.053  0.0648 -0.0268 -0.2711
 4050SOL    HW123612   4.481   0.460   6.004  0.7187 -0.9368 -1.4705
 4050SOL    HW223613   4.374   0.362   6.016  0.6331  0.7054 -1.9356
 4051SOL     OW23614   0.796   2.774   5.442  0.2253 -0.1761 -0.3200
 4051SOL    HW123615   0.824   2.685   5.417  2.2631  0.2147  0.5554
 4051SOL    HW223616   0.832   2.787   5.530  3.0289 -0.3975 -1.4358
 4052SOL     OW23617   1.060   0.412  15.181 -0.3111 -0.0591 -0.2076
 4052SOL    HW123618   1.069   0.503  15.210  1.6772 -0.9571  2.0279
 4052SOL    HW223619   1.037   0.368  15.262 -0.7155 -0.7601 -0.7022
 4053SOL     OW23620   2.421   1.159   2.247  0.4331  0.2556  0.8109
 4053SOL    HW123621   2.484   1.185   2.180 -0.7078 -0.8666 -0.7070
 4053SOL    HW223622   2.419   1.067   2.220 -3.5811  0.0576  1.7331
 4054SOL     OW23623   1.706   4.469   5.932 -0.1595  0.3875  0.2562
 4054SOL    HW123624   1.722   4.440   6.021  0.9236  0.1494 -0.0084
 4054SOL    HW223625   1.730   4.561   5.944 -0.8180  0.6151 -0.1691
 4055SOL     OW23626   3.428   3.932   6.587  0.0997  0.2428 -0.0301
 4055SOL    HW123627   3.430   3.871   6.660  1.0907  1.8159  1.2435
 4055SOL    HW223628   3.521   3.924   6.562  0.1038 -0.1849  0.1201
 4056SOL     OW23629   0.347   4.541   3.725  0.4499 -0.5527  0.6016
 4056SOL    HW123630   0.289   4.539   3.649  0.2874 -3.9419  0.7889
 4056SOL    HW223631   0.278   4.514   3.787 -1.1908  1.7857 -0.2272
 4057SOL     OW23632   4.358   0.877   4.251  0.0392 -0.0369 -0.3193
 4057SOL    HW123633   4.304   0.912   4.322  0.3849 -0.7459  0.2885
 4057SOL    HW223634   4.341   0.783   4.251 -3.5111  0.6238 -0.3796
 4058SOL     OW23635   2.509   3.036   9.576 -0.2611  0.1993  0.0329
 4058SOL    HW123636   2.484   3.083   9.656 -1.3343 -0.9042  0.3438
 4058SOL    HW223637   2.460   3.083   9.507  1.9311 -0.2510 -1.8254
 4059SOL     OW23638   2.428   1.341  17.032  0.4812 -0.4629 -0.0108
 4059SOL    HW123639   2.480   1.266  17.060  1.6712  0.0782 -0.7866
 4059SOL    HW223640   2.380   1.297  16.962 -0.9529 -1.2633  1.4671
 4060SOL     OW23641   4.245   3.722   7.587 -0.0498 -0.8665 -0.2530
 4060SOL    HW123642   4.225   3.789   7.523  0.8053 -0.0792  0.3000
 4060SOL    HW223643   4.339   3.733   7.601 -0.0657 -1.0896  0.0383
 4061SOL     OW23644   2.436   0.643   1.432  0.0612 -0.2400  0.6501
 4061SOL    HW123645   2.397   0.591   1.362  0.8013  0.6312 -0.4073
 4061SOL    HW223646   2.368   0.700   1.467  0.7376 -0.3567  2.1890
 4062SOL     OW23647   1.859   1.238   6.923  0.1781 -0.0363 -0.1888
 4062SOL    HW123648   1.826   1.320   6.887  1.3519  0.3598 -0.3600
 4062SOL    HW223649   1.906   1.197   6.850  1.5300 -0.5496  0.9738
 4063SOL     OW23650   3.115   0.902   5.338 -0.2912  0.1456  0.0526
 4063SOL    HW123651   3.046   0.905   5.405  0.0465  1.0876  0.3575
 4063SOL    HW223652   3.185   0.856   5.385  1.2882  0.8939 -1.5933
 4064SOL     OW23653   1.721   3.345   4.762 -0.3480  0.2674  0.0350
 4064SOL    HW123654   1.790   3.408   4.745 -0.0871 -0.4361 -1.5805
 4064SOL    HW223655   1.739   3.277   4.697  0.4991  1.0286 -0.5246
 4065SOL     OW23656   4.626   1.199  14.528 -0.1959  0.4993  0.5780
 4065SOL    HW123657   4.588   1.286  14.542  0.5994  0.7915  0.8795
 4065SOL    HW223658   4.578   1.168  14.451 -0.8829 -0.1977  1.2776
 4066SOL     OW23659   3.155   0.672   6.315 -0.2085 -0.3542  0.4743
 4066SOL    HW123660   3.124   0.755   6.280  2.0326 -0.6694 -2.2308
 4066SOL    HW223661   3.104   0.624   6.250  0.0964  0.1436 -0.1298
 4067SOL     OW23662   3.435   1.822   9.139 -0.1589 -0.2354  0.1794
 4067SOL    HW123663   3.426   1.914   9.164 -0.1342 -0.5344  1.2690
 4067SOL    HW223664   3.367   1.780   9.192 -1.5365  1.3379 -0.3471
 4068SOL     OW23665   1.423   1.966   6.551  0.0658  0.0589  0.3418
 4068SOL    HW123666   1.373   1.991   6.473  0.5128  2.0615  0.7191
 4068SOL    HW223667   1.358   2.008   6.607  0.4354 -1.1904  1.7125
 4069SOL     OW23668   1.052   2.874   6.228  0.5932  0.3025 -0.3002
 4069SOL    HW123669   1.049   2.798   6.287 -0.4588  0.8849  0.4057
 4069SOL    HW223670   1.097   2.930   6.291  1.0765 -0.2251 -0.1761
 4070SOL     OW23671   4.414   2.639   5.937  0.1981 -0.6215 -0.3904
 4070SOL    HW123672   4.421   2.563   5.879 -0.6413 -1.2095  0.2697
 4070SOL    HW223673   4.501   2.676   5.927  0.3225 -0.5039  1.0737
 4071SOL     OW23674   2.342   2.434   5.902 -0.4206 -0.3677 -0.0805
 4071SOL    HW123675   2.403   2.505   5.926 -0.4997  0.5347 -2.5711
 4071SOL    HW223676   2.259   2.477   5.920  0.1015 -0.2738  2.1079
 4072SOL     OW23677   0.179   1.541   4.788  0.4685 -0.3623 -0.4216
 4072SOL    HW123678   0.171   1.463   4.844  0.1760 -1.1404 -1.5576
 4072SOL    HW223679   0.086   1.557   4.775  0.6308  0.1718 -0.9251
 4073SOL     OW23680   0.601   1.371  13.516 -0.1091  0.3265  0.2304
 4073SOL    HW123681   0.597   1.354  13.610 -1.3475 -0.5816  0.0066
 4073SOL    HW223682   0.581   1.465  13.523 -1.3595  0.1179 -0.7224
 4074SOL     OW23683   0.205   4.245   6.099  0.1436  0.1730  0.4102
 4074SOL    HW123684   0.198   4.336   6.068 -0.2514 -0.2613 -0.7856
 4074SOL    HW223685   0.272   4.256   6.167 -0.5118  0.2304  1.0489
 4075SOL     OW23686   1.929   3.197   3.357  0.4304  0.1715 -0.0482
 4075SOL    HW123687   1.867   3.146   3.306  3.2265 -2.8954 -0.3191
 4075SOL    HW223688   1.923   3.277   3.305 -1.4090 -1.3084 -2.0950
 4076SOL     OW23689   3.982   1.261   2.527 -0.2355 -0.2891  0.0734
 4076SOL    HW123690   3.944   1.315   2.457 -1.6431 -0.4200  0.7415
 4076SOL    HW223691   3.898   1.230   2.562  1.1298 -0.8215  2.8548
 4077SOL     OW23692   4.672   2.180  12.044 -0.3342 -0.2482 -0.4009
 4077SOL    HW123693   4.630   2.112  12.097  0.3775 -0.3186  0.0681
 4077SOL    HW223694   0.015   2.131  12.003 -1.2796 -1.3425 -0.7458
 4078SOL     OW23695   0.725   0.899   1.803  0.0703  0.0655 -0.2242
 4078SOL    HW123696   0.782   0.858   1.738 -0.2164  1.1155 -1.1435
 4078SOL    HW223697   0.761   0.861   1.884  0.2310 -0.9066 -0.7532
 4079SOL     OW23698   1.006   3.781  10.092 -0.3012  0.4897  0.1355
 4079SOL    HW123699   1.079   3.754  10.148  0.9638 -0.2992 -1.8768
 4079SOL    HW223700   1.033   3.751  10.005  0.2880  0.4722  0.3233
 4080SOL     OW23701   1.332   2.123   8.535  0.6580 -0.2732 -0.8096
 4080SOL    HW123702   1.238   2.115   8.552  1.0081  1.1809  1.7547
 4080SOL    HW223703   1.353   2.043   8.486  1.5599  0.5221 -1.7213
 4081SOL     OW23704   0.888   2.273  14.157  0.3724 -0.6965  0.1194
 4081SOL    HW123705   0.819   2.282  14.222  1.9468  1.1798  1.5244
 4081SOL    HW223706   0.927   2.361  14.155 -0.4171 -0.3434  0.5793
 4082SOL     OW23707   0.829   0.157   6.000 -0.2427 -0.0417  0.5811
 4082SOL    HW123708   0.823   0.232   6.059  1.6020  0.7260 -0.1946
 4082SOL    HW223709   0.919   0.125   6.012 -0.8050 -1.1219  1.8478
 4083SOL     OW23710   0.856   4.204   8.592 -0.2158  0.0176  0.1715
 4083SOL    HW123711   0.845   4.275   8.655 -0.6004  2.8540 -3.0647
 4083SOL    HW223712   0.772   4.161   8.606  0.0839 -1.9732 -4.1358
 4084SOL     OW23713   1.377   2.932   5.011 -0.4032  0.5461  0.2133
 4084SOL    HW123714   1.390   3.010   5.064  0.5109  0.8961 -0.5226
 4084SOL    HW223715   1.463   2.891   5.020 -1.4187 -2.1823 -2.3444
 4085SOL     OW23716   4.318   0.114   7.913  0.2437  0.2958 -0.3095
 4085SOL    HW123717   4.354   0.144   7.997 -1.9931 -1.5728  1.3321
 4085SOL    HW223718   4.335   0.020   7.910 -1.9673 -0.1371  0.2170
 4086SOL     OW23719   1.994   1.890   5.314  0.0607 -0.1582 -0.9799
 4086SOL    HW123720   1.934   1.897   5.388  0.1134 -0.6223 -0.8938
 4086SOL    HW223721   2.076   1.880   5.362 -0.4381  0.8457  0.0670
 4087SOL     OW23722   3.081   1.445   4.021 -1.0225  0.3721  0.2638
 4087SOL    HW123723   3.046   1.444   4.110  0.1305  0.2276  0.7171
 4087SOL    HW223724   3.064   1.354   3.998 -0.3065  0.2166  0.3508
 4088SOL     OW23725   1.875   2.240   7.489 -0.3243 -0.0511  0.3071
 4088SOL    HW123726   1.876   2.158   7.538  0.9096 -0.8442 -1.0423
 4088SOL    HW223727   1.955   2.283   7.519  0.0150  0.5320 -1.4016
 4089SOL     OW23728   2.315   2.055  10.413 -0.0657  0.8108  0.3274
 4089SOL    HW123729   2.378   2.082  10.346  0.8018  0.7490  1.1254
 4089SOL    HW223730   2.253   2.128  10.411 -0.3327  0.5509 -0.7115
 4090SOL     OW23731   2.079   1.505   6.750 -0.2721 -0.5323  0.2480
 4090SOL    HW123732   2.076   1.598   6.725 -0.4799  0.0734  2.4886
 4090SOL    HW223733   2.172   1.488   6.741  0.7154  3.6820  2.5801
 4091SOL     OW23734   2.875   0.622  13.653 -0.2110 -0.5813 -0.7647
 4091SOL    HW123735   2.793   0.639  13.700 -0.7884  1.0391 -2.3364
 4091SOL    HW223736   2.892   0.534  13.688 -0.8447  0.4311  2.0765
 4092SOL     OW23737   2.383   3.886  11.697  0.1801  0.4610 -0.1400
 4092SOL    HW123738   2.443   3.876  11.772 -1.9395  0.7464  1.5817
 4092SOL    HW223739   2.323   3.946  11.741 -1.3254 -0.0610 -1.5013
 4093SOL     OW23740   4.139   1.419  16.862  0.7767 -0.2288  0.1416
 4093SOL    HW123741   4.219   1.441  16.815  0.5337  0.5767  0.0979
 4093SOL    HW223742   4.106   1.346  16.810 -3.0266 -0.2314  2.5447
 4094SOL     OW23743   2.258   4.338   6.034 -0.1652  0.2416 -0.0639
 4094SOL    HW123744   2.170   4.352   5.999 -0.5275  0.3260  0.8861
 4094SOL    HW223745   2.308   4.334   5.953  0.0803  0.1425  0.0910
 4095SOL     OW23746   1.191   0.781   6.275 -0.5122 -0.1893 -0.5171
 4095SOL    HW123747   1.172   0.691   6.300  1.2476 -0.9309 -1.8882
 4095SOL    HW223748   1.104   0.809   6.245  0.7435  2.3675 -1.7780
 4096SOL     OW23749   1.974   1.669   5.170  0.4760  0.1954 -0.4471
 4096SOL    HW123750   1.886   1.630   5.165  0.7710 -0.8369  2.3522
 4096SOL    HW223751   1.967   1.759   5.201  0.1185  0.3999 -1.1138
 4097SOL     OW23752   2.338   0.688  14.273  1.1629  0.6723 -0.2066
 4097SOL    HW123753   2.367   0.716  14.360  1.5228  0.0766 -0.1374
 4097SOL    HW223754   2.259   0.741  14.264 -0.3053 -1.9169 -2.5083
 4098SOL     OW23755   4.166   1.702  17.418  0.3956 -0.6350 -0.3544
 4098SOL    HW123756   4.151   1.778  17.361  1.0300 -1.7606 -1.9935
 4098SOL    HW223757   4.118   1.738  17.493 -2.3692 -3.4804 -0.7919
 4099SOL     OW23758   2.430   3.699  10.118 -0.1620  0.0568 -0.4918
 4099SOL    HW123759   2.369   3.650  10.174  0.5765 -0.5106 -0.1789
 4099SOL    HW223760   2.417   3.786  10.157 -0.0287 -0.3731  0.5302
 4100SOL     OW23761   3.026   0.361  10.152 -0.1039  0.0845 -0.5232
 4100SOL    HW123762   3.118   0.369  10.178 -0.7614 -0.5084  2.0276
 4100SOL    HW223763   2.996   0.442  10.192  1.7603  0.2946  0.4602
 4101SOL     OW23764   4.514   4.299   7.102 -0.3378 -0.5079 -0.1208
 4101SOL    HW123765   4.479   4.388   7.103 -1.5185 -0.9820  0.2303
 4101SOL    HW223766   4.570   4.300   7.180  0.2802  0.1543 -0.5711
 4102SOL     OW23767   1.916   1.229  16.381 -0.1863  0.2187  0.5500
 4102SOL    HW123768   1.852   1.278  16.432  0.6475  0.3618  1.4577
 4102SOL    HW223769   1.995   1.222  16.435 -0.3019  0.2678  0.7272
 4103SOL     OW23770   2.384   4.081   7.218 -0.2739 -0.4909 -0.4730
 4103SOL    HW123771   2.474   4.060   7.195 -0.9672 -0.3840 -3.2937
 4103SOL    HW223772   2.376   4.072   7.313  1.4042  0.7383 -0.2257
 4104SOL     OW23773   3.068   1.758   3.572 -0.4613 -0.1431 -0.1757
 4104SOL    HW123774   3.040   1.762   3.664  0.2550 -1.3314  0.1017
 4104SOL    HW223775   2.983   1.739   3.534 -0.3073  3.6029 -2.3458
 4105SOL     OW23776   2.686   3.916  16.968 -0.2707 -0.9080  0.7495
 4105SOL    HW123777   2.599   3.897  16.933  0.7094 -0.7511 -1.7857
 4105SOL    HW223778   2.736   3.835  16.976  0.7831 -0.5648 -2.2399
 4106SOL     OW23779   2.965   3.093  10.979  0.1885 -0.2667 -0.0005
 4106SOL    HW123780   2.939   3.139  11.059 -0.4694 -1.3054  0.3825
 4106SOL    HW223781   3.053   3.082  11.016  0.5671 -1.5856 -1.3302
 4107SOL     OW23782   4.664   3.878  12.159 -0.2249 -0.3771  0.0845
 4107SOL    HW123783   4.621   3.901  12.241 -1.0067 -0.2483 -0.3687
 4107SOL    HW223784   0.025   3.871  12.194  0.7593 -3.3422 -2.9891
 4108SOL     OW23785   2.366   3.710   7.479  0.0567  0.3792 -0.0934
 4108SOL    HW123786   2.281   3.704   7.522 -0.3170  2.7410 -0.5038
 4108SOL    HW223787   2.418   3.668   7.548 -0.5009  2.7428  1.7596
 4109SOL     OW23788   1.962   0.901   5.738  0.1083  0.1823  0.1820
 4109SOL    HW123789   1.919   0.984   5.720 -0.7415 -0.6062 -1.3941
 4109SOL    HW223790   1.981   0.913   5.831  0.7913  0.8231 -0.0427
 4110SOL     OW23791   2.521   3.132   9.172 -0.7977 -0.1441 -0.3099
 4110SOL    HW123792   2.554   3.222   9.175 -0.6894 -0.1498 -1.6032
 4110SOL    HW223793   2.474   3.118   9.255 -3.1598 -1.1348 -1.8198
 4111SOL     OW23794   2.030   1.213   4.803  0.3089  0.7345 -0.4925
 4111SOL    HW123795   1.971   1.157   4.854 -0.9829  1.4366 -1.1988
 4111SOL    HW223796   2.032   1.286   4.866 -0.5854  0.2370  0.1125
 4112SOL     OW23797   3.946   3.622   8.392 -0.0349 -0.1644  0.1044
 4112SOL    HW123798   4.018   3.578   8.347 -0.7103 -1.6830  0.5250
 4112SOL    HW223799   3.922   3.551   8.451 -0.1780  0.2421  0.5351
 4113SOL     OW23800   2.880   3.981  15.064  0.0285  0.1203 -0.2473
 4113SOL    HW123801   2.824   3.903  15.067 -0.2435  0.2639 -1.7277
 4113SOL    HW223802   2.883   4.005  15.157 -0.8709  0.0016 -0.1801
 4114SOL     OW23803   0.801   1.972  14.075 -0.4508  0.2872 -0.1284
 4114SOL    HW123804   0.881   2.023  14.070 -0.3523  0.4977  3.5537
 4114SOL    HW223805   0.749   2.027  14.134 -0.2310  0.8184 -0.4380
 4115SOL     OW23806   2.054   0.818   4.434  0.1230 -0.2797 -0.4910
 4115SOL    HW123807   2.012   0.833   4.349  2.0678  1.8211 -1.0879
 4115SOL    HW223808   2.094   0.731   4.429 -3.1649 -1.7461 -1.3837
 4116SOL     OW23809   2.498   3.362   2.480  0.1531  0.4811 -0.5413
 4116SOL    HW123810   2.442   3.288   2.502  2.0197 -0.9542 -0.5729
 4116SOL    HW223811   2.474   3.416   2.555  0.4682 -0.0243 -0.0751
 4117SOL     OW23812   0.251   0.631   2.050  0.0566 -0.5218 -0.1320
 4117SOL    HW123813   0.239   0.656   1.958 -0.3297 -0.6268 -0.1100
 4117SOL    HW223814   0.240   0.710   2.103 -0.6167 -1.7532  1.5603
 4118SOL     OW23815   0.609   2.250   3.944 -0.3659  0.8444 -0.0261
 4118SOL    HW123816   0.622   2.300   3.863  1.8017 -1.9010 -1.3842
 4118SOL    HW223817   0.669   2.299   4.001  2.1130 -2.8785  0.5513
 4119SOL     OW23818   3.245   3.758   4.752 -0.6146  0.4748  0.0693
 4119SOL    HW123819   3.149   3.753   4.759 -0.4810 -0.2905  1.4980
 4119SOL    HW223820   3.274   3.668   4.770  0.3870  0.9364  0.7856
 4120SOL     OW23821   2.930   0.201   1.936 -0.2772  0.2349  0.2594
 4120SOL    HW123822   3.023   0.215   1.914 -0.0999 -0.4076  0.6161
 4120SOL    HW223823   2.884   0.197   1.852  0.9305  3.7632 -0.5762
 4121SOL     OW23824   1.023   2.404   5.721  0.2426  0.5875  0.1328
 4121SOL    HW123825   1.050   2.348   5.648  0.3314 -0.1189  0.7133
 4121SOL    HW223826   0.985   2.334   5.775 -1.3323  1.4366  0.1449
 4122SOL     OW23827   1.994   2.329   1.736  0.6539 -0.0548 -0.4876
 4122SOL    HW123828   1.988   2.368   1.649  0.6245  0.0318 -0.4468
 4122SOL    HW223829   2.088   2.311   1.745  0.6136  0.9111  1.8236
 4123SOL     OW23830   2.431   1.304   3.031  0.2875 -0.3419  0.2439
 4123SOL    HW123831   2.377   1.306   3.111 -0.5492  0.6276 -0.3463
 4123SOL    HW223832   2.469   1.217   3.037 -1.7944 -1.2798 -0.2399
 4124SOL     OW23833   3.061   3.041  17.363  0.0788 -0.2737  0.1879
 4124SOL    HW123834   3.150   3.071  17.342  0.1933 -1.2141 -0.7082
 4124SOL    HW223835   3.033   3.006  17.278  0.9123  0.8594 -0.5576
 4125SOL     OW23836   1.046   1.555   2.540  0.4124  0.2958 -0.3351
 4125SOL    HW123837   0.966   1.574   2.491  0.8818  0.7486 -0.9224
 4125SOL    HW223838   1.053   1.463   2.517  1.9258  0.0151  1.2375
 4126SOL     OW23839   1.190   4.377   3.870  0.1678  0.5122  0.8509
 4126SOL    HW123840   1.254   4.309   3.888  0.3271 -0.0237 -1.7914
 4126SOL    HW223841   1.141   4.383   3.952 -0.5089  0.8175  0.4313
 4127SOL     OW23842   0.927   4.103   3.888  0.0225  0.1154  0.1739
 4127SOL    HW123843   0.975   4.140   3.813  0.7977  2.0190  1.6156
 4127SOL    HW223844   0.933   4.009   3.875  1.4498  0.1742  0.3696
 4128SOL     OW23845   3.258   0.407  15.289  0.2510  0.0006 -0.2526
 4128SOL    HW123846   3.177   0.373  15.251  2.0971  1.2704 -5.3572
 4128SOL    HW223847   3.283   0.450  15.207  1.9768 -2.1502 -0.8612
 4129SOL     OW23848   1.389   0.410   8.756 -0.2232 -0.2026 -0.1499
 4129SOL    HW123849   1.372   0.473   8.685  1.4818  0.4849  0.0626
 4129SOL    HW223850   1.322   0.440   8.818  0.1658  1.2543 -0.4274
 4130SOL     OW23851   1.219   4.626   7.161 -0.3078  0.2489 -0.2095
 4130SOL    HW123852   1.256   4.705   7.120 -0.6689 -0.0694 -1.1611
 4130SOL    HW223853   1.183   4.653   7.246 -0.3074 -0.3628 -0.0201
 4131SOL     OW23854   3.126   3.772   3.538  0.2204  0.0487 -0.3857
 4131SOL    HW123855   3.094   3.837   3.600 -0.4546  0.6184 -1.3193
 4131SOL    HW223856   3.050   3.762   3.480 -1.3071  1.7746  1.2898
 4132SOL     OW23857   0.947   1.429   5.255 -0.2492  0.1526 -0.0123
 4132SOL    HW123858   0.916   1.519   5.249  1.5986  0.9567  2.6869
 4132SOL    HW223859   0.897   1.391   5.182  0.3070 -1.1708  0.2926
 4133SOL     OW23860   2.954   3.613  14.299 -0.2236 -0.2184  0.6472
 4133SOL    HW123861   2.935   3.684  14.360 -0.6837 -1.0202  1.4294
 4133SOL    HW223862   3.034   3.641  14.255 -0.7266  1.2444  0.6576
 4134SOL     OW23863   3.567   4.268  16.181 -0.2367  0.2523 -0.0408
 4134SOL    HW123864   3.589   4.297  16.270  2.1283  0.4538 -0.7076
 4134SOL    HW223865   3.563   4.173  16.197  0.9758  0.2096  0.0254
 4135SOL     OW23866   2.224   1.471   4.115  0.0090 -0.5473  0.0056
 4135SOL    HW123867   2.252   1.560   4.138 -0.2622 -0.8507  1.4697
 4135SOL    HW223868   2.233   1.477   4.020 -0.7872  0.0508 -0.0334
 4136SOL     OW23869   3.085   1.365   7.674 -0.0783  0.6563 -0.0691
 4136SOL    HW123870   3.062   1.382   7.765  0.3790  0.0880  0.1552
 4136SOL    HW223871   3.040   1.280   7.668 -1.6363  1.3838  1.4545
 4137SOL     OW23872   1.478   2.022   6.889  0.7012  0.2236  0.1293
 4137SOL    HW123873   1.386   2.011   6.864 -0.2448  1.5633  2.9586
 4137SOL    HW223874   1.501   2.086   6.822 -1.2401 -0.5790 -1.3114
 4138SOL     OW23875   4.439   4.271   6.655 -0.6330 -0.0863 -0.0012
 4138SOL    HW123876   4.372   4.314   6.709 -0.2183  0.2084  0.2766
 4138SOL    HW223877   4.500   4.342   6.633  1.1915 -1.1554  1.5821
 4139SOL     OW23878   2.740   3.454   7.732  0.7079  1.0733 -0.0394
 4139SOL    HW123879   2.720   3.453   7.826 -0.4075 -0.6060 -0.3014
 4139SOL    HW223880   2.715   3.367   7.703  0.7390  1.8189 -2.3373
 4140SOL     OW23881   4.413   3.147   1.915 -0.4667 -0.8090  0.0372
 4140SOL    HW123882   4.358   3.069   1.903 -0.7169 -0.4530 -1.1559
 4140SOL    HW223883   4.357   3.206   1.864 -0.2631 -1.2778 -0.7170
 4141SOL     OW23884   3.183   3.385   8.857  0.5068  0.2466  0.0709
 4141SOL    HW123885   3.263   3.397   8.806  1.2086 -1.1001  0.8384
 4141SOL    HW223886   3.139   3.469   8.844 -1.0056 -0.1169  2.8356
 4142SOL     OW23887   3.466   1.877   8.416  0.1830 -0.1650 -0.3127
 4142SOL    HW123888   3.460   1.791   8.457  0.2731  0.2085  0.4972
 4142SOL    HW223889   3.542   1.913   8.463 -0.5260 -1.8730  2.1349
 4143SOL     OW23890   4.140   3.155  15.351  0.2177  0.1044 -0.2478
 4143SOL    HW123891   4.168   3.237  15.310  1.4986  1.0790  2.5665
 4143SOL    HW223892   4.201   3.087  15.320 -2.8954 -2.5773 -0.5460
 4144SOL     OW23893   1.212   3.109   5.231 -0.5245 -0.1621 -0.0534
 4144SOL    HW123894   1.118   3.089   5.235 -0.6626  0.3436 -0.6473
 4144SOL    HW223895   1.251   3.046   5.291  2.1706  0.6233 -1.0017
 4145SOL     OW23896   0.985   3.994   5.624  0.3946 -0.1715 -0.1650
 4145SOL    HW123897   0.975   3.993   5.528  2.4466  2.8073 -0.4007
 4145SOL    HW223898   0.978   3.900   5.639 -0.2261 -0.0816  0.0959
 4146SOL     OW23899   3.849   1.443  11.980 -0.0160 -1.0660 -0.7937
 4146SOL    HW123900   3.901   1.522  11.966 -0.6964 -0.0867  2.2709
 4146SOL    HW223901   3.794   1.468  12.053  1.3161 -1.3439  0.3130
 4147SOL     OW23902   2.205   3.464   9.352  0.1038 -0.6010  0.0595
 4147SOL    HW123903   2.207   3.552   9.315  3.3337 -1.2867 -1.3172
 4147SOL    HW223904   2.241   3.413   9.280  1.7100 -1.6251  1.5991
 4148SOL     OW23905   2.045   4.319   3.411 -0.0706  0.0764  0.0461
 4148SOL    HW123906   2.005   4.279   3.489 -0.2000 -0.3191 -0.2191
 4148SOL    HW223907   2.015   4.253   3.348  0.1754  0.0084  0.0022
 4149SOL     OW23908   3.000   3.494  17.097  0.0218 -0.1844 -0.1816
 4149SOL    HW123909   3.084   3.488  17.051  0.0285 -0.6387 -0.1103
 4149SOL    HW223910   3.022   3.429  17.163  0.7866  0.4923  0.2237
 4150SOL     OW23911   3.435   0.208  10.106 -0.7713 -0.0260 -0.5687
 4150SOL    HW123912   3.529   0.226  10.098 -1.0315  1.2277 -0.7886
 4150SOL    HW223913   3.427   0.142  10.037 -2.6526 -0.9043  0.5106
 4151SOL     OW23914   3.989   4.311   8.335 -0.1793 -0.3494  0.2228
 4151SOL    HW123915   4.005   4.358   8.254 -2.3643  1.3083  0.7374
 4151SOL    HW223916   4.077   4.285   8.361 -1.7835 -3.9708  2.0566
 4152SOL     OW23917   2.058   0.757  14.437  0.0339  1.0181  0.4917
 4152SOL    HW123918   1.984   0.808  14.470 -0.8125 -0.3528  0.7423
 4152SOL    HW223919   2.133   0.762  14.496 -0.6659 -0.1037  1.4915
 4153SOL     OW23920   0.671   4.232   8.323  0.4648  0.0137 -0.0720
 4153SOL    HW123921   0.728   4.300   8.359  1.0319 -0.8890  0.7341
 4153SOL    HW223922   0.735   4.186   8.267 -0.2127 -1.0393  0.0208
 4154SOL     OW23923   0.964   1.167   6.931 -0.3946  0.0820  0.2289
 4154SOL    HW123924   0.962   1.137   7.022  0.1501  1.9396  0.8670
 4154SOL    HW223925   1.059   1.178   6.927 -0.2322 -0.9729  1.4531
 4155SOL     OW23926   4.562   2.584   2.592  0.0253  0.7182  0.3713
 4155SOL    HW123927   4.605   2.658   2.550  1.3526  0.4451  1.2332
 4155SOL    HW223928   4.490   2.559   2.535  0.8965  1.3560 -0.9991
 4156SOL     OW23929   1.083   1.085   2.103 -0.0007  0.5609  0.5601
 4156SOL    HW123930   1.170   1.103   2.067  0.5414 -0.1909  1.5068
 4156SOL    HW223931   1.069   0.993   2.080  2.3487  0.0614  1.0795
 4157SOL     OW23932   0.692   0.278   0.934  1.0058 -0.1978  0.5499
 4157SOL    HW123933   0.709   0.344   0.867 -1.8300  1.6410  1.6490
 4157SOL    HW223934   0.771   0.270   0.987  3.0429 -1.1150 -2.5679
 4158SOL     OW23935   1.234   1.437   5.043  0.4762 -0.0713 -0.0838
 4158SOL    HW123936   1.276   1.412   4.960 -1.5322 -2.1863 -0.4589
 4158SOL    HW223937   1.151   1.465   5.003 -0.5630  0.3947  2.4286
 4159SOL     OW23938   1.749   1.937  11.771 -0.6466  0.4206  0.3543
 4159SOL    HW123939   1.693   1.884  11.715 -2.2338 -0.0883  2.3997
 4159SOL    HW223940   1.803   1.870  11.814 -1.7935 -1.0869 -0.5444
 4160SOL     OW23941   2.094   3.090   4.842 -0.3540 -0.1652  0.1922
 4160SOL    HW123942   2.018   3.097   4.784 -1.9614  0.6801  2.4094
 4160SOL    HW223943   2.144   3.052   4.769 -0.3415  0.1365  0.0405
 4161SOL     OW23944   3.533   0.847   6.834 -0.0099  0.6252  0.2926
 4161SOL    HW123945   3.512   0.939   6.849 -1.9840  0.0746  0.9075
 4161SOL    HW223946   3.629   0.848   6.832  0.0202 -0.2422  1.4300
 4162SOL     OW23947   3.419   1.539  17.620  0.1253 -0.1201  0.1139
 4162SOL    HW123948   3.442   1.558  17.529  0.7498 -3.2655 -0.4051
 4162SOL    HW223949   3.442   1.620  17.665 -1.4122  0.0707  0.5606
 4163SOL     OW23950   4.414   4.575   5.763 -0.1219 -0.4015 -0.0520
 4163SOL    HW123951   4.404   4.630   5.686  0.1594  0.2901  0.4009
 4163SOL    HW223952   4.371   4.635   5.825 -1.5231 -0.9814 -0.4699
 4164SOL     OW23953   4.248   3.804  12.154 -0.2108  0.0959 -0.1171
 4164SOL    HW123954   4.186   3.764  12.093 -1.4973  2.2070 -0.2108
 4164SOL    HW223955   4.188   3.857  12.207  1.5648  1.1218  0.8529
 4165SOL     OW23956   2.161   0.528   1.490  0.1821  0.0569 -0.1975
 4165SOL    HW123957   2.113   0.546   1.571 -0.3100  0.3839 -0.5587
 4165SOL    HW223958   2.235   0.474   1.519 -0.8940 -0.0989  2.2515
 4166SOL     OW23959   2.511   3.861  12.677  0.6932 -0.2902 -0.0974
 4166SOL    HW123960   2.580   3.798  12.657 -0.1491 -1.2411  0.0134
 4166SOL    HW223961   2.466   3.814  12.746  1.2518  0.1531  0.5633
 4167SOL     OW23962   3.724   1.433  15.134  0.0602 -0.2869 -0.3780
 4167SOL    HW123963   3.816   1.409  15.141  0.5626  1.6252 -0.5428
 4167SOL    HW223964   3.719   1.508  15.074 -1.2229 -0.0503  0.0182
 4168SOL     OW23965   2.326   3.097   8.273 -0.2939  0.6712 -0.9056
 4168SOL    HW123966   2.281   3.149   8.339  1.3124  0.5616  0.2620
 4168SOL    HW223967   2.263   3.072   8.205 -0.6665  0.9888 -0.6804
 4169SOL     OW23968   4.056   0.898  15.373  0.0544  0.9286 -0.3592
 4169SOL    HW123969   4.142   0.935  15.350  0.7111 -1.2174 -1.3484
 4169SOL    HW223970   4.005   0.958  15.317 -0.7175 -0.3293 -1.0005
 4170SOL     OW23971   1.402   4.419  10.036  0.3437  0.0189  0.3280
 4170SOL    HW123972   1.396   4.481   9.962 -0.8637 -0.6614 -0.1426
 4170SOL    HW223973   1.431   4.339   9.993  0.1096  1.0812 -1.8339
 4171SOL     OW23974   0.324   0.977   9.764 -0.5619 -0.4708 -0.2723
 4171SOL    HW123975   0.279   1.001   9.845  0.9558  1.9087 -0.1364
 4171SOL    HW223976   0.414   1.000   9.788 -0.7876  0.9118 -0.7583
 4172SOL     OW23977   3.447   1.346   3.891  0.0899 -0.8884 -0.8358
 4172SOL    HW123978   3.405   1.273   3.846 -0.7486 -2.0383  1.8296
 4172SOL    HW223979   3.512   1.379   3.829 -0.7479 -0.6082 -1.5665
 4173SOL     OW23980   0.511   2.938  17.108  0.6291  0.4571  0.3684
 4173SOL    HW123981   0.439   2.990  17.072 -0.3815  0.0152  1.7425
 4173SOL    HW223982   0.509   2.953  17.203 -2.9786  2.1651  0.0144
 4174SOL     OW23983   1.821   4.388   3.733  0.2237 -0.7326 -0.3358
 4174SOL    HW123984   1.745   4.387   3.792 -0.9987  1.3897 -1.8735
 4174SOL    HW223985   1.823   4.482   3.715 -2.7986 -0.6066 -0.1174
 4175SOL     OW23986   1.542   2.393  16.594  0.0511 -0.1536 -0.9499
 4175SOL    HW123987   1.556   2.375  16.501 -0.8400 -0.5243 -1.0113
 4175SOL    HW223988   1.627   2.429  16.620  0.4184 -0.5100 -1.6638
 4176SOL     OW23989   3.410   2.325   1.882  0.3507 -0.2576 -0.1207
 4176SOL    HW123990   3.395   2.418   1.870 -1.4704 -0.6338 -0.8225
 4176SOL    HW223991   3.453   2.326   1.968  2.2099 -1.0382 -1.0424
 4177SOL     OW23992   1.154   3.484   6.625 -0.3420 -0.4121 -0.2817
 4177SOL    HW123993   1.235   3.529   6.646 -1.7956  1.6800  0.8658
 4177SOL    HW223994   1.142   3.428   6.703 -1.8147  0.8854  0.4400
 4178SOL     OW23995   1.739   3.304   2.835  0.4642 -0.5104 -0.7841
 4178SOL    HW123996   1.734   3.210   2.818  1.6934 -0.5205 -1.0935
 4178SOL    HW223997   1.724   3.349   2.752  1.0366 -0.6089 -0.9354
 4179SOL     OW23998   2.851   3.008   9.238 -0.1367 -0.4646 -0.4643
 4179SOL    HW123999   2.795   2.960   9.299  0.1058  1.5042  1.3443
 4179SOL    HW224000   2.939   2.972   9.252 -0.8323 -1.3477  1.7217
 4180SOL     OW24001   3.804   1.890   2.990  0.7080  0.0242 -0.0159
 4180SOL    HW124002   3.737   1.883   2.922  0.1875 -0.1141  0.5113
 4180SOL    HW224003   3.825   1.797   2.999  1.6155  0.3993  1.7666
 4181SOL     OW24004   3.384   2.694   6.196  0.7526  0.3592  0.4090
 4181SOL    HW124005   3.472   2.664   6.219  1.4451  0.5400 -2.0312
 4181SOL    HW224006   3.356   2.741   6.275 -0.2311 -0.4442  0.5470
 4182SOL     OW24007   4.627   3.057   3.830  0.1057  0.5008  0.1937
 4182SOL    HW124008   4.578   3.117   3.774 -1.5570  0.9974  2.1573
 4182SOL    HW224009   4.558   3.055   3.897  1.1427 -1.7610  1.2033
 4183SOL     OW24010   3.555   2.720   8.162 -0.3203  0.0947  0.2836
 4183SOL    HW124011   3.528   2.693   8.250 -0.8938 -0.2594 -0.0028
 4183SOL    HW224012   3.485   2.772   8.123  1.6064  1.7132 -1.0811
 4184SOL     OW24013   3.232   3.183   9.669 -0.3704  0.0511  0.1464
 4184SOL    HW124014   3.196   3.107   9.624 -1.3300  0.3587  0.3969
 4184SOL    HW224015   3.252   3.146   9.755  0.6724  0.4366  0.0735
 4185SOL     OW24016   1.973   0.780  15.217 -0.0651 -0.4269  0.0656
 4185SOL    HW124017   2.057   0.744  15.245 -1.4910 -0.6706  4.0118
 4185SOL    HW224018   1.917   0.702  15.219 -0.0544 -0.4111  1.1096
 4186SOL     OW24019   4.064   1.119   5.073 -0.4650 -0.4573 -0.0366
 4186SOL    HW124020   4.137   1.077   5.027 -1.0497 -1.8622  0.3150
 4186SOL    HW224021   3.994   1.064   5.039  0.3573 -0.0532 -2.3770
 4187SOL     OW24022   0.010   1.310  14.815  0.2752  0.1278  0.0913
 4187SOL    HW124023   0.071   1.243  14.785 -0.2175  0.6182 -2.0258
 4187SOL    HW224024   4.692   1.336  14.735  0.5646  0.5676  0.0663
 4188SOL     OW24025   3.976   1.515   5.601  0.0988 -0.1101 -0.5202
 4188SOL    HW124026   4.014   1.497   5.515  1.0280 -0.2441 -0.0788
 4188SOL    HW224027   3.897   1.463   5.588 -0.7010  1.0585 -0.4188
 4189SOL     OW24028   4.609   0.225  17.378  0.2837  0.6319  0.1522
 4189SOL    HW124029   4.551   0.150  17.389 -1.6154  1.8740 -1.2475
 4189SOL    HW224030   4.539   0.283  17.347 -0.6939 -1.2140 -1.0614
 4190SOL     OW24031   4.555   2.734   6.161  0.7258 -0.0317 -0.0296
 4190SOL    HW124032   4.496   2.702   6.092  0.6678  0.1189 -0.0504
 4190SOL    HW224033   4.593   2.815   6.127 -1.2102 -0.0717 -2.2581
 4191SOL     OW24034   4.309   3.807  11.619 -0.4751 -0.2161  0.2042
 4191SOL    HW124035   4.252   3.736  11.591  0.4596 -0.9440  0.1512
 4191SOL    HW224036   4.305   3.805  11.715 -0.5718 -1.6319  0.1754
 4192SOL     OW24037   4.439   3.803   0.490 -0.5244 -0.4116  0.0626
 4192SOL    HW124038   4.477   3.829   0.574 -0.8918  2.6336 -0.6947
 4192SOL    HW224039   4.433   3.708   0.498  0.6614 -0.4760  0.1567
 4193SOL     OW24040   0.290   3.441   2.356 -0.1460  0.0500 -0.4747
 4193SOL    HW124041   0.298   3.394   2.273 -0.1215  2.1315 -1.6552
 4193SOL    HW224042   0.210   3.407   2.396 -0.8859  0.3393 -1.6872
 4194SOL     OW24043   2.090   3.357   1.644  0.0147  0.7227  0.0022
 4194SOL    HW124044   2.100   3.266   1.671  0.4025  0.7363 -0.0990
 4194SOL    HW224045   2.011   3.343   1.592 -0.9847  1.5158  1.3182
 4195SOL     OW24046   1.684   3.613  11.839 -0.4970  0.0803 -0.4716
 4195SOL    HW124047   1.679   3.583  11.749 -0.0450  2.0935 -1.1546
 4195SOL    HW224048   1.764   3.662  11.825 -0.4933 -0.0756 -0.9948
 4196SOL     OW24049   2.841   4.301  15.341 -0.0779  0.3041 -0.3243
 4196SOL    HW124050   2.784   4.274  15.413  0.5663  0.7023  0.3293
 4196SOL    HW224051   2.904   4.231  15.325  0.3300  0.5559  0.1831
 4197SOL     OW24052   2.517   3.638   9.621 -0.3243  0.0839 -0.2890
 4197SOL    HW124053   2.448   3.689   9.663 -0.5913  1.9584 -3.0395
 4197SOL    HW224054   2.569   3.621   9.700  0.1559 -0.2528 -0.6806
 4198SOL     OW24055   1.011   3.190   8.195  0.0109 -0.5686  0.3163
 4198SOL    HW124056   0.935   3.200   8.252 -0.2070 -0.0069 -0.0726
 4198SOL    HW224057   1.064   3.265   8.221 -1.8566  1.5193 -1.9013
 4199SOL     OW24058   0.184   0.814   0.257  0.1160  0.8041 -0.4990
 4199SOL    HW124059   0.115   0.776   0.311 -0.6246 -0.0494 -2.0219
 4199SOL    HW224060   0.197   0.745   0.191  0.0770  0.8005 -0.5032
 4200SOL     OW24061   0.107   0.801   6.607 -0.4107 -0.0409 -0.0909
 4200SOL    HW124062   0.133   0.718   6.566 -1.5093 -0.1697 -0.5188
 4200SOL    HW224063   0.165   0.787   6.683 -0.4292  4.2290  0.7069
 4201SOL     OW24064   2.048   4.575   0.835 -0.3389 -0.3201  0.6838
 4201SOL    HW124065   2.116   4.522   0.877 -0.1471 -1.2526 -0.8225
 4201SOL    HW224066   2.058   4.662   0.875  2.3916 -0.2395 -0.1798
 4202SOL     OW24067   2.098   1.101   0.772  0.4013 -0.3578 -0.0465
 4202SOL    HW124068   2.069   1.157   0.700  0.1644  1.3648  1.3792
 4202SOL    HW224069   2.028   1.037   0.776  0.0457 -0.0653 -1.8085
 4203SOL     OW24070   3.816   3.862  11.236 -0.2613  0.2305 -0.2506
 4203SOL    HW124071   3.787   3.796  11.173 -1.1443 -0.2006  0.6187
 4203SOL    HW224072   3.833   3.804  11.310  0.5951  1.3116  0.4011
 4204SOL     OW24073   0.511   4.231  14.468 -0.1712 -0.7634  0.5289
 4204SOL    HW124074   0.475   4.296  14.529  0.5607 -0.5172  0.6921
 4204SOL    HW224075   0.438   4.170  14.479 -1.5912  0.3139 -3.1687
 4205SOL     OW24076   0.040   3.454   2.158 -0.2202  0.0123 -0.0316
 4205SOL    HW124077   0.120   3.505   2.145 -1.2553  1.6188 -0.1720
 4205SOL    HW224078   4.707   3.506   2.105  0.5561  1.1254  0.1844
 4206SOL     OW24079   2.802   0.605  11.786  0.0730 -0.3485  0.1082
 4206SOL    HW124080   2.795   0.608  11.690  0.0653 -0.6750  0.0971
 4206SOL    HW224081   2.864   0.676  11.804  1.5678 -1.1776 -1.7010
 4207SOL     OW24082   0.778   0.723  10.329 -0.0434 -0.1520 -0.3749
 4207SOL    HW124083   0.728   0.642  10.333 -2.8029  1.4961 -1.1560
 4207SOL    HW224084   0.866   0.691  10.347  0.1162  0.9674  0.7755
 4208SOL     OW24085   3.210   4.253  14.731 -0.2779  0.3341  0.1653
 4208SOL    HW124086   3.169   4.232  14.647  0.8369 -1.4529  0.0592
 4208SOL    HW224087   3.169   4.187  14.786  0.6845  0.6925  1.3298
 4209SOL     OW24088   0.494   3.615  13.353 -0.5016 -0.3634  0.5587
 4209SOL    HW124089   0.496   3.559  13.431  0.6369 -0.0645  0.7316
 4209SOL    HW224090   0.484   3.706  13.381 -1.9612 -0.2751 -0.2436
 4210SOL     OW24091   2.814   1.467   2.670 -0.8749 -0.5136  0.1062
 4210SOL    HW124092   2.855   1.407   2.732 -1.1701 -2.0789 -1.2396
 4210SOL    HW224093   2.786   1.535   2.732  1.7514  1.3486 -0.7048
 4211SOL     OW24094   4.405   3.700   3.506 -0.0303 -0.1842 -0.0686
 4211SOL    HW124095   4.344   3.630   3.528 -1.5986  0.5752 -1.9491
 4211SOL    HW224096   4.462   3.653   3.444  0.7548  1.7717 -0.8286
 4212SOL     OW24097   0.653   4.599   7.322 -0.5880  0.0351 -0.2985
 4212SOL    HW124098   0.593   4.608   7.396 -1.1484 -0.3462 -0.7022
 4212SOL    HW224099   0.719   4.545   7.365  0.2280 -1.1643 -3.0443
 4213SOL     OW24100   3.406   1.821   0.188  0.2712  0.1182 -0.0594
 4213SOL    HW124101   3.333   1.877   0.163  0.2146  0.1435  0.1579
 4213SOL    HW224102   3.435   1.801   0.099  2.6055 -2.6526  1.3355
 4214SOL     OW24103   1.423   1.286  15.042 -0.0253 -0.6057 -0.1399
 4214SOL    HW124104   1.442   1.231  15.118  0.6101  1.3294  1.1243
 4214SOL    HW224105   1.461   1.237  14.970  0.3539  0.6432 -0.7938
 4215SOL     OW24106   1.175   0.134   3.244  0.4763 -0.5562 -0.0023
 4215SOL    HW124107   1.244   0.139   3.311 -0.7887 -0.3863  1.2928
 4215SOL    HW224108   1.151   0.042   3.260  0.7913 -1.1895 -3.2963
 4216SOL     OW24109   0.803   1.630   7.012 -0.2501  0.1818 -0.4442
 4216SOL    HW124110   0.710   1.653   7.014 -0.0074  1.2392 -1.3121
 4216SOL    HW224111   0.836   1.714   6.979  1.1309  0.2172  1.0280
 4217SOL     OW24112   0.680   3.254   9.671  0.1612 -0.0035 -0.2218
 4217SOL    HW124113   0.762   3.292   9.704 -1.1187  1.4671  1.3066
 4217SOL    HW224114   0.637   3.239   9.755 -0.8766  1.4441 -0.4861
 4218SOL     OW24115   1.254   4.484   5.390  0.1838  0.0488  0.5143
 4218SOL    HW124116   1.236   4.578   5.396  0.5766  0.2838 -2.0080
 4218SOL    HW224117   1.165   4.448   5.389  0.6271 -1.0093 -1.1601
 4219SOL     OW24118   4.180   2.108   7.275 -0.3355  0.3254 -0.5364
 4219SOL    HW124119   4.182   2.175   7.207  0.2267 -0.4021 -1.2222
 4219SOL    HW224120   4.101   2.060   7.251  0.4844 -1.3016  0.0650
 4220SOL     OW24121   4.186   0.521   7.710 -0.3560  0.1051  0.1651
 4220SOL    HW124122   4.200   0.426   7.704  1.5203  0.4887 -1.4742
 4220SOL    HW224123   4.126   0.533   7.783 -1.4735 -0.8508 -0.6028
 4221SOL     OW24124   4.399   4.347  17.188  0.1820  0.1087  0.3294
 4221SOL    HW124125   4.310   4.338  17.220  0.1771 -1.5613 -0.1610
 4221SOL    HW224126   4.452   4.299  17.252  0.5816 -1.3246 -1.0779
 4222SOL     OW24127   4.099   4.452   3.518 -0.5690  0.1382 -0.0218
 4222SOL    HW124128   4.123   4.450   3.425  0.6371 -0.0621  0.2873
 4222SOL    HW224129   4.113   4.545   3.537 -0.0446  0.2821 -1.1442
 4223SOL     OW24130   2.217   2.048   3.776 -0.1080 -0.2036  0.1671
 4223SOL    HW124131   2.130   2.014   3.797 -0.2302  1.1569  1.8877
 4223SOL    HW224132   2.282   1.982   3.798 -1.2371 -1.4890 -0.3875
 4224SOL     OW24133   1.850   3.504   1.247  0.3179 -1.0163 -0.2642
 4224SOL    HW124134   1.806   3.442   1.188  1.5744  0.1735 -2.4606
 4224SOL    HW224135   1.942   3.477   1.255  1.6614  3.0352 -2.1094
 4225SOL     OW24136   1.180   1.014   2.674 -0.3748  0.0080  0.1477
 4225SOL    HW124137   1.274   1.024   2.691 -0.4350  0.9887 -0.1014
 4225SOL    HW224138   1.137   1.015   2.759 -2.4476  1.0405 -0.9274
 4226SOL     OW24139   1.815   1.790   9.218  0.3033 -0.4373  0.4049
 4226SOL    HW124140   1.834   1.877   9.183 -1.4288 -0.7254 -1.2581
 4226SOL    HW224141   1.740   1.760   9.166 -1.1199  1.9286  1.0904
 4227SOL     OW24142   1.695   0.624  16.594 -0.4563 -0.5974 -0.0041
 4227SOL    HW124143   1.710   0.606  16.501 -0.2711  1.0940 -0.2989
 4227SOL    HW224144   1.600   0.612  16.594 -0.6166  0.6690 -2.0002
 4228SOL     OW24145   1.373   3.674   6.144  0.5729 -0.4531  0.0839
 4228SOL    HW124146   1.421   3.701   6.065 -2.0655 -1.1349 -1.7523
 4228SOL    HW224147   1.446   3.622   6.178  0.5111 -0.3167  0.4179
 4229SOL     OW24148   0.042   1.021   5.378 -0.3067  0.4059  0.3374
 4229SOL    HW124149   4.725   1.059   5.454  2.3274 -0.6593  2.3752
 4229SOL    HW224150   4.708   0.956   5.345  0.6621 -0.2841 -0.0904
 4230SOL     OW24151   0.710   3.300   3.570 -0.1985 -0.7065 -0.0680
 4230SOL    HW124152   0.795   3.276   3.608  1.6135 -0.5173 -3.9807
 4230SOL    HW224153   0.736   3.348   3.491  0.7168  0.6807  1.0705
 4231SOL     OW24154   1.272   2.890   3.665  0.4672  0.1596  0.8533
 4231SOL    HW124155   1.211   2.961   3.684 -0.2519  0.8440 -4.0005
 4231SOL    HW224156   1.322   2.889   3.746  1.0438  2.4171  0.5347
 4232SOL     OW24157   3.515   0.135   7.462  0.6321 -0.0390  0.6506
 4232SOL    HW124158   3.538   0.226   7.443  0.7328 -0.1266  0.3553
 4232SOL    HW224159   3.420   0.131   7.453  0.5920 -0.2336  1.1398
 4233SOL     OW24160   4.676   0.875  12.648 -0.0811 -0.0840 -0.3970
 4233SOL    HW124161   4.684   0.961  12.606  1.1950 -0.5145 -1.0205
 4233SOL    HW224162   4.614   0.839  12.584  0.2448 -0.2770 -0.6020
 4234SOL     OW24163   3.320   2.876   6.392 -0.4324  0.5091 -0.1113
 4234SOL    HW124164   3.319   2.944   6.324  4.0086 -0.4956 -1.1488
 4234SOL    HW224165   3.332   2.928   6.471  1.1539  1.0247 -0.7022
 4235SOL     OW24166   1.124   1.842   2.844  0.4640 -0.3221 -0.1299
 4235SOL    HW124167   1.061   1.806   2.906  1.3284  1.9948  2.0630
 4235SOL    HW224168   1.174   1.766   2.814 -1.1874 -1.2361 -0.5781
 4236SOL     OW24169   1.999   0.045   0.448 -0.6451  0.2056 -0.3538
 4236SOL    HW124170   2.072   0.005   0.494 -0.4511  0.8723 -0.0759
 4236SOL    HW224171   2.016   0.136   0.471  0.9344 -0.1195 -0.2895
 4237SOL     OW24172   2.966   3.068   1.948  0.2770 -0.0425 -0.3683
 4237SOL    HW124173   2.938   3.012   1.875  1.5426 -0.4183 -0.5570
 4237SOL    HW224174   2.896   3.134   1.953  1.5272  1.1642  1.0803
 4238SOL     OW24175   0.888   2.659  16.755  0.3316 -0.0708 -0.5313
 4238SOL    HW124176   0.964   2.612  16.790  0.2179  0.4803  0.4802
 4238SOL    HW224177   0.846   2.700  16.832 -0.8197 -0.4173 -0.9737
 4239SOL     OW24178   4.104   3.786   5.094 -0.8545 -0.0773  0.1896
 4239SOL    HW124179   4.075   3.765   5.183 -0.0869 -0.7594  0.2839
 4239SOL    HW224180   4.062   3.715   5.045 -0.6977  0.7960 -1.1867
 4240SOL     OW24181   0.328   0.372  14.189 -0.1952 -0.1134 -0.3859
 4240SOL    HW124182   0.266   0.439  14.161 -0.2386  0.4395  1.0369
 4240SOL    HW224183   0.412   0.407  14.157  0.5829 -2.1230 -0.5467
 4241SOL     OW24184   2.554   2.634  14.463  0.0284 -0.1356  0.2690
 4241SOL    HW124185   2.643   2.645  14.496  0.1642 -1.7849  0.4786
 4241SOL    HW224186   2.511   2.662  14.544 -2.1049  0.6244 -1.1270
 4242SOL     OW24187   3.809   3.042   0.960  0.4485 -0.1429  0.4345
 4242SOL    HW124188   3.826   3.116   0.901  2.0693 -1.1979 -0.4360
 4242SOL    HW224189   3.892   2.995   0.967 -0.7310 -2.1691  0.6055
 4243SOL     OW24190   2.559   2.745   3.995  0.4621 -0.6848 -0.4019
 4243SOL    HW124191   2.572   2.652   3.976 -0.5777 -0.8914 -0.1391
 4243SOL    HW224192   2.621   2.767   4.064 -1.0863  1.3728  0.3416
 4244SOL     OW24193   3.201   2.379  12.336  0.1059 -0.5248  0.4475
 4244SOL    HW124194   3.295   2.398  12.336  0.1460 -0.7149  1.3979
 4244SOL    HW224195   3.199   2.285  12.353 -1.0585 -0.5589  0.1073
 4245SOL     OW24196   1.545   2.934   8.195 -0.5346 -0.3277  0.1696
 4245SOL    HW124197   1.572   2.867   8.257 -1.6771 -0.8907  0.0553
 4245SOL    HW224198   1.523   3.009   8.250 -1.3063 -0.1853 -0.3304
 4246SOL     OW24199   1.004   0.002   8.136  0.1853  0.1690 -0.2109
 4246SOL    HW124200   1.012   4.682   8.219 -2.1619 -2.2223 -1.3556
 4246SOL    HW224201   0.912   4.707   8.122  0.2056  0.7005 -1.2087
 4247SOL     OW24202   3.730   4.177   3.833 -0.3409 -0.5147 -0.1922
 4247SOL    HW124203   3.716   4.116   3.905  1.6287  0.6282  1.1666
 4247SOL    HW224204   3.822   4.196   3.850 -0.2914 -0.3375 -0.6585
 4248SOL     OW24205   1.453   3.890   7.760 -0.1020 -0.4311 -0.5337
 4248SOL    HW124206   1.380   3.844   7.719 -0.1248 -0.3734 -0.5585
 4248SOL    HW224207   1.476   3.948   7.688 -1.1498 -0.2226 -0.6973
 4249SOL     OW24208   1.524   2.079   3.753 -0.0250 -0.0269 -0.0559
 4249SOL    HW124209   1.512   1.985   3.764  0.4311 -0.2983 -1.8922
 4249SOL    HW224210   1.542   2.087   3.659  0.1182  0.0420 -0.0220
 4250SOL     OW24211   4.634   1.565   4.771  0.4723  0.4908 -0.0113
 4250SOL    HW124212   4.575   1.580   4.846 -1.2133 -2.0525 -0.8436
 4250SOL    HW224213   4.585   1.615   4.705 -3.3216 -1.5642  1.2297
 4251SOL     OW24214   3.498   1.854   7.742  0.0158  0.2411 -0.3430
 4251SOL    HW124215   3.526   1.933   7.787 -0.4431 -0.0789  0.5083
 4251SOL    HW224216   3.436   1.825   7.809 -0.1092  3.0979  0.7791
 4252SOL     OW24217   1.497   3.529  11.482  0.1579 -0.4353 -0.1271
 4252SOL    HW124218   1.428   3.585  11.448 -1.9703 -2.1557  1.3355
 4252SOL    HW224219   1.460   3.444  11.458  3.0510 -1.4795 -0.8808
 4253SOL     OW24220   4.713   1.423   6.618  0.4608  0.0253 -0.0047
 4253SOL    HW124221   4.702   1.371   6.539  0.9482  1.7492 -1.2105
 4253SOL    HW224222   4.651   1.492   6.594 -1.3608 -1.8149 -0.5636
 4254SOL     OW24223   2.094   4.577   3.486  0.6118  0.1666 -0.4271
 4254SOL    HW124224   2.088   4.486   3.457 -1.6088 -0.3975  1.8514
 4254SOL    HW224225   2.071   4.629   3.408 -0.3576  1.6760  0.8747
 4255SOL     OW24226   1.008   4.671  16.269 -0.1458  0.6233 -0.0345
 4255SOL    HW124227   0.915   4.651  16.256 -0.4727  2.3613 -0.3965
 4255SOL    HW224228   1.036   4.603  16.330  0.5680 -0.4615 -1.5703
 4256SOL     OW24229   4.538   0.717   8.463  0.1526 -0.4480 -0.4541
 4256SOL    HW124230   4.596   0.717   8.539 -1.5450  0.0402  0.8254
 4256SOL    HW224231   4.475   0.651   8.492  0.0947  0.9901  2.6287
 4257SOL     OW24232   3.097   2.525   7.161 -0.0987  0.1210 -0.1166
 4257SOL    HW124233   3.163   2.461   7.134 -0.2016 -0.8343  1.8818
 4257SOL    HW224234   3.075   2.559   7.074  1.5481  2.2369  0.2914
 4258SOL     OW24235   0.095   4.008   8.353 -0.1232 -0.0990  0.6236
 4258SOL    HW124236   0.125   3.928   8.398  0.4367  0.2466  0.8712
 4258SOL    HW224237   0.119   4.073   8.420  0.8249 -0.7431  0.9073
 4259SOL     OW24238   2.585   2.490   1.994  0.3124  0.2156  0.3958
 4259SOL    HW124239   2.656   2.434   2.025 -0.0401 -0.6525 -0.3561
 4259SOL    HW224240   2.526   2.463   2.064  0.4974 -1.9991 -0.3206
 4260SOL     OW24241   1.675   1.992   1.619  0.6045  0.5536 -0.2109
 4260SOL    HW124242   1.678   1.917   1.677  3.2401 -0.7825 -2.0461
 4260SOL    HW224243   1.613   1.971   1.549  1.9006  0.1629 -1.2518
 4261SOL     OW24244   2.235   3.741  14.419 -0.1892  0.6947 -0.2849
 4261SOL    HW124245   2.325   3.710  14.410 -0.7653 -0.3629 -2.2645
 4261SOL    HW224246   2.220   3.744  14.514  0.3211 -0.2149 -0.1788
 4262SOL     OW24247   3.861   1.994   6.919 -0.2659 -0.0101  0.4610
 4262SOL    HW124248   3.847   2.086   6.894  0.4930 -0.0401 -0.0482
 4262SOL    HW224249   3.823   1.957   6.839  1.3160 -2.4451  0.8630
 4263SOL     OW24250   4.712   2.734   9.152  0.2411 -0.4770  0.2392
 4263SOL    HW124251   4.674   2.648   9.172 -1.4055  0.4421  1.1195
 4263SOL    HW224252   0.008   2.710   9.063  2.2125  1.7635  0.1571
 4264SOL     OW24253   3.572   2.589   3.015 -0.8735 -0.0254  0.3835
 4264SOL    HW124254   3.660   2.616   3.039 -1.3961 -0.2927  2.6002
 4264SOL    HW224255   3.588   2.495   3.020  0.0597  0.0617 -1.1260
 4265SOL     OW24256   4.557   3.743   8.374  0.5465 -0.8705 -0.4506
 4265SOL    HW124257   4.555   3.835   8.347  0.3861 -0.5573  0.6251
 4265SOL    HW224258   4.578   3.749   8.467 -3.2485  0.1673  0.3306
 4266SOL     OW24259   0.950   1.323   7.478 -0.4004 -0.0632 -0.5473
 4266SOL    HW124260   0.916   1.387   7.415  0.6374 -1.5936 -2.6321
 4266SOL    HW224261   0.907   1.343   7.562 -0.8855  2.7652 -1.4529
 4267SOL     OW24262   2.784   3.680  17.020  0.1785 -0.5343  0.6097
 4267SOL    HW124263   2.866   3.648  17.059  0.2548  1.9672  2.5258
 4267SOL    HW224264   2.749   3.591  17.015 -2.3597  0.5767 -0.8281
 4268SOL     OW24265   2.651   0.990  12.795  0.2380  0.1732  0.0655
 4268SOL    HW124266   2.710   1.046  12.745  0.0286 -1.9636 -2.6006
 4268SOL    HW224267   2.714   0.935  12.840 -0.0612 -0.7558 -0.6503
 4269SOL     OW24268   3.890   2.635   6.335 -0.3980  0.5223  0.0528
 4269SOL    HW124269   3.873   2.699   6.404  2.0489  0.7297  0.4936
 4269SOL    HW224270   3.958   2.582   6.378 -0.3997  0.0907 -0.4785
 4270SOL     OW24271   1.760   4.183   5.967 -0.0646 -0.3773 -0.1483
 4270SOL    HW124272   1.722   4.271   5.966  3.3900  1.1663  2.0702
 4270SOL    HW224273   1.703   4.146   5.899 -0.2710  2.1023 -1.3449
 4271SOL     OW24274   2.772   4.423   1.254  0.3103  0.0552  0.0363
 4271SOL    HW124275   2.729   4.427   1.340  0.4501  1.6324  0.0449
 4271SOL    HW224276   2.740   4.338   1.224  1.2961 -1.7241  4.0301
 4272SOL     OW24277   1.653   3.141   6.998 -0.2561  0.1849  0.5468
 4272SOL    HW124278   1.715   3.204   6.961 -0.6702  1.2832  1.7173
 4272SOL    HW224279   1.721   3.078   7.020 -0.3795  0.0127  0.4306
 4273SOL     OW24280   0.886   1.789   0.333  0.5327 -0.5851 -0.5821
 4273SOL    HW124281   0.845   1.875   0.323  1.9028  0.2201  0.7325
 4273SOL    HW224282   0.805   1.740   0.320 -0.0443  0.5497 -1.3749
 4274SOL     OW24283   4.526   3.071   5.389 -0.1480  0.4907 -0.0168
 4274SOL    HW124284   4.471   3.148   5.404 -1.1599 -0.0618 -0.8664
 4274SOL    HW224285   4.477   3.033   5.316 -1.1020  2.8451 -0.5868
 4275SOL     OW24286   2.157   1.518   2.505 -0.1297  0.6901 -0.5349
 4275SOL    HW124287   2.149   1.423   2.512  0.6848  0.5346 -1.6342
 4275SOL    HW224288   2.250   1.515   2.484 -0.5945  0.6950 -2.6098
 4276SOL     OW24289   1.868   2.480  16.028  0.7988 -0.6521 -0.3016
 4276SOL    HW124290   1.963   2.483  16.021  0.8135 -1.1336 -0.2717
 4276SOL    HW224291   1.843   2.491  15.936 -2.3988 -3.0985  0.2705
 4277SOL     OW24292   0.145   3.471   6.619  0.5016  0.0575 -0.1495
 4277SOL    HW124293   0.053   3.472   6.596 -0.1398  1.0145  2.4104
 4277SOL    HW224294   0.189   3.436   6.542 -1.4995 -1.2598 -0.6827
 4278SOL     OW24295   1.140   4.622   4.968  0.4107  0.5692  0.0472
 4278SOL    HW124296   1.151   4.684   5.040 -0.2758 -1.2308  1.6924
 4278SOL    HW224297   1.200   4.654   4.900  0.6075  0.3579  0.1191
 4279SOL     OW24298   3.137   2.485  16.049  0.0109  0.4719 -0.0078
 4279SOL    HW124299   3.183   2.406  16.076  1.2190  0.7659 -1.2252
 4279SOL    HW224300   3.071   2.439  15.997 -0.9034 -0.0347  1.6121
 4280SOL     OW24301   3.637   1.813   7.447  0.0743  0.0172 -0.5131
 4280SOL    HW124302   3.614   1.877   7.514 -4.6392 -1.5144 -0.6718
 4280SOL    HW224303   3.689   1.869   7.389 -1.5073  0.3457 -1.5917
 4281SOL     OW24304   0.603   1.830   3.883 -0.0576  0.2615 -0.2445
 4281SOL    HW124305   0.553   1.912   3.880 -0.2493  0.1726  0.4339
 4281SOL    HW224306   0.533   1.767   3.900 -3.0066  2.9247 -2.4492
 4282SOL     OW24307   3.949   0.325   6.116  0.5263  0.0925  0.4080
 4282SOL    HW124308   3.886   0.341   6.186  0.0576  0.0340  0.0034
 4282SOL    HW224309   3.893   0.351   6.042  2.0278  0.7885 -0.4954
 4283SOL     OW24310   0.053   2.284   5.868 -0.2847 -0.2273  0.4534
 4283SOL    HW124311   4.701   2.231   5.862  0.1647 -1.2086  2.8557
 4283SOL    HW224312   0.050   2.342   5.792  1.0994  0.7609  1.1468
 4284SOL     OW24313   2.606   0.719   1.641  0.0540 -0.1966 -0.1938
 4284SOL    HW124314   2.548   0.680   1.575 -1.9420 -0.0243  1.4924
 4284SOL    HW224315   2.658   0.641   1.657  2.6672  1.6595  0.3693
 4285SOL     OW24316   3.103   4.449   9.037 -0.2744 -0.0809 -0.0778
 4285SOL    HW124317   3.174   4.389   9.013 -1.0193 -1.4514  1.1569
 4285SOL    HW224318   3.047   4.436   8.960  0.7146 -1.6672 -0.5284
 4286SOL     OW24319   4.687   1.321   1.865 -0.1208  0.4509 -0.1857
 4286SOL    HW124320   4.598   1.309   1.831  0.1503  0.3839 -0.8848
 4286SOL    HW224321   4.676   1.416   1.868 -0.8382  0.4207 -1.6817
 4287SOL     OW24322   4.702   0.941   9.082 -0.0331  0.2180  0.3263
 4287SOL    HW124323   4.717   0.925   9.175 -1.1811 -0.8055  0.3445
 4287SOL    HW224324   4.634   0.881   9.050 -1.9187  2.2390  0.5342
 4288SOL     OW24325   1.060   4.559   3.288 -0.3290  0.2399  0.5298
 4288SOL    HW124326   1.014   4.569   3.205  2.7397  0.5853 -1.1205
 4288SOL    HW224327   1.050   4.465   3.298 -0.4089  0.2728  0.7722
 4289SOL     OW24328   3.096   2.691   9.051 -0.3393 -0.6923  0.1603
 4289SOL    HW124329   3.091   2.736   9.135 -5.1333 -1.0057  0.0318
 4289SOL    HW224330   3.003   2.697   9.031 -0.5185 -1.1394  0.8577
 4290SOL     OW24331   3.244   3.872   8.294  0.8444  0.1579 -0.4187
 4290SOL    HW124332   3.243   3.777   8.288  0.3328  0.0955  0.6353
 4290SOL    HW224333   3.150   3.884   8.280  0.4906  1.2713  2.8746
 4291SOL     OW24334   2.148   0.904  10.437  0.1181  0.2196  0.1269
 4291SOL    HW124335   2.169   0.811  10.440  3.5327  1.0186  1.0489
 4291SOL    HW224336   2.211   0.925  10.368  0.0231 -1.6748 -0.5342
 4292SOL     OW24337   0.351   2.114   8.575 -0.1809 -0.2389  0.4413
 4292SOL    HW124338   0.371   2.181   8.509  1.0714 -1.2134 -0.1726
 4292SOL    HW224339   0.428   2.057   8.566  0.8173  1.0507  0.8363
 4293SOL     OW24340   3.092   3.294   0.691 -0.1463 -0.2962 -0.1095
 4293SOL    HW124341   3.116   3.217   0.741 -0.4325 -1.3501 -1.6094
 4293SOL    HW224342   3.057   3.353   0.758 -2.2987  1.3751 -2.6932
 4294SOL     OW24343   0.907   3.368   2.600 -0.2740  0.0580  0.4196
 4294SOL    HW124344   0.943   3.295   2.648 -0.6205  1.4155  2.7345
 4294SOL    HW224345   0.882   3.426   2.672  0.4432  2.3757 -1.1892
 4295SOL     OW24346   0.973   3.603  17.468 -0.5342  0.2459 -0.1476
 4295SOL    HW124347   1.048   3.549  17.443  0.2391  0.2491  2.1449
 4295SOL    HW224348   0.991   3.628  17.559  1.5027 -0.9118 -0.2316
 4296SOL     OW24349   4.654   1.616   6.907  0.3295 -0.2084 -0.1144
 4296SOL    HW124350   4.561   1.591   6.904 -0.4126  2.7328 -2.0999
 4296SOL    HW224351   4.695   1.530   6.912 -0.8142 -0.6077  2.2344
 4297SOL     OW24352   0.784   1.773   4.788  0.0949 -0.5732  0.2516
 4297SOL    HW124353   0.805   1.709   4.720 -0.7945 -1.4659  0.8285
 4297SOL    HW224354   0.704   1.742   4.829  0.1079  0.8177  1.3265
 4298SOL     OW24355   1.652   0.568   5.626 -0.5661  0.4977 -0.3326
 4298SOL    HW124356   1.581   0.588   5.687 -0.9461 -0.3234 -0.5137
 4298SOL    HW224357   1.730   0.573   5.680 -2.0092  0.0030  1.7976
 4299SOL     OW24358   0.509   2.210   6.915 -0.2057  0.4565  0.5985
 4299SOL    HW124359   0.524   2.240   6.825  1.2290  0.3695  0.8098
 4299SOL    HW224360   0.421   2.173   6.912 -0.2811  0.8511 -2.0989
 4300SOL     OW24361   2.306   2.130   0.322 -0.0215 -0.2652 -0.2478
 4300SOL    HW124362   2.229   2.116   0.266 -1.3648 -0.7522  1.7389
 4300SOL    HW224363   2.276   2.106   0.409 -1.0158 -0.2749 -0.5873
 4301SOL     OW24364   1.928   1.474   1.611 -0.3623  0.6751 -0.4350
 4301SOL    HW124365   1.835   1.450   1.604 -0.2470 -0.8018  2.6605
 4301SOL    HW224366   1.952   1.490   1.520  0.3503 -0.9767 -0.5430
 4302SOL     OW24367   3.468   2.268   3.939  0.3969  0.4057 -0.4942
 4302SOL    HW124368   3.431   2.352   3.965  1.7910  0.0062  2.7070
 4302SOL    HW224369   3.543   2.302   3.890 -1.0914  2.6742 -1.1867
 4303SOL     OW24370   0.900   2.507   5.421 -0.4417  0.1400 -0.4774
 4303SOL    HW124371   0.883   2.481   5.512  1.0568 -1.5806 -0.6914
 4303SOL    HW224372   0.885   2.425   5.373 -0.5335  1.1633 -2.1925
 4304SOL     OW24373   3.548   0.237   5.350  0.1208 -0.3245 -0.3324
 4304SOL    HW124374   3.459   0.222   5.319 -0.9838  1.2680  2.0932
 4304SOL    HW224375   3.548   0.243   5.445  0.6229 -1.0133 -0.2823
 4305SOL     OW24376   3.194   3.992   5.026 -0.0689 -0.1322  0.4092
 4305SOL    HW124377   3.236   4.066   4.984  0.7251 -0.5486  0.4740
 4305SOL    HW224378   3.115   4.034   5.060  0.3579  1.7325 -0.9588
 4306SOL     OW24379   2.947   1.365   0.045 -0.9445 -0.3620  0.5379
 4306SOL    HW124380   2.978   1.420   0.117  0.1026 -1.2835  0.8042
 4306SOL    HW224381   2.854   1.383   0.032 -1.6389 -3.0626  1.7641
 4307SOL     OW24382   1.234   1.251   6.924  0.4847  0.3330  0.2122
 4307SOL    HW124383   1.297   1.262   6.995  0.7662 -1.0811  0.1940
 4307SOL    HW224384   1.285   1.195   6.865 -0.0600 -0.0500  0.1033
 4308SOL     OW24385   3.953   0.246   7.411  0.3024 -0.3238  0.1663
 4308SOL    HW124386   3.982   0.155   7.413  1.8935  0.2485  3.5555
 4308SOL    HW224387   3.978   0.275   7.323 -1.6224  0.0668 -0.2451
 4309SOL     OW24388   3.828   2.397   2.704  0.1207  0.0717  0.1576
 4309SOL    HW124389   3.809   2.480   2.661 -1.3963  0.1395  0.9544
 4309SOL    HW224390   3.914   2.422   2.735 -0.1241  0.4560  0.5227
 4310SOL     OW24391   2.922   2.453   3.976 -0.2070 -0.2916 -0.3482
 4310SOL    HW124392   2.827   2.451   3.962 -0.1687 -0.3330 -0.5940
 4310SOL    HW224393   2.927   2.540   4.015 -0.7670  0.5153 -2.0683
 4311SOL     OW24394   2.447   2.914   0.433  0.1703 -0.5460  0.0125
 4311SOL    HW124395   2.385   2.923   0.361  0.4224  2.5413  0.1894
 4311SOL    HW224396   2.382   2.888   0.498 -0.7752 -1.1225 -1.1862
 4312SOL     OW24397   1.445   1.575   6.692 -0.0329 -0.3029 -0.0026
 4312SOL    HW124398   1.374   1.582   6.756 -0.0630  0.3685 -0.1085
 4312SOL    HW224399   1.509   1.633   6.733 -0.3084 -0.9186  1.2791
 4313SOL     OW24400   1.994   3.675  14.863  0.1622 -0.5367  0.1533
 4313SOL    HW124401   1.924   3.724  14.906  1.2248  0.0916  1.1779
 4313SOL    HW224402   1.948   3.647  14.784 -1.5866  1.9648  0.3077
 4314SOL     OW24403   4.345   4.664   3.851 -0.1396 -0.7582  0.2020
 4314SOL    HW124404   4.385   4.579   3.835 -0.6883 -0.7104 -1.4254
 4314SOL    HW224405   4.254   4.656   3.821 -0.7936  4.4687  0.7003
 4315SOL     OW24406   2.971   1.307   3.169 -0.0833 -0.3708  0.0575
 4315SOL    HW124407   2.967   1.367   3.244  1.0885  0.9752 -0.9524
 4315SOL    HW224408   2.972   1.226   3.221 -0.6393  0.3537  1.1918
 4316SOL     OW24409   4.545   2.110   6.151  0.7514  0.6894  0.1724
 4316SOL    HW124410   4.629   2.147   6.178  0.3428  0.0177  2.3769
 4316SOL    HW224411   4.550   2.119   6.056 -2.4175  0.5086  0.0150
 4317SOL     OW24412   1.181   0.619   9.514  0.0728 -0.3769  0.0802
 4317SOL    HW124413   1.232   0.554   9.562  1.3781  1.0962  0.7187
 4317SOL    HW224414   1.127   0.564   9.457 -0.4306  1.7615 -1.5051
 4318SOL     OW24415   4.063   2.914   6.413  0.8298  0.1261 -0.1597
 4318SOL    HW124416   4.080   2.820   6.422 -0.7197 -0.1737 -0.3452
 4318SOL    HW224417   4.091   2.937   6.502 -0.6569  2.2021 -0.2296
 4319SOL     OW24418   0.456   2.340   1.147  0.4261  0.3562  0.2507
 4319SOL    HW124419   0.499   2.362   1.229  0.8355 -3.2894  0.9743
 4319SOL    HW224420   0.483   2.417   1.097  1.8833 -1.1146 -1.2123
 4320SOL     OW24421   1.124   3.198  13.951  0.0440  0.0460  0.3459
 4320SOL    HW124422   1.193   3.150  13.907 -0.0647  0.9912 -0.8589
 4320SOL    HW224423   1.047   3.199  13.895 -0.7946 -1.2355  1.4808
 4321SOL     OW24424   4.525   3.142  14.260  0.3377  0.3718 -0.2775
 4321SOL    HW124425   4.435   3.134  14.228 -0.0028  1.7793  0.3298
 4321SOL    HW224426   4.547   3.225  14.217  0.3148  0.5997  0.1560
 4322SOL     OW24427   2.822   3.159  13.835 -0.1221  0.5336  0.6443
 4322SOL    HW124428   2.880   3.206  13.895 -0.0892  0.9234  0.3138
 4322SOL    HW224429   2.884   3.092  13.805 -2.9353 -1.6258 -0.3286
 4323SOL     OW24430   2.048   1.500   8.582  0.2826 -0.5671  0.4524
 4323SOL    HW124431   2.013   1.563   8.518  1.1094 -0.1041  0.4542
 4323SOL    HW224432   2.133   1.535   8.609 -1.1284  1.5195  2.2675
 4324SOL     OW24433   3.924   3.623   4.991 -0.5174 -0.4085 -0.2401
 4324SOL    HW124434   3.848   3.566   5.007 -1.1218  0.3212 -0.5229
 4324SOL    HW224435   3.982   3.558   4.951  0.9427 -1.0888  3.0096
 4325SOL     OW24436   0.922   2.072   9.072  0.1264  0.1687  0.1945
 4325SOL    HW124437   0.864   2.053   8.998  1.1947  0.8943 -0.8279
 4325SOL    HW224438   0.872   2.137   9.121  0.9242 -0.2373  1.5432
 4326SOL     OW24439   1.455   0.845   4.440 -0.4214  0.1016 -0.1018
 4326SOL    HW124440   1.488   0.833   4.529 -0.0515  0.8139 -0.1369
 4326SOL    HW224441   1.410   0.928   4.456 -0.9515  0.0885 -1.5024
 4327SOL     OW24442   1.974   1.080   4.313  0.3407  0.0013  0.2185
 4327SOL    HW124443   1.944   1.168   4.289 -2.5786 -1.0674  0.0379
 4327SOL    HW224444   1.957   1.088   4.407 -2.9541 -0.9520 -0.3146
 4328SOL     OW24445   1.423   0.588  16.562 -0.2668 -0.2018 -0.1740
 4328SOL    HW124446   1.356   0.548  16.617 -1.4118  1.7346 -0.1887
 4328SOL    HW224447   1.375   0.644  16.501 -0.3711 -0.4657 -0.3353
 4329SOL     OW24448   0.315   0.232   6.186  0.0772 -0.3707  0.0572
 4329SOL    HW124449   0.336   0.162   6.248  0.4405 -0.4561 -0.1634
 4329SOL    HW224450   0.287   0.178   6.112  0.1471 -1.1744  0.6189
 4330SOL     OW24451   3.644   4.341  11.420 -0.6021 -0.4892 -0.1544
 4330SOL    HW124452   3.685   4.298  11.495 -0.0890 -0.1129 -0.2144
 4330SOL    HW224453   3.700   4.320  11.346 -0.3422 -3.4558  0.8792
 4331SOL     OW24454   4.035   1.973   8.080 -0.0392  0.0234 -0.7124
 4331SOL    HW124455   4.119   2.015   8.062 -0.5010  1.7390  1.0922
 4331SOL    HW224456   4.020   1.912   8.008  0.7622  0.7235 -1.4673
 4332SOL     OW24457   2.347   3.346   4.928 -0.3807  0.1419 -0.4162
 4332SOL    HW124458   2.265   3.393   4.908 -0.4137  1.2600  2.2194
 4332SOL    HW224459   2.407   3.394   4.871 -3.1634  3.2165 -0.8391
 4333SOL     OW24460   2.586   3.147   6.216  0.6446 -0.6275  0.3354
 4333SOL    HW124461   2.667   3.131   6.264  2.4413 -0.4431 -2.6869
 4333SOL    HW224462   2.617   3.214   6.156  1.8514  0.3889  2.0965
 4334SOL     OW24463   3.408   1.502   1.263 -0.2643 -0.1254 -0.7270
 4334SOL    HW124464   3.428   1.587   1.225  1.6219 -1.3924 -2.5510
 4334SOL    HW224465   3.473   1.449   1.217 -1.2390  0.0871 -2.3607
 4335SOL     OW24466   0.046   2.922   4.192  0.1174  0.2748 -0.0864
 4335SOL    HW124467   4.683   2.889   4.185  1.1473 -2.2511 -1.6289
 4335SOL    HW224468   0.040   2.984   4.264  0.8672  0.0283  0.1843
 4336SOL     OW24469   3.295   0.505   8.346 -0.6358  0.7364 -0.3604
 4336SOL    HW124470   3.265   0.414   8.352  1.6464 -0.0038 -0.1282
 4336SOL    HW224471   3.257   0.515   8.259  3.0756 -1.3571 -2.1979
 4337SOL     OW24472   3.741   0.175   2.322 -0.0243 -0.3535 -1.0275
 4337SOL    HW124473   3.699   0.117   2.258  0.1750 -1.2508 -0.3356
 4337SOL    HW224474   3.804   0.113   2.359  1.0225  1.9918  1.1330
 4338SOL     OW24475   3.310   3.324   0.547  0.0317 -0.1039  0.2928
 4338SOL    HW124476   3.229   3.289   0.586  0.6697  1.0453  2.6567
 4338SOL    HW224477   3.351   3.371   0.619 -2.9259 -0.6286  2.3545
 4339SOL     OW24478   2.215   0.614   8.854  0.4008 -0.1952 -0.3820
 4339SOL    HW124479   2.157   0.679   8.814 -0.7389  0.1364  1.7874
 4339SOL    HW224480   2.170   0.602   8.937  2.6009 -1.0054  0.6684
 4340SOL     OW24481   1.497   1.552   9.363  0.3295 -0.6057  0.7546
 4340SOL    HW124482   1.538   1.534   9.279  1.2443  0.1935  1.0252
 4340SOL    HW224483   1.502   1.647   9.378  1.7917 -0.7795  1.4633
 4341SOL     OW24484   3.943   1.983   7.180  0.3700 -0.5636  0.6177
 4341SOL    HW124485   3.871   2.030   7.223  0.5394  0.3619 -0.1220
 4341SOL    HW224486   3.925   2.013   7.091 -0.4779 -1.6889  0.4040
 4342SOL     OW24487   4.326   2.246   9.663  0.0039 -0.2401  0.8696
 4342SOL    HW124488   4.270   2.186   9.712 -0.0099 -1.3222 -0.4557
 4342SOL    HW224489   4.389   2.186   9.623  1.0294  1.0726  0.5018
 4343SOL     OW24490   1.636   2.812   6.967  0.2967 -0.5529 -0.5800
 4343SOL    HW124491   1.559   2.851   7.009 -0.2785  0.8003 -2.8600
 4343SOL    HW224492   1.616   2.720   6.954 -1.1782  0.2084 -3.8559
 4344SOL     OW24493   1.011   2.843   6.577 -0.7195 -0.1708 -0.0732
 4344SOL    HW124494   0.975   2.921   6.618 -1.5212 -0.6471  0.1413
 4344SOL    HW224495   1.086   2.883   6.533 -0.8099 -1.1728 -1.1590
 4345SOL     OW24496   0.013   0.800   3.296 -0.7156 -0.4550  0.1323
 4345SOL    HW124497   4.723   0.778   3.388 -0.2483  1.3219  0.6522
 4345SOL    HW224498   0.069   0.724   3.281  1.2640  0.6826  1.6546
 4346SOL     OW24499   3.717   0.543  13.719  0.0952  0.4085  0.5358
 4346SOL    HW124500   3.646   0.548  13.783 -0.5597  0.1967 -0.1711
 4346SOL    HW224501   3.790   0.579  13.769  0.0249  0.1000  0.8544
 4347SOL     OW24502   2.790   1.425   5.699  0.4735  0.0955 -0.3921
 4347SOL    HW124503   2.697   1.402   5.703  0.6313 -0.1843  2.1036
 4347SOL    HW224504   2.779   1.518   5.716  1.0524  0.3660 -1.5359
 4348SOL     OW24505   1.603   4.547   7.523 -0.2317  0.3451 -0.3178
 4348SOL    HW124506   1.675   4.505   7.477  0.7300  3.1519 -1.3791
 4348SOL    HW224507   1.646   4.624   7.561 -1.7931  0.8854  0.3879
 4349SOL     OW24508   4.131   4.465  13.222 -0.2734 -0.3742 -0.0782
 4349SOL    HW124509   4.213   4.419  13.206 -0.2388 -0.6608  0.9123
 4349SOL    HW224510   4.076   4.430  13.152  0.1731  0.8019 -1.0152
 4350SOL     OW24511   2.905   3.485   2.027 -0.3692 -0.2568  0.5590
 4350SOL    HW124512   2.857   3.406   2.006 -0.4903 -0.0049 -0.1234
 4350SOL    HW224513   2.900   3.525   1.940 -0.1136  1.4120  1.3075
 4351SOL     OW24514   2.751   3.729  12.663 -0.3596  0.2565 -0.1947
 4351SOL    HW124515   2.752   3.724  12.567 -0.8168 -3.3048 -0.0138
 4351SOL    HW224516   2.780   3.820  12.663 -0.5763  0.3240 -0.0546
 4352SOL     OW24517   1.205   3.498   9.897  0.2976  0.1291 -0.0582
 4352SOL    HW124518   1.272   3.431   9.914  0.1071  0.6377  2.7208
 4352SOL    HW224519   1.151   3.488   9.976  0.6212 -1.7742 -0.0691
 4353SOL     OW24520   0.783   0.393   3.643  0.3871  0.1534  0.1305
 4353SOL    HW124521   0.853   0.421   3.702 -1.1348  1.5074  1.2769
 4353SOL    HW224522   0.837   0.328   3.599  1.3604  1.0084  0.0677
 4354SOL     OW24523   4.698   3.224   7.493  0.1867  0.6177  0.2017
 4354SOL    HW124524   4.692   3.274   7.412 -0.6488 -0.4301 -0.3769
 4354SOL    HW224525   4.669   3.139   7.463 -0.9123  0.9192  0.3924
 4355SOL     OW24526   0.612   4.514   6.293  0.0897 -0.6284  0.2046
 4355SOL    HW124527   0.687   4.565   6.263  1.6843 -2.6414  0.7492
 4355SOL    HW224528   0.550   4.586   6.283 -0.1928 -0.8486  0.3866
 4356SOL     OW24529   4.115   4.404   8.956 -0.4820 -0.2207 -0.3942
 4356SOL    HW124530   4.186   4.450   9.002  1.2166 -1.9708 -1.2673
 4356SOL    HW224531   4.066   4.478   8.921  1.4058  1.0965 -0.2382
 4357SOL     OW24532   4.630   2.590   7.954  0.3024  0.4005 -0.5426
 4357SOL    HW124533   4.605   2.499   7.969 -0.2506  0.5789 -0.3440
 4357SOL    HW224534   4.574   2.648   8.006  0.1276 -0.9150  0.7167
 4358SOL     OW24535   1.665   2.628   0.879  0.3265 -0.1806  0.3607
 4358SOL    HW124536   1.744   2.654   0.833  0.2650  0.3301  0.5518
 4358SOL    HW224537   1.704   2.600   0.961  0.6287 -0.5166  0.1039
 4359SOL     OW24538   4.315   0.323   2.703  0.0304 -0.0183  0.1066
 4359SOL    HW124539   4.312   0.267   2.781  0.9163  0.1744  0.2803
 4359SOL    HW224540   4.397   0.297   2.661  1.8575  0.6675  3.2435
 4360SOL     OW24541   3.927   2.549  11.602  0.1081  0.1474 -0.5039
 4360SOL    HW124542   3.861   2.512  11.660 -1.0559 -0.5505 -2.2875
 4360SOL    HW224543   4.011   2.545  11.649  0.1184  2.1774 -0.3785
 4361SOL     OW24544   1.062   4.023  14.632  0.0851  0.1380  0.0657
 4361SOL    HW124545   0.973   3.991  14.620 -0.6254  2.4317 -0.7988
 4361SOL    HW224546   1.100   3.961  14.694 -1.8485  0.9771  2.0826
 4362SOL     OW24547   2.704   1.094   3.692  0.4325  0.3531  0.1877
 4362SOL    HW124548   2.705   1.028   3.762 -1.7270 -0.0930 -0.1965
 4362SOL    HW224549   2.759   1.162   3.732 -1.1746  1.4746  0.4981
 4363SOL     OW24550   0.771   2.878   2.085  0.5816 -0.1430  0.7117
 4363SOL    HW124551   0.846   2.907   2.137  0.8729 -1.4521  1.0288
 4363SOL    HW224552   0.767   2.785   2.104 -2.0651 -0.2354 -0.3168
 4364SOL     OW24553   2.554   3.647  16.822 -0.0527  0.2484  0.0047
 4364SOL    HW124554   2.517   3.662  16.734  0.0898  2.3370  0.3096
 4364SOL    HW224555   2.521   3.725  16.865  1.8529  0.5727  0.8304
 4365SOL     OW24556   2.004   4.306   9.187  0.3273  0.4156 -0.2431
 4365SOL    HW124557   1.983   4.215   9.165 -1.8978  0.8744  0.0282
 4365SOL    HW224558   1.951   4.333   9.261 -1.1838  0.6737 -1.4126
 4366SOL     OW24559   0.400   2.434   5.821  0.5974  0.1527  0.4151
 4366SOL    HW124560   0.420   2.425   5.728  0.3075 -0.9016  0.4638
 4366SOL    HW224561   0.371   2.348   5.853  0.9025 -0.5177 -1.1556
 4367SOL     OW24562   1.557   1.470   1.825  0.3179  0.2765  0.5693
 4367SOL    HW124563   1.643   1.505   1.849 -0.1061  2.0389 -0.4817
 4367SOL    HW224564   1.527   1.445   1.912 -2.4432  0.2986 -0.3893
 4368SOL     OW24565   1.230   4.308   8.342  0.2994 -0.4436 -0.2823
 4368SOL    HW124566   1.197   4.355   8.266 -0.2073  0.2969  0.4085
 4368SOL    HW224567   1.144   4.268   8.354 -0.9687  1.4640 -2.9360
 4369SOL     OW24568   1.862   2.968  16.085  0.3324 -0.1761  0.0365
 4369SOL    HW124569   1.786   2.920  16.117  0.1275  1.1171  1.4694
 4369SOL    HW224570   1.818   3.030  16.027  1.0805  0.4939  0.1751
 4370SOL     OW24571   0.518   3.444   7.973  0.2279  0.1392  0.1051
 4370SOL    HW124572   0.455   3.472   7.907 -1.9392 -0.4633  1.9332
 4370SOL    HW224573   0.469   3.475   8.049  1.3174 -0.0267  0.8745
 4371SOL     OW24574   2.415   2.332   6.539 -0.1750  0.3608 -0.9555
 4371SOL    HW124575   2.406   2.423   6.512 -0.0744 -0.0933 -2.4750
 4371SOL    HW224576   2.500   2.337   6.583 -1.0135 -0.9951  0.8593
 4372SOL     OW24577   4.174   1.639   9.058 -0.7146 -0.4223  0.3085
 4372SOL    HW124578   4.093   1.684   9.084  1.0779  1.9720  1.8393
 4372SOL    HW224579   4.237   1.699   9.098 -1.5986  1.9189 -1.7672
 4373SOL     OW24580   4.527   1.137   6.308  0.1543  0.2890 -0.1674
 4373SOL    HW124581   4.480   1.142   6.391  1.4959  0.7629  0.5620
 4373SOL    HW224582   4.531   1.041   6.300 -0.1039  0.2077  0.6661
 4374SOL     OW24583   0.374   3.275   2.122  0.0416  0.0715 -0.0159
 4374SOL    HW124584   0.403   3.191   2.157  0.6977  0.8812  1.3549
 4374SOL    HW224585   0.455   3.322   2.100 -1.3562  2.2587 -0.4025
 4375SOL     OW24586   0.405   4.684   8.262  0.1994 -0.6723 -0.0569
 4375SOL    HW124587   0.483   4.677   8.317 -0.0325 -0.3238  0.3143
 4375SOL    HW224588   0.346   4.706   8.334 -0.5136  0.8642 -1.1292
 4376SOL     OW24589   4.051   0.928  14.667 -0.2549  0.6618 -0.3607
 4376SOL    HW124590   4.144   0.916  14.685 -1.4925 -0.7219  5.1648
 4376SOL    HW224591   4.024   1.001  14.723  0.7983 -0.0262  1.0324
 4377SOL     OW24592   1.973   4.395  15.513  0.0079  0.2048  0.3689
 4377SOL    HW124593   1.923   4.473  15.540  0.5052 -0.2038  2.4356
 4377SOL    HW224594   1.903   4.354  15.462  0.0718 -0.4346  0.8024
 4378SOL     OW24595   0.190   4.071   3.742  0.1715  0.1860 -0.3161
 4378SOL    HW124596   0.244   4.136   3.786 -0.7609  1.5681 -1.2410
 4378SOL    HW224597   0.102   4.095   3.771  0.4989  0.3723  0.5137
 4379SOL     OW24598   3.708   3.381  11.947  0.2914  0.1637 -0.0166
 4379SOL    HW124599   3.621   3.399  11.984  2.2824  0.8419  4.3755
 4379SOL    HW224600   3.684   3.364  11.856 -0.6036  0.4684  0.1627
 4380SOL     OW24601   1.955   1.312   3.246  0.0503 -0.6093 -0.1602
 4380SOL    HW124602   1.987   1.402   3.247 -1.4590 -0.0775  3.3557
 4380SOL    HW224603   1.973   1.290   3.155  0.8081 -0.8265  0.0510
 4381SOL     OW24604   3.824   3.369  15.270  0.1077  0.3574  0.0533
 4381SOL    HW124605   3.903   3.323  15.242  0.4745  0.9429  0.1291
 4381SOL    HW224606   3.765   3.295  15.286  0.3203  0.4324  1.1669
 4382SOL     OW24607   3.076   0.720   6.827  0.3982 -0.2401 -0.1587
 4382SOL    HW124608   3.166   0.692   6.840  0.6067  0.3968 -0.2269
 4382SOL    HW224609   3.035   0.635   6.814 -1.7955  0.6074  1.0936
 4383SOL     OW24610   0.355   0.376   3.182 -0.1251  0.0860 -0.4791
 4383SOL    HW124611   0.337   0.375   3.089 -1.7741  0.0190 -0.1550
 4383SOL    HW224612   0.439   0.422   3.183 -1.3904  2.3835  0.4339
 4384SOL     OW24613   1.842   4.281   1.830  0.2821  0.7615 -0.2924
 4384SOL    HW124614   1.918   4.289   1.887  0.3108 -0.0540 -0.2121
 4384SOL    HW224615   1.891   4.301   1.750  0.4146 -1.8156 -0.8483
 4385SOL     OW24616   2.975   0.678  10.470  0.3698  0.8227  0.2917
 4385SOL    HW124617   2.965   0.583  10.468 -1.3765  0.9937  0.2172
 4385SOL    HW224618   2.989   0.693  10.563  2.1791 -0.4212  0.2173
 4386SOL     OW24619   3.250   1.017   6.583 -0.1605  0.3089 -0.0618
 4386SOL    HW124620   3.306   1.095   6.588  0.3937  0.0745 -2.5021
 4386SOL    HW224621   3.193   1.032   6.508  0.8883 -1.6326 -1.2668
 4387SOL     OW24622   2.834   0.553   1.786  0.0819 -0.4202  0.0437
 4387SOL    HW124623   2.900   0.563   1.718 -1.7418 -0.4683 -1.7297
 4387SOL    HW224624   2.879   0.558   1.871  1.1087  0.1007 -0.5257
 4388SOL     OW24625   3.034   1.451   7.948  0.1743 -0.0408 -0.9280
 4388SOL    HW124626   2.977   1.522   7.977  0.9617 -0.7729  2.3526
 4388SOL    HW224627   3.006   1.364   7.978 -0.5015  0.4158 -0.2187
 4389SOL     OW24628   3.723   1.947   9.096 -0.7328 -0.3396 -0.4313
 4389SOL    HW124629   3.754   1.916   9.182  0.2820 -1.2256 -1.1130
 4389SOL    HW224630   3.648   2.003   9.115 -0.9236  0.0606 -2.3993
 4390SOL     OW24631   2.417   0.514  15.363 -0.1742  0.6449 -0.1070
 4390SOL    HW124632   2.464   0.443  15.319 -1.4260 -0.7363  0.7841
 4390SOL    HW224633   2.491   0.557  15.405  0.7462  0.1767 -1.2382
 4391SOL     OW24634   2.058   3.873  17.301  0.3629 -0.0896  0.3402
 4391SOL    HW124635   1.974   3.874  17.256  0.7214 -0.5408 -0.3224
 4391SOL    HW224636   2.026   3.864  17.391 -0.1757 -2.1679 -0.0603
 4392SOL     OW24637   0.971   1.331   2.243  0.0761 -0.2787 -0.6267
 4392SOL    HW124638   1.020   1.276   2.182 -0.9406 -2.0879  0.1840
 4392SOL    HW224639   0.990   1.303   2.333 -1.7715  0.5777  0.0189
 4393SOL     OW24640   1.893   2.696   9.452  0.0387  0.0275 -0.0592
 4393SOL    HW124641   1.923   2.665   9.367 -0.5633 -0.3123 -0.1453
 4393SOL    HW224642   1.961   2.758   9.478 -0.6837  0.6636  0.3222
 4394SOL     OW24643   1.458   0.093   6.567  0.0559  0.2996  0.0278
 4394SOL    HW124644   1.410   0.129   6.493 -2.5618 -0.0031  1.5922
 4394SOL    HW224645   1.499   0.017   6.524 -1.0840 -1.2966  1.7464
 4395SOL     OW24646   3.028   1.860  14.436 -0.0721  0.8924  0.0684
 4395SOL    HW124647   2.948   1.807  14.431 -0.9294  2.0328  1.7786
 4395SOL    HW224648   3.043   1.861  14.341 -0.9702  0.6426 -0.0823
 4396SOL     OW24649   2.069   0.156  10.462  0.0490  0.5265  0.1358
 4396SOL    HW124650   1.991   0.145  10.516 -0.3555  1.5544 -0.2307
 4396SOL    HW224651   2.051   0.100  10.386  1.7564  0.7354 -0.4261
 4397SOL     OW24652   4.211   1.228   1.537 -0.0625 -0.6672  0.2824
 4397SOL    HW124653   4.189   1.135   1.533 -0.9061 -0.5181  1.4487
 4397SOL    HW224654   4.270   1.236   1.462 -1.9623 -1.3575 -1.2859
 4398SOL     OW24655   3.974   4.650   0.830 -0.1806  0.3128  0.1751
 4398SOL    HW124656   4.003   4.632   0.920 -0.3457  0.2501  0.2160
 4398SOL    HW224657   3.981   4.563   0.792 -0.5110 -0.1796  1.2308
 4399SOL     OW24658   2.228   3.483  12.603 -0.3063  0.1514  0.8944
 4399SOL    HW124659   2.321   3.466  12.594 -0.4716 -0.2665  0.0024
 4399SOL    HW224660   2.199   3.518  12.519 -1.3259  1.4960  1.7872
 4400SOL     OW24661   4.603   0.756   4.514  0.1977  0.6479  0.2878
 4400SOL    HW124662   4.645   0.679   4.553  0.8555  1.4707  1.1989
 4400SOL    HW224663   4.513   0.746   4.543  0.0775 -0.9856 -0.6225
 4401SOL     OW24664   4.185   0.895  15.774 -0.0322 -1.0145 -0.0459
 4401SOL    HW124665   4.275   0.923  15.792 -0.0482 -2.7465  2.8588
 4401SOL    HW224666   4.142   0.981  15.768  0.9216 -0.5991 -0.8926
 4402SOL     OW24667   4.424   0.372  12.955 -0.3049 -0.0133  0.5322
 4402SOL    HW124668   4.516   0.380  12.980 -0.4662 -1.8630  1.7335
 4402SOL    HW224669   4.425   0.278  12.937 -0.8039  0.1041 -0.1066
 4403SOL     OW24670   0.078   3.263   4.528  0.2942 -0.0982  0.0600
 4403SOL    HW124671   0.170   3.239   4.540  0.4756  0.6485  0.1358
 4403SOL    HW224672   0.042   3.278   4.616 -1.1776  2.9262 -1.0643
 4404SOL     OW24673   2.598   0.786   3.474  0.1473  0.2110 -0.2657
 4404SOL    HW124674   2.612   0.841   3.396  0.3700 -1.5901 -1.4869
 4404SOL    HW224675   2.611   0.703   3.429 -1.9484 -0.8730  1.1803
 4405SOL     OW24676   4.107   4.389   6.435 -0.1727  0.0373  0.5509
 4405SOL    HW124677   4.067   4.450   6.373 -1.3990 -0.0624  1.2463
 4405SOL    HW224678   4.123   4.439   6.514 -0.4332  1.3292 -0.2186
 4406SOL     OW24679   1.567   2.261   2.096 -0.5950  0.6135  0.0576
 4406SOL    HW124680   1.600   2.208   2.024 -0.7289 -0.0006  0.4493
 4406SOL    HW224681   1.643   2.318   2.104 -0.6476  0.5451  1.0440
 4407SOL     OW24682   3.962   2.781   2.832 -0.3187  0.1585  0.2488
 4407SOL    HW124683   4.000   2.746   2.751  0.2009 -1.9205  1.4012
 4407SOL    HW224684   3.968   2.875   2.817 -2.3634  0.0504 -1.2188
 4408SOL     OW24685   3.360   3.931   8.546 -0.3040  0.2882  0.0515
 4408SOL    HW124686   3.312   3.904   8.468 -1.4729  2.4313  0.0492
 4408SOL    HW224687   3.441   3.883   8.528 -0.0002  0.7964  0.0641
 4409SOL     OW24688   0.357   1.978   1.466  0.0654  0.1140  0.4176
 4409SOL    HW124689   0.425   2.045   1.470 -2.3739  2.5439  0.6242
 4409SOL    HW224690   0.278   2.032   1.470 -0.0343  0.0987 -1.1286
 4410SOL     OW24691   2.259   2.948   2.865  0.4145 -0.0348  0.0348
 4410SOL    HW124692   2.288   3.007   2.935 -1.3490  1.3526 -0.3915
 4410SOL    HW224693   2.243   3.009   2.793  0.6648 -2.3838 -1.9980
 4411SOL     OW24694   2.319   1.238   8.213 -0.0934  0.1194 -0.2190
 4411SOL    HW124695   2.378   1.313   8.220 -2.7200  2.0119  2.0985
 4411SOL    HW224696   2.375   1.164   8.232 -1.0732 -0.6117 -0.1551
 4412SOL     OW24697   2.623   0.273  10.948 -0.6856 -0.1738 -0.1061
 4412SOL    HW124698   2.701   0.321  10.976 -1.1359 -1.0880  2.7867
 4412SOL    HW224699   2.571   0.261  11.028  0.8862  0.7922  1.0634
 4413SOL     OW24700   3.963   3.432  15.591  0.2556 -0.5068 -0.2938
 4413SOL    HW124701   3.945   3.445  15.498  2.5491 -1.4796 -0.8787
 4413SOL    HW224702   4.030   3.364  15.599  2.6311  1.6729 -1.8043
 4414SOL     OW24703   3.066   1.603   9.996  0.2780 -0.2682 -0.2121
 4414SOL    HW124704   3.088   1.548  10.071  0.6575  0.7375  0.4033
 4414SOL    HW224705   2.978   1.627  10.025  0.5336  1.0164 -0.4831
 4415SOL     OW24706   2.239   4.520   6.448  0.0441  0.2844  0.1759
 4415SOL    HW124707   2.244   4.428   6.421  1.1407  0.5864 -0.6910
 4415SOL    HW224708   2.318   4.558   6.409  0.2122 -1.0704 -0.8259
 4416SOL     OW24709   2.377   4.032   7.487 -0.4492 -0.2475 -0.3275
 4416SOL    HW124710   2.454   4.069   7.531 -2.0345  2.3380  0.3019
 4416SOL    HW224711   2.423   3.949   7.483 -0.2716 -0.1711  0.2352
 4417SOL     OW24712   0.206   2.649   7.156 -0.5775 -0.1477  0.3299
 4417SOL    HW124713   0.121   2.611   7.179 -1.4411  0.7048 -1.4245
 4417SOL    HW224714   0.253   2.567   7.142  0.2615  0.2036  1.0517
 4418SOL     OW24715   0.430   3.357   5.371  0.1643  0.0446  0.3564
 4418SOL    HW124716   0.478   3.432   5.334  0.3443  0.4578  1.4324
 4418SOL    HW224717   0.500   3.294   5.388  0.3108 -0.7168 -3.0135
 4419SOL     OW24718   1.475   4.604  14.421 -0.1179 -0.2039  0.5450
 4419SOL    HW124719   1.497   4.521  14.463 -1.0486 -0.4259  0.5984
 4419SOL    HW224720   1.426   4.645  14.493  0.7860  0.4676  0.7785
 4420SOL     OW24721   0.063   3.312   3.561  0.2933  0.3609  0.3227
 4420SOL    HW124722   0.083   3.397   3.523  2.6462 -0.8330 -1.0960
 4420SOL    HW224723   4.695   3.311   3.568  0.4415  0.4183  2.2831
 4421SOL     OW24724   1.363   3.550   4.368  0.1216  0.2822 -0.3567
 4421SOL    HW124725   1.436   3.504   4.409 -1.5548 -0.3893  1.8528
 4421SOL    HW224726   1.382   3.631   4.417 -0.3986 -1.5647  2.8894
 4422SOL     OW24727   2.859   1.203   3.455  0.5943  0.0053 -0.4199
 4422SOL    HW124728   2.880   1.123   3.407  3.0126  0.2921  0.1764
 4422SOL    HW224729   2.820   1.167   3.534 -0.7415  3.1983  0.3812
 4423SOL     OW24730   1.674   0.314   7.158 -0.2565  0.1339 -0.2603
 4423SOL    HW124731   1.728   0.243   7.123  0.2711  0.2803  0.2566
 4423SOL    HW224732   1.730   0.333   7.233  0.5004 -0.0858 -0.7720
 4424SOL     OW24733   0.657   1.289   6.687  0.1379 -0.1934 -0.6055
 4424SOL    HW124734   0.712   1.345   6.742 -3.2285  3.1386 -0.6009
 4424SOL    HW224735   0.714   1.284   6.611  0.6763 -3.1136 -0.0237
 4425SOL     OW24736   3.203   3.400   6.012  0.4919 -0.1980 -0.3907
 4425SOL    HW124737   3.137   3.467   5.997 -0.2820 -0.8440  0.1328
 4425SOL    HW224738   3.203   3.359   5.925 -0.8826 -0.3856 -0.3060
 4426SOL     OW24739   0.255   0.592   7.594  0.3824 -0.1083  0.0445
 4426SOL    HW124740   0.314   0.538   7.542  4.1087  1.7068  2.3265
 4426SOL    HW224741   0.303   0.600   7.677 -0.5488  3.3103  0.2745
 4427SOL     OW24742   4.569   4.192  15.669 -0.1129  0.4710  0.6693
 4427SOL    HW124743   4.477   4.214  15.685  0.5546  4.5592 -1.0695
 4427SOL    HW224744   4.559   4.136  15.592  2.3032 -1.1235  1.5124
 4428SOL     OW24745   4.123   3.819   9.796 -0.4424 -0.2393 -0.1363
 4428SOL    HW124746   4.194   3.878   9.771  0.4198 -2.6925 -3.4316
 4428SOL    HW224747   4.092   3.781   9.714 -0.0799  0.8423 -0.7767
 4429SOL     OW24748   1.586   0.442   5.374  0.1904 -0.2357 -0.1513
 4429SOL    HW124749   1.620   0.467   5.460 -0.5589  2.0201 -0.5003
 4429SOL    HW224750   1.520   0.512   5.373 -0.4634 -0.9124 -2.9669
 4430SOL     OW24751   3.111   0.192  15.567 -0.1699  0.6351 -0.2465
 4430SOL    HW124752   3.118   0.205  15.661  1.5347  3.7926 -0.7968
 4430SOL    HW224753   3.201   0.220  15.545  1.0620 -0.8332  3.0724
 4431SOL     OW24754   0.544   0.733  15.903  0.3704  0.2255 -0.0484
 4431SOL    HW124755   0.578   0.656  15.948 -0.8388 -1.1642 -1.5011
 4431SOL    HW224756   0.596   0.800  15.947  0.3223  0.0774  0.2335
 4432SOL     OW24757   2.277   1.277   4.664  0.1108 -0.4299 -0.4054
 4432SOL    HW124758   2.249   1.367   4.647  2.5647  0.4901  0.3635
 4432SOL    HW224759   2.202   1.239   4.709  1.8288 -1.1860  1.8805
 4433SOL     OW24760   0.365   0.159   3.372  0.1181 -0.0016 -0.4315
 4433SOL    HW124761   0.330   0.219   3.305  1.8831  0.8116 -0.6088
 4433SOL    HW224762   0.286   0.108   3.389  0.8685 -0.1922  2.3811
 4434SOL     OW24763   2.264   3.491   4.168  0.0548 -0.0424 -0.5156
 4434SOL    HW124764   2.169   3.495   4.160  0.0691 -0.2728 -0.7864
 4434SOL    HW224765   2.271   3.396   4.157 -1.2192 -0.0376 -1.3242
 4435SOL     OW24766   2.260   3.442   7.590 -0.0680  0.3891  0.5795
 4435SOL    HW124767   2.335   3.478   7.638  0.3145 -0.4253  0.5850
 4435SOL    HW224768   2.293   3.363   7.547  0.2172  0.9781 -0.2850
 4436SOL     OW24769   1.148   4.481   2.235 -0.0551  0.0030  0.1619
 4436SOL    HW124770   1.057   4.457   2.249  0.8682 -2.4698  1.9720
 4436SOL    HW224771   1.148   4.544   2.162  0.5766 -1.1307 -0.8237
 4437SOL     OW24772   0.637   3.293   0.976  0.8606  0.1547 -0.5553
 4437SOL    HW124773   0.629   3.242   0.896 -0.0089  0.1999 -0.4977
 4437SOL    HW224774   0.728   3.321   0.959  0.1228  2.3076 -1.0091
 4438SOL     OW24775   1.322   3.219   4.669  0.4551 -0.0006 -0.2161
 4438SOL    HW124776   1.405   3.268   4.665  0.5505 -0.2896 -2.0099
 4438SOL    HW224777   1.263   3.278   4.622  0.0875 -0.3265 -0.1545
 4439SOL     OW24778   1.932   2.089   1.899  0.2645 -0.5731 -0.2743
 4439SOL    HW124779   1.934   2.168   1.845  1.5588 -0.0113  0.6000
 4439SOL    HW224780   1.962   2.019   1.841  1.9707 -0.3544  0.3389
 4440SOL     OW24781   0.645   1.708  11.246 -0.9683 -0.2708 -0.4993
 4440SOL    HW124782   0.736   1.719  11.218 -1.0859  2.1930  0.0649
 4440SOL    HW224783   0.621   1.692  11.155 -0.0311 -1.0855 -0.6099
 4441SOL     OW24784   1.337   2.614  11.388  0.0094 -0.5596 -0.2417
 4441SOL    HW124785   1.266   2.550  11.396 -1.0154  0.5562 -0.3897
 4441SOL    HW224786   1.408   2.565  11.348  2.7854  2.9510  0.4180
 4442SOL     OW24787   1.463   3.744   0.304  0.4829 -0.4706 -0.6786
 4442SOL    HW124788   1.512   3.757   0.223  1.0281 -1.4922 -0.5095
 4442SOL    HW224789   1.464   3.649   0.307  1.4663 -0.4797 -1.4420
 4443SOL     OW24790   4.037   0.572   3.023 -0.3589 -0.2636 -0.0243
 4443SOL    HW124791   3.949   0.601   3.044 -0.2879 -0.1164  0.0707
 4443SOL    HW224792   4.027   0.561   2.928  0.3875  2.4591 -0.4263
 4444SOL     OW24793   4.510   2.811   6.595  0.2446 -0.1637 -0.0317
 4444SOL    HW124794   4.515   2.906   6.587 -1.3331 -0.2203 -1.6632
 4444SOL    HW224795   4.467   2.791   6.512  0.3054 -0.8000  0.0898
 4445SOL     OW24796   4.264   0.081   4.393 -1.2771  0.4033  0.2663
 4445SOL    HW124797   4.307   0.041   4.317 -0.5412 -0.5995  1.2121
 4445SOL    HW224798   4.327   0.150   4.414 -0.6452  0.3427 -1.4151
 4446SOL     OW24799   0.602   4.208  15.567  0.2580 -0.2382 -0.0498
 4446SOL    HW124800   0.574   4.299  15.568  0.6745 -0.1121 -0.1088
 4446SOL    HW224801   0.567   4.185  15.654  3.5258  0.0091  1.3263
 4447SOL     OW24802   4.000   0.940   6.647  0.2541 -1.0450 -0.3220
 4447SOL    HW124803   4.028   0.852   6.671  2.6208 -0.2924 -0.3138
 4447SOL    HW224804   4.078   0.976   6.606 -0.3141  0.3066 -0.2028
 4448SOL     OW24805   3.473   0.963   5.387  0.0332 -0.0441  0.5930
 4448SOL    HW124806   3.412   0.894   5.415 -1.0141  0.3677 -0.6794
 4448SOL    HW224807   3.555   0.915   5.383  1.0484  1.5651  2.0840
 4449SOL     OW24808   1.564   4.509   4.869  0.2906 -0.4039  0.0019
 4449SOL    HW124809   1.589   4.429   4.822 -2.6024 -0.3130 -1.7029
 4449SOL    HW224810   1.482   4.528   4.824  0.1240  0.5140  0.7026
 4450SOL     OW24811   3.215   4.561   5.391 -0.4932 -0.4219 -0.2424
 4450SOL    HW124812   3.128   4.523   5.381 -0.8400  0.8232 -1.9863
 4450SOL    HW224813   3.263   4.492   5.436  0.4262  0.0784 -0.4652
 4451SOL     OW24814   2.720   1.498  16.528 -0.2235 -0.6646  0.0695
 4451SOL    HW124815   2.722   1.437  16.602 -0.7923 -0.4146  0.2872
 4451SOL    HW224816   2.627   1.516  16.513  0.0231  0.6370  0.0799
 4452SOL     OW24817   1.866   1.535   5.503  0.2758  0.0432  0.1530
 4452SOL    HW124818   1.806   1.463   5.486  0.5411 -0.3494  0.8749
 4452SOL    HW224819   1.817   1.611   5.472 -1.5505 -1.2712 -0.1610
 4453SOL     OW24820   2.772   3.410   5.917 -0.4914 -0.3044 -0.3039
 4453SOL    HW124821   2.700   3.364   5.960 -0.4721 -1.2329 -1.2750
 4453SOL    HW224822   2.827   3.430   5.993 -0.8469  0.2924 -0.2037
 4454SOL     OW24823   1.989   1.524   4.845  0.5581 -0.1050 -0.2671
 4454SOL    HW124824   1.932   1.506   4.770  1.8267 -2.4622 -0.6648
 4454SOL    HW224825   1.930   1.555   4.914  0.4529  2.3100 -1.4250
 4455SOL     OW24826   4.123   4.720  10.186 -0.1211 -0.7748  0.1989
 4455SOL    HW124827   4.146   4.662  10.258 -1.9038 -2.3893 -0.5366
 4455SOL    HW224828   4.030   4.702  10.172 -0.6622  1.4683  0.7988
 4456SOL     OW24829   4.380   0.790  15.135  0.1350  0.1884  0.3382
 4456SOL    HW124830   4.288   0.810  15.121  0.3044 -0.8226 -2.3275
 4456SOL    HW224831   4.410   0.790  15.044  1.4174 -2.1475  0.7539
 4457SOL     OW24832   2.600   3.813   4.196  0.7314  0.2248 -0.0758
 4457SOL    HW124833   2.603   3.784   4.105  1.0231  3.0210 -0.9412
 4457SOL    HW224834   2.566   3.737   4.244  1.9661  1.3696  2.6286
 4458SOL     OW24835   2.811   1.722  14.388 -0.7401  0.1106  0.3123
 4458SOL    HW124836   2.781   1.646  14.438  0.3075  0.3543  1.2937
 4458SOL    HW224837   2.746   1.716  14.317  0.7017 -0.3507 -0.9809
 4459SOL     OW24838   0.843   2.772   2.448  0.3209  0.1870 -0.2272
 4459SOL    HW124839   0.801   2.852   2.479 -0.1068 -0.2001  0.1791
 4459SOL    HW224840   0.926   2.789   2.492  1.1702 -0.9466 -1.3995
 4460SOL     OW24841   4.590   0.573   2.543 -0.2075  0.0213  0.4659
 4460SOL    HW124842   4.639   0.491   2.538  1.0349  0.8928 -1.6105
 4460SOL    HW224843   4.614   0.590   2.634 -0.8205 -1.4652  0.9066
 4461SOL     OW24844   4.629   4.210   8.256  0.1484  0.4295 -0.2134
 4461SOL    HW124845   4.701   4.185   8.314 -0.2310  1.0678  0.5337
 4461SOL    HW224846   4.605   4.299   8.281  1.4515  0.8254 -0.3715
 4462SOL     OW24847   2.948   0.914   8.396  0.4409  0.1735  0.3082
 4462SOL    HW124848   3.000   0.934   8.318 -0.0032 -0.0446 -0.0455
 4462SOL    HW224849   2.887   0.987   8.394 -2.3090 -2.1767 -0.8093
 4463SOL     OW24850   3.344   2.533   8.297 -0.2982 -0.1540 -0.2059
 4463SOL    HW124851   3.313   2.469   8.361  0.5524  1.2880  1.6143
 4463SOL    HW224852   3.435   2.505   8.293  0.1054  1.2480 -0.8544
 4464SOL     OW24853   2.604   0.875   1.192 -0.4873  0.1638  0.0444
 4464SOL    HW124854   2.671   0.884   1.260  0.4753 -1.0174 -0.7547
 4464SOL    HW224855   2.522   0.910   1.228  0.6671  2.0818  0.8100
 4465SOL     OW24856   1.511   3.741  17.665 -0.2086 -0.6523  0.1785
 4465SOL    HW124857   1.445   3.791  17.618 -1.4445 -0.9807  1.5816
 4465SOL    HW224858   1.480   3.651  17.675 -1.2050 -0.2724  0.4079
 4466SOL     OW24859   3.871   3.156  10.854 -0.5829 -0.2506 -0.0140
 4466SOL    HW124860   3.819   3.105  10.917 -0.3997 -0.8244 -0.3285
 4466SOL    HW224861   3.811   3.230  10.867  1.4425  1.0863  1.6756
 4467SOL     OW24862   1.876   2.629   7.264  0.1628 -0.3427 -0.2621
 4467SOL    HW124863   1.904   2.596   7.178  0.3397 -3.3014  0.9262
 4467SOL    HW224864   1.914   2.717   7.260  1.0328 -0.7779 -1.6344
 4468SOL     OW24865   0.814   2.515   3.446  0.3032  0.0727 -0.6923
 4468SOL    HW124866   0.765   2.440   3.480  2.6857 -1.4844 -0.7002
 4468SOL    HW224867   0.749   2.543   3.381 -0.4361 -4.3109 -1.8649
 4469SOL     OW24868   0.923   1.117   5.669  0.1621 -0.5014 -0.1343
 4469SOL    HW124869   0.984   1.169   5.721 -0.2287  1.2850 -1.4574
 4469SOL    HW224870   0.849   1.116   5.730 -0.3528 -1.4595 -0.7590
 4470SOL     OW24871   2.031   4.581   2.553 -0.2289 -0.0881 -0.4717
 4470SOL    HW124872   1.978   4.561   2.476  0.1418  1.4075 -1.1104
 4470SOL    HW224873   2.045   4.493   2.589 -1.5535 -0.8018 -1.6778
 4471SOL     OW24874   0.282   0.487   6.216  0.2082  0.3161 -0.2040
 4471SOL    HW124875   0.296   0.396   6.192 -0.0492  0.7205 -1.9064
 4471SOL    HW224876   0.349   0.533   6.166 -0.1243  2.4606  1.3427
 4472SOL     OW24877   1.177   4.264  14.651 -0.3285 -0.6346 -0.1482
 4472SOL    HW124878   1.139   4.180  14.625  0.5898 -1.0995 -0.0059
 4472SOL    HW224879   1.239   4.280  14.580  0.6911 -0.8466  0.6920
 4473SOL     OW24880   1.218   0.120   5.734  0.2907  0.0456  0.3180
 4473SOL    HW124881   1.192   0.212   5.745 -0.3286 -0.1004  0.0982
 4473SOL    HW224882   1.270   0.126   5.654  0.7128 -0.2177  0.5722
 4474SOL     OW24883   3.074   4.428   2.378  0.0968  0.9962  0.5569
 4474SOL    HW124884   3.123   4.424   2.460  2.5974 -0.6005 -1.0023
 4474SOL    HW224885   3.073   4.521   2.354 -0.7517  0.6303 -0.7710
 4475SOL     OW24886   2.427   1.585   8.914  0.0316 -0.0459  0.3862
 4475SOL    HW124887   2.417   1.533   8.994  0.8293  0.5673  0.8786
 4475SOL    HW224888   2.445   1.509   8.858 -0.1283  0.9029 -0.9634
 4476SOL     OW24889   0.036   1.789   6.677  0.2492  0.1787  0.4093
 4476SOL    HW124890   0.041   1.783   6.772 -2.0496 -0.1757  0.4996
 4476SOL    HW224891   4.709   1.714   6.652 -0.8327  1.0975  0.0071
 4477SOL     OW24892   1.596   3.915   3.260  0.3287  0.4279  0.1189
 4477SOL    HW124893   1.655   3.959   3.199 -0.0716  0.0913 -0.5118
 4477SOL    HW224894   1.551   3.991   3.298  0.0574  2.0086 -3.3757
 4478SOL     OW24895   3.609   3.306  10.866  0.5878  0.1600  0.1896
 4478SOL    HW124896   3.601   3.221  10.910 -1.0506  0.4332  0.4258
 4478SOL    HW224897   3.559   3.363  10.925  1.4108  0.2634  0.7916
 4479SOL     OW24898   2.867   1.787   5.648  0.0019  0.1987 -0.1425
 4479SOL    HW124899   2.817   1.821   5.574 -0.5789  2.1667  1.1624
 4479SOL    HW224900   2.795   1.748   5.698  2.3033 -2.2765  1.2789
 4480SOL     OW24901   3.184   1.808   2.683 -0.0679 -0.4140 -0.0607
 4480SOL    HW124902   3.255   1.744   2.690 -0.9786 -1.4864 -0.6445
 4480SOL    HW224903   3.115   1.743   2.674 -0.3808 -0.3307  1.8490
 4481SOL     OW24904   0.708   1.807   3.268 -0.1932 -0.1276 -0.3824
 4481SOL    HW124905   0.616   1.830   3.277 -0.3884 -0.7108 -0.8755
 4481SOL    HW224906   0.751   1.889   3.244 -0.6198  0.2676  0.2238
 4482SOL     OW24907   1.215   2.463   3.170 -0.0449  0.4817  0.0340
 4482SOL    HW124908   1.123   2.452   3.148  0.2495 -1.2731 -0.3717
 4482SOL    HW224909   1.199   2.489   3.260  0.0823 -1.4797  0.6341
 4483SOL     OW24910   3.715   2.143   4.101  0.1127 -0.6324 -0.2793
 4483SOL    HW124911   3.683   2.053   4.112 -0.7866 -0.1060  1.3032
 4483SOL    HW224912   3.726   2.140   4.006 -2.1868  0.0093 -0.5732
 4484SOL     OW24913   3.199   2.813   7.915 -0.2442 -0.1358 -0.2052
 4484SOL    HW124914   3.235   2.895   7.946 -0.1286  0.0689 -0.8869
 4484SOL    HW224915   3.193   2.763   7.997 -3.2961  2.5740  1.2195
 4485SOL     OW24916   3.444   1.797   3.704 -0.0084  0.2809 -0.3346
 4485SOL    HW124917   3.362   1.842   3.686  0.3906 -0.4535 -4.0035
 4485SOL    HW224918   3.412   1.711   3.680  1.3518 -0.6386  1.1534
 4486SOL     OW24919   0.798   0.907   3.222 -0.2968 -0.2474  0.0098
 4486SOL    HW124920   0.818   0.997   3.250  1.2688 -0.9945  1.2700
 4486SOL    HW224921   0.713   0.918   3.180 -0.4434  0.9342  0.6282
 4487SOL     OW24922   4.373   2.101   5.712  0.3276 -0.3300 -0.0099
 4487SOL    HW124923   4.287   2.143   5.710  0.6845  0.3869 -0.2949
 4487SOL    HW224924   4.339   2.015   5.689  0.7683 -0.5549  0.1966
 4488SOL     OW24925   4.247   0.699   2.122 -0.0731  0.3205 -0.2217
 4488SOL    HW124926   4.183   0.745   2.069  0.1981  0.3006 -0.5669
 4488SOL    HW224927   4.202   0.691   2.206  1.1629  1.6298  0.5649
 4489SOL     OW24928   1.510   1.932  12.148  0.3125 -0.2767 -0.0596
 4489SOL    HW124929   1.600   1.930  12.180 -0.1904  0.0216  1.3478
 4489SOL    HW224930   1.495   2.024  12.128  2.0794 -0.1424 -0.8042
 4490SOL     OW24931   0.727   4.120   2.923  0.4293 -0.3443 -0.6461
 4490SOL    HW124932   0.738   4.203   2.876  0.9988 -0.2556 -0.3504
 4490SOL    HW224933   0.807   4.121   2.976  0.3881  0.5626 -0.6074
 4491SOL     OW24934   2.073   1.106   7.543 -0.2206 -0.1916 -0.4031
 4491SOL    HW124935   2.126   1.079   7.618  0.0581 -3.1598 -1.6667
 4491SOL    HW224936   2.019   1.171   7.589  0.7181 -0.9930  1.8616
 4492SOL     OW24937   3.158   0.148   0.446 -0.2077  0.5531  0.7974
 4492SOL    HW124938   3.096   0.079   0.469 -1.2950  0.8375 -1.1884
 4492SOL    HW224939   3.146   0.163   0.352  2.3388 -0.2771  0.3449
 4493SOL     OW24940   0.383   0.929  11.007  0.8749 -0.5969  0.3221
 4493SOL    HW124941   0.413   0.925  10.916  0.0893  1.4800 -0.0279
 4493SOL    HW224942   0.310   0.991  11.002  0.2644 -1.3569 -0.3315
 4494SOL     OW24943   2.181   0.606   5.523 -0.0856 -0.1140 -0.6475
 4494SOL    HW124944   2.249   0.614   5.456  1.4428 -0.3136  0.8832
 4494SOL    HW224945   2.130   0.688   5.520  0.1935  0.0562 -0.7070
 4495SOL     OW24946   4.474   1.332   8.648 -0.2479 -0.5614  0.1568
 4495SOL    HW124947   4.492   1.404   8.708  0.0492 -0.8753  0.4435
 4495SOL    HW224948   4.387   1.303   8.676 -1.0680 -0.5595 -2.4432
 4496SOL     OW24949   1.218   3.790   6.571 -0.0605  0.1427  0.2396
 4496SOL    HW124950   1.147   3.747   6.524 -0.4761  0.2098  0.8084
 4496SOL    HW224951   1.281   3.721   6.593 -0.8784 -1.2696 -1.7892
 4497SOL     OW24952   3.625   3.248   8.138  0.0697 -0.2136 -0.5224
 4497SOL    HW124953   3.598   3.271   8.050  0.5016  0.9024 -0.3573
 4497SOL    HW224954   3.573   3.308   8.192  0.6088  1.2483 -1.6419
 4498SOL     OW24955   2.273   4.701  14.354 -0.4190 -0.4211  0.4897
 4498SOL    HW124956   2.331   4.665  14.287 -0.2331  0.9628 -0.0960
 4498SOL    HW224957   2.252   4.623  14.405  0.5627  0.4968  2.2770
 4499SOL     OW24958   0.465   0.192   2.752  0.1152 -0.0396  0.2256
 4499SOL    HW124959   0.541   0.240   2.785 -1.2772  2.0461  0.4161
 4499SOL    HW224960   0.449   0.117   2.809  0.3439 -0.9535 -0.9150
 4500SOL     OW24961   1.496   3.871   5.839 -0.1745 -0.3310 -0.0503
 4500SOL    HW124962   1.436   3.944   5.856  1.8274  1.0486  1.0425
 4500SOL    HW224963   1.443   3.812   5.786  3.1430 -0.0014 -3.7900
 4501SOL     OW24964   2.445   2.465  10.949  0.1156 -0.0581  1.0550
 4501SOL    HW124965   2.511   2.407  10.911  0.1811  0.8218 -0.1810
 4501SOL    HW224966   2.467   2.448  11.040  1.6543  1.8285  1.0255
 4502SOL     OW24967   4.286   3.000   6.223 -0.5503  0.4408  0.1673
 4502SOL    HW124968   4.263   3.092   6.217 -0.2689  0.5553  0.8416
 4502SOL    HW224969   4.205   2.955   6.246  0.7736 -1.2629  1.5202
 4503SOL     OW24970   3.509   2.665   1.211  0.3121  0.4304  0.0570
 4503SOL    HW124971   3.507   2.599   1.280  2.0043 -0.2898 -0.5678
 4503SOL    HW224972   3.416   2.664   1.189  0.4964  1.5635 -0.7938
 4504SOL     OW24973   4.280   0.734   5.212  0.2840 -0.6145  0.1643
 4504SOL    HW124974   4.300   0.652   5.258  0.2966 -0.3748  0.5876
 4504SOL    HW224975   4.275   0.793   5.287 -0.5841  1.2705 -1.3814
 4505SOL     OW24976   3.752   1.967   2.331  0.1329 -0.2868  0.3530
 4505SOL    HW124977   3.820   2.018   2.288 -0.8185  0.3840 -0.3729
 4505SOL    HW224978   3.698   2.039   2.364  1.7408  1.6054 -1.1797
 4506SOL     OW24979   3.463   4.092   2.918 -0.0199 -0.3469 -0.0716
 4506SOL    HW124980   3.552   4.123   2.934 -0.2855 -0.2873  1.2346
 4506SOL    HW224981   3.443   4.140   2.837  1.6238  0.5717  0.0560
 4507SOL     OW24982   1.258   0.255   4.942 -0.8637  0.5837 -0.4187
 4507SOL    HW124983   1.294   0.225   5.026 -0.5305  0.0676 -0.7482
 4507SOL    HW224984   1.333   0.257   4.883  0.4844 -0.8314  1.2237
 4508SOL     OW24985   1.939   3.043   6.557 -0.0081 -0.0276 -0.0303
 4508SOL    HW124986   1.880   3.021   6.629 -3.1105  2.5529 -1.7636
 4508SOL    HW224987   2.021   3.027   6.603  0.0994  1.3220  0.2625
 4509SOL     OW24988   0.607   3.318  10.415 -0.0225  0.0910  0.0682
 4509SOL    HW124989   0.618   3.401  10.462  3.5748 -1.2329  1.6471
 4509SOL    HW224990   0.624   3.245  10.475  1.2441  1.3537  1.2598
 4510SOL     OW24991   2.068   0.564   9.086 -0.6268 -0.0397 -0.0583
 4510SOL    HW124992   2.108   0.480   9.062  1.8824 -0.0273  3.9685
 4510SOL    HW224993   2.033   0.542   9.173 -1.0758 -0.9550 -0.4709
 4511SOL     OW24994   1.709   1.496   7.063  0.3534  0.3669 -0.5685
 4511SOL    HW124995   1.698   1.589   7.082  0.7648  0.2588  0.1945
 4511SOL    HW224996   1.702   1.460   7.151  0.9284  1.1766 -0.1861
 4512SOL     OW24997   2.014   1.246   5.884  0.0551  0.0142 -0.6199
 4512SOL    HW124998   2.083   1.289   5.834  1.3215 -0.7812  0.4557
 4512SOL    HW224999   1.942   1.303   5.858 -1.6869 -1.4533  0.9121
 4513SOL     OW25000   3.022   3.001  12.679 -0.1507  0.0114 -0.1351
 4513SOL    HW125001   3.050   2.970  12.765 -1.3738  0.4199  0.4169
 4513SOL    HW225002   3.021   2.918  12.633 -1.1645 -1.2977  2.2510
 4514SOL     OW25003   4.542   1.505   5.773  0.2653  0.5098  0.0942
 4514SOL    HW125004   4.457   1.460   5.770  1.0212 -0.8804 -0.0740
 4514SOL    HW225005   4.564   1.491   5.865  0.6660 -3.5091 -0.6113
 4515SOL     OW25006   3.652   2.604   2.194  0.1865  0.1019  0.0607
 4515SOL    HW125007   3.671   2.602   2.101  0.0045 -2.4616  0.0791
 4515SOL    HW225008   3.596   2.680   2.213 -1.4344 -1.1584  0.2494
 4516SOL     OW25009   3.465   0.843   6.547 -0.3066  0.0270  0.9343
 4516SOL    HW125010   3.376   0.867   6.574  0.1159  2.5197  0.1361
 4516SOL    HW225011   3.499   0.824   6.634  0.5190  0.1610  0.6398
 4517SOL     OW25012   2.583   1.558  11.901 -0.1918 -0.1783 -0.1293
 4517SOL    HW125013   2.508   1.601  11.860 -0.4519 -0.3543  0.1534
 4517SOL    HW225014   2.567   1.582  11.992 -0.3951  1.0425 -0.4871
 4518SOL     OW25015   4.034   4.540   1.066  0.1532 -0.1997  0.6559
 4518SOL    HW125016   4.123   4.513   1.090 -0.1431  0.0062  1.9666
 4518SOL    HW225017   4.007   4.466   1.013 -3.3292 -0.0361  2.2465
 4519SOL     OW25018   1.829   4.216   6.861 -0.0166 -0.1098  0.3274
 4519SOL    HW125019   1.879   4.146   6.903 -3.4146 -2.4630  0.5285
 4519SOL    HW225020   1.891   4.288   6.861  0.5024 -0.5543 -0.2298
 4520SOL     OW25021   4.559   4.497   4.787 -0.7104 -0.2819 -0.2815
 4520SOL    HW125022   4.480   4.540   4.817  0.1590  1.5563 -0.6413
 4520SOL    HW225023   4.603   4.565   4.737 -0.2139 -1.9413 -2.1252
 4521SOL     OW25024   2.236   4.617  13.378  0.3915 -0.0240  0.0124
 4521SOL    HW125025   2.267   4.645  13.292 -0.8851  2.3150  0.3087
 4521SOL    HW225026   2.279   4.679  13.436  0.7203  2.0317 -2.4418
 4522SOL     OW25027   2.151   2.565   2.739 -0.9885  0.4481 -0.4805
 4522SOL    HW125028   2.143   2.661   2.738  0.7264  0.5695 -1.5177
 4522SOL    HW225029   2.212   2.551   2.811 -0.7622  2.1783 -0.3153
 4523SOL     OW25030   0.659   3.559   5.856  0.1304  0.6604 -0.1266
 4523SOL    HW125031   0.754   3.556   5.844  0.1330 -0.5881  0.2765
 4523SOL    HW225032   0.654   3.466   5.875 -0.2807  0.4162 -1.4212
 4524SOL     OW25033   3.234   3.793   6.435  0.0981  0.4216  0.5025
 4524SOL    HW125034   3.191   3.759   6.514 -0.1490 -2.8767 -1.0114
 4524SOL    HW225035   3.284   3.859   6.482  0.2446 -0.6881  1.9086
 4525SOL     OW25036   0.582   2.504  16.197 -0.3333 -0.1522  0.1454
 4525SOL    HW125037   0.674   2.510  16.171 -0.3954 -2.2085 -0.5347
 4525SOL    HW225038   0.572   2.417  16.157 -0.8982 -0.5592  1.1837
 4526SOL     OW25039   0.324   4.619   7.310  0.4787 -0.0843  0.0380
 4526SOL    HW125040   0.266   4.622   7.386 -1.4235 -0.8661 -1.3561
 4526SOL    HW225041   0.362   4.706   7.319 -0.0495  0.1168  0.3219
 4527SOL     OW25042   1.214   1.994   6.907 -0.1442  0.1954 -0.0268
 4527SOL    HW125043   1.202   1.938   6.830  0.6794 -0.5090  0.3597
 4527SOL    HW225044   1.124   2.007   6.936 -0.1138 -0.3738  0.3341
 4528SOL     OW25045   4.196   2.385   7.128  0.0976  0.1261  0.6154
 4528SOL    HW125046   4.201   2.480   7.128  0.1751  0.1047  2.5286
 4528SOL    HW225047   4.240   2.383   7.043 -0.6836 -1.0823  0.2290
 4529SOL     OW25048   2.930   3.971   8.829 -0.0276  0.3710  0.1719
 4529SOL    HW125049   2.995   3.920   8.781  0.3057 -1.4105  2.5181
 4529SOL    HW225050   2.861   3.907   8.843 -0.8607  1.3443  0.5011
 4530SOL     OW25051   1.956   3.284   7.774  0.3705  0.5672 -0.1018
 4530SOL    HW125052   1.962   3.264   7.680 -0.3022  1.7342 -0.4055
 4530SOL    HW225053   1.898   3.361   7.771  0.8773  0.9995  1.8546
 4531SOL     OW25054   1.624   2.585   6.805  0.3507 -0.0324  0.2068
 4531SOL    HW125055   1.671   2.662   6.772 -0.8377  0.3308 -0.6632
 4531SOL    HW225056   1.664   2.515   6.754  0.7002 -0.9647  1.7576
 4532SOL     OW25057   0.560   2.159   0.520 -0.0461 -0.2627 -0.0436
 4532SOL    HW125058   0.649   2.185   0.496 -0.7477  3.1370  1.1275
 4532SOL    HW225059   0.562   2.154   0.616 -0.3409 -0.7869 -0.0678
 4533SOL     OW25060   3.665   1.685   9.227  0.1628 -0.0524  0.1211
 4533SOL    HW125061   3.699   1.750   9.288  0.6139 -0.1202 -0.0559
 4533SOL    HW225062   3.593   1.730   9.183 -0.8176 -2.1407 -0.4135
 4534SOL     OW25063   4.006   3.513   4.679 -0.2683  0.1330 -0.1434
 4534SOL    HW125064   4.080   3.501   4.738 -1.6141 -2.3234  1.0536
 4534SOL    HW225065   4.047   3.505   4.592 -2.0500 -2.7948 -0.7133
 4535SOL     OW25066   4.722   3.657   8.625  0.0547 -0.3335  0.2744
 4535SOL    HW125067   0.054   3.582   8.625 -0.2916 -0.6044  0.8123
 4535SOL    HW225068   4.675   3.641   8.707  0.6433  2.7992  1.2171
 4536SOL     OW25069   2.656   4.680   1.882  0.5523  0.0050 -0.1453
 4536SOL    HW125070   2.691   4.684   1.793  1.3541 -0.5136  0.1511
 4536SOL    HW225071   2.595   4.607   1.872  0.2523  0.1989  0.2438
 4537SOL     OW25072   1.219   3.018  16.304 -0.0407 -0.3223 -0.0301
 4537SOL    HW125073   1.313   3.029  16.315  0.0320  0.2028 -1.1492
 4537SOL    HW225074   1.196   2.968  16.382 -0.5297 -1.2156 -0.7513
 4538SOL     OW25075   2.358   2.177   6.765  0.5195 -0.2805  0.0247
 4538SOL    HW125076   2.370   2.236   6.691 -1.0697  2.3257  1.8437
 4538SOL    HW225077   2.422   2.205   6.831 -1.0282 -2.2265  2.3078
 4539SOL     OW25078   4.167   0.264   6.806  0.1400 -0.0889  0.2649
 4539SOL    HW125079   4.212   0.191   6.850  3.0834  0.4309 -1.8578
 4539SOL    HW225080   4.077   0.265   6.837  0.4649 -2.5908  1.2778
 4540SOL     OW25081   0.632   0.496   3.146 -0.0497 -0.2030 -0.0663
 4540SOL    HW125082   0.654   0.579   3.188  0.2630 -0.6620  0.6775
 4540SOL    HW225083   0.707   0.475   3.090  1.2107  1.7385  0.8868
 4541SOL     OW25084   3.979   0.352   3.216 -0.9181  0.3561 -0.3403
 4541SOL    HW125085   3.939   0.403   3.287 -0.0938 -1.1708  1.2154
 4541SOL    HW225086   3.998   0.424   3.156 -0.8892  0.9201  0.3419
 4542SOL     OW25087   1.870   4.061   0.300  0.2826 -0.6693 -0.0975
 4542SOL    HW125088   1.922   4.090   0.375 -2.1754 -1.7153  2.0203
 4542SOL    HW225089   1.919   4.089   0.223 -2.9737  1.3659 -1.4331
 4543SOL     OW25090   0.095   0.672  12.530  0.7119 -0.2526  0.6950
 4543SOL    HW125091   0.091   0.736  12.602 -1.1823  0.2124  0.1789
 4543SOL    HW225092   0.057   0.599  12.577 -2.1227 -0.2046 -1.5487
 4544SOL     OW25093   1.561   4.071   6.790 -0.1798 -0.5706 -0.5552
 4544SOL    HW125094   1.547   4.059   6.884  1.4862 -1.7195 -0.4371
 4544SOL    HW225095   1.640   4.124   6.800 -0.0897 -0.6872 -0.6439
 4545SOL     OW25096   0.404   2.570   6.390 -0.0212 -0.0169  0.5592
 4545SOL    HW125097   0.315   2.592   6.418 -0.5055  0.6892 -1.5550
 4545SOL    HW225098   0.450   2.563   6.474 -0.1152  0.5578  0.6630
 4546SOL     OW25099   1.219   0.122   8.355 -0.2191  0.1204  0.1019
 4546SOL    HW125100   1.303   0.155   8.388 -1.3676  1.0118  2.1502
 4546SOL    HW225101   1.206   0.180   8.281  0.4310 -2.2586 -1.8952
 4547SOL     OW25102   2.711   4.277   7.105 -0.3937 -0.5565 -0.5809
 4547SOL    HW125103   2.787   4.272   7.047  0.8155  1.0849  0.8492
 4547SOL    HW225104   2.701   4.185   7.132  0.6013 -1.0618 -1.9367
 4548SOL     OW25105   3.161   3.059   0.830 -0.1504  0.0819  0.3983
 4548SOL    HW125106   3.251   3.079   0.802  0.3411  0.6315  2.4030
 4548SOL    HW225107   3.174   2.968   0.857  1.2072 -0.1300 -0.9256
 4549SOL     OW25108   4.484   3.994   1.483 -0.3794 -0.0944 -0.2644
 4549SOL    HW125109   4.500   3.918   1.538  1.0342  2.0560  2.3195
 4549SOL    HW225110   4.408   4.021   1.535 -0.6747  0.1851 -0.8319
 4550SOL     OW25111   0.631   4.037   8.640 -0.5019  0.1295  0.2404
 4550SOL    HW125112   0.552   4.049   8.693 -1.1505 -0.7802 -0.5133
 4550SOL    HW225113   0.645   3.945   8.660  1.9797  0.0811 -1.7310
 4551SOL     OW25114   2.658   3.360   4.941  0.6492 -0.0500  0.4324
 4551SOL    HW125115   2.693   3.339   5.028  0.7156  1.1785  0.7177
 4551SOL    HW225116   2.581   3.303   4.943  0.5175  0.1282  0.5071
 4552SOL     OW25117   3.460   2.566   5.368  0.7097 -0.3218 -0.1050
 4552SOL    HW125118   3.527   2.537   5.429  0.4176 -2.7396 -0.9290
 4552SOL    HW225119   3.434   2.656   5.387  2.8108  0.5542 -1.3911
 4553SOL     OW25120   3.406   3.582   6.784 -0.2483  0.2941  0.3412
 4553SOL    HW125121   3.468   3.636   6.736  0.6702 -1.3287 -0.3215
 4553SOL    HW225122   3.343   3.643   6.822  1.1627  1.8495  0.1408
 4554SOL     OW25123   2.416   2.440   1.106 -0.8536 -0.1164  0.3575
 4554SOL    HW125124   2.399   2.530   1.133 -3.1432 -0.8116  1.3043
 4554SOL    HW225125   2.327   2.410   1.088  0.4438 -1.3437 -3.9265
 4555SOL     OW25126   0.035   2.640   2.394  0.2550  0.3249 -0.5599
 4555SOL    HW125127   0.041   2.546   2.379  0.8810  0.6401 -2.2967
 4555SOL    HW225128   0.039   2.686   2.310 -1.6814 -2.8292 -2.3937
 4556SOL     OW25129   1.187   2.216  12.855 -0.0629 -0.0538  0.0792
 4556SOL    HW125130   1.103   2.248  12.889 -0.0182  0.5475 -0.3744
 4556SOL    HW225131   1.253   2.256  12.912  2.0375 -1.0681 -1.6268
 4557SOL     OW25132   3.558   0.641  13.921 -0.0878  0.6350 -0.3669
 4557SOL    HW125133   3.538   0.709  13.856  3.0658  1.8286 -0.0895
 4557SOL    HW225134   3.474   0.650  13.966  1.9475  2.9807  2.9737
 4558SOL     OW25135   0.040   1.106   4.960 -0.0080 -0.2802  0.2927
 4558SOL    HW125136   0.039   1.027   4.907 -0.6781  0.0443 -0.1733
 4558SOL    HW225137   4.676   1.103   4.987  0.0397 -2.4302  0.2197
 4559SOL     OW25138   0.038   4.188  10.941  0.1280 -0.4103  0.9644
 4559SOL    HW125139   0.072   4.258  10.997  1.0520  0.3867 -0.5971
 4559SOL    HW225140   0.005   4.239  10.867  2.0038 -0.1590  0.3054
 4560SOL     OW25141   4.144   3.348  17.645  0.1705  0.1434 -0.2084
 4560SOL    HW125142   4.101   3.344   0.020  1.4131 -0.1153  0.4048
 4560SOL    HW225143   4.237   3.341  17.669  0.2789  0.5398 -0.5167
 4561SOL     OW25144   1.056   1.281  17.653 -0.5579 -0.5811  0.5125
 4561SOL    HW125145   1.075   1.317  17.567  1.9194  1.0336  1.7247
 4561SOL    HW225146   1.044   1.360  17.706 -0.5772 -1.1374  1.3462
 4562SOL     OW25147   3.061   2.864   5.297  0.5022 -0.1107 -0.3946
 4562SOL    HW125148   3.115   2.832   5.370  0.7403  0.0172 -0.5162
 4562SOL    HW225149   3.024   2.781   5.268  0.7994  0.3731 -2.1699
 4563SOL     OW25150   1.746   1.548  16.320 -0.1996  0.1227 -0.1409
 4563SOL    HW125151   1.750   1.489  16.396  1.8618 -0.0228 -0.3634
 4563SOL    HW225152   1.811   1.616  16.332 -0.9206  0.8057 -0.1322
 4564SOL     OW25153   1.131   2.386   6.076 -0.7233 -0.0243  0.4981
 4564SOL    HW125154   1.052   2.434   6.100 -0.3155  0.1404  1.5089
 4564SOL    HW225155   1.170   2.420   6.157  0.5605 -0.8968  0.2480
 4565SOL     OW25156   1.843   1.317  13.341 -0.0675  0.3530  0.3327
 4565SOL    HW125157   1.908   1.333  13.409  1.6897 -1.0969 -0.9879
 4565SOL    HW225158   1.816   1.404  13.314  1.1186  0.6466  0.0638
 4566SOL     OW25159   1.396   2.245   2.476  0.0292  0.2783  0.0203
 4566SOL    HW125160   1.490   2.257   2.486  0.4845 -1.5812 -1.9712
 4566SOL    HW225161   1.379   2.223   2.567  1.2541  0.9837  0.4175
 4567SOL     OW25162   2.836   2.082   4.490 -0.0071 -0.2200 -0.9026
 4567SOL    HW125163   2.746   2.112   4.504  0.8105  1.0775  1.6006
 4567SOL    HW225164   2.875   2.159   4.447 -0.6789  1.0030  0.6634
 4568SOL     OW25165   3.366   3.660   3.841 -0.0800 -0.6967 -0.1541
 4568SOL    HW125166   3.306   3.725   3.878  0.5866 -0.2783  0.2172
 4568SOL    HW225167   3.457   3.690   3.849 -0.7098  1.0084  0.6515
 4569SOL     OW25168   2.479   4.414   8.247  0.1506 -0.2850 -0.2220
 4569SOL    HW125169   2.421   4.477   8.203 -1.7451 -1.7311  0.2023
 4569SOL    HW225170   2.433   4.416   8.330  0.0541 -3.1264 -0.2048
 4570SOL     OW25171   3.114   0.368   3.955 -0.2374 -0.0763 -0.1065
 4570SOL    HW125172   3.170   0.295   3.982  2.2524  0.8588 -2.7671
 4570SOL    HW225173   3.163   0.444   3.986  0.1945 -0.6371  0.5683
 4571SOL     OW25174   0.519   1.472   3.376  0.0348  0.2289 -0.1246
 4571SOL    HW125175   0.493   1.533   3.444 -0.1201  0.5292 -0.4546
 4571SOL    HW225176   0.472   1.510   3.302 -0.7855 -0.0010  0.2847
 4572SOL     OW25177   0.371   1.537  10.054 -0.5825  0.2340  0.1181
 4572SOL    HW125178   0.404   1.487  10.128  0.8845 -2.5679 -2.3822
 4572SOL    HW225179   0.298   1.585  10.093 -0.6304 -1.2764  1.8757
 4573SOL     OW25180   1.453   4.347  14.621 -0.2602  0.3118 -0.2647
 4573SOL    HW125181   1.482   4.327  14.710 -0.7494  0.5981 -0.0440
 4573SOL    HW225182   1.506   4.294  14.562 -1.5095  1.5252 -2.4871
 4574SOL     OW25183   3.031   3.359  14.268 -0.4136  0.1257  0.6699
 4574SOL    HW125184   3.015   3.452  14.284 -2.1595 -0.1820  0.7493
 4574SOL    HW225185   3.028   3.318  14.354  1.3253 -1.7967 -0.1918
 4575SOL     OW25186   1.068   2.036   3.499 -0.5329 -0.3277 -0.2683
 4575SOL    HW125187   1.129   1.962   3.502  1.2812  1.1485 -1.3082
 4575SOL    HW225188   1.136   2.103   3.503  0.9191 -1.7842 -0.2278
 4576SOL     OW25189   3.650   1.616  12.033 -0.1852 -0.1342  0.6358
 4576SOL    HW125190   3.585   1.560  11.991 -0.5661  2.0052 -1.6741
 4576SOL    HW225191   3.696   1.654  11.958 -0.2173 -1.5592 -0.1009
 4577SOL     OW25192   4.646   3.014  14.471  0.5547 -0.7761  0.1030
 4577SOL    HW125193   4.615   3.077  14.406  1.2082 -1.2376 -0.6595
 4577SOL    HW225194   4.637   2.934  14.419 -1.9024  0.5272 -1.4934
 4578SOL     OW25195   1.284   3.498  14.915 -0.0247 -0.3227  0.9550
 4578SOL    HW125196   1.343   3.432  14.879  0.0061  0.5822 -0.6543
 4578SOL    HW225197   1.324   3.512  15.001  1.6349  0.5054  0.0490
 4579SOL     OW25198   1.806   2.453   3.305 -0.3409 -0.1056  0.3906
 4579SOL    HW125199   1.852   2.502   3.236  0.5813  0.8910  1.7013
 4579SOL    HW225200   1.722   2.499   3.310 -0.0472  0.1812  2.5900
 4580SOL     OW25201   3.513   0.824   4.512  0.2608 -0.2290 -0.3050
 4580SOL    HW125202   3.587   0.766   4.533 -0.1321 -1.0129 -1.0555
 4580SOL    HW225203   3.547   0.889   4.450  2.0950 -0.4662  0.4342
 4581SOL     OW25204   1.093   4.095   2.432 -0.2890  0.0394  0.3320
 4581SOL    HW125205   1.144   4.106   2.513  1.2735  1.8420 -0.8706
 4581SOL    HW225206   1.002   4.114   2.452  0.0251  0.2724  1.5625
 4582SOL     OW25207   2.941   1.558  17.510 -0.4139  0.5193  0.0403
 4582SOL    HW125208   2.975   1.474  17.539 -0.0050  0.4860 -0.5503
 4582SOL    HW225209   2.971   1.613  17.583 -1.6265 -0.7502  1.5111
 4583SOL     OW25210   4.579   0.102   7.421 -0.0906  0.1692  0.8115
 4583SOL    HW125211   4.651   0.057   7.377  1.3706  3.3617 -0.0149
 4583SOL    HW225212   4.622   0.158   7.485  0.5614 -1.4237  1.7700
 4584SOL     OW25213   1.370   0.654   1.416  0.3640 -0.5066  0.0860
 4584SOL    HW125214   1.390   0.649   1.510 -0.3193 -0.2560  0.2463
 4584SOL    HW225215   1.460   0.656   1.385 -0.3474 -3.1575 -2.1249
 4585SOL     OW25216   0.023   3.753   5.024  0.1259  0.4115 -0.4728
 4585SOL    HW125217   4.673   3.697   5.028 -0.9393  1.8488 -1.1097
 4585SOL    HW225218   4.710   3.837   5.006  0.2533  0.2735 -1.4319
 4586SOL     OW25219   4.046   3.375   2.985  0.5122  0.3596  0.0426
 4586SOL    HW125220   3.992   3.296   2.982  2.7243 -1.1460 -0.5124
 4586SOL    HW225221   4.125   3.337   3.023  1.3438  1.3788 -0.6548
 4587SOL     OW25222   3.563   1.034   9.089 -0.0810 -0.6660  0.0495
 4587SOL    HW125223   3.608   1.015   9.006 -0.0977 -0.5201  0.0065
 4587SOL    HW225224   3.585   1.125   9.107  0.5144 -0.3038 -2.4591
 4588SOL     OW25225   2.240   0.253  15.200 -0.6399 -0.3237 -0.1054
 4588SOL    HW125226   2.285   0.210  15.127 -0.9714 -0.0095 -0.4917
 4588SOL    HW225227   2.251   0.187  15.269 -0.3062  0.1013  0.2527
 4589SOL     OW25228   0.171   3.597   5.665 -0.2710  0.0980  0.2535
 4589SOL    HW125229   0.238   3.531   5.682 -1.0778 -0.7590  0.1489
 4589SOL    HW225230   0.213   3.681   5.680 -0.0423  0.7506 -3.8805
 4590SOL     OW25231   4.615   1.284   2.381 -0.2082  0.0739 -0.1202
 4590SOL    HW125232   4.597   1.260   2.472 -1.8941  1.5341 -0.0624
 4590SOL    HW225233   4.531   1.313   2.346 -0.2271 -1.0369 -0.9962
 4591SOL     OW25234   1.656   0.522  15.801 -0.2145 -0.3767 -0.7309
 4591SOL    HW125235   1.629   0.601  15.753 -0.5632 -0.1176 -0.1019
 4591SOL    HW225236   1.727   0.488  15.747  1.3430 -0.1743  1.2397
 4592SOL     OW25237   0.151   3.667   7.214  0.5732 -0.1969 -0.3963
 4592SOL    HW125238   0.147   3.748   7.266  3.2190 -0.2334 -0.1244
 4592SOL    HW225239   0.060   3.641   7.220  0.3973  0.5221  0.1280
 4593SOL     OW25240   1.879   4.718   6.869 -0.2360  0.4559 -0.0908
 4593SOL    HW125241   1.859   0.048   6.943 -0.0140  1.6647 -0.9716
 4593SOL    HW225242   1.929   0.053   6.816  1.0152 -0.3960  0.1012
 4594SOL     OW25243   2.342   3.617   5.682  0.4904  0.3386  0.3470
 4594SOL    HW125244   2.323   3.665   5.762 -0.0579 -1.0616  1.0489
 4594SOL    HW225245   2.298   3.679   5.624  0.9197  0.0120 -0.3378
 4595SOL     OW25246   0.747   3.559   1.102  0.7356  0.2768 -0.2938
 4595SOL    HW125247   0.694   3.620   1.050  0.7763  0.9526  0.4609
 4595SOL    HW225248   0.691   3.482   1.105 -0.5237  1.2499  1.2661
 4596SOL     OW25249   0.847   0.672   3.380 -0.1504  0.0530 -0.1420
 4596SOL    HW125250   0.809   0.756   3.352 -0.3008  0.1641  0.3833
 4596SOL    HW225251   0.773   0.623   3.416 -1.0712  1.8162  0.4074
 4597SOL     OW25252   1.398   3.600   6.612  0.0851 -0.3119  0.3220
 4597SOL    HW125253   1.435   3.641   6.690  1.0859 -1.1425  0.2816
 4597SOL    HW225254   1.479   3.560   6.580  0.2746 -1.0845  1.7808
 4598SOL     OW25255   1.711   3.565   4.236 -0.5832 -0.4839 -0.7299
 4598SOL    HW125256   1.791   3.514   4.228 -0.5192 -0.4064 -0.5815
 4598SOL    HW225257   1.709   3.573   4.331  0.0718 -0.1635 -0.7481
 4599SOL     OW25258   1.279   2.873   8.094  0.0683 -0.7699 -0.3174
 4599SOL    HW125259   1.282   2.895   8.000  0.0407 -0.4675 -0.2481
 4599SOL    HW225260   1.314   2.953   8.134  0.1389 -1.0521  0.1720
 4600SOL     OW25261   3.422   2.507   6.895 -0.0939 -0.3188  0.1731
 4600SOL    HW125262   3.375   2.587   6.915 -1.8884 -0.6394 -2.7340
 4600SOL    HW225263   3.501   2.519   6.948  1.5519 -3.0760 -1.6381
 4601SOL     OW25264   2.481   0.761  11.746 -0.3219  0.4652 -0.2844
 4601SOL    HW125265   2.549   0.726  11.689 -1.0267  0.7537 -1.3012
 4601SOL    HW225266   2.523   0.825  11.803  0.3794 -0.7089  0.5295
 4602SOL     OW25267   0.941   4.467   9.238 -0.1108 -0.4942 -0.0582
 4602SOL    HW125268   0.983   4.397   9.289  0.7575  0.7250  0.9220
 4602SOL    HW225269   0.933   4.537   9.304  3.2407 -0.1877  0.0525
 4603SOL     OW25270   2.460   3.486   5.212  0.5140 -0.2284  0.4661
 4603SOL    HW125271   2.452   3.527   5.126  0.6039 -1.1415  0.0195
 4603SOL    HW225272   2.399   3.412   5.207  0.2634 -0.1197  1.8949
 4604SOL     OW25273   2.145   3.461   4.579 -0.3193  0.0717 -0.5341
 4604SOL    HW125274   2.139   3.368   4.557 -2.2632  0.2271 -0.6697
 4604SOL    HW225275   2.093   3.481   4.657  0.9299 -0.3570  0.3921
 4605SOL     OW25276   1.423   0.683   8.574 -0.3665  0.2106  0.3000
 4605SOL    HW125277   1.385   0.712   8.657  1.3221 -0.6495  1.3789
 4605SOL    HW225278   1.516   0.699   8.591 -0.2755  1.9255 -1.7273
 4606SOL     OW25279   1.503   4.636   3.201  0.4444  0.3030 -0.0435
 4606SOL    HW125280   1.574   4.621   3.263  0.7691 -1.8418 -0.9400
 4606SOL    HW225281   1.432   4.674   3.253  1.1637  1.6213 -0.0195
 4607SOL     OW25282   2.811   2.752   7.435  0.1713 -0.5925 -0.4482
 4607SOL    HW125283   2.756   2.690   7.484  3.4295 -3.4281 -0.4256
 4607SOL    HW225284   2.747   2.821   7.419  0.8916 -0.0638 -1.0271
 4608SOL     OW25285   3.722   3.943   5.386  0.1785 -0.2185 -0.3131
 4608SOL    HW125286   3.705   3.940   5.291  0.4528  3.0175 -0.4623
 4608SOL    HW225287   3.631   3.935   5.415  0.4457  2.3361  1.2168
 4609SOL     OW25288   1.156   1.002   3.734 -0.0072 -0.1128  0.3709
 4609SOL    HW125289   1.187   1.042   3.652 -1.1732 -0.9752 -0.4785
 4609SOL    HW225290   1.069   0.975   3.705  0.5118 -1.1005 -0.2880
 4610SOL     OW25291   2.857   1.900   0.193 -0.5100 -0.5003  0.6246
 4610SOL    HW125292   2.906   1.983   0.184 -1.4361  0.0832  0.9752
 4610SOL    HW225293   2.856   1.900   0.289 -2.1108 -0.4443  0.6015
 4611SOL     OW25294   1.458   3.622  15.098  0.3082 -0.4059 -0.6896
 4611SOL    HW125295   1.523   3.579  15.043  1.4715 -1.2404  1.3241
 4611SOL    HW225296   1.428   3.700  15.052 -1.6241 -1.0324 -0.4900
 4612SOL     OW25297   1.775   4.195  13.743  0.4502 -0.0665 -0.0003
 4612SOL    HW125298   1.760   4.286  13.718 -0.2710 -0.7543 -2.1520
 4612SOL    HW225299   1.774   4.158  13.654  1.0647 -3.8365  1.5380
 4613SOL     OW25300   1.883   0.427  15.647 -0.0085  0.2262  0.4716
 4613SOL    HW125301   1.916   0.438  15.558 -1.0353  0.6785  0.1538
 4613SOL    HW225302   1.938   0.358  15.686 -0.1332 -0.7295 -1.0277
 4614SOL     OW25303   3.469   4.454   4.522 -0.1633  0.0016 -0.3487
 4614SOL    HW125304   3.396   4.410   4.480  0.9796 -2.1489 -0.1023
 4614SOL    HW225305   3.428   4.540   4.523 -0.9188 -0.3617 -0.5786
 4615SOL     OW25306   3.389   2.142   7.549 -0.3729  0.2166  0.1675
 4615SOL    HW125307   3.435   2.222   7.574  2.0392 -0.3685 -2.3742
 4615SOL    HW225308   3.315   2.187   7.508 -0.1969  0.4294  0.0840
 4616SOL     OW25309   0.188   3.940   6.509 -0.0886  0.0807 -0.3434
 4616SOL    HW125310   0.127   3.938   6.583  1.0319  1.7620  0.6379
 4616SOL    HW225311   0.131   3.980   6.444 -0.1194 -0.0178 -0.3773
 4617SOL     OW25312   2.121   2.410   4.397  0.2829  0.2728 -0.0259
 4617SOL    HW125313   2.068   2.374   4.326 -0.6676  0.7784  0.4331
 4617SOL    HW225314   2.108   2.341   4.461 -0.6185  1.2299  0.8194
 4618SOL     OW25315   4.368   1.613   8.541 -0.0219 -0.2396 -0.5005
 4618SOL    HW125316   4.344   1.608   8.634  2.0797 -1.4160 -0.0158
 4618SOL    HW225317   4.440   1.676   8.548 -1.1443  1.1236 -0.9954
 4619SOL     OW25318   4.255   1.676   6.080  0.4045 -0.7730 -0.1337
 4619SOL    HW125319   4.295   1.596   6.112  0.2578 -0.0724  1.7813
 4619SOL    HW225320   4.304   1.748   6.119 -2.0221  0.3560  0.8747
 4620SOL     OW25321   0.468   2.845  12.036  0.1619 -0.1464  0.2385
 4620SOL    HW125322   0.451   2.939  12.049  1.4142  0.2415 -0.9926
 4620SOL    HW225323   0.528   2.827  12.109  1.9134  3.0459 -0.3950
 4621SOL     OW25324   3.283   1.734   4.845 -0.1264 -0.1817  0.6643
 4621SOL    HW125325   3.306   1.670   4.912  2.8955  1.3098  1.0011
 4621SOL    HW225326   3.291   1.814   4.897 -4.6171  0.8439 -0.1806
 4622SOL     OW25327   3.648   4.071  13.368  0.4841 -0.1044  0.1314
 4622SOL    HW125328   3.741   4.051  13.360  0.2864 -0.9407 -0.0742
 4622SOL    HW225329   3.655   4.162  13.340 -0.1222 -0.4175 -1.0927
 4623SOL     OW25330   0.835   2.559   7.357  0.4728 -0.7436 -0.0218
 4623SOL    HW125331   0.869   2.563   7.447 -0.0495 -1.7303  0.2141
 4623SOL    HW225332   0.878   2.637   7.323 -0.3164 -0.4502 -0.3309
 4624SOL     OW25333   0.901   4.186   6.182 -0.3885 -0.7701  0.6066
 4624SOL    HW125334   0.994   4.199   6.162 -1.4129  0.8559 -3.2329
 4624SOL    HW225335   0.877   4.102   6.144 -2.6053 -1.2033  3.0006
 4625SOL     OW25336   3.123   4.630   6.081  0.2750  0.2875  0.4846
 4625SOL    HW125337   3.099   4.540   6.057  0.3468  0.1124  1.0702
 4625SOL    HW225338   3.131   4.624   6.176  0.6283  3.5634  0.6471
 4626SOL     OW25339   0.871   1.886  12.853 -0.0894 -0.7956 -0.1643
 4626SOL    HW125340   0.786   1.903  12.812 -0.1333  2.1620  1.1449
 4626SOL    HW225341   0.928   1.946  12.804 -1.6028  1.9703  1.4391
 4627SOL     OW25342   1.855   3.809   2.964  0.0854  0.3218 -0.3176
 4627SOL    HW125343   1.845   3.723   2.925  1.1071  0.4353 -0.8514
 4627SOL    HW225344   1.907   3.792   3.043 -1.0861 -2.2623 -0.1041
 4628SOL     OW25345   1.787   4.367   4.476 -0.5003  0.4226  0.1572
 4628SOL    HW125346   1.771   4.461   4.479 -2.5394  0.0489  0.5514
 4628SOL    HW225347   1.866   4.358   4.422  0.4824 -0.4231  1.6944
 4629SOL     OW25348   4.544   4.405   2.245  0.1291 -0.2775  0.7302
 4629SOL    HW125349   4.498   4.483   2.277  1.5632  1.2481 -0.9218
 4629SOL    HW225350   4.477   4.351   2.205 -1.6807  2.9845 -0.6500
 4630SOL     OW25351   0.976   4.715  13.894  0.2689 -0.0407 -0.3495
 4630SOL    HW125352   1.067   4.722  13.921  0.5128 -0.2790 -1.1014
 4630SOL    HW225353   0.967   4.621  13.878  0.2433 -0.0177 -0.4732
 4631SOL     OW25354   2.140   4.173   7.464  0.0540 -0.3430 -0.5048
 4631SOL    HW125355   2.187   4.257   7.469  0.7376 -0.8140  0.9907
 4631SOL    HW225356   2.220   4.126   7.440  0.6821 -0.3438  1.5087
 4632SOL     OW25357   3.734   4.633   5.440  0.0668 -0.1172 -0.6877
 4632SOL    HW125358   3.699   4.560   5.390 -1.0164 -0.6615  0.9004
 4632SOL    HW225359   3.744   4.697   5.368 -0.2722 -0.1549 -0.7677
 4633SOL     OW25360   1.523   0.661   8.278 -0.0812  0.5175  0.4991
 4633SOL    HW125361   1.592   0.620   8.226  0.9752  1.5284  1.1066
 4633SOL    HW225362   1.446   0.640   8.226  0.0405 -1.2505  1.0408
 4634SOL     OW25363   0.491   2.260   7.428  0.9134 -0.8137 -0.8199
 4634SOL    HW125364   0.580   2.277   7.398  0.5929  0.4147 -1.0693
 4634SOL    HW225365   0.456   2.233   7.343  0.4553 -2.0505 -0.2456
 4635SOL     OW25366   2.216   0.808   9.128  0.2739 -0.6873  0.2367
 4635SOL    HW125367   2.284   0.767   9.182  1.0834  1.1171  0.5811
 4635SOL    HW225368   2.151   0.743   9.103 -1.9466  0.9949  1.7166
 4636SOL     OW25369   1.215   2.695   2.106  0.2425 -0.2207  0.4371
 4636SOL    HW125370   1.252   2.704   2.194  0.0836  2.1153  0.2644
 4636SOL    HW225371   1.282   2.652   2.053  0.6935  1.0479 -0.0061
 4637SOL     OW25372   4.510   4.195   2.985  0.1769  0.2396  0.0534
 4637SOL    HW125373   4.573   4.125   3.005  0.2073 -0.0261 -0.9839
 4637SOL    HW225374   4.484   4.166   2.898 -0.3924  0.1997  0.2375
 4638SOL     OW25375   2.911   3.339   1.716 -0.2776  0.2700  0.1978
 4638SOL    HW125376   2.926   3.261   1.662  1.6776  0.4433  0.4921
 4638SOL    HW225377   3.004   3.354   1.734 -0.3622 -0.4540  1.2384
 4639SOL     OW25378   3.327   3.510  11.770 -0.5263 -0.4323  0.5093
 4639SOL    HW125379   3.384   3.493  11.845 -1.4151 -0.4430  1.1936
 4639SOL    HW225380   3.323   3.420  11.736 -1.4873  0.5587 -2.0022
 4640SOL     OW25381   4.345   1.930   6.208 -0.7024 -0.0482 -0.4118
 4640SOL    HW125382   4.440   1.940   6.195 -0.3588 -1.2041  1.2233
 4640SOL    HW225383   4.319   2.013   6.167 -3.2676  0.3409  1.9949
 4641SOL     OW25384   1.889   0.420   1.179  0.1789 -0.6466 -0.8098
 4641SOL    HW125385   1.846   0.342   1.143 -4.4151  1.0214  1.0049
 4641SOL    HW225386   1.921   0.371   1.255  1.2445 -2.9787 -2.7562
 4642SOL     OW25387   2.780   1.404   8.691 -0.4145  0.4030 -0.1825
 4642SOL    HW125388   2.763   1.312   8.670  1.5117 -0.0742  0.3216
 4642SOL    HW225389   2.874   1.409   8.670 -0.2001 -1.1821  0.3561
 4643SOL     OW25390   4.411   2.327   3.748  0.4995  0.2426 -0.4089
 4643SOL    HW125391   4.347   2.377   3.697 -0.0041 -0.1669 -0.1760
 4643SOL    HW225392   4.485   2.384   3.728  0.2328  0.9589  0.6551
 4644SOL     OW25393   1.112   3.481   0.222  0.1426 -0.2096 -0.0440
 4644SOL    HW125394   1.185   3.479   0.285 -1.0824 -0.2530  1.3898
 4644SOL    HW225395   1.092   3.388   0.222  0.6148 -0.3141  1.3881
 4645SOL     OW25396   2.326   2.500   2.550  0.4619  0.6688  0.0698
 4645SOL    HW125397   2.333   2.419   2.599 -0.4326 -0.8110 -2.2433
 4645SOL    HW225398   2.289   2.552   2.622  0.1520 -1.7121  1.6346
 4646SOL     OW25399   1.845   0.739   9.145  0.4286  0.2304  0.5830
 4646SOL    HW125400   1.829   0.681   9.220  0.4016 -0.8274 -0.2369
 4646SOL    HW225401   1.924   0.700   9.108 -0.6788 -2.3759  0.9788
 4647SOL     OW25402   4.150   1.866  17.171  0.0080 -0.1193  0.1242
 4647SOL    HW125403   4.092   1.941  17.153  0.0088  0.4949  2.6162
 4647SOL    HW225404   4.131   1.801  17.104 -4.1526  0.1255  1.0952
 4648SOL     OW25405   4.248   2.551   3.624 -0.0224  0.6280 -0.3447
 4648SOL    HW125406   4.242   2.580   3.533  1.8985  0.9043 -0.3746
 4648SOL    HW225407   4.218   2.626   3.675  0.1357  1.0501 -0.8674
 4649SOL     OW25408   2.147   3.812   7.787  0.0436  0.6456 -0.2586
 4649SOL    HW125409   2.188   3.758   7.853 -1.4686  0.0008  0.1523
 4649SOL    HW225410   2.060   3.820   7.827  0.0805 -1.7247  0.2458
 4650SOL     OW25411   2.474   1.389   4.819  0.7620 -0.3659 -0.3866
 4650SOL    HW125412   2.421   1.321   4.778 -2.7829  2.1997 -0.0968
 4650SOL    HW225413   2.409   1.423   4.880 -1.3254  0.1598 -2.9146
 4651SOL     OW25414   0.054   4.220   2.795  0.6079 -0.0793 -0.4775
 4651SOL    HW125415   0.122   4.245   2.732  1.5374 -0.4614  0.3749
 4651SOL    HW225416   4.701   4.243   2.749  1.1365  0.3252 -1.2131
 4652SOL     OW25417   3.309   0.732   2.933 -0.2483 -0.3982  0.1482
 4652SOL    HW125418   3.387   0.731   2.877  0.6041  0.9354  1.2949
 4652SOL    HW225419   3.241   0.713   2.869 -1.4970 -1.6264  1.8687
 4653SOL     OW25420   4.255   1.822   4.350  0.6829  0.3482 -0.2153
 4653SOL    HW125421   4.184   1.764   4.377  0.2335  0.8636 -0.2947
 4653SOL    HW225422   4.291   1.770   4.278 -0.0192 -3.4356  2.1242
 4654SOL     OW25423   2.505   4.011   7.873 -0.3273  0.2540  0.0464
 4654SOL    HW125424   2.588   3.963   7.870 -0.8249 -0.5159 -1.3723
 4654SOL    HW225425   2.518   4.077   7.806 -1.4565 -0.2835 -0.6994
 4655SOL     OW25426   3.292   4.266  17.471 -0.2602 -0.0352 -0.5959
 4655SOL    HW125427   3.359   4.287  17.406 -1.0235  0.7010 -1.1377
 4655SOL    HW225428   3.268   4.177  17.447 -0.4296  0.4730 -2.2696
 4656SOL     OW25429   0.668   2.959   7.949  0.3763  0.0830 -0.3621
 4656SOL    HW125430   0.621   3.042   7.953  1.7875  0.8752 -0.0723
 4656SOL    HW225431   0.749   2.986   7.992  1.7376 -3.0866 -0.9682
 4657SOL     OW25432   2.533   3.210  11.670  0.0896 -0.0502  0.4136
 4657SOL    HW125433   2.611   3.165  11.704  1.0356  0.4071 -1.1094
 4657SOL    HW225434   2.554   3.300  11.693  0.5418 -0.8285  2.9898
 4658SOL     OW25435   3.468   3.246   9.963 -0.6047 -0.2182 -0.3974
 4658SOL    HW125436   3.496   3.237   9.872  3.8338 -1.2108  1.0675
 4658SOL    HW225437   3.442   3.338   9.956  0.7018  0.2843  1.6866
 4659SOL     OW25438   2.220   0.125   2.912  0.3215 -0.2523  0.4445
 4659SOL    HW125439   2.184   0.105   2.826 -0.4786  1.3481  0.4027
 4659SOL    HW225440   2.297   0.071   2.898  0.2628  0.0712 -1.1024
 4660SOL     OW25441   2.384   3.105   5.039  0.9282  0.1415 -0.3369
 4660SOL    HW125442   2.375   3.184   4.986 -0.4401  0.2405  0.0332
 4660SOL    HW225443   2.333   3.041   4.989  1.5350 -0.7131  0.1393
 4661SOL     OW25444   1.340   2.237   5.089  0.1924  0.2958  0.8633
 4661SOL    HW125445   1.259   2.191   5.066 -0.5257  2.6838 -1.3467
 4661SOL    HW225446   1.373   2.173   5.152  0.2051  0.4113  0.9750
 4662SOL     OW25447   0.958   3.220   4.073  0.4585  0.1766 -0.1438
 4662SOL    HW125448   0.895   3.288   4.096 -0.3120 -0.3807 -0.6006
 4662SOL    HW225449   0.962   3.163   4.150 -2.8309  1.0825  0.6601
 4663SOL     OW25450   0.835   1.630   1.430 -0.7427  0.0044  0.1975
 4663SOL    HW125451   0.766   1.664   1.487 -1.1310 -0.0816 -0.2289
 4663SOL    HW225452   0.862   1.560   1.490 -0.5071 -0.4415 -0.4318
 4664SOL     OW25453   0.779   1.460  11.015 -0.0305  0.0026  0.2343
 4664SOL    HW125454   0.839   1.427  10.948 -1.0075 -0.6127 -0.3327
 4664SOL    HW225455   0.801   1.407  11.092 -0.3729 -2.0924 -1.1208
 4665SOL     OW25456   0.029   3.189   5.291 -0.3583  0.3851 -0.3745
 4665SOL    HW125457   0.006   3.282   5.285 -0.8025  0.3765  1.3162
 4665SOL    HW225458   4.682   3.155   5.341 -0.7937  0.3527 -1.0482
 4666SOL     OW25459   3.821   3.414  11.311 -0.4874  0.4883 -0.3350
 4666SOL    HW125460   3.826   3.327  11.270 -2.5022  0.0686  0.3010
 4666SOL    HW225461   3.735   3.410  11.354 -0.5888 -1.3350 -0.6891
 4667SOL     OW25462   2.658   1.403  17.654  0.0452 -0.2219  0.1456
 4667SOL    HW125463   2.578   1.443  17.686 -1.2434 -2.7343 -0.0072
 4667SOL    HW225464   2.640   1.314  17.682  0.6146 -0.2751  0.3441
 4668SOL     OW25465   3.464   1.752   4.325  0.4779  0.0302  0.1645
 4668SOL    HW125466   3.454   1.777   4.417 -2.2535  0.2725 -0.1939
 4668SOL    HW225467   3.410   1.673   4.331 -1.6325  1.6339  2.5155
 4669SOL     OW25468   3.985   4.420  12.331 -0.4088  0.2966 -0.0769
 4669SOL    HW125469   4.074   4.406  12.365 -0.2113  2.0102  0.1371
 4669SOL    HW225470   3.961   4.329  12.316 -0.3634  0.2900 -0.1107
 4670SOL     OW25471   0.311   4.440   6.630 -0.1517  0.0407  0.5529
 4670SOL    HW125472   0.311   4.464   6.722 -0.7589 -1.7293  0.9999
 4670SOL    HW225473   0.406   4.441   6.618  0.0632 -0.0152  2.3260
 4671SOL     OW25474   2.069   0.428  14.834  0.2907  0.3789 -0.2135
 4671SOL    HW125475   2.122   0.350  14.820  1.4737  1.7696 -3.4966
 4671SOL    HW225476   2.118   0.490  14.781 -1.8446  1.6896 -0.6533
 4672SOL     OW25477   3.269   0.683   5.709  0.1994 -0.2507  0.2689
 4672SOL    HW125478   3.208   0.686   5.782  0.0906  1.9890  0.0854
 4672SOL    HW225479   3.325   0.609   5.732  0.8334 -0.0636 -0.6613
 4673SOL     OW25480   0.745   1.715   6.033  0.6395  0.0176  0.1712
 4673SOL    HW125481   0.666   1.691   5.983  1.7135  1.0472 -2.0454
 4673SOL    HW225482   0.723   1.807   6.044  0.2168 -0.0546 -0.0324
 4674SOL     OW25483   3.476   4.215   1.828  0.5833  0.4582  0.0220
 4674SOL    HW125484   3.504   4.303   1.805  2.4636 -0.1715 -0.0778
 4674SOL    HW225485   3.418   4.202   1.753  0.9400 -1.3800  0.0586
 4675SOL     OW25486   1.591   0.221  14.903  0.0382 -0.5652  0.6416
 4675SOL    HW125487   1.597   0.284  14.975  1.9202 -0.4238  0.3681
 4675SOL    HW225488   1.506   0.178  14.906  0.8955 -2.3806 -1.5304
 4676SOL     OW25489   0.696   0.222   4.902  0.0222  0.0546  0.0166
 4676SOL    HW125490   0.666   0.194   4.816  1.9306  1.4867 -1.1189
 4676SOL    HW225491   0.613   0.245   4.945  0.0701 -0.9074  0.6262
 4677SOL     OW25492   4.448   0.940   3.003 -0.2635 -0.1959  0.5750
 4677SOL    HW125493   4.391   0.992   3.058  0.5206 -0.2504  1.4319
 4677SOL    HW225494   4.388   0.876   2.964  3.3821 -2.2097 -1.7399
 4678SOL     OW25495   1.370   2.672   3.049  0.1567 -0.0882  0.3587
 4678SOL    HW125496   1.290   2.629   3.078  0.6729 -0.1482  1.7179
 4678SOL    HW225497   1.379   2.632   2.963 -2.2638 -1.0512  0.5734
 4679SOL     OW25498   0.249   2.834   6.063 -0.4288 -0.3381  0.7039
 4679SOL    HW125499   0.233   2.769   5.995  0.7067  0.3241 -0.1873
 4679SOL    HW225500   0.316   2.795   6.119  1.2308  0.0144 -1.0382
 4680SOL     OW25501   0.732   2.271   2.657  0.1844 -0.0583 -0.5321
 4680SOL    HW125502   0.652   2.313   2.625 -1.5087 -1.3269  2.0352
 4680SOL    HW225503   0.695   2.244   2.741 -1.8228 -0.6598 -1.6237
 4681SOL     OW25504   2.405   2.018   6.394 -0.1549 -0.0884 -0.3272
 4681SOL    HW125505   2.440   2.089   6.449 -1.1263  0.9972 -1.1196
 4681SOL    HW225506   2.428   2.048   6.306 -0.9915 -0.9268 -0.8250
 4682SOL     OW25507   0.510   3.018   2.166  0.2230 -0.1059 -0.0676
 4682SOL    HW125508   0.603   2.996   2.162 -0.0466 -1.3184  0.3019
 4682SOL    HW225509   0.472   2.940   2.125 -1.8676  0.0694  1.5758
 4683SOL     OW25510   1.905   3.366   7.011 -0.0793 -1.0697 -0.0472
 4683SOL    HW125511   1.980   3.309   6.995  0.2766 -1.1618  1.9153
 4683SOL    HW225512   1.936   3.411   7.090 -1.5545 -0.6046  0.2607
 4684SOL     OW25513   2.800   2.582   8.420  0.5072  0.1733 -0.1338
 4684SOL    HW125514   2.738   2.516   8.451 -0.3207  1.2522  0.5272
 4684SOL    HW225515   2.742   2.654   8.395 -0.7352 -0.8435 -0.1626
 4685SOL     OW25516   1.772   2.940   5.056 -0.5972  0.2444  0.0454
 4685SOL    HW125517   1.722   3.021   5.048  2.1862  1.9742 -0.1032
 4685SOL    HW225518   1.753   2.916   5.146  0.2387 -0.3794  0.0591
 4686SOL     OW25519   3.004   3.449   7.380 -0.8998  0.4502 -0.0999
 4686SOL    HW125520   2.917   3.471   7.412 -1.8151 -1.3830 -1.3235
 4686SOL    HW225521   3.045   3.497   7.452  0.1169 -0.8359  0.1813
 4687SOL     OW25522   3.307   3.990   9.864  0.4133 -0.0179 -0.4397
 4687SOL    HW125523   3.212   4.003   9.872 -0.1215 -2.0394 -3.4359
 4687SOL    HW225524   3.338   3.955   9.948 -0.6633  0.0600 -0.0008
 4688SOL     OW25525   3.604   3.121   1.369  0.0254  0.4768 -0.4931
 4688SOL    HW125526   3.620   3.070   1.289  0.8986 -3.0104  1.9041
 4688SOL    HW225527   3.684   3.109   1.420  0.3194  0.4643 -0.9604
 4689SOL     OW25528   2.900   0.180  10.412  0.3602  0.2757 -0.2755
 4689SOL    HW125529   2.935   0.158  10.326  0.1670  0.0137 -0.2872
 4689SOL    HW225530   2.938   0.265  10.433 -0.0591  0.3844  0.0479
 4690SOL     OW25531   3.006   0.453  15.691  0.2354 -0.3121 -0.0994
 4690SOL    HW125532   2.996   0.538  15.733  0.0200 -0.1431 -0.4895
 4690SOL    HW225533   2.943   0.401  15.742 -2.2721  0.7140 -2.1283
 4691SOL     OW25534   2.912   0.628  10.205  0.7927 -0.6951 -0.0579
 4691SOL    HW125535   2.940   0.647  10.295 -1.6160 -1.0194  0.7419
 4691SOL    HW225536   2.918   0.717  10.170 -0.2510 -0.3089  0.7355
 4692SOL     OW25537   4.583   2.332   7.527 -0.1235  0.4273  0.0968
 4692SOL    HW125538   4.575   2.238   7.544  2.5719  0.2104  0.2292
 4692SOL    HW225539   4.495   2.361   7.503 -0.9025 -1.6872  0.3325
 4693SOL     OW25540   0.119   0.522  13.611 -0.2312  0.7322 -0.4457
 4693SOL    HW125541   0.200   0.517  13.663 -1.2615 -1.5819  0.9336
 4693SOL    HW225542   0.146   0.596  13.557  0.8340  1.6225  1.2812
 4694SOL     OW25543   0.920   1.688  11.087 -0.0842  0.5923 -0.3753
 4694SOL    HW125544   0.870   1.621  11.040 -1.6301  0.6333  1.2220
 4694SOL    HW225545   0.950   1.741  11.013  1.8879 -0.3615 -0.2558
 4695SOL     OW25546   3.806   0.347  10.766 -0.3740 -0.2578  0.0140
 4695SOL    HW125547   3.759   0.395  10.834 -2.4571  1.5612 -2.7184
 4695SOL    HW225548   3.815   0.415  10.700 -0.9290 -0.9072 -0.7274
 4696SOL     OW25549   3.933   2.803   1.969 -0.2931 -0.4657  0.2725
 4696SOL    HW125550   3.885   2.804   2.052 -1.8417 -1.0036 -0.6153
 4696SOL    HW225551   3.991   2.730   1.992 -0.2889 -0.5730 -0.0686
 4697SOL     OW25552   4.183   2.007   3.049  0.5825  0.3163  0.7031
 4697SOL    HW125553   4.234   1.938   3.006  2.1277  2.2969 -0.6292
 4697SOL    HW225554   4.131   2.028   2.971  2.0376  0.3177 -0.2552
 4698SOL     OW25555   1.514   3.657   7.368  0.7912 -0.0019 -0.5031
 4698SOL    HW125556   1.530   3.752   7.370 -0.8622  0.2680 -0.1819
 4698SOL    HW225557   1.421   3.664   7.346  0.1363 -0.8574  1.9709
 4699SOL     OW25558   0.934   0.035   5.156 -0.0296  0.0905 -0.0766
 4699SOL    HW125559   0.872   4.689   5.158  0.2276 -0.1209  0.1303
 4699SOL    HW225560   0.925   0.072   5.244  0.3917 -3.7132  1.5758
 4700SOL     OW25561   1.486   4.319   8.420 -0.2853 -0.1486  0.1283
 4700SOL    HW125562   1.391   4.324   8.409 -0.1932 -1.3634 -1.2105
 4700SOL    HW225563   1.497   4.339   8.512 -0.2728 -0.8540  0.2804
 4701SOL     OW25564   1.689   0.158   8.605  0.5748 -0.2269 -0.5262
 4701SOL    HW125565   1.773   0.202   8.618 -0.5640  1.4319  1.2389
 4701SOL    HW225566   1.646   0.206   8.676 -0.3090  0.0322 -1.2360
 4702SOL     OW25567   2.878   1.234  15.841 -0.4937  0.1869  0.5423
 4702SOL    HW125568   2.804   1.294  15.851 -0.1850  0.5442  0.6739
 4702SOL    HW225569   2.955   1.291  15.847 -0.9699  0.7022  1.6673
 4703SOL     OW25570   4.525   1.270  15.015  0.2900 -0.5961  0.1763
 4703SOL    HW125571   4.619   1.280  14.998  0.2856 -1.9824 -0.7199
 4703SOL    HW225572   4.490   1.311  14.935  2.6313  1.9879  0.4928
 4704SOL     OW25573   1.013   3.917   3.528 -0.0911 -0.1048 -0.1076
 4704SOL    HW125574   0.968   3.996   3.499  0.8897  0.0632 -1.1213
 4704SOL    HW225575   0.970   3.891   3.610  1.6597  3.9382  2.0990
 4705SOL     OW25576   3.536   2.845   7.866  0.5453  0.5040 -0.0448
 4705SOL    HW125577   3.509   2.930   7.830  0.0414  1.1056  1.7746
 4705SOL    HW225578   3.615   2.873   7.912  0.7696  1.2908 -0.8858
 4706SOL     OW25579   1.597   3.503   3.170 -0.8380  0.2938  0.7813
 4706SOL    HW125580   1.545   3.430   3.137  1.4878 -0.9076 -0.2038
 4706SOL    HW225581   1.535   3.576   3.163  0.1665  1.0761 -0.0708
 4707SOL     OW25582   0.324   4.008  11.662 -0.2203  0.3753  0.6813
 4707SOL    HW125583   0.343   4.092  11.620  2.2406 -0.6307 -0.2277
 4707SOL    HW225584   0.407   3.959  11.661  0.9742  2.4324  0.2340
 4708SOL     OW25585   4.259   0.032   2.830 -0.1060  0.6410 -0.2708
 4708SOL    HW125586   4.226   0.087   2.901 -0.0990  0.9034 -0.4713
 4708SOL    HW225587   4.178   0.029   2.778  1.6861  3.3794 -3.2753
 4709SOL     OW25588   3.464   2.520  12.362  0.9087 -0.3902 -0.2020
 4709SOL    HW125589   3.489   2.568  12.284  0.1839 -2.4390 -1.7061
 4709SOL    HW225590   3.538   2.461  12.377  0.9215 -0.2195  0.3923
 4710SOL     OW25591   3.466   1.573  15.015  0.4695  0.1766 -0.2719
 4710SOL    HW125592   3.415   1.615  15.084  0.7578  1.3906 -0.7975
 4710SOL    HW225593   3.553   1.611  15.019  1.7534 -2.7054 -0.6468
 4711SOL     OW25594   2.242   1.083   4.192  0.0294  0.1009  0.1681
 4711SOL    HW125595   2.197   1.039   4.120 -0.0402 -0.7342  0.7195
 4711SOL    HW225596   2.167   1.096   4.250  0.2910 -0.4974  0.6389
 4712SOL     OW25597   0.181   2.914  12.157 -0.2970 -0.2654  0.1133
 4712SOL    HW125598   0.199   2.905  12.250  1.6555  2.9114  0.0302
 4712SOL    HW225599   0.146   3.003  12.154 -2.4097 -1.1042  0.0463
 4713SOL     OW25600   2.957   4.387   8.825 -0.3335  0.0004 -0.3641
 4713SOL    HW125601   2.990   4.339   8.749 -1.2167  1.2336 -1.5294
 4713SOL    HW225602   2.942   4.474   8.788 -0.4476 -1.2360 -3.2607
 4714SOL     OW25603   0.848   0.432   0.148 -0.1469 -0.4886  0.0372
 4714SOL    HW125604   0.772   0.389   0.186 -1.2964 -0.9379 -2.8099
 4714SOL    HW225605   0.908   0.433   0.223 -2.2921  0.1262  1.7430
 4715SOL     OW25606   4.152   1.904   5.615  0.2532  0.3000 -0.1318
 4715SOL    HW125607   4.089   1.950   5.559 -0.0255  0.7245  0.5222
 4715SOL    HW225608   4.140   1.947   5.700 -0.6885 -3.3022  1.5678
 4716SOL     OW25609   2.587   4.383   5.200 -0.2740  0.5363  0.0127
 4716SOL    HW125610   2.624   4.308   5.247 -0.4795 -0.5396 -1.5306
 4716SOL    HW225611   2.631   4.365   5.117  0.9564 -0.6936  0.9458
 4717SOL     OW25612   1.890   4.369   2.356 -0.1706  0.3060 -0.4267
 4717SOL    HW125613   1.957   4.340   2.295  0.2467 -1.8152  1.0498
 4717SOL    HW225614   1.815   4.335   2.307 -0.0950 -0.0512 -0.2976
 4718SOL     OW25615   0.883   1.077   6.682  0.2733  0.2919  0.0436
 4718SOL    HW125616   0.908   1.122   6.763 -1.2556  0.3824  0.4620
 4718SOL    HW225617   0.903   1.148   6.622 -0.8929 -1.5185 -2.4828
 4719SOL     OW25618   0.786   0.838  17.319 -0.7455  0.2080  0.1735
 4719SOL    HW125619   0.796   0.812  17.411 -3.3904  0.7377  0.6163
 4719SOL    HW225620   0.787   0.933  17.325 -0.4856  0.4135 -2.9772
 4720SOL     OW25621   2.761   3.584   4.802  0.4858 -0.4051  1.0293
 4720SOL    HW125622   2.722   3.537   4.728  1.5215  0.0880  0.1671
 4720SOL    HW225623   2.732   3.513   4.859  0.2018 -1.4563 -0.4099
 4721SOL     OW25624   0.891   3.154   7.615 -0.2904  0.4432 -0.3009
 4721SOL    HW125625   0.808   3.135   7.571  0.0327 -1.8213  0.0971
 4721SOL    HW225626   0.862   3.170   7.705 -1.1080 -1.8387 -0.1535
 4722SOL     OW25627   4.218   3.185  13.775  0.1451 -0.5486 -0.6958
 4722SOL    HW125628   4.312   3.169  13.790  0.3318 -0.1539 -1.4458
 4722SOL    HW225629   4.173   3.118  13.827  1.3579 -1.8791 -1.3472
 4723SOL     OW25630   2.733   2.085   7.102 -0.5940 -0.1646  0.2772
 4723SOL    HW125631   2.793   2.141   7.151 -0.0090  0.4584 -1.1674
 4723SOL    HW225632   2.750   1.998   7.139  0.2680 -0.2346 -0.3015
 4724SOL     OW25633   3.021   3.601   8.881  0.2578  0.7660 -0.1490
 4724SOL    HW125634   2.945   3.612   8.939 -1.0676  0.6675 -1.8470
 4724SOL    HW225635   3.000   3.673   8.822 -1.9072 -0.7755 -1.2811
 4725SOL     OW25636   1.043   4.000   5.050  0.1606 -0.0946 -0.1977
 4725SOL    HW125637   1.027   4.094   5.045 -0.0905 -0.1021  0.5360
 4725SOL    HW225638   1.082   3.983   4.964  0.0696  0.6038 -0.3699
 4726SOL     OW25639   1.912   0.463   2.396  0.7025  0.4778 -0.5150
 4726SOL    HW125640   1.870   0.506   2.471  1.0584 -1.1934  0.6436
 4726SOL    HW225641   2.004   0.474   2.419  1.2531 -1.5250 -1.7880
 4727SOL     OW25642   0.893   3.278  11.720  0.4266 -0.0162  0.3551
 4727SOL    HW125643   0.966   3.314  11.771 -0.2437  1.3353  0.3687
 4727SOL    HW225644   0.929   3.286  11.632  0.6375 -1.5457  0.3031
 4728SOL     OW25645   3.801   2.602   0.771 -0.1297 -0.3714  0.1509
 4728SOL    HW125646   3.780   2.628   0.861 -1.4308 -0.3915 -0.1504
 4728SOL    HW225647   3.713   2.606   0.734 -0.2182 -1.7336  0.2150
 4729SOL     OW25648   4.031   3.256   2.117 -0.0551  0.3062  0.3846
 4729SOL    HW125649   4.107   3.198   2.113  0.2411  0.8361 -2.1825
 4729SOL    HW225650   4.051   3.317   2.046 -0.7677  0.6090  0.4386
 4730SOL     OW25651   2.377   1.337   4.304  0.4649  0.2097 -0.0550
 4730SOL    HW125652   2.333   1.253   4.293  0.7102 -0.2036  2.0651
 4730SOL    HW225653   2.341   1.379   4.226 -1.1174 -1.1503 -0.0570
 4731SOL     OW25654   3.647   3.068   8.652 -0.6866 -0.1468 -0.2609
 4731SOL    HW125655   3.604   3.004   8.709 -0.5371  1.0828  1.2503
 4731SOL    HW225656   3.611   3.154   8.673  3.5460  1.8461 -1.0019
 4732SOL     OW25657   0.975   0.150  14.145  0.4606 -0.2992 -0.5637
 4732SOL    HW125658   0.909   0.105  14.197 -0.5000  2.3654  0.5156
 4732SOL    HW225659   0.993   0.085  14.077 -0.2923 -0.4576 -0.6032
 4733SOL     OW25660   2.111   1.548   8.272  0.3626 -0.2912  0.4164
 4733SOL    HW125661   2.040   1.577   8.330 -1.3380  0.4496 -2.0390
 4733SOL    HW225662   2.167   1.625   8.275 -0.7244  0.5552 -1.4880
 4734SOL     OW25663   2.818   1.571   7.271  0.5454  0.0149  0.5037
 4734SOL    HW125664   2.882   1.547   7.338  0.4692 -0.1738  0.5084
 4734SOL    HW225665   2.775   1.486   7.270 -1.3450  0.9630  0.4477
 4735SOL     OW25666   3.441   2.495   5.801  0.5589 -0.0123 -0.4729
 4735SOL    HW125667   3.348   2.472   5.806  0.0813  1.7912 -1.0512
 4735SOL    HW225668   3.473   2.432   5.737  3.1157 -2.5169  3.3018
 4736SOL     OW25669   4.374   3.450   3.057  0.0488 -0.2201  0.3739
 4736SOL    HW125670   4.372   3.359   3.085  0.9120 -0.2203  0.4536
 4736SOL    HW225671   4.327   3.495   3.127 -2.6144  0.6545 -1.9880
 4737SOL     OW25672   1.223   2.411   2.814  0.1328 -0.6747  0.1805
 4737SOL    HW125673   1.162   2.417   2.741  1.2036  3.3054 -0.3882
 4737SOL    HW225674   1.274   2.491   2.805 -1.6476  0.4389 -0.0603
 4738SOL     OW25675   3.007   3.233  14.025 -0.3477 -0.2638  0.4252
 4738SOL    HW125676   3.095   3.195  14.030 -0.3045  0.1783  3.4508
 4738SOL    HW225677   3.013   3.279  14.109 -0.6018  2.4247 -1.0044
 4739SOL     OW25678   4.002   3.653   2.268  0.3472  0.1002 -0.7842
 4739SOL    HW125679   3.936   3.683   2.331  1.6325  1.9722 -0.3357
 4739SOL    HW225680   4.072   3.717   2.280  0.6018  0.2520 -3.1745
 4740SOL     OW25681   1.286   4.397   1.034 -0.6125  0.2490  0.3515
 4740SOL    HW125682   1.369   4.399   1.082  0.6188 -1.6961 -1.6910
 4740SOL    HW225683   1.246   4.323   1.079  0.0234  0.4405  1.2363
 4741SOL     OW25684   3.615   0.438   7.726 -0.1541 -0.2045  0.1122
 4741SOL    HW125685   3.624   0.529   7.753 -1.1234  0.7823 -2.7989
 4741SOL    HW225686   3.538   0.415   7.778  0.1874  0.3957  0.8762
 4742SOL     OW25687   3.914   2.004   8.693  0.2650  0.5274  0.1054
 4742SOL    HW125688   3.912   2.089   8.649 -0.1523 -0.4385 -1.7711
 4742SOL    HW225689   4.009   1.990   8.683  0.2560 -0.5898  1.7350
 4743SOL     OW25690   0.732   2.258   3.289  0.1623 -0.1069 -1.1038
 4743SOL    HW125691   0.706   2.242   3.379 -1.4168  2.3706 -1.1023
 4743SOL    HW225692   0.646   2.241   3.250 -0.0919 -0.5012 -0.3630
 4744SOL     OW25693   1.185   4.616   0.878 -0.2147  0.6521 -0.5541
 4744SOL    HW125694   1.260   4.557   0.885 -1.1011 -0.3927  0.2232
 4744SOL    HW225695   1.181   4.669   0.957  1.9405  1.3734 -0.9291
 4745SOL     OW25696   3.226   2.808   4.237 -0.0998 -0.1188  0.0051
 4745SOL    HW125697   3.312   2.791   4.276 -0.3473  0.5446  0.8435
 4745SOL    HW225698   3.231   2.902   4.216 -0.3166 -0.0106  0.4429
 4746SOL     OW25699   3.645   0.991   0.393  0.3099  0.3625 -0.1682
 4746SOL    HW125700   3.617   0.979   0.302  0.9474  0.6805 -0.4020
 4746SOL    HW225701   3.698   0.914   0.412 -2.1230 -0.8249  1.8013
 4747SOL     OW25702   1.139   1.188  13.227  0.3261 -0.1828  0.5463
 4747SOL    HW125703   1.055   1.182  13.272  0.6965  1.4289  1.4726
 4747SOL    HW225704   1.190   1.242  13.287 -3.4630  0.6135  3.0799
 4748SOL     OW25705   1.785   2.874   6.723 -0.3449 -0.1844  0.6620
 4748SOL    HW125706   1.719   2.918   6.670  0.0347 -1.9814 -1.2719
 4748SOL    HW225707   1.746   2.885   6.810 -0.7225 -0.3680  0.5151
 4749SOL     OW25708   2.465   4.639  15.713  0.0294  0.7467  0.7849
 4749SOL    HW125709   2.505   4.554  15.734 -0.0190  0.2551 -1.0661
 4749SOL    HW225710   2.455   4.621  15.619 -0.3973 -0.9628  1.1548
 4750SOL     OW25711   0.150   2.217   4.091  0.8405  0.2050  0.0955
 4750SOL    HW125712   0.242   2.219   4.119  1.2191  0.4236 -1.1698
 4750SOL    HW225713   0.151   2.278   4.017  0.3192  1.1248  0.8503
 4751SOL     OW25714   4.414   2.223   2.813 -0.3697 -0.2587  0.6700
 4751SOL    HW125715   4.430   2.129   2.802  2.9041  0.5704 -1.6829
 4751SOL    HW225716   4.371   2.242   2.729  1.2644 -1.5149 -0.4643
 4752SOL     OW25717   3.059   4.272   8.606  0.3422 -0.1327 -0.4949
 4752SOL    HW125718   3.133   4.216   8.632 -1.4633 -2.9797 -1.5565
 4752SOL    HW225719   3.008   4.212   8.552  1.6059 -1.0749 -0.6312
 4753SOL     OW25720   0.635   1.649  17.099 -0.0436  0.2594 -0.4661
 4753SOL    HW125721   0.723   1.621  17.123 -1.6048 -0.9227  3.8921
 4753SOL    HW225722   0.646   1.635  17.005 -0.3907  1.5350 -0.6966
 4754SOL     OW25723   0.250   1.930   8.055 -0.2978 -0.7835 -0.3371
 4754SOL    HW125724   0.276   1.950   7.965 -1.7348 -3.0905 -1.2538
 4754SOL    HW225725   0.205   2.011   8.078 -0.5215 -1.2526  0.8785
 4755SOL     OW25726   2.378   4.201   9.170 -0.0842 -0.4280 -0.3069
 4755SOL    HW125727   2.340   4.275   9.122 -0.7156 -0.5624 -0.0250
 4755SOL    HW225728   2.463   4.174   9.137  0.3475  0.5164  0.0471
 4756SOL     OW25729   2.454   1.134   7.377  0.2914  0.2394 -0.2980
 4756SOL    HW125730   2.369   1.096   7.398  0.0617  0.2952 -1.1293
 4756SOL    HW225731   2.433   1.226   7.395 -1.6502 -0.0266 -1.1769
 4757SOL     OW25732   3.744   2.046   6.255  0.7637  0.5212  0.1843
 4757SOL    HW125733   3.714   1.956   6.242 -0.0835  0.8831 -0.3833
 4757SOL    HW225734   3.823   2.028   6.307  0.8895  1.0820  0.1823
 4758SOL     OW25735   3.927   2.811  13.702  0.8568 -0.1037 -0.5011
 4758SOL    HW125736   3.852   2.764  13.737  1.7014 -0.8424  0.3227
 4758SOL    HW225737   3.991   2.741  13.692 -0.3163 -1.5206  1.9873
 4759SOL     OW25738   1.070   4.384   2.804 -0.2296 -0.4246  0.0535
 4759SOL    HW125739   1.081   4.319   2.734 -3.2176 -1.1894  0.2947
 4759SOL    HW225740   1.163   4.405   2.797 -0.8576  1.4326 -2.6674
 4760SOL     OW25741   2.938   4.315   3.056  0.0917  0.5572 -0.3684
 4760SOL    HW125742   2.937   4.367   2.976 -0.3257  0.9223 -0.1221
 4760SOL    HW225743   2.986   4.374   3.114  1.4143 -0.7481 -0.1132
 4761SOL     OW25744   2.357   0.621   8.586  0.7073  0.0688 -0.0307
 4761SOL    HW125745   2.357   0.648   8.678  0.6805 -0.2457  0.0630
 4761SOL    HW225746   2.439   0.572   8.579  0.5741 -0.3083  0.9829
 4762SOL     OW25747   1.221   4.003   8.491 -0.2557  0.7291 -0.1973
 4762SOL    HW125748   1.177   3.925   8.525  0.5435 -1.4472 -4.1516
 4762SOL    HW225749   1.152   4.028   8.430 -0.3932 -0.5607 -0.5722
 4763SOL     OW25750   3.315   4.258   5.987  0.2547  0.3200 -0.5404
 4763SOL    HW125751   3.402   4.232   6.018  0.8608  1.5540 -1.1786
 4763SOL    HW225752   3.305   4.184   5.927  0.5668  1.2091 -1.6757
 4764SOL     OW25753   1.122   2.832  14.098  0.7049  0.2000 -0.1230
 4764SOL    HW125754   1.132   2.796  14.186  0.2946 -0.4930 -0.3531
 4764SOL    HW225755   1.165   2.914  14.120 -0.2078  0.5043  0.4984
 4765SOL     OW25756   3.276   2.839   0.927 -0.1664 -0.5538 -0.2403
 4765SOL    HW125757   3.331   2.810   0.854  1.6183 -0.3034  0.9769
 4765SOL    HW225758   3.280   2.763   0.985  1.9632  0.3824  0.8735
 4766SOL     OW25759   0.905   3.888   6.704  0.3514  0.2221  0.2209
 4766SOL    HW125760   0.991   3.921   6.727  0.3039  0.5839 -0.1140
 4766SOL    HW225761   0.886   3.943   6.628  0.2263  0.2084  0.2417
 4767SOL     OW25762   1.923   4.055   9.092 -0.2871  0.1655  0.2839
 4767SOL    HW125763   1.884   4.022   9.011 -1.0389 -1.1337  1.1833
 4767SOL    HW225764   1.920   3.990   9.162 -1.4041 -0.5140 -0.3979
 4768SOL     OW25765   3.690   1.799   5.308  0.1549 -0.2317 -0.2493
 4768SOL    HW125766   3.651   1.813   5.222  1.1320  0.8010 -0.5231
 4768SOL    HW225767   3.644   1.863   5.362 -1.7276 -1.9836  0.2204
 4769SOL     OW25768   3.601   2.223  14.286 -0.4438 -0.0814  0.0808
 4769SOL    HW125769   3.562   2.148  14.242  1.5518 -0.2280 -1.4662
 4769SOL    HW225770   3.552   2.296  14.249  0.8443  0.8584  0.2118
 4770SOL     OW25771   3.834   1.191  16.055  0.5257  0.5816 -0.6244
 4770SOL    HW125772   3.786   1.222  16.131  1.1634 -1.9373  0.7982
 4770SOL    HW225773   3.767   1.174  15.988  1.3754  0.5774 -1.4736
 4771SOL     OW25774   0.265   3.276   7.334 -0.1509 -0.4678 -0.2052
 4771SOL    HW125775   0.261   3.265   7.429  1.5503  0.7891  0.0095
 4771SOL    HW225776   0.334   3.342   7.330 -2.2741  1.7437 -0.3067
 4772SOL     OW25777   3.256   3.695   2.531  0.5470 -0.5896  0.1666
 4772SOL    HW125778   3.160   3.697   2.532  0.5638  1.4073 -1.9028
 4772SOL    HW225779   3.267   3.649   2.614 -0.6985 -1.1604  0.0215
 4773SOL     OW25780   2.235   1.681  14.450 -0.5561  0.4268  0.1514
 4773SOL    HW125781   2.317   1.726  14.468  0.9816 -2.6307  0.7731
 4773SOL    HW225782   2.267   1.591  14.457 -0.4516  0.5406  1.1653
 4774SOL     OW25783   2.279   1.564   1.435 -0.1654 -0.2402  0.9196
 4774SOL    HW125784   2.349   1.617   1.474 -0.8502  0.1273  1.6423
 4774SOL    HW225785   2.321   1.479   1.442  0.9313  0.2402  0.1149
 4775SOL     OW25786   1.382   3.859  15.272 -0.0427 -0.2369  0.1282
 4775SOL    HW125787   1.324   3.856  15.196  1.2665  2.2268 -0.9707
 4775SOL    HW225788   1.464   3.855  15.222 -0.5722  1.7793 -0.9024
 4776SOL     OW25789   2.072   0.208  15.669 -0.6217 -0.0654  0.3821
 4776SOL    HW125790   2.119   0.254  15.599 -0.5196  0.5202  0.8402
 4776SOL    HW225791   2.077   0.122  15.625  1.3887  0.0783  0.3379
 4777SOL     OW25792   4.472   0.603   1.982  0.2137 -0.1934 -0.3517
 4777SOL    HW125793   4.478   0.654   1.901 -0.3190 -0.5060 -0.5863
 4777SOL    HW225794   4.390   0.641   2.014  1.4375  2.6712 -0.6573
 4778SOL     OW25795   3.372   3.256   0.272  0.6440  0.1068  0.4892
 4778SOL    HW125796   3.372   3.263   0.367 -0.2976 -2.1877  0.6559
 4778SOL    HW225797   3.298   3.314   0.254 -0.6878 -1.8032 -0.2449
 4779SOL     OW25798   1.890   3.586  13.223 -0.7020  0.0883  0.0452
 4779SOL    HW125799   1.841   3.538  13.156  0.4632  0.4710 -1.0671
 4779SOL    HW225800   1.919   3.507  13.268  0.9319 -0.4316 -1.9309
 4780SOL     OW25801   2.872   0.947  15.880  0.5191 -0.4800 -0.0925
 4780SOL    HW125802   2.869   0.959  15.975 -1.0930  1.6295 -0.4131
 4780SOL    HW225803   2.874   1.039  15.856 -0.8581 -0.6461 -0.8368
 4781SOL     OW25804   4.683   1.018   4.654  0.5472  0.0133 -0.1591
 4781SOL    HW125805   4.639   1.103   4.656 -0.8766 -0.7166 -1.0091
 4781SOL    HW225806   4.629   0.964   4.598 -1.1257  2.1221 -0.5871
 4782SOL     OW25807   0.681   0.959  10.428  0.4483  0.5635 -0.2089
 4782SOL    HW125808   0.732   0.905  10.369  1.3761  0.9924  0.2040
 4782SOL    HW225809   0.755   1.003  10.470  0.6303  1.1371 -1.1341
 4783SOL     OW25810   3.680   2.883   5.453  0.2767 -0.0415 -0.1242
 4783SOL    HW125811   3.715   2.973   5.453 -1.4421  0.6166 -0.2339
 4783SOL    HW225812   3.718   2.837   5.528  0.2488  1.6407  0.9480
 4784SOL     OW25813   0.044   3.482  14.779 -0.1316  0.1603  0.0779
 4784SOL    HW125814   0.028   3.425  14.703 -1.6278 -0.0028  0.5073
 4784SOL    HW225815   0.119   3.439  14.821  0.3110  0.0609 -0.8071
 4785SOL     OW25816   3.125   3.036  16.152 -0.4235  0.5296  0.1210
 4785SOL    HW125817   3.143   2.945  16.173 -0.6527  0.2820 -0.7554
 4785SOL    HW225818   3.120   3.037  16.057 -1.1944  1.4806  0.1668
 4786SOL     OW25819   3.415   3.800   2.331 -0.4521 -0.2200 -0.0242
 4786SOL    HW125820   3.348   3.795   2.398 -0.5971  0.7630 -0.0966
 4786SOL    HW225821   3.419   3.893   2.306 -1.8304 -0.6789 -1.9834
 4787SOL     OW25822   2.863   0.308   4.987 -0.6650  0.3491 -0.0158
 4787SOL    HW125823   2.780   0.326   4.943 -0.0911 -1.2592 -1.7430
 4787SOL    HW225824   2.842   0.345   5.072 -1.4111 -2.4506  1.0144
 4788SOL     OW25825   4.308   3.253   8.013  0.0908  0.0124  0.0710
 4788SOL    HW125826   4.367   3.182   8.040  0.5446 -0.2561 -1.5673
 4788SOL    HW225827   4.303   3.303   8.094 -0.6478 -1.5283  0.9745
 4789SOL     OW25828   1.371   0.907   5.493 -0.0470  0.0911 -0.1844
 4789SOL    HW125829   1.323   0.921   5.574 -0.0080 -2.8421  0.3400
 4789SOL    HW225830   1.417   0.828   5.519  0.7725  1.1209  1.5276
 4790SOL     OW25831   0.830   0.734   8.785 -0.2351  0.0845 -0.1136
 4790SOL    HW125832   0.900   0.674   8.810 -0.8703 -0.7121 -0.2499
 4790SOL    HW225833   0.809   0.774   8.870 -0.4124  2.5499 -1.2984
 4791SOL     OW25834   4.452   2.948   2.970 -0.1987 -0.4054 -0.0999
 4791SOL    HW125835   4.436   2.907   3.055 -1.0657 -2.9707 -1.5020
 4791SOL    HW225836   4.547   2.957   2.958  0.2075  1.0034  4.1627
 4792SOL     OW25837   1.816   2.615   8.830  0.3354 -0.5130 -0.2044
 4792SOL    HW125838   1.818   2.550   8.759 -0.8852 -4.0214  2.9611
 4792SOL    HW225839   1.911   2.631   8.830  0.3683 -0.7025 -0.0878
 4793SOL     OW25840   3.616   0.028   3.224  0.4779 -0.3119  0.1709
 4793SOL    HW125841   3.700   4.710   3.223  0.2994 -0.5909 -1.5608
 4793SOL    HW225842   3.566   4.714   3.154 -0.1234  1.4704 -0.4615
 4794SOL     OW25843   0.851   4.607   4.902  0.2478  0.7204  0.1892
 4794SOL    HW125844   0.940   4.609   4.936  0.9144 -1.9770 -1.3610
 4794SOL    HW225845   0.862   4.600   4.807 -0.2463 -0.3526  0.2080
 4795SOL     OW25846   1.999   1.316  10.535 -0.5905  0.2330  0.1229
 4795SOL    HW125847   2.055   1.393  10.539  0.5489 -0.7028  1.9470
 4795SOL    HW225848   1.918   1.343  10.578 -0.1984  0.2044  0.8716
 4796SOL     OW25849   2.770   4.052  14.232  0.0258  0.4270  0.3513
 4796SOL    HW125850   2.772   3.991  14.158 -0.3511  0.0883  0.6192
 4796SOL    HW225851   2.860   4.085  14.237  0.5184 -0.1981 -4.2683
 4797SOL     OW25852   1.546   2.210  10.112 -0.6982  0.0006 -0.0048
 4797SOL    HW125853   1.627   2.228  10.063  0.4356 -2.1911  1.0416
 4797SOL    HW225854   1.575   2.213  10.204 -1.7238  0.1848  0.3126
 4798SOL     OW25855   3.822   0.737   8.141  0.0171 -0.3300 -0.8389
 4798SOL    HW125856   3.734   0.699   8.132 -0.0405 -0.3503 -0.2436
 4798SOL    HW225857   3.810   0.818   8.190  0.7955 -1.7926  1.8332
 4799SOL     OW25858   3.363   3.914  10.113 -0.1715  0.1914 -0.2651
 4799SOL    HW125859   3.374   3.828  10.154  0.4826  0.5227  0.2629
 4799SOL    HW225860   3.445   3.949  10.149 -1.0672  0.9089  1.0983
 4800SOL     OW25861   2.912   0.936   5.495 -0.1359  0.0448 -0.1317
 4800SOL    HW125862   2.842   0.980   5.447 -0.5988 -1.4582 -0.8632
 4800SOL    HW225863   2.899   0.959   5.587  1.8963  2.0206 -0.3506
 4801SOL     OW25864   4.694   2.195   5.434  0.2001 -0.3055  0.2375
 4801SOL    HW125865   4.725   2.105   5.430  1.0092 -0.0112 -0.2043
 4801SOL    HW225866   0.006   2.242   5.360 -2.6848  2.9364  0.7612
 4802SOL     OW25867   1.492   4.637   1.998  0.3556 -0.2295  0.1709
 4802SOL    HW125868   1.433   4.684   1.939  0.8972  0.6014  0.2883
 4802SOL    HW225869   1.558   4.609   1.934  1.2823  2.3856 -0.0215
 4803SOL     OW25870   3.421   2.756  14.073  0.5962  0.2959  0.3362
 4803SOL    HW125871   3.435   2.662  14.062 -1.3818  0.0114  0.2860
 4803SOL    HW225872   3.398   2.758  14.166  1.3224  2.6092  0.4657
 4804SOL     OW25873   1.231   4.293   9.681  0.2714 -0.2162 -0.0614
 4804SOL    HW125874   1.266   4.227   9.622  0.6949  0.7702 -0.9102
 4804SOL    HW225875   1.165   4.240   9.725  0.0126  0.4490  0.3609
 4805SOL     OW25876   1.571   0.330   5.120 -0.8746 -0.0539 -0.0202
 4805SOL    HW125877   1.580   0.347   5.214 -0.6637  1.7219 -0.3714
 4805SOL    HW225878   1.517   0.404   5.093  1.8901  1.2735 -1.9448
 4806SOL     OW25879   2.489   2.144  16.645 -0.3775  0.4681  0.5893
 4806SOL    HW125880   2.428   2.217  16.656 -0.0276  0.5609  1.9114
 4806SOL    HW225881   2.426   2.075  16.628  0.7363 -0.1812 -0.9104
 4807SOL     OW25882   3.242   2.397   6.456 -0.3085  0.3440 -0.6401
 4807SOL    HW125883   3.325   2.350   6.449 -1.3392 -1.4733 -0.6325
 4807SOL    HW225884   3.199   2.351   6.527 -1.0086  0.2737 -1.1127
 4808SOL     OW25885   0.103   3.822   0.112  0.3416 -0.0371  0.0893
 4808SOL    HW125886   0.155   3.897   0.143  1.1769 -1.4989  2.2173
 4808SOL    HW225887   0.169   3.766   0.072  0.0957 -0.1873 -0.1070
 4809SOL     OW25888   0.332   1.951   4.308 -0.3987 -0.6970 -0.2524
 4809SOL    HW125889   0.342   2.041   4.338 -1.3738 -0.8419  0.5069
 4809SOL    HW225890   0.408   1.916   4.355  1.1467  0.2583 -2.0393
 4810SOL     OW25891   1.851   1.580   8.886  0.4532  0.5081 -0.2688
 4810SOL    HW125892   1.858   1.523   8.963  0.5256  2.1195  0.9210
 4810SOL    HW225893   1.937   1.621   8.891 -0.3952  2.0903  1.2821
 4811SOL     OW25894   3.012   3.274   4.478 -0.0362  0.3862  0.2923
 4811SOL    HW125895   2.947   3.339   4.451  1.1559  0.0423 -3.3321
 4811SOL    HW225896   3.094   3.318   4.457  0.6781 -0.2509  1.7248
 4812SOL     OW25897   0.798   2.973  12.030  0.0355 -0.2194 -0.0332
 4812SOL    HW125898   0.764   3.055  12.065  0.0853 -0.3762  0.3815
 4812SOL    HW225899   0.804   2.915  12.107 -0.1290 -0.3243 -0.0990
 4813SOL     OW25900   4.297   1.335  16.494  0.3911 -0.1279  0.0572
 4813SOL    HW125901   4.289   1.298  16.406  1.4282  1.3520 -0.6564
 4813SOL    HW225902   4.375   1.389  16.483 -0.0852  1.1533  3.1752
 4814SOL     OW25903   1.341   2.078   1.591 -0.3474 -0.0556  0.3130
 4814SOL    HW125904   1.310   2.134   1.520 -0.0871 -0.1405  0.1332
 4814SOL    HW225905   1.395   2.023   1.534  0.0161  0.2598  0.3598
 4815SOL     OW25906   3.611   2.818   8.823  0.2104 -0.0127  0.3943
 4815SOL    HW125907   3.700   2.786   8.833  0.0516 -0.4045  0.5639
 4815SOL    HW225908   3.570   2.791   8.905  0.1563  2.7819  1.2586
 4816SOL     OW25909   3.793   0.363   7.021  0.4595  0.0842  0.4525
 4816SOL    HW125910   3.856   0.294   7.003  0.7970 -0.2631  2.8808
 4816SOL    HW225911   3.845   0.442   7.030  1.0013 -0.3605  1.2315
 4817SOL     OW25912   3.019   3.966   9.890  0.0009  0.2346 -0.2316
 4817SOL    HW125913   2.942   3.959   9.833  3.2332 -1.9092 -4.3944
 4817SOL    HW225914   2.985   4.010   9.967  2.2186  0.9816  0.3212
 4818SOL     OW25915   0.788   1.911   7.617  0.6364  0.0306 -0.0615
 4818SOL    HW125916   0.776   2.006   7.623 -0.2969 -0.0542 -0.6944
 4818SOL    HW225917   0.873   1.909   7.572 -0.4799 -0.3144 -2.1474
 4819SOL     OW25918   1.123   3.349   2.132  0.0994 -0.1975 -0.0091
 4819SOL    HW125919   1.162   3.434   2.153  0.5399 -0.3814 -0.0854
 4819SOL    HW225920   1.040   3.368   2.088  0.0950 -3.0428 -1.1975
 4820SOL     OW25921   0.018   0.474   4.237 -0.3515 -0.2616 -0.0438
 4820SOL    HW125922   4.726   0.523   4.317 -2.1013  1.0928 -1.2940
 4820SOL    HW225923   0.101   0.512   4.208 -0.1854 -0.3190  0.3594
 4821SOL     OW25924   0.492   1.976   3.176  0.1302 -0.0746  0.9983
 4821SOL    HW125925   0.514   1.978   3.083  1.7986 -2.0226  1.3409
 4821SOL    HW225926   0.476   2.069   3.193 -2.4251 -0.8677  2.8517
 4822SOL     OW25927   3.682   0.222  12.637 -0.1660 -0.2520 -0.2921
 4822SOL    HW125928   3.635   0.286  12.583 -1.7809 -1.8281 -0.7325
 4822SOL    HW225929   3.708   0.274  12.713 -0.0145 -0.5081 -0.1699
 4823SOL     OW25930   4.121   0.986   3.090  0.0018 -0.5515 -0.6205
 4823SOL    HW125931   4.112   1.032   3.173 -1.7015 -0.0477 -1.0933
 4823SOL    HW225932   4.147   0.898   3.119 -0.7391 -0.6679 -0.3024
 4824SOL     OW25933   0.861   2.393  17.385 -0.8127 -0.4324 -0.1463
 4824SOL    HW125934   0.838   2.333  17.456 -0.5227 -0.7621 -0.3323
 4824SOL    HW225935   0.882   2.472  17.434  0.1162 -1.7309  1.5618
 4825SOL     OW25936   1.715   0.906  12.898 -0.6103 -0.4591 -0.6605
 4825SOL    HW125937   1.704   0.862  12.982  0.0588  0.2376 -0.2120
 4825SOL    HW225938   1.635   0.878  12.854 -1.6011  1.5608 -0.1499
 4826SOL     OW25939   0.189   4.037   9.688  0.2459 -0.0670 -0.3671
 4826SOL    HW125940   0.135   4.000   9.617 -1.1468  0.1561  0.5728
 4826SOL    HW225941   0.159   4.127   9.697 -1.3851 -0.4664 -1.6273
 4827SOL     OW25942   1.137   1.126   7.349 -0.3583  0.0250  0.1577
 4827SOL    HW125943   1.075   1.190   7.314  0.1356  0.1351 -0.5129
 4827SOL    HW225944   1.177   1.171   7.423  0.5646  0.5769 -0.6707
 4828SOL     OW25945   0.807   3.894  11.409 -0.1181  0.1668 -0.0493
 4828SOL    HW125946   0.902   3.902  11.408 -0.0473 -0.4373  2.1708
 4828SOL    HW225947   0.798   3.799  11.414 -1.8215  0.5408  4.0775
 4829SOL     OW25948   3.176   0.863   7.851 -0.2536 -0.2291  0.5318
 4829SOL    HW125949   3.249   0.836   7.906 -1.2343 -1.4050  1.2473
 4829SOL    HW225950   3.096   0.836   7.896 -0.7902 -0.9660 -0.8569
 4830SOL     OW25951   4.263   4.197  11.909 -0.2745 -0.4250 -0.5541
 4830SOL    HW125952   4.215   4.169  11.830 -1.7895 -1.9524  0.9046
 4830SOL    HW225953   4.321   4.123  11.927 -0.6148 -0.8697 -1.2557
 4831SOL     OW25954   0.655   3.254   7.004  0.2004 -0.7167 -0.1897
 4831SOL    HW125955   0.685   3.276   7.093 -0.1880 -0.9292 -0.0049
 4831SOL    HW225956   0.683   3.336   6.964  0.4095  0.0087  1.4024
 4832SOL     OW25957   1.810   3.779   4.090  0.0840 -0.4965  0.0843
 4832SOL    HW125958   1.754   3.742   4.159  1.2493  0.1129  1.3591
 4832SOL    HW225959   1.894   3.735   4.105 -0.3044 -0.8858  1.1306
 4833SOL     OW25960   0.548   1.306  17.661 -0.0714  0.3962  0.0208
 4833SOL    HW125961   0.611   1.367  17.621  0.0286 -1.0458 -1.9875
 4833SOL    HW225962   0.465   1.353  17.664 -0.6695 -0.4170 -4.6536
 4834SOL     OW25963   1.209   1.552   7.440  0.3534  0.3270  0.0603
 4834SOL    HW125964   1.237   1.529   7.351  0.5511  0.6356  0.0428
 4834SOL    HW225965   1.289   1.601   7.459  0.6234 -0.9060  2.0876
 4835SOL     OW25966   0.355   0.421   3.813  0.4121 -0.2067 -0.3361
 4835SOL    HW125967   0.299   0.490   3.775  1.3302  0.5780 -0.2700
 4835SOL    HW225968   0.439   0.467   3.815 -0.4566  1.3805  0.3957
 4836SOL     OW25969   2.145   3.664   2.965  0.0263  0.1036 -0.0325
 4836SOL    HW125970   2.054   3.635   2.954  0.1073  0.4730 -1.6152
 4836SOL    HW225971   2.194   3.589   2.932  1.6146 -0.0445  2.6317
 4837SOL     OW25972   3.418   4.162   4.563 -0.1274 -0.0263  0.3776
 4837SOL    HW125973   3.446   4.168   4.654  0.3369 -0.7626  0.2834
 4837SOL    HW225974   3.329   4.129   4.578  0.1130 -1.7358 -1.9653
 4838SOL     OW25975   3.082   0.592   6.561 -0.3067 -0.9049 -0.1667
 4838SOL    HW125976   3.051   0.681   6.577  0.0838 -0.7182 -0.4391
 4838SOL    HW225977   3.136   0.597   6.482 -1.4634  0.1829 -0.8976
 4839SOL     OW25978   3.252   0.219   1.347  0.2384  0.0475 -0.1303
 4839SOL    HW125979   3.292   0.251   1.267 -1.1861  1.2926 -0.3429
 4839SOL    HW225980   3.281   0.289   1.405  0.9328  0.1010 -0.5463
 4840SOL     OW25981   4.095   2.255   5.650  0.2346  0.5132 -0.2921
 4840SOL    HW125982   4.113   2.233   5.559 -1.4667 -0.8235 -0.3166
 4840SOL    HW225983   4.004   2.224   5.658  0.8823 -1.6112 -0.9897
 4841SOL     OW25984   2.471   1.415   0.741  0.8592 -1.0569  0.5160
 4841SOL    HW125985   2.431   1.331   0.718  2.4581 -1.1686 -1.8997
 4841SOL    HW225986   2.458   1.428   0.835  0.5881 -2.5358  0.6906
 4842SOL     OW25987   0.370   0.497   3.494  1.0671 -0.4220  0.0666
 4842SOL    HW125988   0.279   0.488   3.524  2.2295 -0.1762  3.6389
 4842SOL    HW225989   0.370   0.466   3.404 -1.9516  0.0911 -0.1099
 4843SOL     OW25990   2.478   3.646  11.940  0.4496  0.0332 -0.3421
 4843SOL    HW125991   2.476   3.740  11.922  1.5201  0.0287 -0.5005
 4843SOL    HW225992   2.553   3.619  11.888 -1.0346 -1.0038 -1.9368
 4844SOL     OW25993   2.957   3.854   8.236 -0.5377  0.3785  0.3333
 4844SOL    HW125994   2.888   3.912   8.269  0.2593  0.7867  1.2928
 4844SOL    HW225995   2.907   3.776   8.212 -0.6788  0.5388  0.1041
 4845SOL     OW25996   3.589   0.644   7.448  0.1536  0.1129 -0.0034
 4845SOL    HW125997   3.670   0.598   7.472 -1.0914 -2.1648 -0.1254
 4845SOL    HW225998   3.604   0.720   7.504 -0.2456 -0.0228  0.2919
 4846SOL     OW25999   3.069   4.677   2.221  0.0500 -0.2433  0.1318
 4846SOL    HW126000   2.988   4.669   2.171 -0.5235  3.5503  0.4408
 4846SOL    HW226001   3.132   4.646   2.156  0.4588 -0.9009  0.8460
 4847SOL     OW26002   3.299   2.079   2.444  0.0455  0.1008 -0.1378
 4847SOL    HW126003   3.229   2.123   2.395 -0.9374 -1.6221 -0.2839
 4847SOL    HW226004   3.375   2.087   2.387  0.7315 -1.7102  0.5207
 4848SOL     OW26005   3.295   1.388   6.636 -0.3196  0.1703 -0.2985
 4848SOL    HW126006   3.207   1.411   6.607 -1.0098 -2.7755 -0.5836
 4848SOL    HW226007   3.284   1.378   6.731  2.9860 -0.5962  0.0280
 4849SOL     OW26008   3.496   0.821   9.650  0.2706 -0.0467  0.0448
 4849SOL    HW126009   3.426   0.885   9.638 -0.0865 -0.6195 -0.9937
 4849SOL    HW226010   3.464   0.747   9.597 -3.2706  0.8386  0.9610
 4850SOL     OW26011   0.984   2.126   2.106  0.2232 -0.6852 -0.6511
 4850SOL    HW126012   0.988   2.206   2.054 -1.3055 -0.1855  0.0164
 4850SOL    HW226013   0.968   2.056   2.043 -1.2067 -1.2552  0.3357
 4851SOL     OW26014   4.618   0.521   6.298  0.4277 -0.1990  0.4695
 4851SOL    HW126015   4.550   0.527   6.231 -4.1136  0.1119  5.1374
 4851SOL    HW226016   4.665   0.599   6.270  1.4903 -0.5296  1.3008
 4852SOL     OW26017   3.541   1.421   3.504 -0.3897  0.2215  0.0492
 4852SOL    HW126018   3.449   1.404   3.488  0.2165 -0.9893 -2.1111
 4852SOL    HW226019   3.546   1.515   3.485 -1.6810 -0.2539 -2.6380
 4853SOL     OW26020   0.144   2.753  14.256 -0.1438 -0.1592  0.2730
 4853SOL    HW126021   0.184   2.835  14.283  1.0302 -1.3551  2.1760
 4853SOL    HW226022   0.135   2.705  14.338 -0.7254  1.9340  1.4488
 4854SOL     OW26023   1.634   2.314  10.341 -0.1977  0.2849 -0.2921
 4854SOL    HW126024   1.553   2.363  10.328 -0.1675  0.0019 -1.5165
 4854SOL    HW226025   1.683   2.367  10.405 -0.8275  1.0915 -0.4768
 4855SOL     OW26026   2.577   3.049   6.836  0.1737  0.3119 -0.1779
 4855SOL    HW126027   2.498   3.079   6.881  0.4084  0.5207  0.0947
 4855SOL    HW226028   2.615   3.132   6.806  1.1656 -0.8005 -2.0205
 4856SOL     OW26029   2.316   3.566  13.252  0.6257  0.1408 -0.3380
 4856SOL    HW126030   2.295   3.509  13.178  1.2322 -1.2468  0.5725
 4856SOL    HW226031   2.381   3.518  13.304 -0.4343  0.9866  1.7590
 4857SOL     OW26032   4.559   3.584   2.032 -0.3085  0.2267  0.1295
 4857SOL    HW126033   4.549   3.611   1.941 -2.0116 -0.5279  0.0970
 4857SOL    HW226034   4.557   3.669   2.076  0.1001 -0.1188  0.8270
 4858SOL     OW26035   2.874   1.051  16.131 -0.4113 -1.2532 -0.1430
 4858SOL    HW126036   2.966   1.075  16.144  0.1564 -1.8502 -3.1679
 4858SOL    HW226037   2.834   1.138  16.138  0.7318 -0.4909 -3.2416
 4859SOL     OW26038   3.691   4.467   2.059 -0.0653  0.1519  0.1326
 4859SOL    HW126039   3.604   4.437   2.033 -0.1311 -0.0926  0.6425
 4859SOL    HW226040   3.753   4.411   2.013 -0.9705 -1.9814  1.4944
 4860SOL     OW26041   0.423   4.411  17.120 -0.1589 -0.0596  0.4248
 4860SOL    HW126042   0.359   4.448  17.060 -1.5638 -2.6961  0.2687
 4860SOL    HW226043   0.442   4.482  17.181 -1.6493 -1.4865  2.5628
 4861SOL     OW26044   4.696   1.925  15.502 -0.2760  0.3060 -0.0562
 4861SOL    HW126045   4.661   1.851  15.552  1.8756  0.7050  2.0743
 4861SOL    HW226046   4.619   1.980  15.489 -1.1575 -1.6035 -2.8029
 4862SOL     OW26047   2.847   3.231   5.660  0.5235 -0.0491 -0.3268
 4862SOL    HW126048   2.813   3.157   5.610 -0.6256  0.5662 -0.4413
 4862SOL    HW226049   2.773   3.268   5.708  0.3972 -0.9556  0.1846
 4863SOL     OW26050   3.323   3.237  11.717 -0.4950 -0.0020 -0.0531
 4863SOL    HW126051   3.320   3.179  11.640 -2.4510  1.1063 -0.8064
 4863SOL    HW226052   3.229   3.241  11.734 -0.5567  0.7738 -0.5721
 4864SOL     OW26053   3.809   4.194   5.279  0.2545 -0.1557  0.6498
 4864SOL    HW126054   3.761   4.129   5.330 -0.7109  2.1778  2.7331
 4864SOL    HW226055   3.743   4.257   5.251 -0.7546  0.4390  4.2902
 4865SOL     OW26056   0.628   3.157   6.361 -0.9785  1.3766  0.8471
 4865SOL    HW126057   0.695   3.091   6.346 -1.6241  0.5822  1.4519
 4865SOL    HW226058   0.680   3.227   6.400  0.8696 -0.8979  2.4636
 4866SOL     OW26059   3.302   1.979  15.154  0.0115 -0.1924 -0.5213
 4866SOL    HW126060   3.207   1.974  15.162  0.0742  1.6072  1.3261
 4866SOL    HW226061   3.324   2.072  15.159 -0.1776 -0.2382  1.2623
 4867SOL     OW26062   2.535   3.655  14.161 -0.3848 -0.2707  0.0147
 4867SOL    HW126063   2.599   3.585  14.167  0.4904  0.5581  0.4063
 4867SOL    HW226064   2.526   3.684  14.251 -0.8610  0.8076 -0.3716
 4868SOL     OW26065   3.590   2.311   4.979  0.2059  0.0649 -0.3242
 4868SOL    HW126066   3.649   2.304   5.054  0.4676  0.5296 -0.4880
 4868SOL    HW226067   3.523   2.372   5.012  1.4637  0.1010  2.2034
 4869SOL     OW26068   2.766   2.453   4.982 -0.7957 -0.6928 -0.5591
 4869SOL    HW126069   2.754   2.548   4.986  0.4856 -0.5690  0.4138
 4869SOL    HW226070   2.786   2.424   5.071 -0.5046 -0.5321 -0.5706
 4870SOL     OW26071   3.456   3.998   1.520  0.2367 -0.2951 -0.2538
 4870SOL    HW126072   3.471   3.979   1.427 -0.5126  0.1433 -0.4701
 4870SOL    HW226073   3.438   4.092   1.516  2.1979  0.0668 -0.7667
 4871SOL     OW26074   1.314   4.429   8.922  0.0255  0.0245  0.0820
 4871SOL    HW126075   1.240   4.449   8.865 -1.6451  1.7893  2.8591
 4871SOL    HW226076   1.364   4.383   8.856  0.0361  0.5704 -0.2862
 4872SOL     OW26077   0.424   3.861  11.247  0.2517 -0.2427 -0.2558
 4872SOL    HW126078   0.430   3.955  11.230  2.0208  0.0813  2.1568
 4872SOL    HW226079   0.340   3.843  11.204 -0.5452 -0.4360  1.3629
 4873SOL     OW26080   1.472   3.065   2.962 -0.4386  0.6082  0.1842
 4873SOL    HW126081   1.475   3.023   3.048 -1.0941  0.2622  0.0372
 4873SOL    HW226082   1.491   2.988   2.909 -0.5113  0.1418  0.8390
 4874SOL     OW26083   1.039   3.924  17.478 -0.2125 -0.1166  0.0494
 4874SOL    HW126084   1.035   4.009  17.521 -1.9914  0.3245 -1.0127
 4874SOL    HW226085   0.949   3.917  17.447  0.1618 -0.3881 -0.9680
 4875SOL     OW26086   0.948   4.266  10.381 -0.4761  0.6328 -0.5424
 4875SOL    HW126087   0.976   4.174  10.382  0.0572  0.8132  0.6976
 4875SOL    HW226088   1.027   4.303  10.341 -0.4654  1.1829 -0.0127
 4876SOL     OW26089   3.245   1.349   7.405 -0.3488 -0.1331 -0.5292
 4876SOL    HW126090   3.196   1.355   7.487 -1.1403  1.2036 -1.1024
 4876SOL    HW226091   3.219   1.261   7.381 -0.2768 -0.1003 -0.7303
 4877SOL     OW26092   2.738   1.895   7.509  0.6062  0.4690 -0.3261
 4877SOL    HW126093   2.747   1.800   7.498  0.7348  0.3296  1.0011
 4877SOL    HW226094   2.691   1.915   7.428  1.6023 -1.3233 -1.3259
 4878SOL     OW26095   2.303   1.358   3.275  0.1353 -0.0636  0.4596
 4878SOL    HW126096   2.238   1.427   3.282 -0.3654 -0.3708 -1.1057
 4878SOL    HW226097   2.260   1.283   3.315  0.7094 -1.0274 -0.7221
 4879SOL     OW26098   0.289   1.112  10.009 -0.2001 -0.3361  0.1530
 4879SOL    HW126099   0.194   1.101  10.007 -0.2777  0.5027 -0.3320
 4879SOL    HW226100   0.293   1.203   9.982  1.8050 -0.0684  1.4043
 4880SOL     OW26101   2.359   2.894  12.637 -0.7982  0.4066 -0.4934
 4880SOL    HW126102   2.453   2.875  12.630 -0.8554  0.0081 -0.2208
 4880SOL    HW226103   2.356   2.925  12.728 -0.6484 -0.9682 -0.0167
 4881SOL     OW26104   3.354   2.469  17.097 -0.0604  0.6019 -0.5641
 4881SOL    HW126105   3.300   2.389  17.097 -0.9549  1.2011 -0.5468
 4881SOL    HW226106   3.289   2.529  17.060 -1.7490 -0.7258  0.2124
 4882SOL     OW26107   2.750   1.370  17.113  0.7372 -0.4116 -0.4039
 4882SOL    HW126108   2.750   1.375  17.208 -0.4538  0.1365 -0.4357
 4882SOL    HW226109   2.691   1.296  17.097  0.9532 -0.8253  0.7270
 4883SOL     OW26110   2.036   4.132   2.857  0.3629 -1.1717  0.3079
 4883SOL    HW126111   2.086   4.055   2.830 -1.4655 -2.3930  0.4281
 4883SOL    HW226112   1.952   4.099   2.827  0.0917  0.4364 -0.6806
 4884SOL     OW26113   0.178   0.860   8.697  0.8477  0.2297  0.4770
 4884SOL    HW126114   0.262   0.890   8.663  0.7630  0.4768  0.4853
 4884SOL    HW226115   0.166   0.931   8.760  2.0935  0.6123  0.2688
 4885SOL     OW26116   3.715   3.346  12.311 -0.3121 -0.0734 -0.5653
 4885SOL    HW126117   3.725   3.251  12.325 -2.1632  0.1006  2.1029
 4885SOL    HW226118   3.633   3.331  12.264 -1.5761  0.4448  1.4641
 4886SOL     OW26119   3.909   4.677   3.458 -0.1909 -0.1502  0.1221
 4886SOL    HW126120   3.849   0.009   3.502 -1.8661 -1.9985  0.3493
 4886SOL    HW226121   3.845   4.607   3.444 -0.4459  0.0454  0.3284
 4887SOL     OW26122   4.300   2.971  11.284 -0.2047 -0.0833  0.2891
 4887SOL    HW126123   4.302   2.949  11.191 -0.8916 -0.1784  0.3006
 4887SOL    HW226124   4.389   3.005  11.293  0.5049 -2.2604  1.3746
 4888SOL     OW26125   3.370   0.209  12.381  0.4162  0.4198  0.4193
 4888SOL    HW126126   3.430   0.139  12.354 -2.2126 -1.6945  0.0176
 4888SOL    HW226127   3.434   0.272  12.413  1.6150 -0.6416  0.1092
 4889SOL     OW26128   3.665   2.537   7.016  0.1873 -0.1619 -0.1173
 4889SOL    HW126129   3.673   2.618   7.065 -0.5649  1.1030 -2.1059
 4889SOL    HW226130   3.755   2.520   6.986  0.5322  3.1798 -0.8803
 4890SOL     OW26131   4.293   2.786   2.044  0.1564  0.1379  0.4628
 4890SOL    HW126132   4.307   2.781   2.139  0.8664 -1.8075  0.2391
 4890SOL    HW226133   4.332   2.703   2.020  1.5469  0.9354 -0.0340
 4891SOL     OW26134   1.190   1.561   2.782 -0.2482 -0.1445  0.1056
 4891SOL    HW126135   1.168   1.566   2.689  0.1132  1.6767  0.1189
 4891SOL    HW226136   1.108   1.522   2.812 -0.4384  0.4984  0.4359
 4892SOL     OW26137   3.495   1.160   7.155 -0.2129 -0.3080  0.2192
 4892SOL    HW126138   3.559   1.178   7.086  0.0743 -2.0863 -0.0019
 4892SOL    HW226139   3.479   1.247   7.189 -0.1581 -0.5681  0.9115
 4893SOL     OW26140   1.725   4.218  12.920  0.1663  0.3948  0.5466
 4893SOL    HW126141   1.804   4.165  12.924 -1.5759 -2.3196 -1.3753
 4893SOL    HW226142   1.749   4.279  12.850 -1.4948  1.9423  1.3084
 4894SOL     OW26143   4.229   3.139   3.018 -0.2886  0.2600  0.3925
 4894SOL    HW126144   4.319   3.114   2.997 -0.2453  1.5880 -0.9867
 4894SOL    HW226145   4.205   3.065   3.075  0.2036  0.6178  1.0542
 4895SOL     OW26146   0.721   4.443  10.361 -0.4648 -0.1101  0.0727
 4895SOL    HW126147   0.764   4.528  10.350  1.1393 -0.9035  0.2155
 4895SOL    HW226148   0.785   4.377  10.387  0.0186 -0.2955 -1.5372
 4896SOL     OW26149   1.342   3.303  14.305  0.2820 -0.3025 -0.0475
 4896SOL    HW126150   1.300   3.377  14.348  1.0129 -0.0517  0.2375
 4896SOL    HW226151   1.410   3.273  14.365 -0.1538 -0.8673  0.1614
 4897SOL     OW26152   3.140   2.991  11.516 -0.4484  0.1641  0.6395
 4897SOL    HW126153   3.181   2.968  11.599  0.3755 -0.1121  0.1496
 4897SOL    HW226154   3.181   3.077  11.508  0.3726 -0.3377 -0.5436
 4898SOL     OW26155   1.423   0.138   9.565  0.1755 -0.2366  0.8131
 4898SOL    HW126156   1.489   0.198   9.600  0.9282  0.4234 -1.7480
 4898SOL    HW226157   1.355   0.165   9.626 -0.6971 -1.2106  0.2717
 4899SOL     OW26158   1.367   4.193  17.619 -0.0498 -0.4367 -0.4387
 4899SOL    HW126159   1.437   4.150  17.668 -0.7472 -1.1586 -0.0768
 4899SOL    HW226160   1.319   4.116  17.588  1.7305 -1.7824  0.1504
 4900SOL     OW26161   2.081   2.136  14.350  0.1719  0.3091  0.0112
 4900SOL    HW126162   2.105   2.182  14.269  1.6510 -2.1068 -0.9213
 4900SOL    HW226163   2.003   2.181  14.384 -0.3920  0.3779 -1.3580
 4901SOL     OW26164   2.163   4.068   5.367  0.3914  0.2511  0.0788
 4901SOL    HW126165   2.129   4.007   5.301  1.2189 -0.3116  0.1718
 4901SOL    HW226166   2.197   4.137   5.311  0.9603  0.1443  0.2929
 4902SOL     OW26167   1.968   3.650   9.060  0.0706  0.1876  0.0090
 4902SOL    HW126168   1.897   3.586   9.063 -1.7829  2.2640  0.3076
 4902SOL    HW226169   1.936   3.734   9.094 -1.5650  0.0610 -1.2061
 4903SOL     OW26170   4.235   2.982   5.175 -0.1918  0.0206 -0.1273
 4903SOL    HW126171   4.182   2.906   5.201 -1.2236  1.6105  2.4439
 4903SOL    HW226172   4.318   2.935   5.171 -1.2536 -1.9716  0.9987
 4904SOL     OW26173   3.901   0.373  17.426  0.5755 -0.5400  0.0527
 4904SOL    HW126174   3.891   0.301  17.364  0.1698 -1.6054  1.3559
 4904SOL    HW226175   3.902   0.317  17.503 -0.7143  2.4913  2.2544
 4905SOL     OW26176   3.796   0.890  14.738  0.1981  0.4771  0.1428
 4905SOL    HW126177   3.888   0.918  14.732 -0.0066  0.9374 -0.7527
 4905SOL    HW226178   3.791   0.824  14.669 -1.1507 -0.5854  1.2489
 4906SOL     OW26179   2.238   0.944  13.311  0.8985 -0.2093 -0.1770
 4906SOL    HW126180   2.199   1.032  13.316 -1.5714 -1.1748 -2.8457
 4906SOL    HW226181   2.214   0.905  13.395  0.9220  1.7342  0.7580
 4907SOL     OW26182   4.377   3.169   2.601  0.3357 -0.1277 -0.4239
 4907SOL    HW126183   4.454   3.206   2.644  0.8401 -0.0951 -1.3478
 4907SOL    HW226184   4.401   3.180   2.509  1.0710  2.2632  0.0509
 4908SOL     OW26185   1.818   1.641  12.144 -0.3574  0.5156  0.6046
 4908SOL    HW126186   1.847   1.550  12.139  0.1327  0.5800  2.2443
 4908SOL    HW226187   1.819   1.659  12.238  0.3533  1.1213  0.4826
 4909SOL     OW26188   2.215   0.998   0.471  0.6082 -0.0758 -0.0261
 4909SOL    HW126189   2.306   0.984   0.495  0.7202  2.3297  0.9973
 4909SOL    HW226190   2.223   1.057   0.396 -0.2579 -0.9767 -0.8193
 4910SOL     OW26191   2.511   1.396   8.358  0.2016  0.2606  0.3257
 4910SOL    HW126192   2.513   1.449   8.438 -1.9394  2.9390 -1.3940
 4910SOL    HW226193   2.598   1.420   8.329  0.4482 -1.0341 -0.0133
 4911SOL     OW26194   0.593   0.523  12.381 -0.4051 -0.1694  0.0044
 4911SOL    HW126195   0.612   0.484  12.466  0.9609  2.1697  0.7798
 4911SOL    HW226196   0.509   0.562  12.408  0.1073  1.8149 -1.2562
 4912SOL     OW26197   1.499   2.827  14.889 -0.3541 -0.2323 -0.1075
 4912SOL    HW126198   1.465   2.878  14.816 -1.1387 -0.1918  0.2860
 4912SOL    HW226199   1.518   2.899  14.949 -0.7890 -1.1087  1.0900
 4913SOL     OW26200   3.065   3.846   5.314 -0.1412 -0.2516 -0.1894
 4913SOL    HW126201   3.026   3.764   5.284  0.2307 -0.8399  0.9479
 4913SOL    HW226202   3.024   3.910   5.255 -2.0709 -1.6329 -0.3149
 4914SOL     OW26203   0.963   1.164   1.557 -0.1298 -0.2614  0.1115
 4914SOL    HW126204   1.032   1.125   1.611  0.2083  1.2361  0.7565
 4914SOL    HW226205   0.993   1.148   1.467  0.4830  2.2620 -0.1459
 4915SOL     OW26206   1.342   1.403   8.142  0.5116  0.1827 -0.4512
 4915SOL    HW126207   1.269   1.416   8.082 -1.4712 -2.5590  1.3613
 4915SOL    HW226208   1.335   1.470   8.211 -0.9440 -1.4468  0.9517
 4916SOL     OW26209   3.558   0.830   9.335 -0.1367  0.0036  0.6094
 4916SOL    HW126210   3.601   0.827   9.249 -3.1315  0.6947 -0.9032
 4916SOL    HW226211   3.467   0.816   9.311  0.1319 -1.8634  0.6941
 4917SOL     OW26212   3.763   2.059  13.218  0.1177  0.1870  0.7169
 4917SOL    HW126213   3.797   2.131  13.165  0.0819 -0.3682 -0.0532
 4917SOL    HW226214   3.716   2.004  13.156 -0.9194 -0.0763  1.7281
 4918SOL     OW26215   3.839   1.291   8.124  0.0570  0.1426  0.5598
 4918SOL    HW126216   3.785   1.339   8.062 -0.4112 -1.0457  0.0564
 4918SOL    HW226217   3.778   1.300   8.196 -1.5222 -3.0979 -0.3727
 4919SOL     OW26218   0.957   3.144   0.646 -0.3004 -0.5835 -0.3233
 4919SOL    HW126219   0.880   3.191   0.679  0.1484  1.4588 -2.1749
 4919SOL    HW226220   0.918   3.082   0.583  0.4912  0.0413 -1.4361
 4920SOL     OW26221   2.981   2.563   4.539  0.2527  0.1270 -0.0784
 4920SOL    HW126222   3.074   2.583   4.522  0.2043  0.7367  0.3564
 4920SOL    HW226223   2.963   2.647   4.582 -3.1958 -0.8474  0.3740
 4921SOL     OW26224   0.827   4.118   4.797  0.3234 -0.0999  0.0727
 4921SOL    HW126225   0.762   4.182   4.827 -0.1474 -0.0971 -0.9623
 4921SOL    HW226226   0.851   4.075   4.879  0.3721 -1.8142 -0.8405
 4922SOL     OW26227   1.662   2.783   3.431  0.0184  0.3002 -0.0473
 4922SOL    HW126228   1.671   2.847   3.360  0.7506  1.2922  0.9514
 4922SOL    HW226229   1.603   2.721   3.387  0.7917 -0.5541  0.1136
 4923SOL     OW26230   0.919   3.003  15.223  0.4030 -0.0649  0.4189
 4923SOL    HW126231   0.835   3.041  15.247 -0.0442  0.7084 -2.4448
 4923SOL    HW226232   0.896   2.934  15.161 -0.9122  1.6205 -0.9420
 4924SOL     OW26233   2.740   1.643   1.351 -0.3022 -0.4046 -0.0812
 4924SOL    HW126234   2.671   1.685   1.299 -1.0864 -2.2368 -0.5041
 4924SOL    HW226235   2.812   1.706   1.341 -0.0207 -0.6031  0.7245
 4925SOL     OW26236   4.687   4.714   5.591  0.3386 -0.0508 -0.5472
 4925SOL    HW126237   4.592   4.720   5.590  0.4557  2.1072 -0.7504
 4925SOL    HW226238   4.704   0.019   5.679 -0.5031 -0.2254 -0.3215
 4926SOL     OW26239   1.355   1.604   7.812  0.0078  0.4242  0.1638
 4926SOL    HW126240   1.329   1.513   7.824 -0.7489  0.6185  0.0068
 4926SOL    HW226241   1.413   1.618   7.887 -1.8276  0.1434  1.6493
 4927SOL     OW26242   2.454   4.552   7.332  0.4247  0.4358 -0.5059
 4927SOL    HW126243   2.420   4.637   7.303  1.6984  1.5353  1.3106
 4927SOL    HW226244   2.427   4.498   7.257 -0.9919 -1.4141  1.3328
 4928SOL     OW26245   0.244   2.978  14.855 -0.3466  0.0805  0.2715
 4928SOL    HW126246   0.190   2.950  14.929 -1.3989 -0.6450 -0.7714
 4928SOL    HW226247   0.297   2.899  14.856 -0.5338 -0.0385  0.7157
 4929SOL     OW26248   2.693   0.838   8.087  0.5700  0.0529 -0.4535
 4929SOL    HW126249   2.719   0.792   8.167 -0.6592  1.0465  0.5100
 4929SOL    HW226250   2.623   0.892   8.124 -0.9401 -1.0062 -1.7251
 4930SOL     OW26251   3.999   2.986   4.087  0.2290  0.0598 -0.2160
 4930SOL    HW126252   4.032   2.959   4.173  0.2498 -0.2729 -0.3263
 4930SOL    HW226253   3.907   2.960   4.085 -0.7016  3.1994  1.9299
 4931SOL     OW26254   3.402   2.486  14.652  0.1396 -0.4031  0.3028
 4931SOL    HW126255   3.455   2.538  14.591 -3.7861  0.8610 -2.0918
 4931SOL    HW226256   3.441   2.405  14.619 -1.0677 -1.5730  1.7362
 4932SOL     OW26257   4.020   1.806  13.926  0.0576 -0.7480 -0.5325
 4932SOL    HW126258   4.115   1.808  13.937  0.1620 -0.2788 -1.4877
 4932SOL    HW226259   3.995   1.840  14.012 -0.3857 -2.8617  0.1643
 4933SOL     OW26260   1.760   0.011   5.923 -0.2178  0.2033  0.1477
 4933SOL    HW126261   1.828   0.048   5.867  0.3896  0.5482  1.1181
 4933SOL    HW226262   1.682   0.027   5.869  0.2668  2.1246  0.0033
 4934SOL     OW26263   0.868   1.510  16.065  0.0151  0.4882  0.6590
 4934SOL    HW126264   0.818   1.591  16.067 -1.7231 -0.5785  0.6004
 4934SOL    HW226265   0.936   1.536  16.127  2.2139  1.7075 -2.2874
 4935SOL     OW26266   1.951   4.050  12.519  0.2626  0.1013 -0.0247
 4935SOL    HW126267   2.003   3.971  12.503  0.0239 -0.0404 -0.1126
 4935SOL    HW226268   1.899   4.019  12.593 -0.1994 -0.2022 -0.4700
 4936SOL     OW26269   0.311   1.007   7.867  0.0723 -0.7271  0.7778
 4936SOL    HW126270   0.360   1.032   7.945  2.0210 -1.9001 -0.0726
 4936SOL    HW226271   0.226   0.974   7.895  0.3495  0.0153  2.4681
 4937SOL     OW26272   1.737   0.158   4.394 -0.7040  0.0925  0.6795
 4937SOL    HW126273   1.650   0.196   4.402 -0.9491 -0.5918  1.3638
 4937SOL    HW226274   1.794   0.235   4.400 -1.4834  0.7103 -0.0158
 4938SOL     OW26275   4.581   3.906  16.286 -0.1788  0.4746 -0.0155
 4938SOL    HW126276   4.500   3.901  16.234  1.4869  0.2746 -2.6078
 4938SOL    HW226277   4.592   3.999  16.266 -0.1082  0.2729 -0.9311
 4939SOL     OW26278   4.077   1.088  16.098  0.1090  0.0292 -0.0361
 4939SOL    HW126279   4.105   1.048  16.016  1.3613  1.7260 -0.4220
 4939SOL    HW226280   3.989   1.121  16.079 -0.4343 -0.5451  1.4629
 4940SOL     OW26281   1.925   4.286  12.690  0.5131 -0.0665  0.0636
 4940SOL    HW126282   1.940   4.219  12.623  2.2642  1.7607 -1.3674
 4940SOL    HW226283   1.893   4.356  12.633 -0.6111 -1.2996 -0.7949
 4941SOL     OW26284   1.349   1.302   7.846 -0.4814 -0.1759  0.4249
 4941SOL    HW126285   1.289   1.290   7.773 -2.2341  1.5461  1.5756
 4941SOL    HW226286   1.312   1.238   7.908 -2.5907  0.9684  0.3296
 4942SOL     OW26287   3.491   1.106   6.728 -0.0826  0.1371  0.1615
 4942SOL    HW126288   3.541   1.188   6.723  0.4858 -0.1477  1.1566
 4942SOL    HW226289   3.540   1.052   6.666 -0.2242 -0.7946  0.8756
 4943SOL     OW26290   0.280   1.618   3.705 -0.2748 -0.3174  0.6017
 4943SOL    HW126291   0.207   1.576   3.659 -1.5030  0.1142  2.1702
 4943SOL    HW226292   0.316   1.665   3.629 -0.3250 -1.4011 -0.0875
 4944SOL     OW26293   4.188   3.443   5.835  0.2452 -0.1977  0.0028
 4944SOL    HW126294   4.241   3.458   5.757  0.0748  2.4215  0.4079
 4944SOL    HW226295   4.207   3.350   5.853 -0.5857 -0.8121 -2.2961
 4945SOL     OW26296   1.171   2.485   7.606  0.1469 -0.1157 -0.0293
 4945SOL    HW126297   1.095   2.537   7.578 -0.1966  0.3391  1.7425
 4945SOL    HW226298   1.170   2.512   7.698  2.1811  3.2052 -0.9845
 4946SOL     OW26299   2.945   4.479   5.393 -0.0360  1.0403 -0.0607
 4946SOL    HW126300   2.946   4.411   5.326  1.6058  2.1741 -1.2096
 4946SOL    HW226301   2.901   4.554   5.352 -1.6236 -0.1203 -0.4464
 4947SOL     OW26302   1.292   4.441  17.682 -0.0308 -0.4903 -0.4947
 4947SOL    HW126303   1.316   4.349  17.670  0.4355 -0.6611  1.7143
 4947SOL    HW226304   1.211   4.429   0.021  0.5864  0.0277  0.6093
 4948SOL     OW26305   4.285   0.873   8.875 -0.2303 -0.4232  0.2845
 4948SOL    HW126306   4.297   0.900   8.784  2.7849 -0.1185  0.7743
 4948SOL    HW226307   4.190   0.861   8.874 -0.4273  1.3177 -1.6360
 4949SOL     OW26308   3.273   3.353  10.932  0.5374  0.1853 -0.2529
 4949SOL    HW126309   3.274   3.269  10.979 -1.7711  0.1452 -0.2835
 4949SOL    HW226310   3.321   3.407  10.995 -0.5584 -0.3876  1.0564
 4950SOL     OW26311   0.981   4.644   3.640 -0.3390  0.0082  0.4543
 4950SOL    HW126312   0.945   4.726   3.606 -1.0482  0.5474  2.5565
 4950SOL    HW226313   1.068   4.630   3.602 -0.9264 -2.1193 -0.1172
 4951SOL     OW26314   1.698   2.671  13.254  0.0925 -0.2438  0.2231
 4951SOL    HW126315   1.789   2.668  13.283 -1.0093  0.0227  3.7202
 4951SOL    HW226316   1.698   2.616  13.176  2.1880  1.5971 -1.0855
 4952SOL     OW26317   2.948   1.084   0.488 -0.2462 -0.0286 -0.8420
 4952SOL    HW126318   3.036   1.080   0.524 -1.0552  2.1503  1.3834
 4952SOL    HW226319   2.955   1.094   0.393 -0.6427  0.0750 -0.8619
 4953SOL     OW26320   4.038   2.802  15.460 -0.1882  0.8168 -0.2518
 4953SOL    HW126321   4.055   2.855  15.538  1.1212 -2.0297  1.4003
 4953SOL    HW226322   4.121   2.754  15.461 -0.4461  0.4014  1.0843
 4954SOL     OW26323   1.458   0.332  10.996 -0.3924  0.2051 -0.3096
 4954SOL    HW126324   1.548   0.322  10.964  0.7500 -0.2629  3.0243
 4954SOL    HW226325   1.467   0.425  11.017 -0.4472  0.2324 -0.4067
 4955SOL     OW26326   0.576   1.560   8.693  0.1992  0.0079  0.1978
 4955SOL    HW126327   0.579   1.551   8.788 -0.0616  1.1991  0.3114
 4955SOL    HW226328   0.500   1.617   8.684  1.8083  2.2113  0.7084
 4956SOL     OW26329   1.773   2.833   8.315 -0.3813 -0.1201 -0.3392
 4956SOL    HW126330   1.782   2.774   8.239  0.9991 -0.2323 -0.0890
 4956SOL    HW226331   1.792   2.782   8.394 -0.4281  1.4941  0.7047
 4957SOL     OW26332   3.332   1.353   8.610  0.6323 -0.2014  0.1280
 4957SOL    HW126333   3.398   1.296   8.570  0.8485  0.1360 -0.0008
 4957SOL    HW226334   3.361   1.353   8.701  0.4748 -1.0841  0.1775
 4958SOL     OW26335   4.059   2.231   4.239 -0.2618 -0.1272  0.4962
 4958SOL    HW126336   4.118   2.216   4.313  1.1114  1.0752 -0.3552
 4958SOL    HW226337   4.106   2.185   4.170 -0.6253 -0.0870  0.2279
 4959SOL     OW26338   2.367   2.383  11.979 -0.2720 -0.1263 -0.3114
 4959SOL    HW126339   2.279   2.346  11.987 -0.1394 -0.4636 -0.3803
 4959SOL    HW226340   2.398   2.377  12.069  0.1217 -1.2143 -0.5107
 4960SOL     OW26341   4.414   0.011   5.560  0.8237 -0.0008  0.4619
 4960SOL    HW126342   4.337   0.069   5.559  0.6936 -0.1745  0.4003
 4960SOL    HW226343   4.422   4.717   5.467 -0.3609 -1.2386  0.6462
 4961SOL     OW26344   3.981   4.144   3.938  0.4399 -0.1380  0.0880
 4961SOL    HW126345   3.966   4.160   4.032  0.1532 -0.6537  0.1344
 4961SOL    HW226346   4.033   4.064   3.944 -1.7104 -1.4959  0.5266
 4962SOL     OW26347   3.428   2.510   1.441 -0.5735 -0.3000  0.1454
 4962SOL    HW126348   3.406   2.596   1.475 -2.4848 -0.8112  0.1937
 4962SOL    HW226349   3.516   2.507   1.479 -0.0650 -1.0481 -1.1155
 4963SOL     OW26350   0.801   0.254  14.832 -0.4410 -0.2483  0.3824
 4963SOL    HW126351   0.786   0.216  14.746 -2.9860  2.6663 -0.4839
 4963SOL    HW226352   0.713   0.242  14.870  0.1222 -1.6598  1.2179
 4964SOL     OW26353   2.407   1.715  17.150 -0.5348 -0.0786  0.5810
 4964SOL    HW126354   2.499   1.736  17.162 -1.1365  2.0192  1.5803
 4964SOL    HW226355   2.368   1.720  17.237 -1.6152 -3.3678  0.2881
 4965SOL     OW26356   2.409   1.676   4.744  0.2354  0.6474  0.0084
 4965SOL    HW126357   2.326   1.684   4.791  0.6839 -1.3980  1.1692
 4965SOL    HW226358   2.440   1.590   4.775 -0.6822  0.2464 -0.1972
 4966SOL     OW26359   0.781   1.278   6.220  0.1021  1.1573  0.2007
 4966SOL    HW126360   0.797   1.184   6.224 -2.6454  0.7765  2.1977
 4966SOL    HW226361   0.701   1.296   6.172  0.9519  0.2924 -1.5456
 4967SOL     OW26362   2.443   0.759   6.735  0.2053 -0.4253  0.1491
 4967SOL    HW126363   2.417   0.848   6.758  0.6317  0.2889 -2.2156
 4967SOL    HW226364   2.363   0.718   6.701  0.9003 -0.4501 -1.4288
 4968SOL     OW26365   3.595   0.661  12.588  0.0036 -0.7823 -0.1768
 4968SOL    HW126366   3.618   0.681  12.678 -0.3544 -1.2499  0.0199
 4968SOL    HW226367   3.614   0.741  12.540 -0.2567 -0.3315  0.4865
 4969SOL     OW26368   1.913   0.142  10.778 -0.3954 -0.0188  0.6231
 4969SOL    HW126369   1.988   0.084  10.761 -0.7805 -0.2079 -0.4315
 4969SOL    HW226370   1.846   0.114  10.716  1.4606 -2.5481 -0.2624
 4970SOL     OW26371   3.161   0.924  14.606 -0.2926  0.1520 -0.0996
 4970SOL    HW126372   3.126   0.875  14.532 -1.2102 -1.4687  1.4227
 4970SOL    HW226373   3.111   0.892  14.681  0.6036 -0.5011  0.2211
 4971SOL     OW26374   4.680   2.441  15.140  0.5839 -0.1671  0.2786
 4971SOL    HW126375   4.694   2.463  15.047 -0.4334 -0.0191  0.1690
 4971SOL    HW226376   4.703   2.528  15.172  0.7876 -0.8962  2.1016
 4972SOL     OW26377   4.603   1.378  16.796  0.3999  0.6415 -0.2416
 4972SOL    HW126378   4.523   1.394  16.845  0.1071  1.8827 -1.1153
 4972SOL    HW226379   4.646   1.464  16.794  0.5277  0.5444 -1.5173
 4973SOL     OW26380   3.410   4.303  11.235 -0.4474  0.5920 -0.1209
 4973SOL    HW126381   3.482   4.345  11.282  2.0901 -1.7964 -1.9274
 4973SOL    HW226382   3.432   4.212  11.253 -1.1853  0.3876 -0.2597
 4974SOL     OW26383   4.278   4.188   6.429 -0.0589 -0.2136  0.4520
 4974SOL    HW126384   4.220   4.263   6.444 -0.1126 -0.1980  0.1637
 4974SOL    HW226385   4.356   4.223   6.473  0.0673 -0.0093  0.0633
 4975SOL     OW26386   0.561   2.675   5.287  0.0885  0.5676  0.6260
 4975SOL    HW126387   0.604   2.649   5.206  0.0995 -0.2495  0.8960
 4975SOL    HW226388   0.641   2.703   5.330  2.1460 -0.7592 -2.3933
 4976SOL     OW26389   2.229   0.114   8.890  0.1312 -0.2363  0.6320
 4976SOL    HW126390   2.201   0.195   8.934  0.4400  0.2741 -0.1219
 4976SOL    HW226391   2.145   0.080   8.857  0.1371  0.3129  0.0655
 4977SOL     OW26392   0.184   1.577  11.312 -0.2111 -0.0268 -0.0480
 4977SOL    HW126393   0.257   1.548  11.257  0.1218 -0.2772  0.5338
 4977SOL    HW226394   0.222   1.618  11.389  0.8845  0.3173 -0.7667
 4978SOL     OW26395   0.872   1.445  11.447  0.5171 -0.1844  0.1045
 4978SOL    HW126396   0.882   1.384  11.375 -1.5444  1.3226 -1.4633
 4978SOL    HW226397   0.929   1.517  11.419  0.8853 -0.3116  0.5215
 4979SOL     OW26398   0.863   1.830   3.514  0.1077  0.5282  0.2798
 4979SOL    HW126399   0.867   1.792   3.426 -1.1186 -2.8515  1.6601
 4979SOL    HW226400   0.915   1.910   3.514  1.5411 -0.4169  0.6455
 4980SOL     OW26401   1.571   1.035  13.389  0.0625 -0.2688 -0.6388
 4980SOL    HW126402   1.593   0.943  13.403  1.0148 -0.0166 -0.4826
 4980SOL    HW226403   1.539   1.037  13.299 -0.2023 -1.8354 -0.5741
 4981SOL     OW26404   1.218   4.221   2.210  0.1787 -0.4218  0.0415
 4981SOL    HW126405   1.169   4.299   2.185  0.7303  0.1352  0.6865
 4981SOL    HW226406   1.157   4.193   2.278 -0.5341  1.7736  0.3298
 4982SOL     OW26407   1.892   1.658   0.499 -0.6391 -0.0659  0.1825
 4982SOL    HW126408   1.886   1.749   0.470  0.0374 -0.4338 -1.0872
 4982SOL    HW226409   1.863   1.622   0.415  1.4402 -2.7716  0.6168
 4983SOL     OW26410   3.389   3.561   5.228  0.2070  0.5145  0.0128
 4983SOL    HW126411   3.386   3.578   5.322 -0.9202  2.0339 -0.3036
 4983SOL    HW226412   3.468   3.507   5.221 -0.6071 -0.8000  1.0158
 4984SOL     OW26413   4.669   2.770   5.891 -0.4277  0.0871 -0.3573
 4984SOL    HW126414   4.627   2.832   5.832  2.1260  1.0525 -1.1599
 4984SOL    HW226415   0.019   2.750   5.840  1.1888  4.4041  0.4231
 4985SOL     OW26416   2.421   2.123   0.653  0.3536  0.5554 -0.4700
 4985SOL    HW126417   2.330   2.120   0.685 -0.0482  1.1531 -1.5403
 4985SOL    HW226418   2.433   2.218   0.647 -0.7617  0.6582 -1.1261
 4986SOL     OW26419   0.670   3.775   6.667 -0.8778 -0.3361  0.1021
 4986SOL    HW126420   0.748   3.826   6.689 -0.1362 -0.5249 -1.9958
 4986SOL    HW226421   0.698   3.690   6.702  3.6025  0.8624 -0.5113
 4987SOL     OW26422   2.916   0.070   2.990  0.3624  0.2596  0.2146
 4987SOL    HW126423   2.952   0.147   2.945  4.2633 -1.2867  0.7101
 4987SOL    HW226424   2.978   0.081   3.063  1.9301  1.0850 -1.2495
 4988SOL     OW26425   0.803   1.664   8.574 -0.3902  0.3316  0.2192
 4988SOL    HW126426   0.795   1.616   8.491  2.7522  1.3646 -0.6725
 4988SOL    HW226427   0.746   1.613   8.632 -1.1788 -0.0119 -0.8437
 4989SOL     OW26428   3.894   2.442  11.348 -0.5198 -0.3317 -0.3489
 4989SOL    HW126429   3.970   2.461  11.402 -0.7045 -0.8966  0.1171
 4989SOL    HW226430   3.855   2.528  11.334  0.4363 -0.0538 -1.2039
 4990SOL     OW26431   1.303   3.157  10.756 -0.1042 -0.1695 -0.3013
 4990SOL    HW126432   1.384   3.208  10.756 -0.4195  0.3169  1.5527
 4990SOL    HW226433   1.346   3.079  10.721  1.2924  0.2836  0.4140
 4991SOL     OW26434   1.880   4.446  12.989 -0.1354  0.3052  0.2946
 4991SOL    HW126435   1.875   4.449  12.893 -0.8216 -0.9579  0.2912
 4991SOL    HW226436   1.818   4.374  13.001 -0.7728  0.6463 -0.8871
 4992SOL     OW26437   3.317   2.246   5.110 -0.3492  0.3325 -0.2849
 4992SOL    HW126438   3.279   2.182   5.170  1.3965  0.6756  1.1543
 4992SOL    HW226439   3.274   2.219   5.028  0.1965 -1.7210  0.1066
 4993SOL     OW26440   0.032   1.701   3.860 -0.8079  0.7141 -0.1152
 4993SOL    HW126441   0.081   1.682   3.780  0.6572  0.2153  0.9088
 4993SOL    HW226442   0.011   1.793   3.851 -0.7283  0.5360 -2.0860
 4994SOL     OW26443   1.139   2.515  12.194 -0.3908 -0.1708  0.5863
 4994SOL    HW126444   1.083   2.517  12.271 -0.4764  1.8625  0.4628
 4994SOL    HW226445   1.220   2.484  12.235  0.7668 -0.4773 -1.8907
 4995SOL     OW26446   2.966   3.217   6.636 -0.0819  0.0892 -0.0121
 4995SOL    HW126447   2.980   3.312   6.642 -0.1129  0.2483 -2.5195
 4995SOL    HW226448   2.944   3.195   6.727  1.7370  0.8662  0.6252
 4996SOL     OW26449   3.080   1.394  15.909  0.0772  0.5058 -0.0529
 4996SOL    HW126450   3.127   1.337  15.970  1.2947  0.1844 -1.2859
 4996SOL    HW226451   3.020   1.444  15.965  0.6159  3.2327 -1.9307
 4997SOL     OW26452   2.053   3.210  11.706  0.2071  0.2541  0.4338
 4997SOL    HW126453   2.060   3.304  11.724 -0.1621  0.0094  1.8035
 4997SOL    HW226454   1.963   3.192  11.735  1.1008 -0.9868  2.4305
 4998SOL     OW26455   4.246   4.048  13.587 -0.5344  0.1830  0.7152
 4998SOL    HW126456   4.315   4.110  13.565 -1.2326  1.2757  1.5775
 4998SOL    HW226457   4.271   3.974  13.532 -1.4585  0.4408 -0.0420
 4999SOL     OW26458   0.089   0.460   5.233  0.1174 -0.0021  0.2045
 4999SOL    HW126459   0.145   0.397   5.277  0.0551 -0.3744 -0.2521
 4999SOL    HW226460   0.150   0.523   5.195  3.6904 -3.2006  0.6335
 5000SOL     OW26461   4.595   3.815   6.617  0.4934 -0.2469  0.1826
 5000SOL    HW126462   4.675   3.769   6.642 -0.4476 -1.9966 -0.0350
 5000SOL    HW226463   4.605   3.898   6.663  0.2863 -0.9863  1.5402
 5001SOL     OW26464   3.575   1.830   0.435  0.4980  0.1420  0.8286
 5001SOL    HW126465   3.564   1.923   0.456 -1.8886 -0.4181  2.1842
 5001SOL    HW226466   3.566   1.833   0.340 -2.9910 -1.0750  1.0981
 5002SOL     OW26467   0.632   3.724   2.323  0.2175 -0.0945  0.1231
 5002SOL    HW126468   0.727   3.715   2.316  0.3566  0.4751  1.3337
 5002SOL    HW226469   0.615   3.782   2.249  1.4451  3.0119  2.2588
 5003SOL     OW26470   3.898   1.725   2.336 -0.1852 -0.0855 -0.3232
 5003SOL    HW126471   3.836   1.797   2.325 -1.4307 -0.8526  1.7069
 5003SOL    HW226472   3.941   1.742   2.252 -1.3164 -0.5874 -1.0055
 5004SOL     OW26473   1.635   2.064  16.458 -0.4583  0.1357 -0.2444
 5004SOL    HW126474   1.584   2.046  16.536 -1.5550 -1.7203 -1.4078
 5004SOL    HW226475   1.571   2.072  16.387  0.9324  1.3192 -1.3931
 5005SOL     OW26476   1.808   2.262   5.418 -0.3008 -0.1290  0.0556
 5005SOL    HW126477   1.894   2.281   5.457  0.7879  0.9630 -2.8453
 5005SOL    HW226478   1.760   2.340   5.446 -0.3857 -0.4093  0.6705
 5006SOL     OW26479   1.880   2.717   5.887  0.2672 -0.1023  0.1124
 5006SOL    HW126480   1.805   2.772   5.865 -0.2685 -0.7396  0.3314
 5006SOL    HW226481   1.943   2.780   5.920  2.0197 -2.6178  1.5842
 5007SOL     OW26482   3.991   4.459  10.554 -0.2205  0.0781 -0.7218
 5007SOL    HW126483   3.905   4.429  10.584 -0.9419  0.4034 -2.4643
 5007SOL    HW226484   3.971   4.544  10.513  1.8565  0.8848 -0.0533
 5008SOL     OW26485   4.185   1.344   3.374  0.3948  0.2782  0.4654
 5008SOL    HW126486   4.127   1.270   3.354 -0.5435  0.3427  2.9649
 5008SOL    HW226487   4.153   1.384   3.455  0.0197 -1.9140  1.4164
 5009SOL     OW26488   4.395   0.179   0.430 -0.0853  0.0377  0.0263
 5009SOL    HW126489   4.315   0.127   0.419 -0.1161 -0.2618  1.7807
 5009SOL    HW226490   4.385   0.220   0.515 -0.3463  0.3797 -0.1671
 5010SOL     OW26491   2.293   1.015   8.959  0.2501 -0.5263  0.2098
 5010SOL    HW126492   2.349   1.077   9.007 -0.2208  0.0822 -0.0250
 5010SOL    HW226493   2.277   0.947   9.024 -0.5057  1.6233  2.2868
 5011SOL     OW26494   0.473   2.568   8.307  0.4773 -0.8536  0.3332
 5011SOL    HW126495   0.392   2.519   8.289  0.3748 -1.2187  1.7987
 5011SOL    HW226496   0.473   2.624   8.230 -2.4333  1.1309  1.7748
 5012SOL     OW26497   0.098   1.747  12.356  0.4728  0.0467  0.7317
 5012SOL    HW126498   0.093   1.731  12.450 -1.2281 -1.3873  0.3943
 5012SOL    HW226499   0.029   1.697  12.312  0.1137  0.5769  0.6901
 5013SOL     OW26500   1.353   2.479   8.418  0.3922  0.1273  0.3315
 5013SOL    HW126501   1.292   2.409   8.397  0.4876  0.5041 -1.1464
 5013SOL    HW226502   1.304   2.556   8.389  1.0845  0.7541  0.8203
 5014SOL     OW26503   2.134   4.319  10.758  0.1928  0.0289 -0.2545
 5014SOL    HW126504   2.144   4.371  10.679  2.0484 -1.5007 -0.9976
 5014SOL    HW226505   2.157   4.233  10.722 -1.7283  0.4806 -2.5393
 5015SOL     OW26506   1.078   2.170   7.945 -0.5595  0.3311  0.0463
 5015SOL    HW126507   1.133   2.248   7.949  0.4376 -0.3085 -1.1256
 5015SOL    HW226508   1.008   2.186   7.881  0.5903 -0.4084 -1.4094
 5016SOL     OW26509   2.201   2.836   3.945 -0.4253  0.2111 -0.4329
 5016SOL    HW126510   2.238   2.754   3.978 -1.5406 -0.7736 -1.6460
 5016SOL    HW226511   2.179   2.810   3.856 -1.2399  0.9513 -0.4481
 5017SOL     OW26512   2.997   1.953   6.242  0.2907 -0.3861  0.4797
 5017SOL    HW126513   3.022   2.029   6.188  3.2798 -1.3777  0.4662
 5017SOL    HW226514   3.003   1.888   6.171  0.7863 -0.4645  0.5904
 5018SOL     OW26515   4.304   1.733   3.800  0.3537  0.5536 -0.2733
 5018SOL    HW126516   4.326   1.773   3.884  0.6154  0.1201 -0.1372
 5018SOL    HW226517   4.217   1.771   3.786 -1.5877 -2.9821  2.2229
 5019SOL     OW26518   3.216   4.531   6.326 -0.1467  0.1173 -0.2777
 5019SOL    HW126519   3.182   4.459   6.378 -1.2767 -0.2661 -1.5302
 5019SOL    HW226520   3.276   4.579   6.383 -0.6919  0.8482 -0.3292
 5020SOL     OW26521   3.521   4.312   5.300 -0.3701  0.4159 -0.2440
 5020SOL    HW126522   3.439   4.290   5.255 -0.0164 -3.1210  0.8731
 5020SOL    HW226523   3.566   4.354   5.227  2.4119  0.7871  1.7008
 5021SOL     OW26524   2.419   0.887   1.763  0.5538 -0.2506 -0.0618
 5021SOL    HW126525   2.336   0.847   1.738  0.6685 -0.1819 -0.5598
 5021SOL    HW226526   2.493   0.842   1.722  1.1256 -1.1833  1.9792
 5022SOL     OW26527   0.692   1.965   6.055  0.0591  0.2027  0.5619
 5022SOL    HW126528   0.734   2.039   6.011 -0.0720  1.0912  1.9573
 5022SOL    HW226529   0.603   1.963   6.021 -0.2009  0.0427  1.2604
 5023SOL     OW26530   0.346   0.632  12.415  0.7067 -0.0635  0.2167
 5023SOL    HW126531   0.264   0.630  12.463  0.9708  0.2826  0.6940
 5023SOL    HW226532   0.363   0.726  12.420 -0.7238  0.2841 -1.6370
 5024SOL     OW26533   2.932   0.405  13.798  0.3875 -0.1458 -0.0003
 5024SOL    HW126534   2.871   0.367  13.861 -2.0204  1.0660 -1.5630
 5024SOL    HW226535   2.971   0.328  13.757 -0.6061 -0.2577 -0.7658
 5025SOL     OW26536   3.313   3.470   4.775 -0.2193 -0.3876  0.5760
 5025SOL    HW126537   3.358   3.396   4.736  1.0140  0.5913  0.1310
 5025SOL    HW226538   3.250   3.487   4.704  0.7555  2.0209  0.2836
 5026SOL     OW26539   1.078   2.200  12.321 -0.3676 -0.0104  0.2554
 5026SOL    HW126540   1.107   2.259  12.391 -1.6660  1.0150 -0.0948
 5026SOL    HW226541   1.080   2.115  12.365 -1.6181 -0.3736 -0.4072
 5027SOL     OW26542   3.473   4.149   5.031  0.1002  0.2647  0.1411
 5027SOL    HW126543   3.568   4.136   5.036 -0.2922 -2.1625  1.4150
 5027SOL    HW226544   3.471   4.082   4.962 -2.7236  0.8505 -0.3601
 5028SOL     OW26545   1.159   0.768   1.560  0.3553  0.1401 -0.3081
 5028SOL    HW126546   1.217   0.719   1.501 -0.8973 -1.2679 -0.3534
 5028SOL    HW226547   1.188   0.739   1.647 -2.1047  2.1797  1.1812
 5029SOL     OW26548   1.121   3.692   5.492 -0.1659  0.5251  0.1041
 5029SOL    HW126549   1.030   3.685   5.519  0.0225 -0.7006  0.3933
 5029SOL    HW226550   1.125   3.786   5.474 -0.4565  0.6100  0.5051
 5030SOL     OW26551   3.180   0.853   1.745 -0.7781  0.0185 -0.2524
 5030SOL    HW126552   3.218   0.907   1.675 -1.8256  1.6332  0.4279
 5030SOL    HW226553   3.097   0.896   1.763 -1.2866 -1.5105  1.0573
 5031SOL     OW26554   2.537   3.519   6.669  0.1513  0.0083 -0.0226
 5031SOL    HW126555   2.456   3.547   6.626  1.8365  3.1393 -1.2493
 5031SOL    HW226556   2.557   3.586   6.735  0.3097 -0.9227  0.8676
 5032SOL     OW26557   4.217   1.207   4.166 -0.2379 -0.3720  0.0107
 5032SOL    HW126558   4.181   1.284   4.122  0.2497  0.2977  0.7755
 5032SOL    HW226559   4.188   1.142   4.102  0.0325  0.1289 -0.6262
 5033SOL     OW26560   1.414   3.244   6.310 -0.1506 -0.0795 -0.3737
 5033SOL    HW126561   1.471   3.321   6.310 -0.0051 -0.1799  1.3292
 5033SOL    HW226562   1.382   3.246   6.220 -0.4131  0.8711 -0.2603
 5034SOL     OW26563   0.674   1.180  10.260 -0.2527  0.0893  0.1513
 5034SOL    HW126564   0.649   1.248  10.322 -3.1551 -0.9748  0.1407
 5034SOL    HW226565   0.665   1.106  10.320 -1.4704 -0.1687 -0.3458
 5035SOL     OW26566   1.751   4.358   8.234  0.1708  0.3550 -0.3184
 5035SOL    HW126567   1.755   4.307   8.315  0.0841 -1.1088 -1.2497
 5035SOL    HW226568   1.677   4.314   8.192 -0.3075 -1.1315  2.0442
 5036SOL     OW26569   2.316   0.820   0.859 -0.0318 -0.1691 -0.4180
 5036SOL    HW126570   2.221   0.808   0.861 -0.0733 -0.2378 -3.1485
 5036SOL    HW226571   2.348   0.743   0.812 -0.6151 -0.7777  0.1783
 5037SOL     OW26572   4.698   4.095   6.658 -0.1901  0.3986 -0.7445
 5037SOL    HW126573   4.684   4.159   6.728 -0.0562  1.4766 -1.6958
 5037SOL    HW226574   4.667   4.151   6.586 -1.4173  0.9777  0.2275
 5038SOL     OW26575   4.604   4.445   0.019 -0.1554 -0.0045 -0.3410
 5038SOL    HW126576   4.549   4.494   0.080  1.6076  0.3065  1.0031
 5038SOL    HW226577   4.693   4.462   0.051 -0.2887 -2.7895  1.5311
 5039SOL     OW26578   1.487   3.861  13.826 -0.3832  0.0321 -0.2984
 5039SOL    HW126579   1.561   3.843  13.884  0.5148  0.6573 -1.2582
 5039SOL    HW226580   1.518   3.825  13.743  0.5103  0.4111 -0.1221
 5040SOL     OW26581   1.295   3.154   3.887 -0.1314 -0.0738 -0.1229
 5040SOL    HW126582   1.383   3.137   3.921  0.3412 -0.2057 -1.4023
 5040SOL    HW226583   1.271   3.238   3.926  0.9890  0.5528 -0.7883
 5041SOL     OW26584   0.551   4.122   4.484 -0.2812 -0.6457 -0.1802
 5041SOL    HW126585   0.460   4.106   4.459 -1.3023  2.4004  1.6374
 5041SOL    HW226586   0.591   4.037   4.501  5.1212  1.3032 -3.2345
 5042SOL     OW26587   3.020   0.568   1.529  0.1205  0.3278 -0.2956
 5042SOL    HW126588   3.071   0.632   1.479 -1.8813  1.7352 -0.5488
 5042SOL    HW226589   2.936   0.570   1.483  0.1247 -2.5942 -0.4205
 5043SOL     OW26590   3.840   3.847   3.952 -0.1880  0.3108  0.3010
 5043SOL    HW126591   3.836   3.849   3.856  0.5022  1.9602  0.3015
 5043SOL    HW226592   3.934   3.853   3.970 -0.3794 -1.4166  1.8236
 5044SOL     OW26593   1.161   0.382   5.793  0.6134  0.1519 -0.7089
 5044SOL    HW126594   1.094   0.410   5.730  1.9104 -0.2582 -2.2700
 5044SOL    HW226595   1.177   0.456   5.851 -1.5100 -1.1823  1.5774
 5045SOL     OW26596   2.969   0.258  15.343  0.6135  0.6400 -0.2557
 5045SOL    HW126597   2.900   0.317  15.372 -0.8202 -2.1148  1.9636
 5045SOL    HW226598   3.017   0.234  15.422  0.6721 -0.2493 -0.5568
 5046SOL     OW26599   0.387   3.947  10.584 -0.6118 -0.5860 -0.2288
 5046SOL    HW126600   0.398   4.001  10.662  0.3985 -1.4923  0.2526
 5046SOL    HW226601   0.463   3.888  10.579 -1.6546 -2.0918  1.4279
 5047SOL     OW26602   1.484   0.744   7.334 -0.0716  0.2125 -0.2859
 5047SOL    HW126603   1.443   0.659   7.312  1.3320 -0.5534  0.0751
 5047SOL    HW226604   1.569   0.727   7.294  0.3875  2.8250 -0.4068
 5048SOL     OW26605   1.181   1.776   3.846 -0.3500 -0.4495  0.0591
 5048SOL    HW126606   1.148   1.734   3.767  1.7833 -2.2994  0.1424
 5048SOL    HW226607   1.121   1.848   3.863  1.1583  0.5288  1.3470
 5049SOL     OW26608   0.455   2.189   4.397  1.0578 -0.0026 -0.0465
 5049SOL    HW126609   0.537   2.161   4.439  0.6100  1.9324  2.1308
 5049SOL    HW226610   0.449   2.281   4.422 -0.2268 -0.2156  0.3988
 5050SOL     OW26611   4.596   3.587   7.258  0.2949  0.0017  0.3140
 5050SOL    HW126612   4.632   3.500   7.273 -3.3329 -1.2485  1.7840
 5050SOL    HW226613   4.506   3.580   7.292 -0.0946  1.8947 -0.3336
 5051SOL     OW26614   3.731   1.887   4.761  0.0155 -0.3181  0.3118
 5051SOL    HW126615   3.685   1.803   4.751  1.0623 -0.9249  0.5758
 5051SOL    HW226616   3.667   1.939   4.808  1.8002  0.5212  1.8094
 5052SOL     OW26617   0.537   0.596   7.489  0.6454 -0.6048 -0.2222
 5052SOL    HW126618   0.592   0.590   7.410 -0.4879  0.1660 -1.0749
 5052SOL    HW226619   0.523   0.690   7.498 -0.0256 -0.3189 -4.1186
 5053SOL     OW26620   3.258   2.540   2.954 -0.6007  0.5608 -0.4162
 5053SOL    HW126621   3.195   2.518   2.886  0.2015 -0.3436 -0.8557
 5053SOL    HW226622   3.289   2.619   2.910  0.0627  0.9279  0.7018
 5054SOL     OW26623   4.564   0.534  10.287  0.0292  0.3204 -0.2275
 5054SOL    HW126624   4.492   0.517  10.226  3.2036 -2.2857 -3.2497
 5054SOL    HW226625   4.553   0.455  10.342 -1.2261 -0.7378 -1.9877
 5055SOL     OW26626   4.145   0.546   4.951  0.2968 -0.1859  0.6603
 5055SOL    HW126627   4.211   0.614   4.932  1.0187 -1.2581 -0.6383
 5055SOL    HW226628   4.199   0.483   5.000  1.1491 -0.7417 -0.9894
 5056SOL     OW26629   2.355   0.131  10.769  0.0710 -0.2763  0.1715
 5056SOL    HW126630   2.400   0.184  10.835 -0.2916 -0.8396  0.8761
 5056SOL    HW226631   2.419   0.062  10.751 -1.6206 -1.8525  0.1908
 5057SOL     OW26632   4.668   3.780   5.930 -0.4606  0.7106 -0.3953
 5057SOL    HW126633   0.002   3.849   5.951 -1.5665  1.7987 -0.7430
 5057SOL    HW226634   4.684   3.741   6.016 -1.2046  0.7296 -0.2511
 5058SOL     OW26635   1.224   3.026   8.350  1.0740  0.0851  0.3319
 5058SOL    HW126636   1.158   3.033   8.419  1.1185  0.6738  0.3093
 5058SOL    HW226637   1.197   3.095   8.290  2.2176  0.0385 -0.2340
 5059SOL     OW26638   2.595   4.040   9.629  0.2688  0.0017 -0.5960
 5059SOL    HW126639   2.520   4.022   9.686  1.1291  0.3753  0.6335
 5059SOL    HW226640   2.550   4.034   9.544 -1.4805  2.3427  0.1663
 5060SOL     OW26641   3.528   3.721   8.107 -0.2414  0.5092 -0.1823
 5060SOL    HW126642   3.591   3.688   8.043 -0.3225 -0.7287  0.3757
 5060SOL    HW226643   3.575   3.687   8.183 -1.0192  0.7179  0.3914
 5061SOL     OW26644   4.418   4.303   6.094 -0.1373 -0.0946 -0.0161
 5061SOL    HW126645   4.457   4.385   6.064  0.1132 -1.1662 -2.6217
 5061SOL    HW226646   4.496   4.258   6.126 -0.0924  0.1410  0.2051
 5062SOL     OW26647   0.962   4.230   3.028 -0.2283  0.6107  0.9900
 5062SOL    HW126648   0.946   4.266   3.116 -0.0342 -0.7537  1.5815
 5062SOL    HW226649   0.998   4.305   2.980  2.0171 -0.7177  0.5983
 5063SOL     OW26650   1.644   3.450  17.519  0.5541 -0.6801  0.4191
 5063SOL    HW126651   1.576   3.459  17.586 -2.0520  0.7747 -2.4210
 5063SOL    HW226652   1.639   3.356  17.505  0.0344 -0.8733  1.9223
 5064SOL     OW26653   2.217   1.231  10.325 -0.1004  0.2400 -0.2650
 5064SOL    HW126654   2.252   1.320  10.317 -0.1879  0.1924 -1.1512
 5064SOL    HW226655   2.305   1.193  10.320 -1.1976 -1.8573 -3.1570
 5065SOL     OW26656   4.028   0.109   4.517 -0.1747 -0.1862 -0.3808
 5065SOL    HW126657   4.110   0.103   4.469  0.3530 -1.1070  0.6162
 5065SOL    HW226658   3.989   0.191   4.487 -2.1908 -0.3690  1.7192
 5066SOL     OW26659   4.271   4.674   8.898  0.6827  0.0235  0.6711
 5066SOL    HW126660   4.274   4.608   8.829 -2.4978  2.0342 -1.4059
 5066SOL    HW226661   4.362   4.694   8.917  0.6819  1.1676 -0.5979
 5067SOL     OW26662   3.220   2.134   0.623 -0.0051  0.1648 -0.1326
 5067SOL    HW126663   3.183   2.057   0.578 -3.8327  1.5209  0.6675
 5067SOL    HW226664   3.216   2.207   0.562  1.2468  0.8341  0.6042
 5068SOL     OW26665   4.209   3.209   4.119 -0.1463 -0.2897 -0.3688
 5068SOL    HW126666   4.155   3.288   4.115  1.6878  0.7994 -4.0506
 5068SOL    HW226667   4.147   3.136   4.121  0.1989 -0.6056 -1.3285
 5069SOL     OW26668   4.548   1.655  14.813 -0.6765 -0.0598 -0.1007
 5069SOL    HW126669   4.473   1.654  14.872 -0.5245 -2.5310  0.0483
 5069SOL    HW226670   4.617   1.608  14.860  0.4968  3.6592  1.8853
 5070SOL     OW26671   4.293   3.220  14.089  0.0263  0.1040  0.1345
 5070SOL    HW126672   4.290   3.305  14.047 -0.4780  0.3247  0.6177
 5070SOL    HW226673   4.246   3.245  14.169 -0.8945 -0.3307 -0.2736
 5071SOL     OW26674   1.285   1.041   7.631 -0.4996 -0.1915  0.2704
 5071SOL    HW126675   1.262   1.056   7.722  1.2697 -1.9485  0.9934
 5071SOL    HW226676   1.293   1.132   7.601  2.7622  0.1228  2.1409
 5072SOL     OW26677   2.996   2.600   5.269 -0.1359  0.1941 -0.2206
 5072SOL    HW126678   3.024   2.510   5.283  0.2475 -0.0929 -3.0336
 5072SOL    HW226679   2.916   2.610   5.321  1.4199  1.1731  1.9814
 5073SOL     OW26680   0.997   3.344   5.589  0.3927 -0.2035  0.4996
 5073SOL    HW126681   0.967   3.386   5.669 -0.7617  0.0013 -0.0461
 5073SOL    HW226682   0.964   3.255   5.603 -1.2939  0.2158 -0.8154
 5074SOL     OW26683   3.930   2.391   8.287 -0.0807  0.9474 -0.6394
 5074SOL    HW126684   3.998   2.386   8.219 -0.3624  1.6525 -0.9695
 5074SOL    HW226685   3.926   2.303   8.324  1.4494  1.8538  1.7369
 5075SOL     OW26686   0.943   0.649   4.707 -0.9091  0.8820  0.2455
 5075SOL    HW126687   0.951   0.584   4.776  0.8966  0.1811 -0.6017
 5075SOL    HW226688   0.862   0.628   4.660 -0.0932  1.8303 -1.6051
 5076SOL     OW26689   4.380   2.316   6.664 -0.0777  0.0217  0.3282
 5076SOL    HW126690   4.429   2.398   6.676  2.1737 -1.3565  0.6111
 5076SOL    HW226691   4.407   2.304   6.573 -0.9723 -1.4126  0.2600
 5077SOL     OW26692   0.238   1.278   7.078 -0.1229  0.7252  0.9067
 5077SOL    HW126693   0.269   1.196   7.117 -3.2722 -1.1471 -0.5574
 5077SOL    HW226694   0.261   1.341   7.146  0.2564  2.3156 -0.7038
 5078SOL     OW26695   3.019   2.789   3.464  0.0800  0.0344  0.3330
 5078SOL    HW126696   2.965   2.858   3.425  1.8524  1.1396 -0.1302
 5078SOL    HW226697   3.051   2.840   3.537  0.1645 -0.4148  0.6108
 5079SOL     OW26698   3.325   1.432   2.872 -0.4511 -0.2729 -0.3706
 5079SOL    HW126699   3.236   1.453   2.901 -1.8577 -2.6971 -2.9017
 5079SOL    HW226700   3.369   1.418   2.956 -1.6055 -1.5638  0.0193
 5080SOL     OW26701   2.696   4.532   6.176 -0.0083  0.0367 -0.3523
 5080SOL    HW126702   2.694   4.488   6.091  0.0058  1.3893 -1.0366
 5080SOL    HW226703   2.773   4.492   6.216 -0.9771 -1.7437 -0.2700
 5081SOL     OW26704   3.863   0.706   5.817  0.3839  0.3195 -0.1536
 5081SOL    HW126705   3.909   0.786   5.841  0.0505  1.0613 -2.0269
 5081SOL    HW226706   3.864   0.653   5.898  1.7438 -0.8726 -0.9421
 5082SOL     OW26707   1.214   4.027   6.407 -0.1533  0.1642  0.4269
 5082SOL    HW126708   1.302   4.024   6.370  0.5729 -0.9288  2.2818
 5082SOL    HW226709   1.221   3.944   6.455  0.0987  0.2880  0.5990
 5083SOL     OW26710   1.337   4.015  12.149  0.2009  0.0784  0.0671
 5083SOL    HW126711   1.303   4.101  12.126  1.4490  0.0306 -1.9450
 5083SOL    HW226712   1.324   3.964  12.068 -0.1015  1.6032 -0.8317
 5084SOL     OW26713   3.767   0.375   6.362 -0.1641 -0.3909 -0.4567
 5084SOL    HW126714   3.679   0.342   6.348 -0.8615  0.6765  1.3283
 5084SOL    HW226715   3.750   0.426   6.441 -1.7410 -2.1575  0.3307
 5085SOL     OW26716   0.474   1.990   5.263  0.1046 -0.1316  0.4958
 5085SOL    HW126717   0.488   2.082   5.285 -0.2855 -0.4420  2.0783
 5085SOL    HW226718   0.557   1.965   5.223 -1.7264  0.5322 -3.7516
 5086SOL     OW26719   1.417   3.391   1.208 -0.0146 -0.4900 -0.2395
 5086SOL    HW126720   1.490   3.385   1.147 -2.3504  0.3085 -3.1134
 5086SOL    HW226721   1.384   3.304   1.187  1.5706 -1.0931 -0.2319
 5087SOL     OW26722   1.170   3.922   6.803  0.3768  0.0310 -0.1087
 5087SOL    HW126723   1.220   4.002   6.820 -1.8180  1.3701  0.0304
 5087SOL    HW226724   1.210   3.883   6.726  0.2882  0.4946 -0.3881
 5088SOL     OW26725   0.929   2.798   0.906  0.3911  0.1477  0.1240
 5088SOL    HW126726   0.839   2.766   0.905  0.0661  1.0272  2.5618
 5088SOL    HW226727   0.913   2.886   0.940 -1.3932 -0.4424  0.7839
 5089SOL     OW26728   1.297   2.561   6.260 -0.3541 -0.3965 -0.0633
 5089SOL    HW126729   1.385   2.597   6.251  0.0297 -1.3241  0.0800
 5089SOL    HW226730   1.275   2.557   6.353 -2.7818 -0.0400 -0.6152
 5090SOL     OW26731   0.889   0.780   1.597  0.1560  0.1613  0.3567
 5090SOL    HW126732   0.966   0.764   1.543  1.4130 -2.7096  3.0609
 5090SOL    HW226733   0.850   0.693   1.592  0.5391 -0.0608  1.3308
 5091SOL     OW26734   2.271   1.240   7.944 -0.2180  0.4480 -0.4839
 5091SOL    HW126735   2.338   1.300   7.913  1.4272 -0.7388  0.8141
 5091SOL    HW226736   2.290   1.222   8.036  0.6768 -2.3243 -1.1910
 5092SOL     OW26737   4.340   2.433   1.254 -0.1228 -0.1512 -0.2351
 5092SOL    HW126738   4.300   2.412   1.170  0.6899  0.8705 -0.8742
 5092SOL    HW226739   4.359   2.526   1.241  1.5150 -0.3060  1.0311
 5093SOL     OW26740   4.620   2.026  11.415 -0.1380  0.1103  0.4568
 5093SOL    HW126741   4.632   1.953  11.476 -2.3936  1.4023  2.4254
 5093SOL    HW226742   4.708   2.061  11.404 -0.2799  1.0290  2.2149
 5094SOL     OW26743   0.823   1.248  13.967 -0.0665  0.5852  0.3976
 5094SOL    HW126744   0.899   1.223  14.019 -1.1740  1.0019  2.2310
 5094SOL    HW226745   0.758   1.196  14.015  1.2277 -2.0109 -0.6412
 5095SOL     OW26746   4.700   3.445   5.295  0.3999 -0.1682 -0.5961
 5095SOL    HW126747   4.651   3.490   5.226 -0.1642  0.9499  0.5217
 5095SOL    HW226748   4.677   3.490   5.376  2.8086  1.4830 -0.8151
 5096SOL     OW26749   4.462   0.883   6.231  0.1090  0.4636 -0.7034
 5096SOL    HW126750   4.439   0.791   6.244  1.1549 -0.2010 -3.3963
 5096SOL    HW226751   4.500   0.875   6.143  0.8536 -3.3894 -0.0292
 5097SOL     OW26752   3.958   2.028   3.474 -0.2476  0.4290  0.1102
 5097SOL    HW126753   3.981   1.979   3.395 -0.3348  0.9471 -0.2363
 5097SOL    HW226754   4.040   2.065   3.508 -0.6290  1.5578 -0.1870
 5098SOL     OW26755   1.731   3.669  10.018  0.5643 -0.5096  0.1725
 5098SOL    HW126756   1.718   3.736  10.085  0.1064 -2.8541  2.4155
 5098SOL    HW226757   1.797   3.714   9.965  2.1962 -2.2302  0.7567
 5099SOL     OW26758   3.927   3.677   3.246 -0.0267  0.1516  0.1089
 5099SOL    HW126759   3.868   3.633   3.185  0.8974 -0.1955 -0.5428
 5099SOL    HW226760   3.916   3.771   3.230 -1.7971 -0.2860 -1.1672
 5100SOL     OW26761   2.769   1.475   3.999 -0.0293 -0.8526  0.3221
 5100SOL    HW126762   2.858   1.501   3.976 -1.1664  2.8479  0.0731
 5100SOL    HW226763   2.756   1.527   4.079 -0.6740 -1.6887  0.7519
 5101SOL     OW26764   4.214   3.803   8.203  0.7415 -0.2812 -0.6661
 5101SOL    HW126765   4.264   3.853   8.140 -0.8120  0.1388 -1.5796
 5101SOL    HW226766   4.160   3.864   8.254  1.5595  0.6411 -0.9070
 5102SOL     OW26767   1.881   0.937  14.587  0.0219 -0.1487 -0.0703
 5102SOL    HW126768   1.817   0.866  14.592  0.2282 -0.4775 -2.5262
 5102SOL    HW226769   1.854   0.988  14.511  2.0264 -0.1214 -0.7757
 5103SOL     OW26770   2.319   3.030  13.574  0.5616 -0.0349  0.1012
 5103SOL    HW126771   2.309   3.105  13.516 -2.5005  0.4116  1.1765
 5103SOL    HW226772   2.414   3.026  13.572  0.5082 -1.8291  0.4711
 5104SOL     OW26773   4.622   3.467   6.491 -0.5729 -0.4872  0.6698
 5104SOL    HW126774   4.607   3.388   6.439  1.2056 -0.7159  0.4854
 5104SOL    HW226775   4.636   3.536   6.426  0.1953 -3.2187 -2.0708
 5105SOL     OW26776   1.738   3.125   3.816  0.4183  0.6497  0.4667
 5105SOL    HW126777   1.700   3.202   3.858 -0.7543  0.0042  0.5915
 5105SOL    HW226778   1.830   3.146   3.800  1.2494 -1.9234  1.7659
 5106SOL     OW26779   2.639   1.967  12.103  0.2981  0.0088  0.0287
 5106SOL    HW126780   2.661   1.920  12.183  0.8290 -0.3374 -0.3189
 5106SOL    HW226781   2.691   2.047  12.113 -1.2585  0.8706  1.2813
 5107SOL     OW26782   1.210   3.138  13.697 -0.1611 -0.3126  0.3716
 5107SOL    HW126783   1.209   3.230  13.670 -0.4088 -0.7043 -0.9253
 5107SOL    HW226784   1.288   3.107  13.652 -0.0737  1.2034 -0.5216
 5108SOL     OW26785   2.526   1.012   6.321 -0.2292  0.0295  0.4711
 5108SOL    HW126786   2.537   1.107   6.318  0.4316  0.0375  3.5274
 5108SOL    HW226787   2.432   1.001   6.334 -0.1162 -1.6745 -0.1437
 5109SOL     OW26788   1.442   0.469   7.112  0.1033  0.1337 -0.5743
 5109SOL    HW126789   1.532   0.443   7.131 -0.0449 -0.0561 -0.1584
 5109SOL    HW226790   1.399   0.417   7.179  1.9374 -0.5923  0.0216
 5110SOL     OW26791   0.854   4.422   8.402 -0.4625  0.0107 -0.5717
 5110SOL    HW126792   0.918   4.493   8.394 -0.7224  0.3588  0.4102
 5110SOL    HW226793   0.873   4.393   8.491 -0.9481 -0.0488 -0.4916
 5111SOL     OW26794   3.965   2.067   6.389  0.0165  0.0338 -0.1891
 5111SOL    HW126795   3.946   2.108   6.473  0.1640 -0.7277  0.2101
 5111SOL    HW226796   4.046   2.020   6.411  0.0094  0.5112  0.8678
 5112SOL     OW26797   0.414   1.054   7.406  0.1817 -0.0431  0.2525
 5112SOL    HW126798   0.381   1.002   7.479  0.1304 -1.2857 -0.6665
 5112SOL    HW226799   0.415   1.144   7.440  2.8967  0.1512 -0.3577
 5113SOL     OW26800   2.595   0.294   3.235 -0.3363 -0.4958  0.6333
 5113SOL    HW126801   2.560   0.351   3.167  1.0678 -2.4659 -1.7390
 5113SOL    HW226802   2.519   0.236   3.238 -0.7269 -0.1735 -3.1149
 5114SOL     OW26803   1.966   3.377   5.966 -0.0559 -0.0514  0.0087
 5114SOL    HW126804   2.049   3.424   5.958  0.1494 -0.6584 -1.4059
 5114SOL    HW226805   1.918   3.399   5.886  1.6129  2.1372 -0.3883
 5115SOL     OW26806   4.289   1.607   3.264  0.0302  0.0167 -0.2636
 5115SOL    HW126807   4.214   1.598   3.205 -0.2772  0.3286  0.0753
 5115SOL    HW226808   4.271   1.528   3.315 -0.3839  0.2592 -0.0359
 5116SOL     OW26809   4.274   3.941  16.466 -0.4289  0.2523 -0.1421
 5116SOL    HW126810   4.205   4.007  16.454  1.4884  2.1996 -0.4071
 5116SOL    HW226811   4.282   3.909  16.376 -3.9589 -0.6838 -0.1118
 5117SOL     OW26812   0.328   2.097   1.178 -0.6215  0.2935  0.1902
 5117SOL    HW126813   0.384   2.174   1.187 -1.7909  1.1861 -0.2234
 5117SOL    HW226814   0.392   2.029   1.153 -0.3746 -0.3161  2.4911
 5118SOL     OW26815   0.520   1.329   5.736  0.1994  0.0551  0.2523
 5118SOL    HW126816   0.577   1.265   5.779 -0.4939 -1.3255 -0.8815
 5118SOL    HW226817   0.499   1.279   5.657  2.0915  0.4065 -0.4579
 5119SOL     OW26818   3.233   2.745   5.967  0.3210 -0.2826 -0.3487
 5119SOL    HW126819   3.284   2.708   6.039 -2.0601 -2.3821  0.2485
 5119SOL    HW226820   3.282   2.827   5.966 -1.0186  0.5098  0.1641
 5120SOL     OW26821   3.183   2.843  10.047  0.5488 -0.3374  0.5575
 5120SOL    HW126822   3.165   2.924   9.998 -1.1322 -0.4886  0.9024
 5120SOL    HW226823   3.242   2.880  10.113  2.2059 -1.8706 -0.0857
 5121SOL     OW26824   1.868   1.173   9.193  0.3916 -0.2033 -0.2457
 5121SOL    HW126825   1.916   1.168   9.111 -1.7166 -2.4175 -1.3344
 5121SOL    HW226826   1.775   1.164   9.172  1.2483  0.8104 -4.3452
 5122SOL     OW26827   3.750   0.044   6.146 -0.5821  0.1439 -0.4829
 5122SOL    HW126828   3.748   4.718   6.066 -0.1411 -2.4463  1.2205
 5122SOL    HW226829   3.773   4.699   6.204 -1.4997 -0.3435 -0.7181
 5123SOL     OW26830   1.860   2.254  13.788  0.0339 -0.2153 -0.1714
 5123SOL    HW126831   1.916   2.246  13.711 -2.0051  1.2861 -1.7793
 5123SOL    HW226832   1.911   2.310  13.847 -1.4705  0.4418  0.5081
 5124SOL     OW26833   2.627   0.198  14.614  0.5971 -0.1132  0.1590
 5124SOL    HW126834   2.555   0.249  14.575  0.0602  0.6227  2.1240
 5124SOL    HW226835   2.595   0.119  14.570 -0.4392 -0.8650  2.2291
 5125SOL     OW26836   4.536   4.669   8.943 -0.1310  0.4346  0.1206
 5125SOL    HW126837   4.538   4.635   9.033  0.6354  0.4197  0.0995
 5125SOL    HW226838   4.620   4.637   8.912 -0.4224  1.3196 -1.5947
 5126SOL     OW26839   1.950   0.929   4.657  0.3645 -0.2281 -0.9003
 5126SOL    HW126840   1.993   0.873   4.592 -0.9582  2.1357 -3.8097
 5126SOL    HW226841   1.999   1.011   4.654  0.3629 -0.2256 -0.8595
 5127SOL     OW26842   0.751   0.934   2.868 -0.2689  0.7318 -0.0076
 5127SOL    HW126843   0.678   0.922   2.807 -1.6693 -0.5063  1.9068
 5127SOL    HW226844   0.706   0.941   2.953  0.8672 -1.0013  0.7261
 5128SOL     OW26845   2.224   4.476   9.113  0.4534  0.1616 -0.0019
 5128SOL    HW126846   2.144   4.451   9.159  0.1474  0.9159 -0.1170
 5128SOL    HW226847   2.192   4.517   9.033  2.0603 -1.3685 -1.4400
 5129SOL     OW26848   0.027   4.391   4.347  0.0854 -0.0370 -0.2751
 5129SOL    HW126849   4.697   4.467   4.336  1.1325  1.3537  3.6679
 5129SOL    HW226850   0.099   4.437   4.390 -0.5134  4.0846 -3.6211
 5130SOL     OW26851   2.372   2.024   7.168 -0.0507  0.4044 -0.0915
 5130SOL    HW126852   2.427   1.956   7.129 -1.1044 -0.0096 -0.8692
 5130SOL    HW226853   2.423   2.038   7.247 -1.0986  0.8526  0.5042
 5131SOL     OW26854   0.001   0.432   7.458 -0.4808 -0.3166 -0.6968
 5131SOL    HW126855   4.664   0.498   7.484 -1.2374 -0.8495 -1.2195
 5131SOL    HW226856   0.070   0.469   7.512 -0.6942 -0.4450 -0.3376
 5132SOL     OW26857   0.388   2.812   2.645  0.2530 -0.2237  0.3336
 5132SOL    HW126858   0.329   2.874   2.602 -0.3913 -0.4944  0.8182
 5132SOL    HW226859   0.347   2.733   2.609 -1.5203 -0.8062  3.6618
 5133SOL     OW26860   0.071   2.475   2.640 -0.0246  0.1718  0.0706
 5133SOL    HW126861   0.098   2.524   2.718  3.0193 -1.4771  0.0951
 5133SOL    HW226862   4.708   2.502   2.628  0.3139  1.5577  0.5853
 5134SOL     OW26863   1.217   3.132   6.652 -0.5274  0.4367 -0.2836
 5134SOL    HW126864   1.135   3.138   6.702 -1.3577  0.5926 -1.6659
 5134SOL    HW226865   1.274   3.170   6.719 -0.0201  0.7453 -0.8919
 5135SOL     OW26866   3.878   0.179   7.786  0.6601 -0.2867 -0.2030
 5135SOL    HW126867   3.955   0.213   7.741  0.4325  0.8321  0.2316
 5135SOL    HW226868   3.858   0.106   7.728  1.1961  0.2982 -1.1108
 5136SOL     OW26869   2.922   2.325   6.682  0.2563  0.3505 -0.1462
 5136SOL    HW126870   3.018   2.324   6.676  0.2591 -1.3061  0.2093
 5136SOL    HW226871   2.908   2.235   6.712 -1.0439 -0.3728 -3.0211
 5137SOL     OW26872   2.396   4.556  15.145 -0.1361 -0.4749 -0.0168
 5137SOL    HW126873   2.457   4.486  15.167  0.2723  0.4343  1.7741
 5137SOL    HW226874   2.308   4.520  15.150  0.8698 -2.3923  3.7756
 5138SOL     OW26875   2.197   2.665  10.944 -0.3935 -0.5928 -0.1399
 5138SOL    HW126876   2.266   2.731  10.933 -1.0236 -0.1587 -1.4352
 5138SOL    HW226877   2.122   2.722  10.928  1.2041  0.9969 -1.9565
 5139SOL     OW26878   2.526   3.268   7.224 -0.0094 -0.6145  0.6007
 5139SOL    HW126879   2.468   3.307   7.158 -0.9588 -2.5017  0.3279
 5139SOL    HW226880   2.597   3.233   7.171  1.1147 -0.5165  2.0131
 5140SOL     OW26881   3.050   1.454   4.748  0.1937 -0.2549  0.3370
 5140SOL    HW126882   3.141   1.441   4.775  1.1589  1.3903 -2.1372
 5140SOL    HW226883   3.003   1.413   4.821 -1.2815 -1.3666 -1.2386
 5141SOL     OW26884   0.793   2.036   0.292 -0.6973  0.0307  0.3575
 5141SOL    HW126885   0.844   2.069   0.217 -0.0235  2.0019  1.6975
 5141SOL    HW226886   0.798   2.116   0.344 -0.0908 -0.2100  0.6728
 5142SOL     OW26887   3.919   1.063   9.354 -0.0107 -0.4069 -0.0344
 5142SOL    HW126888   3.943   1.152   9.328 -1.4826 -0.0460 -0.1855
 5142SOL    HW226889   4.010   1.034   9.365  0.5401  0.4155 -2.3160
 5143SOL     OW26890   4.031   2.283   6.237  0.3596  0.1589  0.2116
 5143SOL    HW126891   4.113   2.306   6.281  0.0951  0.3543  0.6048
 5143SOL    HW226892   3.984   2.215   6.286  0.0381 -1.0578 -1.8203
 5144SOL     OW26893   2.831   4.650   8.294 -0.3703 -0.1230 -0.1059
 5144SOL    HW126894   2.854   4.671   8.385  0.7540  0.2686 -0.4685
 5144SOL    HW226895   2.763   4.714   8.274 -1.0194 -0.8578 -0.2079
 5145SOL     OW26896   0.382   3.609   4.901 -0.0318  0.3205 -0.5956
 5145SOL    HW126897   0.377   3.675   4.832  0.6722  1.6285  0.6202
 5145SOL    HW226898   0.332   3.653   4.970  1.4347  1.5441 -0.3231
 5146SOL     OW26899   1.602   4.137   9.671 -0.2874 -0.2876  0.0252
 5146SOL    HW126900   1.551   4.139   9.590  0.1007 -1.8441 -0.2616
 5146SOL    HW226901   1.688   4.121   9.632 -0.1048 -0.7128  0.6040
 5147SOL     OW26902   4.596   0.154   2.143 -0.0871  0.3858 -0.1764
 5147SOL    HW126903   4.602   0.167   2.049 -1.9075  0.8607 -0.2290
 5147SOL    HW226904   4.583   0.243   2.177 -1.5237 -0.1288  0.6513
 5148SOL     OW26905   2.976   1.122   9.861  0.1053 -0.0801  0.2659
 5148SOL    HW126906   2.919   1.109   9.785  0.1721 -1.5662  0.4827
 5148SOL    HW226907   2.916   1.161   9.924 -1.2150  1.6203 -2.0215
 5149SOL     OW26908   4.197   1.564  15.234  0.0203  0.6567  0.6044
 5149SOL    HW126909   4.169   1.641  15.283  0.9038  1.0029  0.5740
 5149SOL    HW226910   4.258   1.527  15.298 -1.7896 -1.9804  0.7814
 5150SOL     OW26911   2.794   2.180   7.387  0.5492  0.5686 -0.3801
 5150SOL    HW126912   2.842   2.203   7.466 -0.4263 -2.9522  1.2125
 5150SOL    HW226913   2.868   2.178   7.326  1.3202 -0.9808  0.6180
 5151SOL     OW26914   0.999   1.830  16.628  0.2379  0.4560  0.0436
 5151SOL    HW126915   0.997   1.735  16.620  1.2289  0.1306  3.7408
 5151SOL    HW226916   0.917   1.858  16.668  0.3638 -1.9796  2.0219
 5152SOL     OW26917   4.233   2.985   7.062 -0.2325 -0.0582  0.2106
 5152SOL    HW126918   4.229   3.024   7.149 -0.9521 -0.8145  0.5109
 5152SOL    HW226919   4.308   3.030   7.023 -0.3643 -0.5689 -0.6369
 5153SOL     OW26920   4.584   1.033   5.624 -0.0244  1.1200 -0.5557
 5153SOL    HW126921   4.611   1.076   5.705  0.9355  1.0577 -0.8444
 5153SOL    HW226922   4.523   1.089   5.576 -0.9988  0.0436 -0.5656
 5154SOL     OW26923   0.570   0.676   8.161 -0.6117 -0.1501  0.2495
 5154SOL    HW126924   0.540   0.612   8.097  1.1353 -1.5112  0.7973
 5154SOL    HW226925   0.558   0.626   8.242 -1.8538  1.2885  0.9551
 5155SOL     OW26926   1.062   4.215  13.369 -0.0413 -0.0915  0.1440
 5155SOL    HW126927   0.986   4.241  13.421 -0.3480  1.5787 -1.1299
 5155SOL    HW226928   1.071   4.127  13.406  0.1972 -0.4202 -0.7047
 5156SOL     OW26929   0.800   3.395  14.634 -0.3419 -0.2751 -0.2066
 5156SOL    HW126930   0.770   3.420  14.546  1.0219  0.7205 -0.3796
 5156SOL    HW226931   0.755   3.311  14.640 -2.4728  1.1508  3.5282
 5157SOL     OW26932   0.094   1.813   1.582  1.1848  0.4495  0.2981
 5157SOL    HW126933   0.179   1.770   1.590  1.2180  0.1700 -1.4827
 5157SOL    HW226934   0.116   1.897   1.542 -0.5138  0.8123  0.1346
 5158SOL     OW26935   0.045   4.266   5.094 -0.5320  0.1047  0.1375
 5158SOL    HW126936   4.722   4.253   5.174  0.8830 -0.1287  0.9954
 5158SOL    HW226937   0.097   4.186   5.098 -1.4043 -0.3609  1.9611
 5159SOL     OW26938   1.491   4.225   9.439 -0.5591  0.1121 -0.4413
 5159SOL    HW126939   1.435   4.302   9.450  2.4408  2.3862 -1.1568
 5159SOL    HW226940   1.502   4.214   9.344  3.4208 -0.5052  0.0947
 5160SOL     OW26941   1.277   0.485  16.789 -0.0064  0.1136 -0.4685
 5160SOL    HW126942   1.352   0.443  16.832 -0.5610  0.7760  1.1789
 5160SOL    HW226943   1.221   0.409  16.777  0.0363  0.2435 -1.4715
 5161SOL     OW26944   0.245   2.698   8.885 -0.4787  0.3521  0.3471
 5161SOL    HW126945   0.155   2.668   8.889 -0.1414 -0.9254 -1.9361
 5161SOL    HW226946   0.234   2.792   8.902 -2.3440  0.1400  0.2490
 5162SOL     OW26947   2.005   0.062   1.869  0.6415 -0.2999 -0.3252
 5162SOL    HW126948   2.004   4.694   1.860  0.3699 -0.4527  1.4536
 5162SOL    HW226949   1.952   0.086   1.944 -0.0182 -0.6736 -0.6751
 5163SOL     OW26950   0.386   0.540   7.838 -0.3886  0.5315 -0.1511
 5163SOL    HW126951   0.402   0.472   7.904 -1.2379  2.7340  2.3074
 5163SOL    HW226952   0.459   0.601   7.850  0.0825  0.1016 -0.8545
 5164SOL     OW26953   0.477   4.562  11.386 -0.6387 -0.1693 -0.1016
 5164SOL    HW126954   0.525   4.643  11.367  2.0868 -1.5607  0.9372
 5164SOL    HW226955   0.541   4.492  11.387  2.7468  2.9794  2.3103
 5165SOL     OW26956   0.357   2.157   4.804 -0.0899 -0.6432 -0.1450
 5165SOL    HW126957   0.392   2.082   4.852  1.5906  0.0854 -0.2390
 5165SOL    HW226958   0.445   2.191   4.789  0.0908 -0.0617  2.1908
 5166SOL     OW26959   4.428   0.562   5.623  0.3046  0.7212  0.0079
 5166SOL    HW126960   4.373   0.633   5.656  0.8347  1.2719 -0.2935
 5166SOL    HW226961   4.484   0.551   5.699 -0.2678  3.9512  0.8810
 5167SOL     OW26962   1.121   0.705  11.568 -0.0968 -0.2046 -0.3663
 5167SOL    HW126963   1.204   0.659  11.571 -0.5341 -0.8525  1.5422
 5167SOL    HW226964   1.139   0.789  11.610 -1.7802  0.6771 -1.4123
 5168SOL     OW26965   1.944   3.348   1.895 -0.1975 -0.4221  0.0955
 5168SOL    HW126966   2.006   3.376   1.828  0.5607  0.0705  1.0005
 5168SOL    HW226967   1.982   3.395   1.969  0.7108 -1.5187  0.3246
 5169SOL     OW26968   4.712   0.532  11.577 -0.1984  0.6059  0.0261
 5169SOL    HW126969   0.055   0.571  11.628  0.8798 -1.7051  0.3067
 5169SOL    HW226970   4.688   0.610  11.526  2.7088  1.3729 -0.1872
 5170SOL     OW26971   4.205   4.316  10.585  0.2649 -0.3261  0.0827
 5170SOL    HW126972   4.194   4.231  10.543  0.7526 -0.5783  0.4631
 5170SOL    HW226973   4.128   4.361  10.552  2.0562  2.1252 -0.7681
 5171SOL     OW26974   4.408   4.158   3.812  0.2709  0.7694  0.4139
 5171SOL    HW126975   4.477   4.102   3.776  1.2113  0.7646  2.2352
 5171SOL    HW226976   4.415   4.124   3.902 -0.7655 -0.5885 -0.0235
 5172SOL     OW26977   0.507   4.210  17.284  0.0407  0.3550 -0.3048
 5172SOL    HW126978   0.484   4.269  17.212 -0.7012  0.8968  0.3714
 5172SOL    HW226979   0.563   4.269  17.335 -0.1697  0.3671 -0.0895
 5173SOL     OW26980   4.216   4.233  12.942  0.2185 -0.3143  0.2669
 5173SOL    HW126981   4.251   4.267  13.024  1.0981 -1.4579  0.3628
 5173SOL    HW226982   4.295   4.204  12.897  1.7900  2.2971  1.3078
 5174SOL     OW26983   3.814   0.768   2.567 -0.6282 -0.0029  0.4640
 5174SOL    HW126984   3.787   0.694   2.513  1.9269 -1.7493  1.6234
 5174SOL    HW226985   3.902   0.740   2.591 -0.8003  0.5320  1.7755
 5175SOL     OW26986   0.416   0.628   1.736  0.4736  1.3460 -0.0152
 5175SOL    HW126987   0.411   0.561   1.667  0.3374  0.1501  1.1446
 5175SOL    HW226988   0.449   0.570   1.805  2.5879  2.2850 -0.2370
 5176SOL     OW26989   3.730   3.328   6.815  0.4516  0.0177  0.5705
 5176SOL    HW126990   3.663   3.377   6.862  1.3560  1.8922 -0.1044
 5176SOL    HW226991   3.798   3.339   6.881 -0.8749  2.8369  1.4545
 5177SOL     OW26992   4.122   0.822   8.440 -0.0295  0.5017 -0.4417
 5177SOL    HW126993   4.051   0.872   8.481 -0.2807 -1.2359  1.2392
 5177SOL    HW226994   4.179   0.827   8.518  1.4664  0.0790 -1.5055
 5178SOL     OW26995   1.792   1.657   5.779  0.5990  0.1962 -0.2014
 5178SOL    HW126996   1.765   1.717   5.850  1.3004 -2.4945  2.3398
 5178SOL    HW226997   1.753   1.694   5.700  3.0251  2.6762 -0.2613
 5179SOL     OW26998   0.259   0.205   8.234  0.3499  0.3023 -0.0953
 5179SOL    HW126999   0.349   0.172   8.229  0.5657  0.9152 -0.2610
 5179SOL    HW227000   0.236   0.193   8.326  1.4358 -0.8354  0.0318
 5180SOL     OW27001   2.530   0.988   4.376  0.5958 -0.3295  0.1606
 5180SOL    HW127002   2.624   0.995   4.392  0.4501  0.1764  0.7997
 5180SOL    HW227003   2.523   0.998   4.281  1.2158  1.1661  0.2777
 5181SOL     OW27004   2.719   1.533   5.359 -0.3179  0.1466 -0.1618
 5181SOL    HW127005   2.771   1.580   5.294  1.5550  1.5569  2.3355
 5181SOL    HW227006   2.669   1.607   5.393  1.8787 -0.0670  3.5368
 5182SOL     OW27007   2.954   3.560   6.546 -0.5268 -0.5330 -0.5706
 5182SOL    HW127008   3.009   3.545   6.469  2.1747 -3.8751  2.0152
 5182SOL    HW227009   2.871   3.548   6.500  0.6934 -0.5080 -2.7375
 5183SOL     OW27010   3.416   1.076  11.098 -0.0670  0.5685 -0.1187
 5183SOL    HW127011   3.327   1.103  11.080  0.2318  1.8784  0.3342
 5183SOL    HW227012   3.433   1.112  11.186  1.6349 -0.5684  0.0202
 5184SOL     OW27013   3.859   2.526   7.669  0.3441 -0.4861  0.0202
 5184SOL    HW127014   3.826   2.470   7.739 -0.8775  0.0566 -0.1346
 5184SOL    HW227015   3.939   2.481   7.642  0.9182  0.0861  0.7837
 5185SOL     OW27016   0.815   0.914  16.545 -0.1656 -0.1050  0.2344
 5185SOL    HW127017   0.892   0.856  16.544 -1.1257 -1.3679 -0.3135
 5185SOL    HW227018   0.856   0.999  16.528  0.4235 -0.2003  1.2289
 5186SOL     OW27019   3.604   0.908   7.659 -0.2776  0.2447  0.5503
 5186SOL    HW127020   3.645   0.988   7.694  1.0785 -0.5938  0.9040
 5186SOL    HW227021   3.567   0.869   7.738 -1.0175  0.1906  0.1756
 5187SOL     OW27022   3.564   1.073   9.469  0.3914  0.0085 -0.5323
 5187SOL    HW127023   3.634   1.034   9.521 -0.7113 -0.5901  0.4919
 5187SOL    HW227024   3.557   1.004   9.404 -3.4040 -1.1765  1.1331
 5188SOL     OW27025   0.181   0.562   6.511  0.4838 -0.0568  0.0400
 5188SOL    HW127026   0.211   0.524   6.429  2.5594  0.1284  0.7096
 5188SOL    HW227027   0.130   0.489   6.545 -1.9473  0.8410 -1.6983
 5189SOL     OW27028   2.765   2.439   6.873 -0.2717 -0.2051  0.2543
 5189SOL    HW127029   2.827   2.410   6.806 -1.1542 -0.1877 -0.5685
 5189SOL    HW227030   2.818   2.507   6.915  1.1391 -0.4522 -1.1474
 5190SOL     OW27031   1.785   4.439   6.188  0.4145  0.1884 -0.2757
 5190SOL    HW127032   1.864   4.490   6.207 -1.9868  3.6444  0.3700
 5190SOL    HW227033   1.784   4.404   6.277 -1.6784  0.8336 -0.0642
 5191SOL     OW27034   4.261   1.438   2.924  0.5944  0.1168 -0.5548
 5191SOL    HW127035   4.249   1.395   2.839 -0.8206 -1.9657  0.7076
 5191SOL    HW227036   4.278   1.364   2.982 -1.8803  1.3771  1.7874
 5192SOL     OW27037   2.573   4.204  14.121  0.2687  0.9158 -0.2731
 5192SOL    HW127038   2.626   4.142  14.171  0.2530 -0.4692 -1.9854
 5192SOL    HW227039   2.633   4.278  14.111  3.0926 -1.3477 -0.0659
 5193SOL     OW27040   2.019   0.962  12.216  0.4917 -0.1069  0.3852
 5193SOL    HW127041   1.934   0.997  12.243  2.1040  2.9719  1.4184
 5193SOL    HW227042   2.067   1.037  12.251  1.6454  0.4079 -2.3056
 5194SOL     OW27043   3.053   1.084   1.213 -0.1129  0.8063  0.6830
 5194SOL    HW127044   3.049   1.177   1.234 -0.8765  0.1729  3.3296
 5194SOL    HW227045   3.117   1.096   1.143 -0.0521  0.8420  0.7454
 5195SOL     OW27046   3.657   0.259   4.988  0.0442  0.1187  0.1232
 5195SOL    HW127047   3.734   0.313   4.969 -0.7708  1.9462  2.0626
 5195SOL    HW227048   3.594   0.331   4.992 -2.5292 -2.1210 -0.0669
 5196SOL     OW27049   1.648   1.377  15.596 -0.2889 -0.5326 -0.1118
 5196SOL    HW127050   1.624   1.391  15.688 -1.4248 -0.7624 -0.3637
 5196SOL    HW227051   1.590   1.436  15.547  0.2022 -0.0576 -0.1101
 5197SOL     OW27052   4.088   4.435   4.433  0.0917 -0.2632  0.2458
 5197SOL    HW127053   4.126   4.348   4.424  0.3812  0.1962 -2.9422
 5197SOL    HW227054   4.059   4.454   4.344  0.1279 -1.8120 -0.0995
 5198SOL     OW27055   1.017   1.645  16.258 -0.4216 -0.0266 -0.2574
 5198SOL    HW127056   1.061   1.626  16.341 -0.8270 -2.0628 -0.5109
 5198SOL    HW227057   1.101   1.659  16.213 -0.5007 -0.4640 -0.5412
 5199SOL     OW27058   4.494   1.119  15.424  0.2098  0.5248  0.5043
 5199SOL    HW127059   4.574   1.147  15.379 -0.1906  1.0063  0.0852
 5199SOL    HW227060   4.522   1.063  15.496  1.1835  1.9784  1.2346
 5200SOL     OW27061   0.965   4.364   7.217  0.3876  0.5114 -0.4393
 5200SOL    HW127062   0.874   4.339   7.202  1.4217 -2.0240 -2.5499
 5200SOL    HW227063   1.003   4.278   7.199  0.3474  0.7345 -1.6150
 5201SOL     OW27064   2.870   2.344   9.079  0.1920 -0.0176 -0.6100
 5201SOL    HW127065   2.949   2.292   9.093 -1.1331 -1.2725  2.2312
 5201SOL    HW227066   2.842   2.362   9.168  1.5000 -1.1265  0.0263
 5202SOL     OW27067   3.039   2.211   1.887  0.3503 -0.4440 -0.4443
 5202SOL    HW127068   3.117   2.158   1.901 -1.0728 -1.8280  2.2877
 5202SOL    HW227069   3.075   2.287   1.932 -0.9155  0.5917 -1.1776
 5203SOL     OW27070   2.681   2.604   8.830 -0.1380  0.9217  0.0805
 5203SOL    HW127071   2.626   2.630   8.904 -2.1102  1.8183 -1.6671
 5203SOL    HW227072   2.615   2.619   8.762 -1.7692  0.1931  1.4905
 5204SOL     OW27073   1.621   3.101   4.628 -0.1248  0.3664  0.9439
 5204SOL    HW127074   1.650   3.031   4.687 -1.9291  0.0636  1.4803
 5204SOL    HW227075   1.677   3.084   4.552  1.5300 -0.8530  2.4209
 5205SOL     OW27076   0.525   4.542   4.321 -0.3357 -0.5052 -0.3464
 5205SOL    HW127077   0.571   4.598   4.259  0.5280 -0.3611  0.4207
 5205SOL    HW227078   0.603   4.496   4.350 -0.1844 -0.0545 -0.0393
 5206SOL     OW27079   3.036   2.962   8.684  0.4173 -1.3451  0.2373
 5206SOL    HW127080   2.992   2.884   8.716  0.4100 -2.3984 -2.3797
 5206SOL    HW227081   3.035   2.939   8.591 -0.0760  0.5133 -0.2358
 5207SOL     OW27082   1.284   3.684  12.586 -0.0296 -0.3268  0.0681
 5207SOL    HW127083   1.355   3.631  12.549 -0.1006 -0.4886  0.1644
 5207SOL    HW227084   1.247   3.621  12.647 -2.9364  1.0320 -0.3201
 5208SOL     OW27085   3.037   0.315   3.119  0.3019 -0.5338 -0.0375
 5208SOL    HW127086   3.021   0.298   3.212 -0.7327 -1.0515 -0.3106
 5208SOL    HW227087   3.106   0.380   3.127 -0.3770  0.5759 -3.3451
 5209SOL     OW27088   2.076   3.461   4.843 -0.0336 -0.1923  0.2531
 5209SOL    HW127089   2.088   3.556   4.844 -0.5416 -0.1206  0.0123
 5209SOL    HW227090   2.050   3.450   4.934 -1.7381 -0.1425 -0.2150
 5210SOL     OW27091   0.244   4.427   8.201 -0.3942  0.8022  0.0595
 5210SOL    HW127092   0.295   4.363   8.251 -2.5357 -1.4665 -0.6616
 5210SOL    HW227093   0.240   4.504   8.258 -0.1166  1.5246 -0.8802
 5211SOL     OW27094   2.076   1.044   5.317  0.1138  0.2274 -0.1454
 5211SOL    HW127095   2.086   1.119   5.376  2.6453 -1.2940  1.3393
 5211SOL    HW227096   2.153   1.061   5.263  1.5803 -2.6050  1.0600
 5212SOL     OW27097   2.746   3.057  17.501 -0.4473  0.3284  0.6299
 5212SOL    HW127098   2.710   3.060  17.589 -0.1362  0.1123  0.7633
 5212SOL    HW227099   2.682   2.995  17.466 -1.2136  0.7268  1.3151
 5213SOL     OW27100   0.102   3.931  15.052  0.6530 -0.2869  0.1106
 5213SOL    HW127101   0.118   3.974  15.135  0.7242  1.7347 -0.9499
 5213SOL    HW227102   0.162   3.856  15.048 -2.2411 -2.6967  2.1771
 5214SOL     OW27103   1.910   2.273   4.271 -0.0994 -0.7188 -0.3174
 5214SOL    HW127104   1.864   2.291   4.189  0.6777 -2.9871 -1.2373
 5214SOL    HW227105   1.841   2.243   4.331  0.3636 -0.5721  0.2874
 5215SOL     OW27106   3.776   3.833   1.675  0.1814  0.6743  0.0334
 5215SOL    HW127107   3.763   3.928   1.666  0.5629  0.6715 -0.5382
 5215SOL    HW227108   3.745   3.823   1.765  1.2486  2.7826  0.6333
 5216SOL     OW27109   3.029   3.355   9.728 -0.0646  0.0075  0.4608
 5216SOL    HW127110   2.978   3.286   9.770 -0.3056 -0.0945 -0.0028
 5216SOL    HW227111   3.112   3.311   9.709  0.9232  1.7242  0.7298
 5217SOL     OW27112   3.547   0.125   2.718  0.0067 -0.0627  0.8367
 5217SOL    HW127113   3.469   0.132   2.664  1.3416 -2.2615 -1.4260
 5217SOL    HW227114   3.515   0.075   2.793  0.5641  0.4484  1.4102
 5218SOL     OW27115   3.000   2.761   4.809 -0.3562  0.0246 -0.5697
 5218SOL    HW127116   3.050   2.843   4.817  0.4996 -0.6587  1.0208
 5218SOL    HW227117   2.918   2.801   4.783 -1.9955 -1.8343  1.7159
 5219SOL     OW27118   4.664   3.546   8.178  0.2650 -0.4978 -0.3021
 5219SOL    HW127119   4.632   3.584   8.260 -0.2119 -0.1752 -0.6315
 5219SOL    HW227120   4.680   3.460   8.216  1.7523  0.0876  0.3966
 5220SOL     OW27121   3.680   2.124   7.625 -0.2900  0.4060  0.4946
 5220SOL    HW127122   3.620   2.198   7.631 -2.5018 -1.5709  2.5278
 5220SOL    HW227123   3.666   2.089   7.713  1.0673 -0.9040  0.1843
 5221SOL     OW27124   1.935   2.503  12.643  0.4053  0.3214 -0.3455
 5221SOL    HW127125   1.955   2.421  12.598 -0.0834 -0.4779  0.8841
 5221SOL    HW227126   2.000   2.565  12.612  0.8519  0.9556  1.8397
 5222SOL     OW27127   1.087   4.390   8.127  0.1781  0.7029 -0.0694
 5222SOL    HW127128   1.118   4.401   8.037 -5.4388  0.5048 -2.0433
 5222SOL    HW227129   1.000   4.350   8.120  1.2127 -1.1570 -2.2087
 5223SOL     OW27130   3.256   2.063  15.899 -0.7707  0.2161 -0.1452
 5223SOL    HW127131   3.291   2.015  15.974  0.0894  0.3393 -0.4736
 5223SOL    HW227132   3.234   1.983  15.850  0.9499  0.8307 -1.8949
 5224SOL     OW27133   0.766   2.276   7.399 -0.1731  0.2467 -0.2839
 5224SOL    HW127134   0.820   2.200   7.374  0.2092 -0.1306  1.7090
 5224SOL    HW227135   0.828   2.332   7.446 -1.6454  1.8006 -0.2232
 5225SOL     OW27136   2.847   2.988   7.209 -0.3197  0.0596 -0.4556
 5225SOL    HW127137   2.810   3.071   7.178  0.3338 -0.2539 -2.0472
 5225SOL    HW227138   2.938   2.987   7.178 -0.0170 -0.7952  0.4481
 5226SOL     OW27139   0.906   3.845   0.294 -0.9646 -0.4313 -0.3712
 5226SOL    HW127140   0.976   3.882   0.241 -2.6903  1.6184 -1.2410
 5226SOL    HW227141   0.918   3.897   0.374 -1.4892  0.2614 -0.7351
 5227SOL     OW27142   1.215   3.516  17.393 -0.2620 -0.0566  0.0141
 5227SOL    HW127143   1.275   3.550  17.459 -0.3732  0.1964 -0.0153
 5227SOL    HW227144   1.278   3.488  17.327 -0.8458 -1.4634  0.0489
 5228SOL     OW27145   1.703   0.268   3.160 -0.9524  0.3587 -0.3310
 5228SOL    HW127146   1.686   0.354   3.198 -0.4023  0.3405 -0.0405
 5228SOL    HW227147   1.796   0.276   3.138 -0.5404  0.1099  1.2735
 5229SOL     OW27148   1.789   3.095   4.340 -0.2836 -0.0868  0.6859
 5229SOL    HW127149   1.720   3.041   4.300 -0.6246 -0.9233  2.4077
 5229SOL    HW227150   1.865   3.037   4.343  0.0145  0.3118  0.8262
 5230SOL     OW27151   0.122   4.170  12.122  0.1054 -0.1653 -0.5189
 5230SOL    HW127152   0.159   4.081  12.123 -4.2677 -1.9287  3.0915
 5230SOL    HW227153   0.197   4.209  12.168 -2.0283  1.1567  1.8534
 5231SOL     OW27154   2.162   2.017  15.860  0.2986  0.0484 -0.1313
 5231SOL    HW127155   2.170   2.061  15.775 -0.8278  3.7549  1.6727
 5231SOL    HW227156   2.119   1.936  15.834 -1.3914  0.8682  0.1203
 5232SOL     OW27157   1.361   1.718   7.040 -0.1492 -0.0499 -0.4013
 5232SOL    HW127158   1.297   1.781   7.073 -0.2283 -0.3340 -0.0130
 5232SOL    HW227159   1.311   1.666   6.978  0.2007 -0.1055 -0.6394
 5233SOL     OW27160   0.171   3.802   3.720  0.0541 -0.2149 -0.2945
 5233SOL    HW127161   0.198   3.777   3.808 -2.2649  1.2930  0.8499
 5233SOL    HW227162   0.178   3.897   3.724 -1.1900 -0.0982 -0.8838
 5234SOL     OW27163   4.167   3.405   4.486  0.9351  0.1545 -0.5147
 5234SOL    HW127164   4.117   3.324   4.500  0.1985  0.8405  0.7472
 5234SOL    HW227165   4.129   3.424   4.400  1.6513  1.4037 -0.5529
 5235SOL     OW27166   2.534   2.097  12.412  0.5332 -0.0161  0.0302
 5235SOL    HW127167   2.617   2.057  12.385 -0.3198 -2.0031  0.2981
 5235SOL    HW227168   2.514   2.047  12.491 -0.5580  0.3855 -0.0026
 5236SOL     OW27169   0.652   1.351   9.214  0.0277 -0.1149  0.1578
 5236SOL    HW127170   0.582   1.398   9.167 -2.1129 -1.6555  1.8177
 5236SOL    HW227171   0.686   1.433   9.249  0.9420  0.0351 -1.0784
 5237SOL     OW27172   0.541   4.281   7.522  0.1376  0.3733  0.0253
 5237SOL    HW127173   0.633   4.268   7.542 -0.2442 -0.1698  1.4067
 5237SOL    HW227174   0.520   4.367   7.560 -1.1174  0.2703 -0.4169
 5238SOL     OW27175   1.732   2.627   1.166  0.0821  0.3705  0.1659
 5238SOL    HW127176   1.827   2.635   1.160  0.0537  0.4305 -0.2153
 5238SOL    HW227177   1.706   2.712   1.201  1.6841  1.6598 -1.7592
 5239SOL     OW27178   3.188   2.592  10.537 -0.2680 -0.2044  0.0726
 5239SOL    HW127179   3.156   2.604  10.448  0.8720 -2.1446 -0.5912
 5239SOL    HW227180   3.279   2.570  10.517  0.2424  1.7854  0.2455
 5240SOL     OW27181   0.675   3.848   3.920 -0.0802  0.6043 -0.2170
 5240SOL    HW127182   0.648   3.793   3.847  2.0542 -0.7924  0.0373
 5240SOL    HW227183   0.590   3.887   3.942 -0.6616  0.6522 -2.5206
 5241SOL     OW27184   2.845   0.577   2.862  0.2856  0.0851  0.4592
 5241SOL    HW127185   2.874   0.668   2.864 -1.5995  0.6219  2.7790
 5241SOL    HW227186   2.868   0.547   2.950  1.5225 -0.1558  0.0537
 5242SOL     OW27187   2.411   2.912  12.973  0.3523  0.2878 -0.2617
 5242SOL    HW127188   2.465   2.835  12.954  0.5094  0.5743 -0.9714
 5242SOL    HW227189   2.418   2.902  13.068  3.6589 -0.2168 -0.5794
 5243SOL     OW27190   2.854   1.393  11.067  0.7205 -0.0481 -0.0838
 5243SOL    HW127191   2.907   1.440  11.132 -0.1995  0.9024 -0.0314
 5243SOL    HW227192   2.926   1.365  11.012 -1.4224 -1.3580 -2.2126
 5244SOL     OW27193   0.132   1.960   7.102  0.1010  0.7037  0.1236
 5244SOL    HW127194   0.145   1.930   7.192 -0.1267 -1.7861 -0.6589
 5244SOL    HW227195   0.060   1.912   7.062  1.0918 -0.5819 -0.1528
 5245SOL     OW27196   1.912   4.250   0.976  0.8952 -0.1026 -0.2858
 5245SOL    HW127197   1.903   4.164   1.017  0.4772 -1.3835 -3.0706
 5245SOL    HW227198   2.007   4.241   0.971  0.6304 -0.8922 -3.5963
 5246SOL     OW27199   2.585   3.928  10.934  0.3248  0.1511  0.6680
 5246SOL    HW127200   2.648   3.929  10.862  0.7079  0.1424  1.0026
 5246SOL    HW227201   2.631   3.866  10.991 -0.5289 -0.2046  0.9672
 5247SOL     OW27202   4.062   4.277   0.099 -0.0187 -0.3341 -0.0904
 5247SOL    HW127203   4.056   4.335   0.175 -0.6335 -1.5455  0.7983
 5247SOL    HW227204   4.142   4.230   0.123 -0.3686 -1.7386 -1.7010
 5248SOL     OW27205   4.449   2.364   4.294 -0.4065  0.5241  0.4204
 5248SOL    HW127206   4.440   2.365   4.198 -0.9632 -0.2675  0.4620
 5248SOL    HW227207   4.366   2.332   4.328 -0.5390 -0.6467 -0.9471
 5249SOL     OW27208   3.702   2.747   5.719  0.4737  0.6712 -0.4320
 5249SOL    HW127209   3.711   2.703   5.803 -0.5310  1.7502  0.2399
 5249SOL    HW227210   3.615   2.785   5.732  0.1383  0.4183 -1.9689
 5250SOL     OW27211   3.352   4.119   3.498 -0.3948 -0.1767  0.6573
 5250SOL    HW127212   3.420   4.101   3.562  1.4871  0.1031 -1.2802
 5250SOL    HW227213   3.369   4.061   3.424  0.7725  2.6622 -1.3326
 5251SOL     OW27214   0.610   3.535   4.424  0.5177  0.0841 -0.5968
 5251SOL    HW127215   0.529   3.546   4.474  1.2804  1.0459  0.4286
 5251SOL    HW227216   0.571   3.494   4.346  1.4889  0.7080 -1.4152
 5252SOL     OW27217   0.166   4.277  13.997 -0.1392  0.1589 -0.1237
 5252SOL    HW127218   0.113   4.266  14.076 -0.5655 -0.5533 -0.5113
 5252SOL    HW227219   0.236   4.212  13.999 -0.6760 -0.3916  1.2131
 5253SOL     OW27220   2.169   2.950   0.518  0.3618  0.2021  0.3555
 5253SOL    HW127221   2.129   2.908   0.441  3.1767  0.6288 -1.3321
 5253SOL    HW227222   2.139   2.886   0.582  1.9501 -1.5724 -0.6493
 5254SOL     OW27223   1.571   1.489   8.529 -0.9186  0.6130 -0.3730
 5254SOL    HW127224   1.505   1.540   8.482 -0.8625  2.1525  1.2061
 5254SOL    HW227225   1.640   1.463   8.467 -0.1949 -1.7709  1.4300
 5255SOL     OW27226   4.666   4.647  12.225  0.1521 -0.1005 -0.1345
 5255SOL    HW127227   0.029   4.643  12.254  0.4624  3.7853 -0.4685
 5255SOL    HW227228   4.619   4.639  12.308  3.4220  0.6436  1.7772
 5256SOL     OW27229   2.786   0.592   5.204  0.2388  0.4947 -0.4961
 5256SOL    HW127230   2.852   0.534   5.242 -1.2018 -0.0116  1.2452
 5256SOL    HW227231   2.751   0.635   5.281  2.1980  1.1017  0.0362
 5257SOL     OW27232   2.773   3.100  12.647 -0.0220 -0.4717 -0.8732
 5257SOL    HW127233   2.783   3.194  12.662  2.4009 -1.1135  1.5333
 5257SOL    HW227234   2.861   3.068  12.666  1.3951  3.0926 -1.3909
 5258SOL     OW27235   0.068   3.402   4.794 -0.5338  0.1099 -1.5039
 5258SOL    HW127236   0.133   3.470   4.810 -0.3422 -0.0180 -1.7424
 5258SOL    HW227237   0.126   3.326   4.794 -1.6709 -0.7786  1.6797
 5259SOL     OW27238   1.993   4.536  15.833 -0.6703 -0.7739  0.7806
 5259SOL    HW127239   2.068   4.476  15.833  0.9214  1.2379 -0.9851
 5259SOL    HW227240   1.915   4.481  15.833 -0.9080 -0.4317  0.0561
 5260SOL     OW27241   0.039   1.098   6.560 -0.0248 -0.0511 -0.3618
 5260SOL    HW127242   0.121   1.063   6.596  1.0203  1.4140 -1.3225
 5260SOL    HW227243   4.708   1.085   6.634  3.4654  1.3867  2.6522
 5261SOL     OW27244   1.047   4.382   0.056 -0.3553 -0.7284  0.3278
 5261SOL    HW127245   0.955   4.369   0.077  0.0577 -2.0192  1.3712
 5261SOL    HW227246   1.087   4.346   0.136  1.1559  1.1897  0.4314
 5262SOL     OW27247   0.754   4.630   8.082 -0.1659 -0.1358  0.2016
 5262SOL    HW127248   0.672   4.589   8.112  0.4997 -1.1012  0.6797
 5262SOL    HW227249   0.772   4.577   8.005  0.3655 -1.7279  1.4361
 5263SOL     OW27250   0.012   3.806   2.062  0.0238  0.0024 -0.1857
 5263SOL    HW127251   0.087   3.865   2.063  0.1360 -0.1634  1.5377
 5263SOL    HW227252   0.054   3.720   2.064 -0.3451 -0.2075 -2.4506
 5264SOL     OW27253   4.353   1.968   9.964 -0.0953  0.3036 -0.0983
 5264SOL    HW127254   4.310   1.891   9.927  0.1967  0.5591 -0.9628
 5264SOL    HW227255   4.412   1.977   9.889  1.0458  0.8165  0.8574
 5265SOL     OW27256   1.286   2.731   3.445  0.6835  0.6230 -0.5334
 5265SOL    HW127257   1.212   2.672   3.455  0.2753  1.1200 -0.6552
 5265SOL    HW227258   1.273   2.782   3.525 -0.8128 -0.6053 -0.0121
 5266SOL     OW27259   1.238   0.274   2.996 -0.1266 -0.0015  0.0261
 5266SOL    HW127260   1.198   0.257   3.082 -1.4232  0.5402 -0.4740
 5266SOL    HW227261   1.264   0.366   2.997 -1.1113  0.2827 -0.1626
 5267SOL     OW27262   4.573   2.193  17.197 -0.2533  0.5138  0.0180
 5267SOL    HW127263   4.499   2.132  17.200 -0.7139  1.1359  1.2001
 5267SOL    HW227264   4.574   2.227  17.286 -1.0558  1.5990 -0.3813
 5268SOL     OW27265   1.404   2.869   7.091 -0.3933 -0.0481 -0.4194
 5268SOL    HW127266   1.375   2.840   7.178  0.0246  0.7411 -0.0170
 5268SOL    HW227267   1.370   2.957   7.079  0.3050  0.1934 -0.6382
 5269SOL     OW27268   1.204   1.455   8.872  0.1852 -0.1573  0.2104
 5269SOL    HW127269   1.250   1.372   8.878 -1.5796 -1.0490  1.1649
 5269SOL    HW227270   1.228   1.491   8.786  2.3245  0.0291  0.8716
 5270SOL     OW27271   3.977   3.271  13.926  0.3404 -0.1859  0.0712
 5270SOL    HW127272   3.920   3.213  13.876  0.3249  0.7627 -0.9939
 5270SOL    HW227273   4.060   3.247  13.885 -0.3227 -2.0910 -0.1579
 5271SOL     OW27274   3.577   2.284  16.289 -0.0244 -0.2037  0.1753
 5271SOL    HW127275   3.573   2.192  16.261  0.3736  0.0879 -0.8490
 5271SOL    HW227276   3.671   2.294  16.306 -0.0890 -1.0192  1.0413
 5272SOL     OW27277   0.055   4.556   2.495 -0.2360  0.1321 -0.4140
 5272SOL    HW127278   0.008   4.623   2.545  0.3570  0.6040 -0.4838
 5272SOL    HW227279   0.040   4.599   2.411  0.1528 -0.5242 -0.8216
 5273SOL     OW27280   3.619   4.047  16.660  0.3210 -0.0539  0.1728
 5273SOL    HW127281   3.645   3.958  16.683  1.1572  0.1535  0.0308
 5273SOL    HW227282   3.588   4.035  16.570 -0.4138  0.1644  0.3995
 5274SOL     OW27283   3.294   2.809   8.474 -0.0150 -0.0825  0.2735
 5274SOL    HW127284   3.344   2.737   8.514 -0.5275 -1.1881 -1.0693
 5274SOL    HW227285   3.202   2.787   8.487 -0.5649  2.5134  0.7769
 5275SOL     OW27286   1.905   0.303   5.664  0.1165 -0.0394  0.5292
 5275SOL    HW127287   1.885   0.391   5.633 -2.5870 -0.6075  0.5717
 5275SOL    HW227288   1.864   0.247   5.597  2.2744  1.1489 -1.7633
 5276SOL     OW27289   2.701   1.941   2.400  0.0819  0.1738 -0.2042
 5276SOL    HW127290   2.634   1.963   2.334  1.7302  5.0158 -0.2827
 5276SOL    HW227291   2.777   1.916   2.347 -0.1564  0.5493 -0.7279
 5277SOL     OW27292   3.432   3.351   7.473  0.2044  0.0659 -0.3938
 5277SOL    HW127293   3.464   3.442   7.473  2.9044 -0.8667 -2.3309
 5277SOL    HW227294   3.392   3.337   7.558  0.7225  0.2745 -0.1115
 5278SOL     OW27295   4.540   2.133  10.099 -0.3942 -0.1179  0.3381
 5278SOL    HW127296   4.480   2.067  10.065 -0.2595 -0.2678  0.3899
 5278SOL    HW227297   4.564   2.186  10.023 -1.0680  0.2571  0.3876
 5279SOL     OW27298   3.221   2.662   4.528  0.9312  0.3179  0.1116
 5279SOL    HW127299   3.287   2.703   4.470 -0.6169  0.7883 -1.3208
 5279SOL    HW227300   3.262   2.644   4.612 -0.3517  2.1930  1.1349
 5280SOL     OW27301   1.101   0.922   1.858  0.3998  0.7245  0.0677
 5280SOL    HW127302   1.027   0.882   1.903  1.8158  0.3312  2.0362
 5280SOL    HW227303   1.134   0.840   1.822 -1.2865  0.5548 -1.1226
 5281SOL     OW27304   0.561   2.951   3.483  0.1182 -0.4858  0.2700
 5281SOL    HW127305   0.524   3.033   3.450 -1.7832 -1.6411 -0.4798
 5281SOL    HW227306   0.645   2.949   3.438  0.8292  2.3086  1.4575
 5282SOL     OW27307   0.534   4.115   6.636 -0.0330 -0.3137 -0.2904
 5282SOL    HW127308   0.629   4.107   6.632 -0.0518  0.1008 -1.7531
 5282SOL    HW227309   0.521   4.210   6.639 -0.7743 -0.3769 -1.6042
 5283SOL     OW27310   1.630   1.850  12.855  0.1553 -0.2682  0.1333
 5283SOL    HW127311   1.684   1.874  12.780  2.2761  0.1149  1.7990
 5283SOL    HW227312   1.592   1.770  12.817 -0.2133  0.1172 -0.3084
 5284SOL     OW27313   3.037   1.513   6.268 -0.9757 -0.4597 -0.4190
 5284SOL    HW127314   3.011   1.526   6.360 -0.1050  1.1938 -0.3981
 5284SOL    HW227315   3.097   1.439   6.275 -0.1141  0.1879 -1.0007
 5285SOL     OW27316   3.454   3.337   1.632 -0.3116 -0.4533  0.0824
 5285SOL    HW127317   3.513   3.412   1.637 -2.3999  1.1913  0.0724
 5285SOL    HW227318   3.517   3.265   1.622 -0.8606 -0.9542  0.2450
 5286SOL     OW27319   3.024   2.492  17.270  0.1388 -0.4707  0.0095
 5286SOL    HW127320   2.954   2.474  17.333 -0.9381  2.2156 -0.4128
 5286SOL    HW227321   2.976   2.543  17.204  1.2060 -0.1533 -0.5268
 5287SOL     OW27322   1.318   3.640  12.863  0.2104 -0.1711 -0.5188
 5287SOL    HW127323   1.262   3.588  12.805  1.0324 -1.1168 -0.4517
 5287SOL    HW227324   1.403   3.598  12.876  0.8372  1.8581  2.0275
 5288SOL     OW27325   3.916   2.409   6.931 -0.0002 -0.5317  0.3646
 5288SOL    HW127326   3.987   2.382   6.872 -2.3367 -2.1160 -1.7241
 5288SOL    HW227327   3.961   2.482   6.975 -2.9046  1.7874 -0.4697
 5289SOL     OW27328   1.960   3.644   3.625 -0.1351 -0.7269 -0.4366
 5289SOL    HW127329   1.892   3.667   3.562 -2.1849 -1.6576  1.4286
 5289SOL    HW227330   1.949   3.549   3.634  0.1682 -0.6389  0.9452
 5290SOL     OW27331   2.918   1.302   1.945 -0.1719  0.0722 -0.1708
 5290SOL    HW127332   2.957   1.376   1.898 -2.2444  2.2322  1.4441
 5290SOL    HW227333   2.936   1.335   2.034 -1.7960 -0.4270  0.3491
 5291SOL     OW27334   0.918   1.569  16.630 -0.4076 -0.0962  0.5089
 5291SOL    HW127335   0.986   1.520  16.583  1.9596  3.3096  0.3499
 5291SOL    HW227336   0.858   1.589  16.558  1.9848  3.6669 -0.4876
 5292SOL     OW27337   2.428   4.462   6.853  0.2598 -0.0137  0.2499
 5292SOL    HW127338   2.489   4.444   6.782  0.4568  2.0499 -0.0956
 5292SOL    HW227339   2.343   4.458   6.808 -0.1931  1.3880  0.9622
 5293SOL     OW27340   3.107   2.950   4.497  0.2043  0.5071 -0.4608
 5293SOL    HW127341   3.128   2.857   4.487  0.0431  0.3069  0.9496
 5293SOL    HW227342   3.030   2.942   4.554  0.1076 -0.2061 -0.6933
 5294SOL     OW27343   0.834   1.088   9.870  0.3219 -0.1667  0.0802
 5294SOL    HW127344   0.884   1.009   9.853  0.0738  0.0644 -1.7080
 5294SOL    HW227345   0.807   1.061   9.958  0.6523  0.4830  0.3819
 5295SOL     OW27346   4.496   3.340   7.814 -0.6449  0.6519 -0.5819
 5295SOL    HW127347   4.556   3.352   7.888 -1.9017 -3.1260  1.0272
 5295SOL    HW227348   4.419   3.302   7.856  1.5413 -0.3788  2.4676
 5296SOL     OW27349   3.848   2.653  16.414  0.1245  0.1962  0.0175
 5296SOL    HW127350   3.925   2.708  16.402  0.8454 -0.9554 -0.5238
 5296SOL    HW227351   3.776   2.716  16.424 -1.1438 -1.2666  0.0887
 5297SOL     OW27352   1.172   3.944   4.821  0.8466  0.2017  0.3240
 5297SOL    HW127353   1.132   3.990   4.747  0.5455 -0.0718  0.3151
 5297SOL    HW227354   1.184   3.861   4.774 -0.6766  0.6612 -0.9067
 5298SOL     OW27355   4.360   0.960  16.436 -0.2846  0.7230  0.1151
 5298SOL    HW127356   4.336   0.915  16.517  1.7835 -1.7641 -0.6312
 5298SOL    HW227357   4.279   0.952  16.386 -1.1417 -1.2571  1.8400
 5299SOL     OW27358   1.860   4.154   9.610 -0.0664  0.3863  0.0029
 5299SOL    HW127359   1.880   4.203   9.530  1.9917 -0.3022  0.0967
 5299SOL    HW227360   1.888   4.219   9.673  0.1022  1.5738 -1.3049
 5300SOL     OW27361   1.929   0.121   3.846  0.5991  0.2075  0.6163
 5300SOL    HW127362   2.021   0.099   3.836  0.6024  1.1228 -1.3397
 5300SOL    HW227363   1.890   0.066   3.778  0.4471  0.6742  0.3254
 5301SOL     OW27364   4.391   0.869   2.712 -0.0014  0.4119 -0.5577
 5301SOL    HW127365   4.359   0.780   2.724  1.2836 -0.0763 -0.7535
 5301SOL    HW227366   4.315   0.911   2.752  0.6972 -0.8362  2.1029
 5302SOL     OW27367   1.517   2.727  10.441  0.3419  0.1439  0.7132
 5302SOL    HW127368   1.611   2.724  10.459  0.8125  0.7340 -1.6928
 5302SOL    HW227369   1.522   2.762  10.352  1.4080 -2.0923 -0.1021
 5303SOL     OW27370   1.649   0.600  17.144  0.1921  0.4642  0.3664
 5303SOL    HW127371   1.652   0.570  17.235 -1.2712  1.3446  0.7006
 5303SOL    HW227372   1.706   0.677  17.154  2.1449 -1.2789  2.7048
 5304SOL     OW27373   2.917   0.972   0.980 -0.0524  0.3964 -0.3233
 5304SOL    HW127374   2.974   0.996   1.053  1.4112 -1.4716 -0.8384
 5304SOL    HW227375   2.925   1.052   0.926  2.2726 -0.7795 -1.7301
 5305SOL     OW27376   3.172   3.349   8.341 -0.0091 -0.7131 -0.4555
 5305SOL    HW127377   3.092   3.305   8.370  1.0782 -1.2881  1.6669
 5305SOL    HW227378   3.179   3.302   8.258 -2.5251  1.3641 -1.8532
 5306SOL     OW27379   4.039   2.915   1.056  0.3746  0.4378  0.0667
 5306SOL    HW127380   4.098   2.858   1.105 -0.0923 -0.0675  0.0376
 5306SOL    HW227381   4.021   2.985   1.119  1.2098 -0.3502  1.1761
 5307SOL     OW27382   3.477   4.302   3.852  0.4179  0.1249  0.2448
 5307SOL    HW127383   3.572   4.293   3.856  0.4069 -1.2424 -2.6550
 5307SOL    HW227384   3.464   4.254   3.770 -2.9160 -0.4945  1.1479
 5308SOL     OW27385   3.626   2.612   6.319 -0.5834 -0.4082  0.8768
 5308SOL    HW127386   3.645   2.521   6.339 -0.2866 -0.2598  1.2757
 5308SOL    HW227387   3.584   2.639   6.401  1.1668  0.5014  1.4789
 5309SOL     OW27388   1.705   3.124   7.619 -0.2892  0.6391  0.4482
 5309SOL    HW127389   1.617   3.111   7.584 -0.7980  0.3676  1.8046
 5309SOL    HW227390   1.708   3.219   7.620 -0.1511  0.6617 -2.2820
 5310SOL     OW27391   4.399   3.594  10.773 -0.5629 -0.0541 -0.0065
 5310SOL    HW127392   4.386   3.681  10.735 -0.4635 -0.2531 -0.4952
 5310SOL    HW227393   4.477   3.605  10.827 -0.2755  0.5742 -0.5482
 5311SOL     OW27394   4.078   4.492   8.144 -0.2351 -0.8735  0.8339
 5311SOL    HW127395   4.054   4.549   8.070  1.1296  0.0319  1.0870
 5311SOL    HW227396   4.126   4.421   8.102  1.5760  0.2977  0.9285
 5312SOL     OW27397   0.238   2.598   1.323 -0.1810  0.1141  0.7972
 5312SOL    HW127398   0.323   2.628   1.357 -0.3234  1.5329 -0.0958
 5312SOL    HW227399   0.212   2.669   1.265  0.9665  2.6238  3.3131
 5313SOL     OW27400   1.817   1.402   3.969  0.2239 -0.0625 -0.5754
 5313SOL    HW127401   1.760   1.330   3.943 -0.6533  0.2022  0.5963
 5313SOL    HW227402   1.762   1.478   3.948  0.0430 -0.2470 -0.7643
 5314SOL     OW27403   1.134   1.604  11.898 -0.0421 -0.8592  0.7223
 5314SOL    HW127404   1.079   1.679  11.919  0.0139 -1.0728  1.6064
 5314SOL    HW227405   1.063   1.555  11.855 -1.6109  0.0916  2.2456
 5315SOL     OW27406   4.482   1.937   2.558 -0.2951  0.1393 -0.3405
 5315SOL    HW127407   4.490   1.847   2.524  2.0391  0.9501 -1.9966
 5315SOL    HW227408   4.412   1.920   2.621  1.4908  0.1525  1.6288
 5316SOL     OW27409   1.987   1.761   2.123 -0.2169 -0.3602  0.3932
 5316SOL    HW127410   2.049   1.701   2.164  1.0956  0.3469 -0.5615
 5316SOL    HW227411   1.906   1.743   2.171 -0.5584  0.0569 -0.0252
 5317SOL     OW27412   1.602   1.123  15.461 -0.6347  0.3804  0.5521
 5317SOL    HW127413   1.621   1.200  15.515  1.4178 -0.1313  0.5280
 5317SOL    HW227414   1.678   1.072  15.488 -2.0389 -1.4873  0.9223
 5318SOL     OW27415   2.815   0.488   3.284  0.1072  0.0501  0.7070
 5318SOL    HW127416   2.766   0.407   3.270 -1.4596  1.4018 -1.6953
 5318SOL    HW227417   2.804   0.495   3.378 -0.2761 -2.3058  0.8571
 5319SOL     OW27418   4.597   2.651   8.623 -0.2234  0.0079  0.8308
 5319SOL    HW127419   4.533   2.590   8.585  0.7081 -0.1786 -0.4509
 5319SOL    HW227420   4.676   2.629   8.574  0.0753 -0.3534  1.4757
 5320SOL     OW27421   4.013   2.739   3.906 -0.2708  0.0689 -0.2616
 5320SOL    HW127422   4.022   2.817   3.961 -1.1264  0.7596 -1.0985
 5320SOL    HW227423   3.918   2.735   3.897 -0.4522  1.1041  1.3121
 5321SOL     OW27424   4.459   2.859   5.133 -0.1163 -0.0206  0.2624
 5321SOL    HW127425   4.529   2.800   5.162  0.9703  0.8703 -0.5243
 5321SOL    HW227426   4.474   2.852   5.039 -0.8354 -0.0090  0.1483
 5322SOL     OW27427   4.049   0.344  16.890  0.0017 -0.0617  1.0328
 5322SOL    HW127428   4.011   0.418  16.842 -1.9106 -1.1551  0.8578
 5322SOL    HW227429   4.130   0.319  16.845  0.4245  1.0308  1.1798
 5323SOL     OW27430   3.035   0.905  13.429 -0.7370  0.2599  0.3436
 5323SOL    HW127431   3.056   0.980  13.373  2.2057 -0.6675  0.2158
 5323SOL    HW227432   3.007   0.845  13.360 -2.3316  0.1937  1.0417
 5324SOL     OW27433   3.655   4.505   5.670 -0.0992 -0.4107 -0.0153
 5324SOL    HW127434   3.721   4.543   5.612  1.0353 -1.1061  0.8346
 5324SOL    HW227435   3.584   4.561   5.638  0.2599 -0.0056 -0.0948
 5325SOL     OW27436   3.316   2.371  11.568  0.2577  0.3742  0.2803
 5325SOL    HW127437   3.322   2.386  11.663 -0.5060  1.2563  0.1939
 5325SOL    HW227438   3.326   2.458  11.529 -1.3186  1.9530  3.3426
 5326SOL     OW27439   3.783   0.954   6.795 -0.5411 -0.1664  0.0162
 5326SOL    HW127440   3.830   0.990   6.871 -2.2486  0.6023  0.7043
 5326SOL    HW227441   3.848   0.950   6.726  0.9507  0.8711  1.3456
 5327SOL     OW27442   1.725   3.548   9.307  0.6129  0.3454 -0.0225
 5327SOL    HW127443   1.660   3.557   9.237  0.1138 -2.3255  0.0741
 5327SOL    HW227444   1.754   3.459   9.286 -1.7187 -0.1766 -1.1458
 5328SOL     OW27445   1.437   2.547   7.367  0.2828  0.5442  0.0564
 5328SOL    HW127446   1.395   2.632   7.380 -1.5706 -0.5652  1.2137
 5328SOL    HW227447   1.374   2.480   7.341  1.6664 -0.7211 -0.0691
 5329SOL     OW27448   3.441   3.306   6.078  1.2238  0.1160 -0.0110
 5329SOL    HW127449   3.354   3.347   6.072  0.5350 -1.1448  1.3962
 5329SOL    HW227450   3.503   3.377   6.064 -0.5456  1.9236  1.4387
 5330SOL     OW27451   4.115   1.032   9.648 -0.0662  0.6606  0.2134
 5330SOL    HW127452   4.167   0.972   9.702  0.9232  1.4813  0.1737
 5330SOL    HW227453   4.168   1.024   9.569  0.8128 -1.5611  1.0183
 5331SOL     OW27454   4.120   3.912   3.903 -0.5781 -0.2691  0.2262
 5331SOL    HW127455   4.205   3.873   3.883 -0.7724 -0.9298  0.6536
 5331SOL    HW227456   4.090   3.922   3.813 -1.2911  0.0075  0.4980
 5332SOL     OW27457   4.620   4.662   6.935  0.3229 -0.3933  0.5522
 5332SOL    HW127458   4.700   4.707   6.963  0.3073  0.0658 -0.1284
 5332SOL    HW227459   4.619   4.690   6.843 -0.4198 -3.2504 -0.3160
 5333SOL     OW27460   3.557   1.025  14.675 -0.2249  0.2714  0.2341
 5333SOL    HW127461   3.580   1.116  14.693  1.1811  0.1477 -0.9026
 5333SOL    HW227462   3.634   0.974  14.700 -2.1604 -2.2737  1.1182
 5334SOL     OW27463   2.073   1.791   6.709  0.4417  0.2048 -0.3862
 5334SOL    HW127464   2.138   1.817   6.643 -0.5560 -2.2160 -2.3041
 5334SOL    HW227465   2.125   1.800   6.789  4.2846  0.7277 -2.9141
 5335SOL     OW27466   2.203   2.764   5.488  0.6481 -0.4503  0.3228
 5335SOL    HW127467   2.182   2.747   5.396  0.2453 -1.2569  0.5633
 5335SOL    HW227468   2.191   2.679   5.530  1.2933 -0.9371 -0.4640
 5336SOL     OW27469   1.456   3.308  10.010 -0.1106  0.1912  0.5077
 5336SOL    HW127470   1.550   3.294  10.000 -0.0330  0.8290  0.3196
 5336SOL    HW227471   1.454   3.375  10.079 -1.4588 -0.0081  0.6745
 5337SOL     OW27472   0.826   3.910   1.020  0.8938 -0.0575 -0.1207
 5337SOL    HW127473   0.766   3.878   0.953 -0.4609 -2.7710  2.4061
 5337SOL    HW227474   0.792   3.865   1.098 -1.3747  0.8303 -0.6022
 5338SOL     OW27475   2.364   2.883   0.825  0.2636  0.2707 -0.2261
 5338SOL    HW127476   2.442   2.937   0.810  0.6427 -0.0916  0.4060
 5338SOL    HW227477   2.358   2.828   0.747 -2.0774  2.2694 -1.4369
 5339SOL     OW27478   0.706   2.374   6.744 -0.6525 -0.6260  0.0168
 5339SOL    HW127479   0.794   2.353   6.712 -0.1491  0.4565  0.6872
 5339SOL    HW227480   0.728   2.373   6.838  0.8621 -0.4065 -0.3340
 5340SOL     OW27481   3.774   4.040   6.269  0.0936  0.2254  0.2074
 5340SOL    HW127482   3.795   4.062   6.179  0.9350 -0.1771  0.3043
 5340SOL    HW227483   3.852   4.068   6.317  0.4336  0.9041 -0.7480
 5341SOL     OW27484   1.262   1.429   9.479 -0.5341 -0.0897  0.5635
 5341SOL    HW127485   1.347   1.473   9.483  0.4916 -2.2630  2.2110
 5341SOL    HW227486   1.250   1.401   9.388  4.2310  2.4024 -0.8313
 5342SOL     OW27487   2.104   4.494   1.379  0.3084 -0.2503  0.7293
 5342SOL    HW127488   2.009   4.489   1.368  0.0691  3.8820  1.2151
 5342SOL    HW227489   2.108   4.490   1.474 -0.6621 -1.6882  0.7084
 5343SOL     OW27490   0.704   1.863   9.094  0.2827 -0.5175  0.5300
 5343SOL    HW127491   0.783   1.917   9.101  1.3355 -1.8629 -1.0039
 5343SOL    HW227492   0.645   1.918   9.146  0.5623  0.5814 -0.3093
 5344SOL     OW27493   0.724   4.374   4.411  0.2417  0.1961  0.3369
 5344SOL    HW127494   0.663   4.318   4.458  1.4002 -0.5487  0.9689
 5344SOL    HW227495   0.806   4.330   4.433  1.4536  1.5428 -1.4695
 5345SOL     OW27496   1.105   3.483  10.163  0.7048 -0.2905  0.2004
 5345SOL    HW127497   1.065   3.399  10.185 -2.2638  1.3794  1.1207
 5345SOL    HW227498   1.076   3.542  10.233 -0.4747 -1.5641  0.7829
 5346SOL     OW27499   0.051   0.012   2.289 -0.0690 -0.6575 -0.5911
 5346SOL    HW127500   4.700   0.012   2.235 -2.8897 -1.7919  3.5246
 5346SOL    HW227501   0.106   0.066   2.232 -0.9899 -0.6170 -1.4478
 5347SOL     OW27502   1.366   4.405   3.130  0.2920  0.0960  0.0247
 5347SOL    HW127503   1.406   4.491   3.138  1.4837 -0.7191  2.7018
 5347SOL    HW227504   1.418   4.360   3.196 -0.9778  0.1832  1.0965
 5348SOL     OW27505   2.202   4.238   3.049  0.0421  0.0284 -0.4827
 5348SOL    HW127506   2.130   4.208   2.994  0.0158  0.1047 -0.4893
 5348SOL    HW227507   2.256   4.241   2.970 -1.0222 -2.5200 -1.3177
 5349SOL     OW27508   4.602   3.286   2.329  0.0940  0.6161  0.2240
 5349SOL    HW127509   4.653   3.346   2.275  0.5132  0.7527  0.7723
 5349SOL    HW227510   4.508   3.295   2.310  0.1238  1.4490  0.4495
 5350SOL     OW27511   4.393   3.662  16.307  0.1546  0.6038 -0.3001
 5350SOL    HW127512   4.419   3.622  16.223 -2.3030  0.1650 -0.8730
 5350SOL    HW227513   4.375   3.752  16.279 -0.9226  0.3716 -0.3585
 5351SOL     OW27514   2.228   2.800   7.504  0.7043  0.2018  0.2185
 5351SOL    HW127515   2.182   2.814   7.586 -0.2189  0.1677 -0.2956
 5351SOL    HW227516   2.283   2.727   7.532 -0.3604  0.3622  2.6893
 5352SOL     OW27517   3.767   4.002  13.915  0.0248 -0.6408 -0.1129
 5352SOL    HW127518   3.817   3.936  13.867 -0.2624 -2.2923  1.8591
 5352SOL    HW227519   3.695   4.002  13.851  0.4067 -0.1741 -0.5404
 5353SOL     OW27520   0.326   1.473   8.144 -0.5236 -0.2251  0.1010
 5353SOL    HW127521   0.378   1.494   8.222 -0.4166  2.1850 -0.6406
 5353SOL    HW227522   0.330   1.377   8.144 -0.0451 -0.2098  0.2914
 5354SOL     OW27523   3.300   3.764   5.437 -0.1815 -0.1037 -0.1509
 5354SOL    HW127524   3.219   3.782   5.390  1.1012  2.8201 -1.2564
 5354SOL    HW227525   3.354   3.842   5.422 -0.5626  0.1662 -0.1339
 5355SOL     OW27526   3.760   4.082  14.557  0.6842  0.2181 -0.0872
 5355SOL    HW127527   3.851   4.113  14.562  0.7272  0.2387 -0.9982
 5355SOL    HW227528   3.717   4.161  14.590  1.8221 -0.0629  2.0777
 5356SOL     OW27529   3.155   2.094   8.898 -0.1893  0.2224 -0.0242
 5356SOL    HW127530   3.248   2.115   8.896 -0.1335 -0.0919 -0.8031
 5356SOL    HW227531   3.120   2.168   8.947 -0.2672  0.0868  0.1245
 5357SOL     OW27532   2.009   3.214   8.947 -0.1501  0.4073  0.5072
 5357SOL    HW127533   1.984   3.144   8.887 -2.4599  0.8648  0.9268
 5357SOL    HW227534   2.092   3.174   8.972 -0.7491 -1.1038  0.0732
 5358SOL     OW27535   0.340   1.743  11.858  0.0542  0.2856  0.4802
 5358SOL    HW127536   0.352   1.782  11.944  1.0198  0.0675  0.4394
 5358SOL    HW227537   0.425   1.709  11.830 -0.1525 -1.7624  2.3244
 5359SOL     OW27538   1.610   2.743   0.531  0.1646 -0.1797 -0.0335
 5359SOL    HW127539   1.515   2.747   0.523  0.2811  0.7767 -0.9784
 5359SOL    HW227540   1.633   2.829   0.565  1.3401 -0.7979  0.7620
 5360SOL     OW27541   0.570   2.937   5.513 -0.4022  0.1124  0.2233
 5360SOL    HW127542   0.554   2.936   5.608 -0.2776 -0.5205  0.2357
 5360SOL    HW227543   0.639   2.871   5.508 -0.1771  0.3216  0.5710
 5361SOL     OW27544   0.553   1.818  14.726  0.4264 -0.9510 -0.0563
 5361SOL    HW127545   0.574   1.911  14.713 -1.0462 -0.3221  2.1322
 5361SOL    HW227546   0.563   1.815  14.821 -0.0323  2.8211  0.1430
 5362SOL     OW27547   1.491   1.032  13.121 -0.1070  0.4729  0.3788
 5362SOL    HW127548   1.521   0.948  13.087  1.3338  1.5870 -1.1320
 5362SOL    HW227549   1.418   1.051  13.062 -0.3232  0.4185  0.6284
 5363SOL     OW27550   1.824   3.577   6.146 -0.1367 -0.1189  0.0811
 5363SOL    HW127551   1.906   3.600   6.189 -0.6369  2.0651 -0.1422
 5363SOL    HW227552   1.861   3.508   6.092  0.8394  0.7888 -0.4187
 5364SOL     OW27553   0.950   1.406   2.907  0.5769  0.3963 -0.2402
 5364SOL    HW127554   1.012   1.336   2.928  0.4047 -0.0632 -1.2029
 5364SOL    HW227555   0.867   1.368   2.876 -0.1551  0.8885  1.1683
 5365SOL     OW27556   0.291   3.921   8.103  0.0338  0.8035  0.0597
 5365SOL    HW127557   0.220   3.876   8.148  1.2059 -1.2573 -0.1180
 5365SOL    HW227558   0.253   3.970   8.030  2.2797  1.2858 -0.8027
 5366SOL     OW27559   3.472   4.071  14.958  0.0349 -0.4939 -0.4086
 5366SOL    HW127560   3.466   4.137  14.889 -3.8616 -0.4843 -0.0590
 5366SOL    HW227561   3.553   4.090  15.006  0.1951 -0.4376 -0.6983
 5367SOL     OW27562   3.533   2.621  10.883  0.6300  0.4075  1.0019
 5367SOL    HW127563   3.576   2.555  10.937 -0.6673 -0.0014  1.5188
 5367SOL    HW227564   3.602   2.662  10.831 -0.5211  0.0562 -0.8354
 5368SOL     OW27565   2.982   0.034  10.188  0.0918 -0.2619  0.2548
 5368SOL    HW127566   2.892   0.012  10.213 -0.3620  0.8276 -0.4455
 5368SOL    HW227567   3.027   4.679  10.209 -0.4190 -1.3892 -3.0706
 5369SOL     OW27568   2.903   3.704   8.512 -0.3593 -0.2464  0.0249
 5369SOL    HW127569   2.841   3.736   8.578  0.8324  0.3534  0.8327
 5369SOL    HW227570   2.980   3.759   8.524 -0.0657 -1.2753  2.7541
 5370SOL     OW27571   2.124   3.445  10.976 -0.5633  0.3142 -0.0046
 5370SOL    HW127572   2.196   3.382  10.969 -0.9915 -0.3674  1.8455
 5370SOL    HW227573   2.069   3.401  11.040  2.0632 -1.3386  1.0879
 5371SOL     OW27574   0.639   2.917  16.555 -0.3670  0.2056 -0.4158
 5371SOL    HW127575   0.708   2.933  16.491 -0.9846  2.5610 -0.5102
 5371SOL    HW227576   0.695   2.937  16.630 -3.3481  1.1644  1.5654
 5372SOL     OW27577   3.254   2.222  16.129 -0.0154  1.0650  0.1263
 5372SOL    HW127578   3.175   2.168  16.126 -0.7086  2.1820 -1.5217
 5372SOL    HW227579   3.289   2.197  16.044  2.3379  0.9321  1.1411
 5373SOL     OW27580   4.305   3.586   2.233 -0.0734  1.0728 -0.2345
 5373SOL    HW127581   4.284   3.592   2.327 -0.0749  0.1133 -0.1726
 5373SOL    HW227582   4.291   3.491   2.226 -0.2488  1.0781  0.0429
 5374SOL     OW27583   1.508   3.061  11.401 -0.3853 -0.2740 -0.0486
 5374SOL    HW127584   1.568   3.079  11.474 -0.6186 -0.0209  0.0813
 5374SOL    HW227585   1.475   2.973  11.421 -0.5263 -0.6340 -1.8847
 5375SOL     OW27586   3.965   4.493   2.791  0.0696 -0.0789  0.0152
 5375SOL    HW127587   3.875   4.464   2.772 -1.0706  3.4087  0.1800
 5375SOL    HW227588   4.011   4.494   2.707 -1.9872 -1.5154 -1.1350
 5376SOL     OW27589   3.656   1.059   2.021 -0.1420  0.0605  0.0485
 5376SOL    HW127590   3.679   1.098   2.105  2.1057 -0.2595 -0.4419
 5376SOL    HW227591   3.705   1.102   1.952 -0.8216 -0.7771 -0.9527
 5377SOL     OW27592   3.957   4.400   4.663  0.1161 -0.0197 -0.6066
 5377SOL    HW127593   3.880   4.356   4.627  0.3433 -2.3113  1.7589
 5377SOL    HW227594   4.011   4.418   4.586  1.2555  1.8494  0.6051
 5378SOL     OW27595   3.565   0.761  12.831 -0.4379 -0.9514 -0.1090
 5378SOL    HW127596   3.501   0.832  12.829  2.1983  1.3652 -1.1620
 5378SOL    HW227597   3.512   0.693  12.873 -1.2198 -1.8623 -2.5688
 5379SOL     OW27598   0.282   3.780   6.954 -0.1442 -0.1755  0.3349
 5379SOL    HW127599   0.230   3.742   7.025 -0.1265  0.6981  0.8190
 5379SOL    HW227600   0.365   3.810   6.991  0.7799  0.1531 -1.9852
 5380SOL     OW27601   4.452   2.384  14.625 -0.0926  0.6322 -0.4752
 5380SOL    HW127602   4.521   2.450  14.627  2.5517 -2.1467 -0.8686
 5380SOL    HW227603   4.394   2.404  14.551 -0.1329 -1.9020 -1.1155
 5381SOL     OW27604   0.635   2.618   2.699  0.5285  0.2911  0.1450
 5381SOL    HW127605   0.564   2.654   2.646  1.7621  1.4480 -0.7352
 5381SOL    HW227606   0.712   2.676   2.697  1.0130 -0.3184  0.9324
 5382SOL     OW27607   3.325   3.881   4.497 -0.0544  0.2859  0.1241
 5382SOL    HW127608   3.415   3.849   4.505 -0.2445 -0.0451  0.9295
 5382SOL    HW227609   3.292   3.858   4.584  0.9642  0.1096  0.4673
 5383SOL     OW27610   0.669   3.423  13.890 -0.5164  0.5128  0.3256
 5383SOL    HW127611   0.626   3.504  13.862 -0.5243  0.8058  1.1785
 5383SOL    HW227612   0.633   3.367  13.822 -0.6821 -0.9574  1.6289
 5384SOL     OW27613   1.589   4.104   7.073 -0.4142  0.1242  0.3590
 5384SOL    HW127614   1.547   4.179   7.115  0.1519  0.5505  0.1588
 5384SOL    HW227615   1.682   4.120   7.086  0.1540 -0.9917 -2.3205
 5385SOL     OW27616   4.628   3.675   3.677  0.1161  0.9977  0.7324
 5385SOL    HW127617   4.576   3.730   3.618 -0.7004 -0.9658 -0.3792
 5385SOL    HW227618   4.714   3.718   3.680  0.6825 -0.0266 -0.4913
 5386SOL     OW27619   4.716   2.460   7.217 -0.1549 -0.5301  0.1219
 5386SOL    HW127620   0.044   2.402   7.268 -0.5203 -2.2863 -1.4617
 5386SOL    HW227621   4.656   2.394   7.182 -0.1065 -0.3679 -0.2657
 5387SOL     OW27622   2.408   2.631   0.368 -0.5724 -0.1935 -0.1897
 5387SOL    HW127623   2.422   2.549   0.322 -0.4769 -0.1377 -0.2606
 5387SOL    HW227624   2.448   2.702   0.317  1.1775 -0.6005  0.6126
 5388SOL     OW27625   1.307   3.854   9.387 -0.0927 -0.0911 -0.3059
 5388SOL    HW127626   1.344   3.775   9.426  0.3640 -0.4128 -1.3983
 5388SOL    HW227627   1.373   3.860   9.319  0.1579 -0.1798 -0.0711
 5389SOL     OW27628   0.629   0.657  13.166 -0.1629 -0.1040  0.3130
 5389SOL    HW127629   0.593   0.683  13.081 -2.7054 -0.2950  1.3170
 5389SOL    HW227630   0.601   0.724  13.227 -2.3166 -0.6392 -0.0812
 5390SOL     OW27631   4.204   3.857   5.930  0.0233 -0.2289  0.6313
 5390SOL    HW127632   4.205   3.859   5.834  0.9177 -1.6188  0.6283
 5390SOL    HW227633   4.164   3.944   5.941  1.4203  0.3060  1.4845
 5391SOL     OW27634   3.665   2.751   7.197  0.3381 -0.2257 -0.5902
 5391SOL    HW127635   3.711   2.745   7.280 -0.4281 -0.4760 -0.1878
 5391SOL    HW227636   3.662   2.843   7.171 -2.5015  0.0721  0.8538
 5392SOL     OW27637   2.764   0.756   6.887 -0.1811  0.7243 -0.5071
 5392SOL    HW127638   2.802   0.827   6.938  1.9440 -0.9312  0.2230
 5392SOL    HW227639   2.838   0.762   6.827  0.2979 -0.3039 -0.0162
 5393SOL     OW27640   3.285   0.165   3.181 -0.3303  0.0746  0.2609
 5393SOL    HW127641   3.303   0.193   3.091  2.5269  1.0570  1.1138
 5393SOL    HW227642   3.356   0.189   3.240 -0.4787  0.9083  0.0966
 5394SOL     OW27643   4.218   3.329   0.763 -0.6085 -0.5842  0.1122
 5394SOL    HW127644   4.159   3.355   0.692  0.8181  0.5335 -0.6473
 5394SOL    HW227645   4.202   3.379   0.843 -0.8332 -0.4737 -0.0013
 5395SOL     OW27646   4.277   2.962  16.956  0.5239 -0.2172 -0.0733
 5395SOL    HW127647   4.187   2.978  16.929  0.8877  0.8702 -0.6135
 5395SOL    HW227648   4.304   2.899  16.889 -0.1829 -0.1956 -0.3775
 5396SOL     OW27649   0.233   2.618   0.426 -0.2623 -0.4190 -0.3828
 5396SOL    HW127650   0.150   2.660   0.448  0.1463  0.1037  0.2001
 5396SOL    HW227651   0.211   2.528   0.450  1.4767 -1.3809 -2.3626
 5397SOL     OW27652   0.475   0.049   9.897  0.2888  0.1788  0.0806
 5397SOL    HW127653   0.515   4.690   9.902  0.5388  0.2820 -0.1489
 5397SOL    HW227654   0.538   0.099   9.950 -1.1763  1.3983  0.6720
 5398SOL     OW27655   2.817   3.756   6.139 -0.2934  0.1869 -0.2169
 5398SOL    HW127656   2.892   3.789   6.188  0.6989  1.9153 -2.9536
 5398SOL    HW227657   2.753   3.750   6.210 -1.1130 -2.7551 -1.1870
 5399SOL     OW27658   3.780   2.423   7.907  0.8129 -0.2788 -0.2446
 5399SOL    HW127659   3.815   2.388   7.989 -0.8029 -0.0971  0.5184
 5399SOL    HW227660   3.692   2.385   7.904  1.2807 -1.3666 -0.1000
 5400SOL     OW27661   2.876   0.358   6.757  0.2989 -0.6498  0.6034
 5400SOL    HW127662   2.971   0.343   6.756  0.4618  0.3952 -0.6524
 5400SOL    HW227663   2.860   0.408   6.836  0.6054 -0.1335  0.3384
 5401SOL     OW27664   1.473   1.560   3.346 -0.8537  0.3124  0.3182
 5401SOL    HW127665   1.561   1.527   3.330  0.1538  3.2259 -0.1169
 5401SOL    HW227666   1.422   1.489   3.385 -1.9122  0.5896 -0.5360
 5402SOL     OW27667   1.421   2.487  15.898 -0.1011 -0.6298 -0.1405
 5402SOL    HW127668   1.349   2.550  15.893  1.7305  1.6178  1.9023
 5402SOL    HW227669   1.447   2.468  15.808 -1.7965  1.2149 -1.0145
 5403SOL     OW27670   0.248   3.090   6.157  0.1661 -0.0217  0.2999
 5403SOL    HW127671   0.238   3.027   6.086 -1.2479  0.5030  0.0426
 5403SOL    HW227672   0.243   3.170   6.105  0.0945 -0.5245 -0.4713
 5404SOL     OW27673   1.526   4.528   5.507 -0.1210 -0.4685  0.1638
 5404SOL    HW127674   1.455   4.495   5.451 -1.0431  3.0800 -0.7347
 5404SOL    HW227675   1.488   4.594   5.564  0.2767 -0.0402 -0.0688
 5405SOL     OW27676   2.877   2.305   7.630 -0.1800 -0.1459  0.2825
 5405SOL    HW127677   2.807   2.294   7.694 -2.0667 -1.7551 -2.0920
 5405SOL    HW227678   2.878   2.400   7.616 -2.0986 -0.1802 -0.0584
 5406SOL     OW27679   0.202   2.809   3.990  0.2474  0.1495  0.1352
 5406SOL    HW127680   0.141   2.850   4.051  0.7890  0.3383  0.5487
 5406SOL    HW227681   0.201   2.881   3.926  0.2633 -1.4030 -1.5993
 5407SOL     OW27682   1.093   3.631  10.406  0.0035 -0.1896  0.0241
 5407SOL    HW127683   1.165   3.688  10.380  0.0936  0.1368  0.9783
 5407SOL    HW227684   1.119   3.608  10.495 -1.9405 -0.3236  0.5691
 5408SOL     OW27685   0.815   2.737  15.380  0.6794  0.2321  0.0434
 5408SOL    HW127686   0.766   2.658  15.358  0.7327 -0.1137  1.1834
 5408SOL    HW227687   0.751   2.809  15.377 -1.1609 -1.3499  1.6059
 5409SOL     OW27688   0.272   0.610   5.119 -0.2567 -0.1711 -0.1582
 5409SOL    HW127689   0.340   0.664   5.080 -0.0943  0.3304  0.8131
 5409SOL    HW227690   0.196   0.667   5.105 -0.5274 -0.3589  0.5403
 5410SOL     OW27691   1.594   2.990   6.562 -0.2944  0.0291  0.1341
 5410SOL    HW127692   1.577   3.078   6.595 -1.6116 -0.9316  2.0284
 5410SOL    HW227693   1.612   3.004   6.469  1.4639 -0.1993  0.4422
 5411SOL     OW27694   3.990   1.216   9.771 -0.6776 -0.0590  0.1370
 5411SOL    HW127695   4.042   1.161   9.713  0.0770  0.1070  0.6528
 5411SOL    HW227696   3.914   1.162   9.792  0.0479 -0.3899  1.9136
 5412SOL     OW27697   3.358   1.487   6.235 -0.3482  0.0509 -0.4112
 5412SOL    HW127698   3.363   1.433   6.315  1.1147 -2.3228 -2.0928
 5412SOL    HW227699   3.431   1.444   6.191 -0.2740  1.2746 -1.4693
 5413SOL     OW27700   2.546   3.260   5.694  0.2368  0.0686 -0.5615
 5413SOL    HW127701   2.482   3.208   5.645  0.1038  1.3239 -1.7088
 5413SOL    HW227702   2.558   3.325   5.625  1.4010 -0.4226 -0.8296
 5414SOL     OW27703   2.990   1.433   6.530 -0.1243  0.0459  0.6352
 5414SOL    HW127704   2.963   1.487   6.604  0.3284  2.0044 -0.6436
 5414SOL    HW227705   2.959   1.344   6.546  3.7341 -1.4551 -0.3533
 5415SOL     OW27706   0.864   1.171   2.722  0.2751 -0.0953  0.5544
 5415SOL    HW127707   0.819   1.106   2.777 -2.9334  0.1766 -1.7449
 5415SOL    HW227708   0.791   1.232   2.712  0.6904 -0.2249 -3.0726
 5416SOL     OW27709   1.851   3.420   8.890 -0.1010  0.1377 -0.2584
 5416SOL    HW127710   1.766   3.381   8.910 -1.1288  2.5012 -0.0200
 5416SOL    HW227711   1.916   3.358   8.922  0.8200  1.5838  0.7186
 5417SOL     OW27712   2.754   2.128  13.464 -0.0699  0.5322 -0.1452
 5417SOL    HW127713   2.743   2.155  13.555 -0.3744 -0.5223  0.1407
 5417SOL    HW227714   2.722   2.205  13.418  2.2357  2.3381  1.2911
 5418SOL     OW27715   2.157   1.937   9.342  0.6663  0.0871 -0.0567
 5418SOL    HW127716   2.114   2.021   9.360 -4.3864 -2.0728 -2.2277
 5418SOL    HW227717   2.092   1.876   9.376  0.4736 -0.8298 -2.0898
 5419SOL     OW27718   2.887   3.625   5.752 -0.0883 -0.1585 -0.1055
 5419SOL    HW127719   2.803   3.579   5.754  0.6663 -1.5895 -2.5487
 5419SOL    HW227720   2.857   3.704   5.707 -0.7776 -0.7989 -0.7608
 5420SOL     OW27721   2.225   0.008   4.648  0.1992 -0.0510 -0.1789
 5420SOL    HW127722   2.226   0.089   4.700  4.0167 -0.6732  0.6831
 5420SOL    HW227723   2.133   4.707   4.648  0.2142 -0.0966  0.0349
 5421SOL     OW27724   4.402   2.442   8.656 -0.0861 -0.3490 -0.1380
 5421SOL    HW127725   4.371   2.429   8.746 -2.8849  0.1274 -1.0259
 5421SOL    HW227726   4.477   2.383   8.657 -2.2364 -3.1142 -1.0429
 5422SOL     OW27727   2.521   1.808   8.635  0.5809  0.0805 -0.1626
 5422SOL    HW127728   2.597   1.850   8.675  0.0404  0.2374  0.7153
 5422SOL    HW227729   2.474   1.882   8.596 -0.5045 -0.2210  0.5488
 5423SOL     OW27730   2.416   3.793  17.263  0.0742 -0.4043  0.7331
 5423SOL    HW127731   2.424   3.741  17.342 -0.5608 -1.6803 -0.0397
 5423SOL    HW227732   2.486   3.855  17.284  1.0094 -1.3466  0.3640
 5424SOL     OW27733   3.769   2.079   7.372  0.7039 -0.2271 -0.1434
 5424SOL    HW127734   3.733   2.079   7.461 -1.3690  1.0465 -0.9933
 5424SOL    HW227735   3.810   2.165   7.365 -1.6706  1.0377  1.3513
 5425SOL     OW27736   1.194   3.271  16.175  0.0023 -0.2541  0.1113
 5425SOL    HW127737   1.191   3.187  16.220  2.5836 -1.3830 -1.8616
 5425SOL    HW227738   1.288   3.266  16.158  0.1484 -1.0631  1.1570
 5426SOL     OW27739   2.428   3.264   8.010 -0.4260  0.2921 -0.0645
 5426SOL    HW127740   2.381   3.270   7.927  2.0722 -1.8807 -1.6343
 5426SOL    HW227741   2.362   3.278   8.078 -1.1623 -0.9410 -0.5199
 5427SOL     OW27742   1.930   2.188  16.758 -0.0574  0.0132  0.3534
 5427SOL    HW127743   1.908   2.118  16.696 -0.0564  0.0575  0.3032
 5427SOL    HW227744   1.996   2.130  16.796 -2.2312  0.1460  4.2552
 5428SOL     OW27745   3.370   0.277   2.934 -0.4033 -0.0122 -0.1190
 5428SOL    HW127746   3.322   0.210   2.886  1.5428 -3.8487  3.2819
 5428SOL    HW227747   3.391   0.350   2.876  0.2173 -0.1321 -0.0513
 5429SOL     OW27748   1.689   3.019  10.823  0.4774  0.3980  0.3119
 5429SOL    HW127749   1.615   2.990  10.770  0.8037 -0.7604  0.4833
 5429SOL    HW227750   1.652   3.006  10.910  1.1761  0.6381  0.6410
 5430SOL     OW27751   4.094   3.305   7.247  0.2106  0.5684 -0.2186
 5430SOL    HW127752   4.101   3.321   7.341  0.5890  0.6011 -0.2527
 5430SOL    HW227753   4.186   3.302   7.222 -0.8865  0.3671 -4.1035
 5431SOL     OW27754   1.972   0.719   8.588  0.5455  0.5408 -0.1675
 5431SOL    HW127755   1.985   0.784   8.657  2.8574 -0.7701  0.6453
 5431SOL    HW227756   1.927   0.652   8.639  0.2027 -1.0827 -2.5593
 5432SOL     OW27757   0.344   1.467   0.053  0.5964 -0.4221 -0.2486
 5432SOL    HW127758   0.350   1.466   0.149 -3.1535  0.9094 -0.0070
 5432SOL    HW227759   0.295   1.548   0.043  1.1942  0.0017  0.2295
 5433SOL     OW27760   2.137   2.610  10.652 -0.5501  0.0464  0.6764
 5433SOL    HW127761   2.135   2.553  10.575  0.7945  1.6743 -0.5527
 5433SOL    HW227762   2.066   2.672  10.633 -2.2366 -2.0428  0.0807
 5434SOL     OW27763   1.157   1.463   1.911 -0.1415  0.1316 -0.1063
 5434SOL    HW127764   1.218   1.533   1.887  1.0243 -1.2139 -1.0565
 5434SOL    HW227765   1.175   1.397   1.845  0.5152 -1.5628  1.7549
 5435SOL     OW27766   0.067   2.052   6.334 -0.0668 -0.7301  0.4407
 5435SOL    HW127767   0.059   2.126   6.274  0.9860 -0.5558  0.5163
 5435SOL    HW227768   0.088   2.102   6.413  0.1518  1.1412 -0.7827
 5436SOL     OW27769   1.005   2.284   4.700 -0.5775 -0.4783 -0.7151
 5436SOL    HW127770   1.010   2.324   4.787  0.8146 -2.0332 -0.0800
 5436SOL    HW227771   0.929   2.324   4.660 -1.2168 -0.1685  0.8180
 5437SOL     OW27772   3.065   3.558   6.285 -0.0341 -0.4518  0.1862
 5437SOL    HW127773   3.032   3.583   6.198 -0.0764 -0.6752  0.1374
 5437SOL    HW227774   3.157   3.543   6.265 -0.3351  0.0343 -1.5545
 5438SOL     OW27775   0.075   0.777   7.492 -0.5676  0.2494 -0.0281
 5438SOL    HW127776   0.134   0.730   7.551 -2.2883 -0.4460  1.1291
 5438SOL    HW227777   0.005   0.716   7.469  0.7926 -0.0468 -3.3657
 5439SOL     OW27778   0.700   1.174   5.843  0.1107 -0.0715 -0.7336
 5439SOL    HW127779   0.764   1.237   5.878 -0.0801 -0.0184 -0.4791
 5439SOL    HW227780   0.703   1.099   5.903 -1.2150  0.6332  0.2040
 5440SOL     OW27781   0.339   4.495   6.893  0.7086  0.1119 -0.0560
 5440SOL    HW127782   0.376   4.528   6.975 -0.6879  1.5454 -0.0010
 5440SOL    HW227783   0.281   4.428   6.931  1.3255  0.7994  2.1362
 5441SOL     OW27784   1.799   0.990   0.813 -0.3476  1.2452  0.2370
 5441SOL    HW127785   1.785   1.030   0.898 -1.4326  1.2368  0.0669
 5441SOL    HW227786   1.805   1.069   0.759  0.3686  0.5218 -0.7444
 5442SOL     OW27787   1.891   2.912  10.691  0.6832  0.3579 -0.1510
 5442SOL    HW127788   1.838   2.858  10.631 -1.0642  2.9743 -0.9737
 5442SOL    HW227789   1.820   2.956  10.738 -0.9451 -1.1433 -1.1704
 5443SOL     OW27790   2.919   3.283   3.457  0.0321 -0.3231 -0.5836
 5443SOL    HW127791   2.890   3.374   3.470  1.7812  0.4228 -1.9399
 5443SOL    HW227792   3.008   3.288   3.424  0.1864  2.3461  0.2094
 5444SOL     OW27793   3.919   2.460   5.473 -0.0004 -0.2458 -0.0722
 5444SOL    HW127794   3.832   2.487   5.503 -0.2294 -0.9071 -0.1544
 5444SOL    HW227795   3.949   2.382   5.519 -0.5154 -0.4996 -0.1617
 5445SOL     OW27796   0.733   3.803   1.266  0.0273 -0.2893  0.1459
 5445SOL    HW127797   0.752   3.844   1.350  1.2405  0.5582 -0.5440
 5445SOL    HW227798   0.789   3.726   1.266 -0.7234 -0.8353 -0.1760
 5446SOL     OW27799   0.297   0.862  14.765 -0.3543  0.3104 -0.8053
 5446SOL    HW127800   0.371   0.813  14.801 -0.3374  0.4294 -0.6758
 5446SOL    HW227801   0.315   0.855  14.671 -0.8105  0.5294 -0.9091
 5447SOL     OW27802   4.161   4.037  15.402  0.6037  0.4317  0.2280
 5447SOL    HW127803   4.221   4.107  15.377 -1.2791  1.4222 -1.4966
 5447SOL    HW227804   4.095   4.047  15.334  0.7399 -3.0258 -0.4361
 5448SOL     OW27805   3.155   3.589   9.108 -0.1630 -1.0655  0.2230
 5448SOL    HW127806   3.122   3.568   9.020  0.6455 -1.1634 -0.0605
 5448SOL    HW227807   3.240   3.630   9.090  0.4020 -2.5656 -0.5027
 5449SOL     OW27808   2.960   4.709   4.081 -0.2589 -0.0905  0.3423
 5449SOL    HW127809   2.944   0.061   4.132  1.4226  1.2169 -1.2074
 5449SOL    HW227810   3.020   0.016   4.015  0.0701 -0.4214  0.4683
 5450SOL     OW27811   4.209   4.022   7.722  0.1700  0.2341  0.2600
 5450SOL    HW127812   4.226   3.959   7.792  1.9740  0.4818  0.0322
 5450SOL    HW227813   4.198   3.962   7.647 -1.5602  1.0680 -0.1634
 5451SOL     OW27814   3.433   4.654   5.892  0.5271 -0.6113 -0.1829
 5451SOL    HW127815   3.439   4.574   5.841  1.2349 -1.2443  0.9001
 5451SOL    HW227816   3.478   4.714   5.832  4.3667 -1.8077  1.4916
 5452SOL     OW27817   1.486   4.579   7.936 -0.8728  0.3680 -0.7028
 5452SOL    HW127818   1.560   4.637   7.953 -0.7268 -0.4701  1.5432
 5452SOL    HW227819   1.422   4.615   7.998  0.3294 -0.0562  0.7880
 5453SOL     OW27820   4.651   1.262   7.501 -0.0389 -0.2619  0.4492
 5453SOL    HW127821   4.710   1.191   7.477  1.1823  1.4368 -1.5258
 5453SOL    HW227822   4.587   1.224   7.561  0.6997 -0.0903  1.3487
 5454SOL     OW27823   3.888   1.692   5.794 -0.1480  0.1493 -0.4136
 5454SOL    HW127824   3.797   1.665   5.778  0.0151  0.4044 -1.7786
 5454SOL    HW227825   3.943   1.643   5.733  0.6131 -0.6986  0.9670
 5455SOL     OW27826   2.303   1.509   7.573  0.0430  0.3911 -0.2857
 5455SOL    HW127827   2.297   1.465   7.488  2.2023 -0.4597  0.0201
 5455SOL    HW227828   2.229   1.570   7.570  0.7485  1.2555  0.0702
 5456SOL     OW27829   4.228   3.532   9.130  0.4964  0.0278  0.1135
 5456SOL    HW127830   4.220   3.439   9.152 -1.9634 -0.1532 -1.4575
 5456SOL    HW227831   4.301   3.560   9.185  3.4350 -1.1493 -3.2027
 5457SOL     OW27832   0.092   2.434  14.022  0.3294  0.4722 -0.1552
 5457SOL    HW127833   0.078   2.348  13.982 -0.8216  0.2036  0.8098
 5457SOL    HW227834   0.134   2.480  13.950  0.2827 -1.6814 -1.5753
 5458SOL     OW27835   4.010   1.173   7.783  0.6128  0.5900  0.4371
 5458SOL    HW127836   3.964   1.122   7.849  0.1643 -0.2760 -0.5462
 5458SOL    HW227837   3.941   1.179   7.717  0.2458 -0.1213  0.7576
 5459SOL     OW27838   4.379   3.851   2.592 -0.2450  0.7471 -0.4257
 5459SOL    HW127839   4.467   3.818   2.574  0.1501  0.3793  2.1580
 5459SOL    HW227840   4.326   3.786   2.546 -0.4399  0.5673  0.0462
 5460SOL     OW27841   1.963   3.012   5.863  0.2623 -0.0818 -0.2684
 5460SOL    HW127842   1.983   2.968   5.780 -0.6342  1.3636 -1.2360
 5460SOL    HW227843   2.049   3.015   5.904 -1.0930 -1.6245  2.7142
 5461SOL     OW27844   3.573   2.107   5.217 -0.4738  0.4120 -0.3123
 5461SOL    HW127845   3.546   2.198   5.215  1.5716  1.0775  1.8087
 5461SOL    HW227846   3.497   2.062   5.253  0.6307 -1.6005 -0.4688
 5462SOL     OW27847   0.614   2.189   2.299  0.6349  0.2789 -0.1087
 5462SOL    HW127848   0.646   2.102   2.320  2.0458  0.8243  0.0218
 5462SOL    HW227849   0.524   2.158   2.304  1.3744 -1.9344 -0.4740
 5463SOL     OW27850   0.241   1.973   7.792 -0.0228  0.4164  0.6024
 5463SOL    HW127851   0.176   2.040   7.773  0.3073  0.7350  0.6093
 5463SOL    HW227852   0.291   1.965   7.711 -1.0783 -0.8536  0.0598
 5464SOL     OW27853   4.151   4.134  11.679  0.5059 -0.2084  0.5025
 5464SOL    HW127854   4.142   4.203  11.614  0.4957  0.4436  1.1904
 5464SOL    HW227855   4.159   4.053  11.628  0.2010  0.3192 -0.3748
 5465SOL     OW27856   1.517   1.421   2.086 -0.1702 -0.6916 -0.5917
 5465SOL    HW127857   1.566   1.359   2.140  1.3896  0.6884 -0.4158
 5465SOL    HW227858   1.543   1.507   2.119 -0.0733 -1.0427  0.2502
 5466SOL     OW27859   3.430   4.326  14.861  0.2312 -0.2394  0.6158
 5466SOL    HW127860   3.396   4.395  14.918 -0.4297 -1.4683  1.7207
 5466SOL    HW227861   3.346   4.299  14.823 -0.1874  0.9956  0.6531
 5467SOL     OW27862   4.563   1.165   3.238  0.2593 -0.0633 -0.2883
 5467SOL    HW127863   4.567   1.129   3.326 -0.5168 -1.7895 -0.9546
 5467SOL    HW227864   4.628   1.105   3.199  0.6246 -1.9461  3.2302
 5468SOL     OW27865   3.694   2.319   1.160  0.3079  0.2573 -0.2691
 5468SOL    HW127866   3.611   2.271   1.166 -0.0956  0.8746 -0.8192
 5468SOL    HW227867   3.700   2.330   1.065  1.5267  0.9158 -0.1182
 5469SOL     OW27868   3.736   4.655   0.973 -0.3846 -0.0896 -0.3040
 5469SOL    HW127869   3.757   0.017   1.000 -1.5943  0.9044 -2.7335
 5469SOL    HW227870   3.801   4.655   0.903 -0.7913 -2.1746 -0.6915
 5470SOL     OW27871   2.678   4.650   8.681 -0.3780  0.5702 -0.2883
 5470SOL    HW127872   2.675   4.610   8.768  2.4332  1.1666  0.1014
 5470SOL    HW227873   2.768   4.637   8.652  0.0598 -0.8561  1.6300
 5471SOL     OW27874   0.975   2.495   9.041  0.3035 -0.0119  0.0504
 5471SOL    HW127875   0.922   2.428   8.999  1.2721 -0.1730 -0.9322
 5471SOL    HW227876   1.055   2.463   9.000 -0.5276  0.2192 -1.7313
 5472SOL     OW27877   3.436   1.134  16.043  0.2451 -0.4062 -0.1331
 5472SOL    HW127878   3.494   1.168  16.112 -1.1898 -0.1526  0.9502
 5472SOL    HW227879   3.501   1.113  15.976  1.5447 -0.8159  1.2499
 5473SOL     OW27880   0.149   0.084  13.921 -0.1998 -0.0428 -0.9213
 5473SOL    HW127881   0.184   0.110  13.836 -0.0002  2.0434 -0.2007
 5473SOL    HW227882   0.146   4.717  13.910 -0.6308 -0.2245  0.7346
 5474SOL     OW27883   0.563   2.138   1.436 -0.2985  0.3040 -0.0823
 5474SOL    HW127884   0.593   2.215   1.387  0.6888 -0.4793 -0.7025
 5474SOL    HW227885   0.641   2.104   1.479 -0.6615 -0.5518 -0.1051
 5475SOL     OW27886   2.844   3.581  11.847  0.2353  0.7598 -0.7266
 5475SOL    HW127887   2.894   3.640  11.790 -0.1414  1.0033 -0.8017
 5475SOL    HW227888   2.821   3.629  11.927  3.3819  0.2999  0.4798
 5476SOL     OW27889   2.923   2.991  15.383  0.4742  0.1688 -0.1480
 5476SOL    HW127890   2.999   3.011  15.328  1.5617 -0.1345  1.2381
 5476SOL    HW227891   2.904   2.908  15.340 -2.1645  0.5831  0.2530
 5477SOL     OW27892   0.186   2.917   7.662 -0.1871 -0.1185  0.1930
 5477SOL    HW127893   0.093   2.901   7.646 -0.0644 -1.3349  0.7394
 5477SOL    HW227894   0.222   2.831   7.681 -0.2955  0.0503  1.1705
 5478SOL     OW27895   1.573   3.387   0.632 -0.3282  0.1746  0.1113
 5478SOL    HW127896   1.514   3.414   0.703 -0.4200 -1.2492  0.5907
 5478SOL    HW227897   1.576   3.467   0.580 -0.4353  1.2564  1.7558
 5479SOL     OW27898   2.723   4.338   3.212  0.2868  0.1418  0.1219
 5479SOL    HW127899   2.758   4.415   3.256  1.8764 -0.0043 -0.8783
 5479SOL    HW227900   2.779   4.325   3.135 -0.2441  0.4889 -0.3221
 5480SOL     OW27901   4.472   0.480   4.865  0.0739 -0.1222  0.1166
 5480SOL    HW127902   4.441   0.393   4.839 -2.1033  0.1121  1.9712
 5480SOL    HW227903   4.530   0.467   4.940  0.2204  0.9489  0.1886
 5481SOL     OW27904   0.812   2.451  10.018 -0.4625  0.3192 -0.0380
 5481SOL    HW127905   0.837   2.463   9.926  1.4676  1.4934  0.6464
 5481SOL    HW227906   0.762   2.532  10.027  0.4709  0.6611  2.0378
 5482SOL     OW27907   0.780   3.482   3.343 -0.3259  0.1181  0.2191
 5482SOL    HW127908   0.726   3.505   3.268  0.0341 -1.7606 -0.6266
 5482SOL    HW227909   0.823   3.564   3.366 -0.4918  0.0135  0.8952
 5483SOL     OW27910   3.389   3.711   3.584  0.0714  0.7097  0.2813
 5483SOL    HW127911   3.380   3.693   3.678 -1.2944 -0.2096 -0.0446
 5483SOL    HW227912   3.298   3.707   3.557  1.0684 -1.3884 -2.6829
 5484SOL     OW27913   2.661   0.110  14.868  0.1688 -0.1738 -0.5841
 5484SOL    HW127914   2.630   0.193  14.902  0.5620 -1.2832  2.4552
 5484SOL    HW227915   2.633   0.122  14.777 -0.9693  1.1861 -0.0381
 5485SOL     OW27916   4.170   3.253  15.600  0.2732 -0.2102  0.5779
 5485SOL    HW127917   4.261   3.224  15.594  0.8875  1.5806  0.9823
 5485SOL    HW227918   4.143   3.234  15.510 -1.5944  2.6988  0.5114
 5486SOL     OW27919   0.104   0.381   2.221  0.3689 -0.0551 -0.2035
 5486SOL    HW127920   0.078   0.400   2.131  0.7015  0.1775 -0.2496
 5486SOL    HW227921   0.041   0.433   2.271 -1.3144 -3.3432  1.1072
 5487SOL     OW27922   0.839   4.583   4.613 -0.1037 -0.2903 -0.2874
 5487SOL    HW127923   0.925   4.542   4.604 -0.3585 -1.0354  0.5846
 5487SOL    HW227924   0.818   4.626   4.530 -0.7859 -0.3339 -0.1370
 5488SOL     OW27925   4.211   4.491   4.832  0.3010  0.5205 -0.4328
 5488SOL    HW127926   4.146   4.433   4.792  1.0678 -0.2992 -0.5049
 5488SOL    HW227927   4.204   4.560   4.766 -0.1183 -0.4116 -1.3774
 5489SOL     OW27928   2.464   0.013   2.875 -0.2007  0.0609 -0.1009
 5489SOL    HW127929   2.511   0.060   2.944 -1.6427  0.6846  0.4747
 5489SOL    HW227930   2.494   4.652   2.891 -1.3562 -0.2998  0.1200
 5490SOL     OW27931   1.353   3.738  10.313  0.1638  0.2844  0.5819
 5490SOL    HW127932   1.402   3.811  10.276 -1.8030  2.0401  1.4329
 5490SOL    HW227933   1.389   3.667  10.259  1.0058 -0.6789  2.4204
 5491SOL     OW27934   0.292   0.451   1.550  0.4395  0.4684  0.3404
 5491SOL    HW127935   0.273   0.492   1.466  1.9243  0.6918  0.1094
 5491SOL    HW227936   0.218   0.481   1.603  0.4894 -0.4856  0.9445
 5492SOL     OW27937   2.931   0.561   2.166 -0.2515  0.0327 -0.2438
 5492SOL    HW127938   2.957   0.646   2.129 -0.7687  0.7326  0.9893
 5492SOL    HW227939   3.002   0.512   2.125 -2.5612 -1.6788 -2.2230
 5493SOL     OW27940   1.517   0.611   4.809 -0.3546  0.1421  0.5238
 5493SOL    HW127941   1.471   0.617   4.893  1.0527 -1.6602  1.4236
 5493SOL    HW227942   1.534   0.703   4.789 -0.8791  0.3568  1.0529
 5494SOL     OW27943   0.065   1.981   7.496  0.2040 -0.3857 -0.2725
 5494SOL    HW127944   0.140   1.926   7.475  1.5966  1.0378  1.0069
 5494SOL    HW227945   0.099   2.068   7.477  3.2766 -1.7965 -1.2695
 5495SOL     OW27946   1.665   0.755  10.790  0.0048  0.5031 -0.4916
 5495SOL    HW127947   1.654   0.850  10.786 -1.4913  0.4138  1.2599
 5495SOL    HW227948   1.716   0.740  10.869  1.6126  1.5468 -1.3470
 5496SOL     OW27949   4.660   0.866   2.070 -0.5858 -0.0570  0.3061
 5496SOL    HW127950   4.705   0.798   2.020  2.8526  2.6483 -0.2808
 5496SOL    HW227951   0.008   0.918   2.097 -1.3483  0.4079  1.5138
 5497SOL     OW27952   0.076   4.417   5.720 -0.1192  0.1190 -0.0652
 5497SOL    HW127953   4.722   4.368   5.726  0.1151 -0.3834 -0.9569
 5497SOL    HW227954   0.085   4.444   5.811 -3.2878 -0.7679  0.5010
 5498SOL     OW27955   1.423   2.284   4.763 -0.1408  0.0622 -0.0800
 5498SOL    HW127956   1.345   2.310   4.813  0.1074  0.2998  0.1871
 5498SOL    HW227957   1.496   2.294   4.824 -0.7759  0.3054  0.6464
 5499SOL     OW27958   3.756   2.132   3.811 -0.4599 -0.0094  0.7281
 5499SOL    HW127959   3.709   2.049   3.819 -0.3539 -0.1277  0.0627
 5499SOL    HW227960   3.698   2.184   3.756 -0.1238  0.4258  0.7819
 5500SOL     OW27961   4.612   4.606  10.883 -0.2550  0.2525  1.0238
 5500SOL    HW127962   4.683   4.543  10.888 -1.1741 -0.8912 -0.5099
 5500SOL    HW227963   4.574   4.582  10.798  0.3538  2.7708  0.0449
 5501SOL     OW27964   3.082   0.988   6.821  0.0502  0.1343  0.0303
 5501SOL    HW127965   3.074   0.892   6.815  2.6218 -0.0572 -0.6446
 5501SOL    HW227966   3.145   1.003   6.751 -1.9632  0.3487 -1.7314
 5502SOL     OW27967   0.366   0.719  11.669  0.5531 -0.0608  0.4051
 5502SOL    HW127968   0.307   0.744  11.598  0.3759 -0.5018  0.3991
 5502SOL    HW227969   0.307   0.700  11.741  0.1901  0.6854  0.3097
 5503SOL     OW27970   4.722   3.363   5.747 -0.3076 -0.0504 -1.0174
 5503SOL    HW127971   4.679   3.441   5.783  1.3430  0.4875 -0.1876
 5503SOL    HW227972   0.006   3.404   5.661 -0.0254  0.9636 -0.5060
 5504SOL     OW27973   4.678   3.072  13.236 -0.2841 -0.5037  0.0813
 5504SOL    HW127974   0.037   3.054  13.198  0.1827 -1.3338  1.5286
 5504SOL    HW227975   4.622   3.060  13.159 -0.2087  1.2740 -0.2509
 5505SOL     OW27976   2.928   1.538  14.196 -0.3080 -0.2928  0.5484
 5505SOL    HW127977   2.984   1.616  14.189  0.8599 -1.3167 -1.3839
 5505SOL    HW227978   2.850   1.586  14.226 -0.2044  1.1656 -1.5112
 5506SOL     OW27979   3.961   4.641  12.155  0.0381 -0.5220  0.5979
 5506SOL    HW127980   4.053   4.666  12.159  0.0936 -0.6433  0.0266
 5506SOL    HW227981   3.966   4.557  12.202 -0.1618 -0.8378  0.0504
 5507SOL     OW27982   4.416   4.084   8.171 -0.1197 -0.3819  0.3521
 5507SOL    HW127983   4.417   4.096   8.076  3.9726 -3.5107 -0.0030
 5507SOL    HW227984   4.480   4.143   8.210  0.8149 -1.3193  0.2457
 5508SOL     OW27985   4.615   2.457   1.601  0.4845 -0.2007 -0.0558
 5508SOL    HW127986   4.659   2.454   1.685  0.6424 -0.7206 -0.1576
 5508SOL    HW227987   4.600   2.363   1.590  1.5652 -0.4840  0.9614
 5509SOL     OW27988   2.946   1.610   2.341 -0.0697 -0.5523  0.4430
 5509SOL    HW127989   2.952   1.701   2.311  0.2555 -0.5183  0.6034
 5509SOL    HW227990   3.002   1.611   2.419  1.2169 -1.1253 -0.4670
 5510SOL     OW27991   2.614   0.377   0.796 -0.3806  0.7484  0.3039
 5510SOL    HW127992   2.607   0.467   0.765 -1.0400  0.3143 -0.8446
 5510SOL    HW227993   2.664   0.381   0.877  2.2192  0.4320 -1.2759
 5511SOL     OW27994   3.775   3.707   6.049  0.9360  0.1132 -0.3079
 5511SOL    HW127995   3.807   3.763   5.978  0.6368  2.4697  1.4145
 5511SOL    HW227996   3.811   3.752   6.125 -1.1592  0.4316  0.5023
 5512SOL     OW27997   2.919   3.542   3.792  0.1132  0.0369 -0.0558
 5512SOL    HW127998   2.889   3.549   3.701  0.0871 -0.1230 -0.0599
 5512SOL    HW227999   2.999   3.489   3.786  0.1448  0.1648 -0.6827
 5513SOL     OW28000   3.078   3.584   2.210  0.3332 -0.4558  0.0238
 5513SOL    HW128001   3.113   3.515   2.267 -0.1202 -1.2900 -0.7100
 5513SOL    HW228002   3.029   3.533   2.145 -1.7546  1.0217  0.4465
 5514SOL     OW28003   4.726   0.348   2.570  0.6401 -0.3235 -0.1607
 5514SOL    HW128004   0.078   0.308   2.535  2.1598  1.1173  1.6939
 5514SOL    HW228005   0.021   0.338   2.662 -0.8720 -1.5658  0.0773
 5515SOL     OW28006   4.011   1.482   8.057  0.1488 -0.1169 -0.2447
 5515SOL    HW128007   4.092   1.443   8.090  0.0207  1.3922  1.8898
 5515SOL    HW228008   3.948   1.430   8.107 -0.4326 -0.7281 -1.6400
 5516SOL     OW28009   0.268   3.317   8.093 -0.1127 -0.0795  0.0580
 5516SOL    HW128010   0.201   3.361   8.041  0.1516  0.9942  0.6200
 5516SOL    HW228011   0.296   3.384   8.156  0.7827 -0.7374  0.3667
 5517SOL     OW28012   0.531   3.002   9.188 -0.2934 -0.0966 -0.0740
 5517SOL    HW128013   0.452   3.054   9.171 -0.4263 -0.5416 -0.8291
 5517SOL    HW228014   0.582   3.056   9.248 -1.8074  0.1715  0.9688
 5518SOL     OW28015   4.604   1.827  14.570  0.0482 -0.4060  0.3196
 5518SOL    HW128016   4.547   1.881  14.514  1.3521  2.2736  1.5575
 5518SOL    HW228017   4.690   1.864  14.546 -1.5411  2.8668 -0.4125
 5519SOL     OW28018   3.331   1.815   5.545 -0.0001 -0.3600  0.0658
 5519SOL    HW128019   3.321   1.752   5.616 -1.1597 -0.7738 -0.4637
 5519SOL    HW228020   3.422   1.843   5.548  0.4496 -2.0474  2.0521
 5520SOL     OW28021   1.365   4.575   8.334 -0.2659  0.5680  0.2218
 5520SOL    HW128022   1.396   4.512   8.399  1.1749  1.0741  0.0212
 5520SOL    HW228023   1.403   4.654   8.374 -1.0247  1.0344  0.0255
 5521SOL     OW28024   3.970   3.106   1.239 -0.5743 -0.6051  0.1849
 5521SOL    HW128025   3.976   3.198   1.215  0.1277 -0.4314  1.0269
 5521SOL    HW228026   3.931   3.116   1.325 -0.9841 -1.5880  0.1144
 5522SOL     OW28027   3.255   0.030   8.613  0.0214 -0.1857  0.4369
 5522SOL    HW128028   3.256   0.035   8.708 -0.2472 -0.3227  0.4460
 5522SOL    HW228029   3.316   4.687   8.590 -3.6794 -3.2272  0.1436
 5523SOL     OW28030   4.058   2.135   8.462  0.4024  0.5779 -0.0200
 5523SOL    HW128031   4.117   2.211   8.467  0.5739  0.4277  0.2427
 5523SOL    HW228032   4.120   2.063   8.451  0.5694  0.5205  1.3096
 5524SOL     OW28033   2.471   3.759  17.529 -0.1704 -0.4981  0.3879
 5524SOL    HW128034   2.560   3.784  17.551  0.4265  0.1064 -2.7234
 5524SOL    HW228035   2.460   3.685  17.588 -1.0176 -2.0526 -1.7437
 5525SOL     OW28036   3.152   3.684   2.963  0.1306  0.2175 -0.1256
 5525SOL    HW128037   3.227   3.701   2.906 -0.2028 -1.6538 -1.1052
 5525SOL    HW228038   3.177   3.736   3.040 -1.3386  0.9481 -0.1253
 5526SOL     OW28039   1.808   2.413  10.521 -0.3401  0.1899 -0.1255
 5526SOL    HW128040   1.877   2.347  10.513 -0.6844 -0.4605  2.4473
 5526SOL    HW228041   1.791   2.403  10.614  0.8963  0.8276  0.1716
 5527SOL     OW28042   0.488   2.701   7.633 -0.0199 -0.4486  0.0163
 5527SOL    HW128043   0.496   2.606   7.629  0.8377 -0.2791 -2.7821
 5527SOL    HW228044   0.495   2.720   7.539 -2.5231  1.5426  0.2513
 5528SOL     OW28045   2.342   1.470   6.691 -0.4039  0.4631 -0.3682
 5528SOL    HW128046   2.416   1.519   6.656  0.4626  0.1331  0.9635
 5528SOL    HW228047   2.378   1.436   6.773 -0.7695  0.3283 -0.2631
 5529SOL     OW28048   0.990   0.771  17.117  0.8199 -0.0971  0.1848
 5529SOL    HW128049   1.064   0.711  17.126 -0.4489 -1.4937  1.5298
 5529SOL    HW228050   0.941   0.768  17.200 -2.0200  0.1175 -1.4986
 5530SOL     OW28051   3.544   0.196   5.635 -0.1548  0.3810  0.0156
 5530SOL    HW128052   3.492   0.242   5.701 -0.0699 -0.4937  0.6790
 5530SOL    HW228053   3.631   0.209   5.670 -0.1984 -1.2560  0.7461
 5531SOL     OW28054   2.138   1.270   6.566  0.3063  0.1805 -0.2540
 5531SOL    HW128055   2.068   1.330   6.540 -0.9379 -0.5152  1.4755
 5531SOL    HW228056   2.211   1.331   6.581  0.4325 -0.0505  0.0938
 5532SOL     OW28057   0.691   2.549  17.642  0.4307 -0.4683 -0.1467
 5532SOL    HW128058   0.653   2.629  17.604  0.9344  1.2769  2.9725
 5532SOL    HW228059   0.618   2.489  17.657 -0.5648  1.1200  1.3647
 5533SOL     OW28060   2.161   1.736   7.464  0.2940 -0.3962 -0.7087
 5533SOL    HW128061   2.166   1.764   7.373  0.0865  1.0389 -0.2684
 5533SOL    HW228062   2.199   1.817   7.496 -0.7530 -0.2964  0.2750
 5534SOL     OW28063   0.716   1.723  14.028 -0.3906  0.5862 -0.1902
 5534SOL    HW128064   0.733   1.738  14.121  0.7190 -1.3744 -0.0803
 5534SOL    HW228065   0.755   1.809  14.009 -0.6456  0.7282 -0.0727
 5535SOL     OW28066   2.475   0.840   8.716  0.2340  0.1225 -0.4493
 5535SOL    HW128067   2.500   0.900   8.786  0.2886 -1.7004  1.0866
 5535SOL    HW228068   2.524   0.760   8.736 -0.0541 -0.1096 -0.6752
 5536SOL     OW28069   1.051   4.122   4.645 -0.2725  0.3539  0.0603
 5536SOL    HW128070   1.036   4.144   4.553  1.0722  0.4494 -0.1293
 5536SOL    HW228071   0.964   4.110   4.684 -0.6345 -1.8796 -1.4595
 5537SOL     OW28072   1.722   4.413   2.891  0.3547 -0.3666 -0.8154
 5537SOL    HW128073   1.732   4.450   2.804 -1.6841 -1.7816 -1.6570
 5537SOL    HW228074   1.713   4.321   2.866  0.2562 -0.2436 -1.2263
 5538SOL     OW28075   3.718   1.253   6.997  0.2244 -0.1866 -0.2092
 5538SOL    HW128076   3.801   1.225   6.960 -0.2883  0.1484 -1.6239
 5538SOL    HW228077   3.683   1.302   6.922  0.0878 -1.8725 -1.2497
 5539SOL     OW28078   0.831   0.673   3.927  0.6098  0.3934  0.0716
 5539SOL    HW128079   0.818   0.749   3.870  0.3117  1.3006  1.3431
 5539SOL    HW228080   0.925   0.659   3.926  0.4953 -0.4055  0.8202
 5540SOL     OW28081   3.035   4.072   4.119  0.3529 -0.6379 -0.3729
 5540SOL    HW128082   2.974   4.015   4.165  0.9321 -0.2957  0.8345
 5540SOL    HW228083   2.984   4.132   4.064 -0.8365 -1.0182  0.3133
 5541SOL     OW28084   2.660   1.539   7.534 -0.2070  0.0837  0.6431
 5541SOL    HW128085   2.626   1.469   7.590 -1.7987 -1.2878 -2.0236
 5541SOL    HW228086   2.747   1.552   7.572  0.9658  0.4615 -2.1637
 5542SOL     OW28087   3.164   0.371  16.657 -0.3155 -0.0247  0.2729
 5542SOL    HW128088   3.115   0.453  16.657  1.0768  0.8002 -0.5034
 5542SOL    HW228089   3.200   0.381  16.744  0.8302 -3.6943  0.2312
 5543SOL     OW28090   1.831   0.094   3.333  0.4207 -0.0773  0.6731
 5543SOL    HW128091   1.791   0.122   3.251  2.0312  1.8867  0.5679
 5543SOL    HW228092   1.855   0.184   3.356 -2.0724  0.9549 -0.6871
 5544SOL     OW28093   3.721   4.063  14.226 -0.0765 -0.2398 -0.0030
 5544SOL    HW128094   3.792   4.027  14.174 -1.3922 -3.3474  0.3649
 5544SOL    HW228095   3.700   3.991  14.285 -2.3906  0.4339 -0.0181
 5545SOL     OW28096   3.801   3.636  14.326 -0.1028  0.4759 -0.7651
 5545SOL    HW128097   3.796   3.561  14.268 -0.1715  0.1646 -0.3571
 5545SOL    HW228098   3.833   3.594  14.406  1.3345  0.6623 -1.2326
 5546SOL     OW28099   4.693   0.688   8.689 -0.6397 -0.3873 -0.0240
 5546SOL    HW128100   4.651   0.721   8.768  1.0742 -0.9626  1.1302
 5546SOL    HW228101   0.034   0.755   8.687 -0.4992 -0.5274  0.0958
 5547SOL     OW28102   1.769   4.678   6.453  0.2636 -0.5942 -0.0300
 5547SOL    HW128103   1.760   4.593   6.495 -0.2439 -1.2700 -1.5295
 5547SOL    HW228104   1.862   4.699   6.465  0.2213 -1.6400  2.0814
 5548SOL     OW28105   1.016   0.491   3.262 -0.4938  0.4665 -0.0523
 5548SOL    HW128106   1.033   0.513   3.170 -0.3303 -0.4892 -0.2530
 5548SOL    HW228107   0.961   0.559   3.300 -0.5486  0.3525  0.0745
 5549SOL     OW28108   4.125   1.435  10.095  0.4537 -0.0326  0.1677
 5549SOL    HW128109   4.049   1.421  10.151 -0.7355  1.2188 -1.1264
 5549SOL    HW228110   4.192   1.439  10.163  0.6684 -1.1707  0.0223
 5550SOL     OW28111   1.719   0.350   7.896  0.3033 -0.3029  0.3242
 5550SOL    HW128112   1.799   0.306   7.924  1.7168  2.5234  0.7103
 5550SOL    HW228113   1.756   0.393   7.819 -1.0028  2.2689  1.1355
 5551SOL     OW28114   2.848   4.014   4.945 -0.6332  0.1184 -0.3335
 5551SOL    HW128115   2.784   4.024   5.015 -1.6724  3.7484 -1.8059
 5551SOL    HW228116   2.915   3.964   4.992  0.4171  1.1145 -0.7838
 5552SOL     OW28117   1.704   2.500   5.497 -0.0425 -0.7273  0.0599
 5552SOL    HW128118   1.751   2.583   5.506 -0.1533 -0.4867 -1.6978
 5552SOL    HW228119   1.652   2.507   5.577 -1.3084  0.3870 -0.8616
 5553SOL     OW28120   2.105   1.420   5.210 -0.1476  0.0380 -0.3160
 5553SOL    HW128121   2.075   1.402   5.299  1.9999  0.2349  0.4419
 5553SOL    HW228122   2.044   1.492   5.190 -0.3443 -0.5931 -1.9869
 5554SOL     OW28123   3.463   1.197  11.343 -0.3724  0.4451  0.0371
 5554SOL    HW128124   3.401   1.257  11.302  0.4626  0.6359 -0.9523
 5554SOL    HW228125   3.429   1.191  11.432 -0.3150 -0.0673  0.0276
 5555SOL     OW28126   0.960   0.173   4.919  0.0442  0.5449 -0.2334
 5555SOL    HW128127   0.971   0.136   5.006  0.1597  0.2380 -0.3783
 5555SOL    HW228128   0.864   0.175   4.915  0.0732 -0.2993 -1.3442
 5556SOL     OW28129   1.688   2.268   6.941  0.0105  0.5780 -0.2354
 5556SOL    HW128130   1.767   2.299   6.897  0.2967  0.3778  0.1316
 5556SOL    HW228131   1.629   2.253   6.867  0.3113  0.1086 -0.3825
 5557SOL     OW28132   2.291   4.394   7.483  0.6558 -0.3116 -0.1092
 5557SOL    HW128133   2.343   4.446   7.421 -0.1579  1.6736  0.8547
 5557SOL    HW228134   2.270   4.466   7.542  2.9025  0.6287 -0.4427
 5558SOL     OW28135   4.054   0.676   4.590  0.4303 -0.1219 -0.1597
 5558SOL    HW128136   4.053   0.759   4.542 -1.4062  0.2246  0.5158
 5558SOL    HW228137   4.055   0.698   4.683 -0.1331  0.2059 -0.2303
 5559SOL     OW28138   1.239   0.352  16.493  0.0249  0.5847 -0.6739
 5559SOL    HW128139   1.204   0.439  16.476 -0.8214  0.4097  0.2239
 5559SOL    HW228140   1.206   0.318  16.576 -1.1190  0.9004 -1.0058
 5560SOL     OW28141   2.065   1.448   1.965  0.0391 -0.6564 -0.0946
 5560SOL    HW128142   2.113   1.365   1.975  2.5872  0.6717 -1.3126
 5560SOL    HW228143   2.124   1.511   2.006  0.2170  0.0949 -1.5169
 5561SOL     OW28144   3.688   2.896   6.121 -0.2664  0.2437 -0.3265
 5561SOL    HW128145   3.694   2.904   6.216 -0.1373 -1.3116 -0.1940
 5561SOL    HW228146   3.716   2.981   6.087  2.5167  0.6486  2.9498
 5562SOL     OW28147   2.970   2.602   9.422  0.0681  0.4262  0.8102
 5562SOL    HW128148   2.919   2.567   9.495 -0.8701 -0.7897 -0.4220
 5562SOL    HW228149   2.899   2.596   9.357  2.5139 -0.2451 -1.7678
 5563SOL     OW28150   0.433   1.142   1.532  0.1115  0.6525  0.2501
 5563SOL    HW128151   0.471   1.054   1.534 -2.7172 -0.5887 -0.3567
 5563SOL    HW228152   0.342   1.113   1.523  0.4814 -0.3141 -0.2891
 5564SOL     OW28153   1.326   4.600   0.539  0.3861 -0.3235 -0.3197
 5564SOL    HW128154   1.396   4.580   0.601 -1.4872  0.4565  2.0457
 5564SOL    HW228155   1.250   4.557   0.580  0.7463 -0.0240  0.6587
 5565SOL     OW28156   4.032   4.250  16.992 -0.3118  0.1422  0.5808
 5565SOL    HW128157   3.943   4.234  16.961  0.0884 -0.6171 -0.1762
 5565SOL    HW228158   4.002   4.301  17.067 -0.0139  1.0552  0.0761
 5566SOL     OW28159   3.404   0.335  12.100 -0.4125 -0.4816 -0.1656
 5566SOL    HW128160   3.383   0.376  12.184 -2.1554 -1.4483 -0.1316
 5566SOL    HW228161   3.443   0.256  12.137 -2.3134  0.3465  3.5330
 5567SOL     OW28162   3.638   1.726   0.918 -0.8164 -0.1165  0.2868
 5567SOL    HW128163   3.662   1.796   0.979 -0.6076 -0.0801  0.1631
 5567SOL    HW228164   3.721   1.680   0.925 -0.2438  0.9312  0.3824
 5568SOL     OW28165   1.173   2.424  16.194 -0.1348  0.6105  0.1764
 5568SOL    HW128166   1.260   2.453  16.223  0.8162 -1.8744 -0.2044
 5568SOL    HW228167   1.145   2.377  16.273  1.2353 -0.8861 -0.2391
 5569SOL     OW28168   0.922   0.240   3.228 -0.2769 -0.3215 -0.0090
 5569SOL    HW128169   0.998   0.185   3.212  1.0262  1.5288 -0.2717
 5569SOL    HW228170   0.970   0.314   3.266 -0.7093 -0.9955  1.8244
 5570SOL     OW28171   1.009   2.043  12.668  0.0693  0.0843 -0.3775
 5570SOL    HW128172   1.025   2.021  12.576  2.3395  0.1040  0.0062
 5570SOL    HW228173   1.084   2.100  12.689 -2.2086  2.3698  1.5584
 5571SOL     OW28174   2.517   0.952   2.012 -0.1921  0.1760  0.6900
 5571SOL    HW128175   2.490   0.940   1.921  1.9090  0.2604  0.0688
 5571SOL    HW228176   2.612   0.952   2.008 -0.2581  0.2517 -0.7373
 5572SOL     OW28177   2.214   0.762   2.322  0.2009  0.0277  0.1339
 5572SOL    HW128178   2.251   0.842   2.358 -1.1026  1.7296 -2.2917
 5572SOL    HW228179   2.293   0.712   2.303  1.5864  1.1653  3.0638
 5573SOL     OW28180   4.404   2.824   8.030  0.2164  0.4828 -0.1044
 5573SOL    HW128181   4.324   2.781   8.062  0.6716 -0.6676 -0.5039
 5573SOL    HW228182   4.414   2.888   8.101  0.3998 -0.7000  0.9430
 5574SOL     OW28183   2.680   0.441   4.445  0.1768  0.0569  0.0981
 5574SOL    HW128184   2.706   0.371   4.505  0.4738  0.3342  0.2940
 5574SOL    HW228185   2.611   0.392   4.402  1.4082  0.3214 -2.1915
 5575SOL     OW28186   2.322   2.188  12.250 -0.1001 -0.2003  0.5912
 5575SOL    HW128187   2.362   2.161  12.167  0.5919  3.0243 -0.1568
 5575SOL    HW228188   2.399   2.167  12.301  1.0632 -0.0812 -1.1094
 5576SOL     OW28189   3.362   4.329   4.837 -0.2191 -0.2394  0.0052
 5576SOL    HW128190   3.413   4.276   4.899 -1.9033 -0.4628  1.1980
 5576SOL    HW228191   3.304   4.262   4.802 -1.8554  2.1507 -1.7959
 5577SOL     OW28192   1.735   1.995   2.682  0.0927 -0.0511 -0.2881
 5577SOL    HW128193   1.643   2.008   2.703 -0.5247  1.2616 -3.8452
 5577SOL    HW228194   1.726   1.942   2.602 -0.7443  0.2763 -0.4051
 5578SOL     OW28195   0.556   1.711   6.984 -0.2738  0.0392 -0.3099
 5578SOL    HW128196   0.569   1.798   6.946  0.2797 -0.0614 -0.3616
 5578SOL    HW228197   0.504   1.670   6.915 -0.7728  0.5094 -0.2116
 5579SOL     OW28198   3.644   3.097   3.315  0.3598 -0.1179  0.4546
 5579SOL    HW128199   3.705   3.036   3.272  1.0605  0.3499  0.7974
 5579SOL    HW228200   3.601   3.041   3.380  2.6828  0.6393  2.5889
 5580SOL     OW28201   3.342   0.379   8.688 -0.4013 -0.5374 -0.2848
 5580SOL    HW128202   3.361   0.446   8.754  3.2300 -1.2770 -0.6222
 5580SOL    HW228203   3.425   0.348   8.653  0.3136  0.5989  0.4408
 5581SOL     OW28204   0.906   2.621   5.871  0.3661 -0.3453 -0.4331
 5581SOL    HW128205   0.904   2.596   5.963  2.8262 -1.3234 -0.6344
 5581SOL    HW228206   0.941   2.539   5.835 -2.8387 -1.7149 -0.3501
 5582SOL     OW28207   1.989   2.387   2.065 -0.4100  0.6135  0.1951
 5582SOL    HW128208   1.947   2.439   1.996  1.9231  1.8616 -0.2565
 5582SOL    HW228209   1.984   2.449   2.137 -4.2916  2.0406 -1.2379
 5583SOL     OW28210   4.712   1.353  15.558  0.2058  0.6619 -0.4455
 5583SOL    HW128211   4.716   1.301  15.478  0.1327  2.9814 -1.9704
 5583SOL    HW228212   4.690   1.434  15.512  0.5790  0.1678 -1.4882
 5584SOL     OW28213   4.180   4.168   4.481 -0.6219 -0.0987 -0.1699
 5584SOL    HW128214   4.273   4.154   4.464 -0.5093 -0.8836  1.1003
 5584SOL    HW228215   4.140   4.090   4.442  0.7358 -1.1816  0.5804
 5585SOL     OW28216   4.522   0.635   9.762 -0.2997  0.0505 -0.2582
 5585SOL    HW128217   4.536   0.635   9.857 -0.5923  2.1034 -0.1946
 5585SOL    HW228218   4.572   0.558   9.736  1.3223 -0.1235  3.4464
 5586SOL     OW28219   4.559   2.404   3.240  0.2035 -0.5755  0.1981
 5586SOL    HW128220   4.497   2.356   3.294 -1.3535  1.2759  0.0424
 5586SOL    HW228221   4.501   2.420   3.166  1.4032 -2.6354 -1.1532
 5587SOL     OW28222   2.334   1.895   1.686  0.6582  1.0223 -0.1626
 5587SOL    HW128223   2.331   1.837   1.762 -2.8751 -1.2127 -1.9770
 5587SOL    HW228224   2.298   1.974   1.727 -0.5175 -0.3463  1.4101
 5588SOL     OW28225   2.829   3.352  11.714 -0.7764 -0.1081  0.3649
 5588SOL    HW128226   2.794   3.419  11.772  0.8705 -0.2376  1.5096
 5588SOL    HW228227   2.924   3.349  11.729 -1.0129  0.7577  2.0052
 5589SOL     OW28228   1.113   0.157  14.443  0.2507 -0.1379 -0.0170
 5589SOL    HW128229   1.207   0.155  14.460  0.3629 -3.0401 -0.9341
 5589SOL    HW228230   1.109   0.167  14.348  2.5094  0.4278 -0.0437
 5590SOL     OW28231   3.760   4.679   7.997 -0.1808 -0.0225  0.1334
 5590SOL    HW128232   3.853   4.685   7.974 -0.5177 -4.1233 -2.3947
 5590SOL    HW228233   3.725   4.673   7.908  0.6857  1.3403 -0.2933
 5591SOL     OW28234   1.651   1.296   9.582 -0.0280  0.1482 -0.0427
 5591SOL    HW128235   1.625   1.339   9.663 -0.7812 -3.2218  1.5316
 5591SOL    HW228236   1.698   1.369   9.541  0.2996  0.8169  1.5093
 5592SOL     OW28237   4.686   4.549   1.480  0.3153 -0.4435 -0.0207
 5592SOL    HW128238   4.628   4.621   1.457  0.3602 -1.1827 -2.3914
 5592SOL    HW228239   0.032   4.569   1.422 -0.8452  0.2305 -1.2514
 5593SOL     OW28240   2.103   4.668  15.602  0.6067  0.0871 -0.2070
 5593SOL    HW128241   2.176   4.607  15.614 -1.4979 -2.3427  0.4686
 5593SOL    HW228242   2.051   4.647  15.680 -1.5599 -1.3180 -2.0577
 5594SOL     OW28243   3.796   3.896   8.163 -0.0757  0.3697 -0.3935
 5594SOL    HW128244   3.824   3.981   8.131 -0.0387  0.6401  0.3442
 5594SOL    HW228245   3.848   3.850   8.097 -0.2084 -1.4792  0.7709
 5595SOL     OW28246   3.257   1.956   3.545  0.8482 -0.0256  0.3377
 5595SOL    HW128247   3.211   2.035   3.572  1.1673  1.0546 -2.3027
 5595SOL    HW228248   3.187   1.892   3.533  0.2902  0.5002  0.7991
 5596SOL     OW28249   2.854   2.914  14.710 -0.3681 -0.0875  0.0647
 5596SOL    HW128250   2.945   2.941  14.714 -0.1857 -0.6442 -0.3609
 5596SOL    HW228251   2.805   2.978  14.761 -0.7007  0.3829 -0.8589
 5597SOL     OW28252   4.016   0.802  15.604  0.3410 -0.3893 -0.0071
 5597SOL    HW128253   4.023   0.845  15.520  1.0927 -2.3502 -0.9605
 5597SOL    HW228254   4.088   0.835  15.657 -0.6803 -0.1173  1.2344
 5598SOL     OW28255   1.740   0.840   2.927  0.1326 -0.1195 -0.1671
 5598SOL    HW128256   1.697   0.886   2.999  1.7863  0.1982  0.6223
 5598SOL    HW228257   1.690   0.758   2.927  1.8960 -1.2149  0.1723
 5599SOL     OW28258   2.698   3.386   2.978  0.0083 -0.2654 -0.3949
 5599SOL    HW128259   2.783   3.403   3.017  0.9103 -4.0727 -0.7205
 5599SOL    HW228260   2.711   3.301   2.935  0.0042 -1.4102  1.8300
 5600SOL     OW28261   3.144   0.477  11.053  0.3848 -0.3473 -0.0767
 5600SOL    HW128262   3.219   0.420  11.070 -0.8041 -2.3817 -1.5111
 5600SOL    HW228263   3.176   0.566  11.064  3.0174 -1.2998  0.0605
 5601SOL     OW28264   4.211   1.306   8.133 -0.6557 -0.3519 -0.3051
 5601SOL    HW128265   4.239   1.300   8.042 -0.6580  0.7448 -0.3733
 5601SOL    HW228266   4.285   1.348   8.177 -1.6815  1.9211 -0.7397
 5602SOL     OW28267   2.626   1.064   5.611 -0.0657  0.8180  0.0509
 5602SOL    HW128268   2.669   1.053   5.526  1.0147  1.5638  0.4885
 5602SOL    HW228269   2.581   1.147   5.596 -0.0387  0.5537 -1.4968
 5603SOL     OW28270   4.211   0.400  13.095 -0.2193  0.2989 -0.5072
 5603SOL    HW128271   4.293   0.398  13.044  1.6307  1.3714  2.4180
 5603SOL    HW228272   4.160   0.461  13.041 -1.9611 -0.8532 -0.1593
 5604SOL     OW28273   0.906   1.817   2.659 -0.1517  0.2548  0.1974
 5604SOL    HW128274   0.942   1.815   2.571  0.1364 -1.5097  0.3700
 5604SOL    HW228275   0.981   1.847   2.711  0.3664  0.6277 -0.7747
 5605SOL     OW28276   2.451   0.558   8.042  0.3292  0.0724 -0.4918
 5605SOL    HW128277   2.356   0.570   8.041  0.2870 -0.1652  1.0019
 5605SOL    HW228278   2.470   0.623   8.109 -0.3672 -0.2119 -0.0263
 5606SOL     OW28279   3.289   1.911   5.081  0.5185 -0.2498 -0.2395
 5606SOL    HW128280   3.268   1.937   5.171  0.2136 -0.6284 -0.2017
 5606SOL    HW228281   3.268   1.987   5.027  0.8258  0.0959  0.1275
 5607SOL     OW28282   2.426   2.789   3.221  0.1824 -0.6085 -0.1637
 5607SOL    HW128283   2.386   2.865   3.262  0.8267 -0.5779  0.4136
 5607SOL    HW228284   2.490   2.831   3.162  1.0794 -0.9525  0.5632
 5608SOL     OW28285   2.427   4.155   5.481 -0.3180 -0.4988 -0.7402
 5608SOL    HW128286   2.331   4.151   5.485 -0.2747  0.6881  1.4771
 5608SOL    HW228287   2.434   4.218   5.552 -0.6900 -0.5879 -0.6218
 5609SOL     OW28288   1.418   2.300   3.257  0.2868  0.2445 -0.2205
 5609SOL    HW128289   1.459   2.370   3.308  3.2247 -0.5169 -1.5408
 5609SOL    HW228290   1.361   2.350   3.198 -0.6736 -1.5332 -0.7856
 5610SOL     OW28291   3.511   4.048   3.706 -0.0914  0.4411 -0.6819
 5610SOL    HW128292   3.457   3.995   3.764 -0.8448  0.0309 -1.7580
 5610SOL    HW228293   3.592   4.063   3.755  0.1561  0.0408 -0.9720
 5611SOL     OW28294   2.723   2.938   7.921  0.0195  0.3489  0.1433
 5611SOL    HW128295   2.638   2.951   7.962  0.9102  0.1695  2.0263
 5611SOL    HW228296   2.739   2.845   7.935 -2.5839 -0.3031 -1.1622
 5612SOL     OW28297   0.631   3.109   4.765 -0.2896 -0.7464 -0.0285
 5612SOL    HW128298   0.608   3.178   4.703  0.6356 -1.7057 -1.4315
 5612SOL    HW228299   0.565   3.041   4.755 -2.4355  1.1410  1.2617
 5613SOL     OW28300   2.342   3.587   8.172  0.0678  0.1689  0.1159
 5613SOL    HW128301   2.371   3.611   8.260  0.2942 -0.4608  0.2130
 5613SOL    HW228302   2.260   3.543   8.194  0.8621 -1.7544 -0.7693
 5614SOL     OW28303   0.342   1.384   1.435  0.8849  0.0057  0.2591
 5614SOL    HW128304   0.260   1.406   1.477 -0.0295 -1.1655 -0.9016
 5614SOL    HW228305   0.368   1.300   1.473  0.3294 -0.7654 -1.0293
 5615SOL     OW28306   4.302   4.678  14.081 -0.3077 -0.6512  0.1480
 5615SOL    HW128307   4.322   4.616  14.152 -0.1932 -1.2333 -0.3946
 5615SOL    HW228308   4.386   4.720  14.061  0.1227 -1.7273 -0.3652
 5616SOL     OW28309   4.478   2.542   6.685 -0.0807 -0.0402 -0.0355
 5616SOL    HW128310   4.464   2.613   6.622  2.9555  0.3348 -0.2603
 5616SOL    HW228311   4.492   2.603   6.758 -1.5757 -1.2409  1.2757
 5617SOL     OW28312   3.735   3.016   2.358  0.2189  0.2858 -0.0348
 5617SOL    HW128313   3.663   3.020   2.295  1.2245  1.3064 -1.1210
 5617SOL    HW228314   3.728   3.109   2.381  0.5327  0.0964  0.8215
 5618SOL     OW28315   1.499   3.566  15.379 -0.0271 -0.4378 -0.4207
 5618SOL    HW128316   1.521   3.640  15.435 -0.3152  0.8036 -1.9688
 5618SOL    HW228317   1.478   3.620  15.303 -1.1538 -1.2338 -0.6716
 5619SOL     OW28318   0.804   2.417   4.577 -0.3371 -0.3525 -0.2928
 5619SOL    HW128319   0.875   2.482   4.573 -0.7330  0.0461 -0.7837
 5619SOL    HW228320   0.751   2.432   4.499 -3.7402 -0.3479  2.0197
 5620SOL     OW28321   0.597   1.776  14.978  0.5382 -0.1970 -0.9377
 5620SOL    HW128322   0.667   1.841  14.981  0.9633 -0.8429  2.6671
 5620SOL    HW228323   0.646   1.699  15.005  0.0527  0.2137  1.1389
 5621SOL     OW28324   2.447   4.411   7.107 -0.3823  0.5979  0.1193
 5621SOL    HW128325   2.432   4.444   7.019  0.9958  0.8405 -0.0202
 5621SOL    HW228326   2.534   4.373   7.111 -0.3393  0.5978 -0.7934
 5622SOL     OW28327   1.523   1.221   5.920 -0.6516 -0.3816  0.1093
 5622SOL    HW128328   1.510   1.182   6.007 -0.9715  2.5457  1.3718
 5622SOL    HW228329   1.578   1.296   5.944 -0.1887 -0.9625  0.8766
 5623SOL     OW28330   3.749   3.831   8.779  0.4849 -0.0433  0.0803
 5623SOL    HW128331   3.751   3.904   8.717 -1.6162 -2.1127 -2.4040
 5623SOL    HW228332   3.845   3.821   8.780  0.6422  1.4065  0.6978
 5624SOL     OW28333   3.263   2.980   5.105  0.4417 -0.7832  0.4752
 5624SOL    HW128334   3.191   2.967   5.167  0.4456  1.3173  0.9210
 5624SOL    HW228335   3.233   2.966   5.016  1.7638  0.1159 -0.1124
 5625SOL     OW28336   3.580   1.728   2.194 -0.3777 -0.0552  0.2264
 5625SOL    HW128337   3.638   1.799   2.168  0.4941  0.7194  4.2839
 5625SOL    HW228338   3.641   1.656   2.213  1.4487  1.9469  1.8290
 5626SOL     OW28339   0.564   1.023   4.260  0.3767 -0.2546  0.8340
 5626SOL    HW128340   0.500   0.965   4.302  0.3458  0.1285  1.3134
 5626SOL    HW228341   0.619   0.959   4.215  0.2670 -0.5964  1.1831
 5627SOL     OW28342   1.266   1.393   5.900  0.4424  0.4298  0.9544
 5627SOL    HW128343   1.327   1.460   5.869 -0.1850 -0.3771 -2.0054
 5627SOL    HW228344   1.302   1.384   5.988 -0.2509 -1.8428  1.0016
 5628SOL     OW28345   1.566   1.526   8.804 -0.0795  0.1888  0.0412
 5628SOL    HW128346   1.658   1.551   8.810  0.7617 -2.7806 -0.9193
 5628SOL    HW228347   1.571   1.493   8.714 -2.4738 -0.6864  0.2284
 5629SOL     OW28348   2.501   2.813   1.432 -0.1568 -0.4347 -0.4245
 5629SOL    HW128349   2.547   2.867   1.496 -1.6083  2.0802 -1.5239
 5629SOL    HW228350   2.492   2.735   1.487  0.1518 -0.5568 -0.5487
 5630SOL     OW28351   3.545   2.874   3.913 -0.7063 -0.2000  0.1339
 5630SOL    HW128352   3.478   2.893   3.847  0.6906  2.5425 -0.5154
 5630SOL    HW228353   3.518   2.949   3.966  0.6022 -0.2829  0.8985
 5631SOL     OW28354   2.532   4.246   3.406  0.6490  0.2505  0.6155
 5631SOL    HW128355   2.612   4.267   3.357  0.2147 -0.1256 -0.2525
 5631SOL    HW228356   2.462   4.267   3.345  0.1411 -0.8414  0.8239
 5632SOL     OW28357   3.686   1.959   8.555 -0.2166 -0.1428  0.0162
 5632SOL    HW128358   3.750   1.972   8.624 -0.1618 -2.2494  0.3588
 5632SOL    HW228359   3.729   1.907   8.487 -0.9415 -0.7278 -0.0037
 5633SOL     OW28360   4.379   4.654   6.409  0.2940  0.5626  0.1163
 5633SOL    HW128361   4.439   4.717   6.449  0.1635  0.5797  0.2809
 5633SOL    HW228362   4.330   4.614   6.481  0.5965  1.8883  1.0484
 5634SOL     OW28363   3.222   1.319   9.785 -0.0155  0.2010  0.6639
 5634SOL    HW128364   3.296   1.334   9.726 -0.6345  0.1327 -0.1421
 5634SOL    HW228365   3.159   1.386   9.755  1.8902  2.1531  1.0392
 5635SOL     OW28366   2.785   3.073  10.363  0.3576 -0.2851  0.3857
 5635SOL    HW128367   2.823   2.986  10.349  1.1563  0.7529 -3.9810
 5635SOL    HW228368   2.740   3.082  10.279 -0.7903  1.4409  1.1715
 5636SOL     OW28369   4.036   3.575   7.656 -0.4224  0.3548  0.6551
 5636SOL    HW128370   4.100   3.643   7.635 -0.2407  0.4656  1.5980
 5636SOL    HW228371   4.048   3.562   7.750  0.1366 -1.4394  0.3347
 5637SOL     OW28372   0.704   1.518   1.010 -0.1287  0.6175  0.2240
 5637SOL    HW128373   0.701   1.427   1.041  1.6237  0.7630  0.8294
 5637SOL    HW228374   0.615   1.538   0.982  0.4901 -0.6389 -2.6763
 5638SOL     OW28375   2.905   3.395   3.154  0.9845 -0.8909 -0.5077
 5638SOL    HW128376   2.958   3.453   3.209 -1.1023  0.3438  0.2097
 5638SOL    HW228377   2.931   3.305   3.176 -2.3008 -1.7646 -0.2664
 5639SOL     OW28378   1.194   0.375   2.303 -0.1244  0.2209 -0.3642
 5639SOL    HW128379   1.286   0.398   2.316 -0.3981  0.5710  0.9374
 5639SOL    HW228380   1.187   0.299   2.359 -1.1649  0.6776  0.1136
 5640SOL     OW28381   3.883   3.468   3.752 -0.3548  0.6495  0.0048
 5640SOL    HW128382   3.917   3.485   3.664 -0.2899  0.1715 -0.0617
 5640SOL    HW228383   3.806   3.414   3.734 -0.2398  1.0068 -1.5700
 5641SOL     OW28384   2.824   4.029   3.709 -0.3102 -0.0073  0.0451
 5641SOL    HW128385   2.875   4.093   3.659 -1.7080  1.3337  0.3326
 5641SOL    HW228386   2.897   3.985   3.752 -1.1320  1.1404  2.5883
 5642SOL     OW28387   4.434   4.020   5.220  0.0946  0.2334  0.2631
 5642SOL    HW128388   4.415   3.980   5.135  1.2867  1.5603 -0.6345
 5642SOL    HW228389   4.437   3.947   5.281 -0.0114  0.1408  0.1592
 5643SOL     OW28390   3.893   4.718   2.028 -0.2882  0.4486 -0.0042
 5643SOL    HW128391   3.931   4.641   2.070 -0.9653 -0.5670 -1.3006
 5643SOL    HW228392   3.899   4.703   1.934 -0.6223  0.0079  0.0483
 5644SOL     OW28393   3.158   0.472  11.690  0.1279 -0.5487  0.8918
 5644SOL    HW128394   3.212   0.418  11.749  1.1717 -0.5602 -0.0764
 5644SOL    HW228395   3.117   0.397  11.647 -2.6595  1.5166 -0.0560
 5645SOL     OW28396   2.595   0.443   8.599  0.0934  0.1361 -0.5630
 5645SOL    HW128397   2.593   0.357   8.641  1.3625  1.0224  1.3389
 5645SOL    HW228398   2.581   0.417   8.509 -2.4356  0.2117 -0.1752
 5646SOL     OW28399   1.387   1.018   6.818  0.0196  0.1747  0.0930
 5646SOL    HW128400   1.453   1.051   6.757 -0.0446 -1.1838 -0.7062
 5646SOL    HW228401   1.451   0.977   6.876 -0.8459 -1.7837 -0.3447
 5647SOL     OW28402   2.444   1.361   6.924 -0.3176  0.3658 -0.0363
 5647SOL    HW128403   2.477   1.371   7.014 -1.1593  0.7765  0.2203
 5647SOL    HW228404   2.386   1.286   6.936 -1.2040  0.9331 -0.8348
 5648SOL     OW28405   3.337   1.320  10.068  0.9259  0.0035  0.6744
 5648SOL    HW128406   3.356   1.344  10.159 -0.6590  2.4742  0.3566
 5648SOL    HW228407   3.337   1.405  10.024 -2.4909  0.4556  1.5017
 5649SOL     OW28408   3.360   2.874   7.460  0.0970 -0.5123 -0.7484
 5649SOL    HW128409   3.266   2.868   7.446 -0.0964 -1.0200  0.7484
 5649SOL    HW228410   3.366   2.969   7.450  0.6213 -0.8293 -3.4261
 5650SOL     OW28411   0.776   2.015   4.922  0.0418  0.2080  0.3743
 5650SOL    HW128412   0.863   2.040   4.890 -1.0179  2.2213 -0.9084
 5650SOL    HW228413   0.774   1.924   4.891  1.6012  0.6219 -0.9627
 5651SOL     OW28414   3.691   3.634   8.340 -0.4136  0.0223 -0.7806
 5651SOL    HW128415   3.666   3.673   8.424  1.7532  0.1300 -0.1775
 5651SOL    HW228416   3.786   3.648   8.339 -0.2992 -0.6773 -0.1944
 5652SOL     OW28417   2.214   0.662  10.366 -0.7022  0.7828 -0.2240
 5652SOL    HW128418   2.295   0.636  10.321  0.2179  1.8513  0.8161
 5652SOL    HW228419   2.177   0.574  10.358  0.9339 -0.1467  2.5320
 5653SOL     OW28420   2.448   1.872   5.716 -0.5997  0.1710 -0.2744
 5653SOL    HW128421   2.485   1.930   5.782  0.2409 -0.2702 -0.3699
 5653SOL    HW228422   2.473   1.911   5.633 -1.5272  1.2336 -0.0619
 5654SOL     OW28423   1.980   0.014   8.114  0.4373 -0.1358  0.2160
 5654SOL    HW128424   1.955   0.036   8.203  1.0111 -0.0710  0.3611
 5654SOL    HW228425   1.974   4.646   8.112  1.0402 -0.1498 -1.0347
 5655SOL     OW28426   1.936   3.729   8.710 -0.4604 -0.4748 -0.0374
 5655SOL    HW128427   1.931   3.694   8.621  0.9687 -0.8548  0.0391
 5655SOL    HW228428   2.000   3.673   8.754 -1.3629 -0.3182  1.4817
 5656SOL     OW28429   1.908   1.714  11.878 -0.0746  0.2386 -0.0312
 5656SOL    HW128430   1.885   1.708  11.971 -2.2452 -2.0428 -0.7252
 5656SOL    HW228431   2.002   1.723  11.893  0.2829 -0.8911 -1.6146
 5657SOL     OW28432   2.247   3.749   5.303 -0.3253 -0.3720 -0.0641
 5657SOL    HW128433   2.303   3.798   5.244 -0.7454  0.9048  0.5891
 5657SOL    HW228434   2.262   3.787   5.390 -4.3387  0.2991  0.3377
 5658SOL     OW28435   1.253   0.204   6.404 -0.1106  0.0558  0.0301
 5658SOL    HW128436   1.168   0.162   6.418  0.1623 -0.8707 -1.1167
 5658SOL    HW228437   1.258   0.188   6.310 -0.3280 -0.5261  0.1180
 5659SOL     OW28438   2.212   0.150   7.787  0.2186  0.1989  0.6559
 5659SOL    HW128439   2.198   0.062   7.822  0.4186 -0.1265 -0.0826
 5659SOL    HW228440   2.229   0.129   7.695  2.7241  1.4397  0.8355
 5660SOL     OW28441   2.855   1.898   0.447  0.1429  0.1640 -0.4723
 5660SOL    HW128442   2.825   1.987   0.463  0.1225 -0.3831  2.5781
 5660SOL    HW228443   2.801   1.850   0.509 -1.9690  2.8176 -0.2670
 5661SOL     OW28444   1.962   1.469   8.065 -0.4558  0.1190  0.1378
 5661SOL    HW128445   2.036   1.489   8.122 -0.0442  1.7018 -0.9522
 5661SOL    HW228446   1.973   1.541   8.003  1.1442  1.2530  1.7203
 5662SOL     OW28447   3.319   3.771   8.988  0.5076  0.1677 -0.2327
 5662SOL    HW128448   3.385   3.838   8.972 -1.5046  2.1801  0.0454
 5662SOL    HW228449   3.254   3.819   9.038  1.2490  1.6727 -0.7225
 5663SOL     OW28450   1.961   4.212   8.019 -0.1352  0.2866 -0.1553
 5663SOL    HW128451   2.018   4.168   7.956 -1.3243  0.5161 -1.3977
 5663SOL    HW228452   1.895   4.145   8.035 -0.4713  1.1564  2.0834
 5664SOL     OW28453   4.003   4.450  14.184  0.2722  0.2708 -0.0517
 5664SOL    HW128454   3.942   4.388  14.224  1.5907 -0.8689  0.1697
 5664SOL    HW228455   4.063   4.459  14.258  0.7242 -0.1612 -0.3641
 5665SOL     OW28456   0.978   1.484  11.711 -0.4051  0.8017 -0.0180
 5665SOL    HW128457   0.962   1.390  11.719  3.4780  0.2735  1.9051
 5665SOL    HW228458   0.938   1.497  11.625 -0.0722 -0.2379 -0.3373
 5666SOL     OW28459   1.193   3.768   3.077 -0.0823  0.0859 -0.0735
 5666SOL    HW128460   1.184   3.689   3.130  0.9667 -1.3738 -2.1070
 5666SOL    HW228461   1.287   3.787   3.076 -0.0542 -0.0795 -0.3992
 5667SOL     OW28462   1.570   2.951   4.279  0.1413  0.3928 -0.1428
 5667SOL    HW128463   1.543   2.865   4.247 -2.4948  0.5237  1.6461
 5667SOL    HW228464   1.489   2.988   4.314 -0.3007 -1.2925  0.6453
 5668SOL     OW28465   3.055   0.269   6.416  0.0681  0.3815  0.2843
 5668SOL    HW128466   2.967   0.298   6.440  0.1609  0.1528  0.9042
 5668SOL    HW228467   3.047   0.247   6.323  0.0594 -1.2560  0.6607
 5669SOL     OW28468   4.282   2.871   7.653 -0.5134 -0.5860 -0.3973
 5669SOL    HW128469   4.278   2.846   7.745 -0.1692 -1.6653 -0.6714
 5669SOL    HW228470   4.294   2.787   7.609  0.8213 -0.1021 -0.9414
 5670SOL     OW28471   1.082   0.974  11.830  0.2325  0.6795  0.1472
 5670SOL    HW128472   1.092   0.921  11.909 -1.8035  0.3687  0.1896
 5670SOL    HW228473   1.162   0.943  11.788  0.7627  3.0806 -0.6056
 5671SOL     OW28474   1.529   2.643   4.987  0.0992  0.6356  0.1898
 5671SOL    HW128475   1.454   2.592   4.956  1.0907 -0.6644 -0.1263
 5671SOL    HW228476   1.546   2.691   4.906 -1.7417 -0.4613 -0.8659
 5672SOL     OW28477   1.935   2.513   0.826 -0.0884  0.2534  0.6172
 5672SOL    HW128478   2.024   2.539   0.805 -0.4306 -1.4036 -2.9566
 5672SOL    HW228479   1.930   2.492   0.919  0.7438 -2.4616  0.0433
 5673SOL     OW28480   0.554   0.935   3.079 -0.0090  0.0642 -0.4574
 5673SOL    HW128481   0.509   0.992   3.017 -3.6089  0.8518  2.8826
 5673SOL    HW228482   0.491   0.926   3.151  0.1721  0.0684 -0.2961
 5674SOL     OW28483   1.605   0.262   9.263  0.2025 -0.1191  0.4197
 5674SOL    HW128484   1.683   0.300   9.304  0.3659  0.6880 -0.6577
 5674SOL    HW228485   1.576   0.212   9.340  1.5588 -3.0183 -0.9388
 5675SOL     OW28486   4.261   4.401   5.089 -0.0688  0.5495 -0.1656
 5675SOL    HW128487   4.232   4.410   4.998 -0.0684 -0.7611 -0.2929
 5675SOL    HW228488   4.202   4.330   5.115  1.1673 -0.8061 -1.0232
 5676SOL     OW28489   4.623   0.995   1.071  0.3237  0.1177 -0.0947
 5676SOL    HW128490   4.547   1.053   1.066  0.7788  0.8208  1.0040
 5676SOL    HW228491   4.692   1.036   1.019 -0.9481 -0.0167 -1.9005
 5677SOL     OW28492   0.312   4.442   7.781 -0.0846  0.5063  0.4198
 5677SOL    HW128493   0.261   4.499   7.839  0.3292  2.1035 -0.7823
 5677SOL    HW228494   0.254   4.428   7.707  0.7612 -2.7603  0.3770
 5678SOL     OW28495   0.606   2.957  14.452  0.3418 -0.4131  0.7837
 5678SOL    HW128496   0.522   2.929  14.489  0.0145  0.8758  1.0012
 5678SOL    HW228497   0.659   2.877  14.452  0.1859 -0.5165  0.9962
 5679SOL     OW28498   1.893   1.349   9.748 -0.5187 -0.0276  0.1547
 5679SOL    HW128499   1.799   1.351   9.766 -0.3294  0.4658  1.0786
 5679SOL    HW228500   1.900   1.407   9.672 -0.7647 -0.8079 -0.4604
 5680SOL     OW28501   1.970   0.299   3.076 -0.2308 -0.2623 -0.5894
 5680SOL    HW128502   2.045   0.340   3.033  0.5753 -0.1507  0.9305
 5680SOL    HW228503   2.012   0.219   3.107 -0.7661  0.5076  2.0840
 5681SOL     OW28504   4.669   4.036   6.323 -0.4339 -0.7842  0.0693
 5681SOL    HW128505   4.669   4.068   6.233  2.1770  2.0341  1.0765
 5681SOL    HW228506   4.675   4.123   6.363  2.8986 -0.1882 -1.7587
 5682SOL     OW28507   0.101   3.747   6.755 -0.1429 -0.4939  0.2856
 5682SOL    HW128508   0.136   3.659   6.738 -1.0888 -0.6495 -0.9014
 5682SOL    HW228509   0.172   3.779   6.809 -1.0796 -0.4584  1.4953
 5683SOL     OW28510   4.630   3.847   1.076  0.3641  0.3660 -0.1307
 5683SOL    HW128511   4.719   3.839   1.042  0.1492 -0.9566 -0.3561
 5683SOL    HW228512   4.579   3.787   1.023  0.8204 -0.1468  0.0200
 5684SOL     OW28513   0.902   0.903   6.482  0.0579 -0.6086 -0.3349
 5684SOL    HW128514   0.914   0.958   6.559  3.2094 -3.2282  1.0527
 5684SOL    HW228515   0.861   0.823   6.517 -1.3292 -0.2468 -1.1736
 5685SOL     OW28516   2.442   1.628   9.520  0.2800 -0.0920 -0.0186
 5685SOL    HW128517   2.383   1.598   9.451  1.2723  2.6904 -2.0355
 5685SOL    HW228518   2.486   1.703   9.481  0.2765  0.4018  0.9327
 5686SOL     OW28519   3.906   3.074   1.508 -0.4522 -0.6932 -0.1234
 5686SOL    HW128520   3.914   3.155   1.558 -0.0124 -0.9835  0.2741
 5686SOL    HW228521   3.901   3.013   1.581  0.9774  0.0296  0.5663
 5687SOL     OW28522   4.013   3.094  16.956 -0.2192 -0.1223  0.2289
 5687SOL    HW128523   3.942   3.091  16.893  1.0672 -0.0849 -1.2160
 5687SOL    HW228524   3.990   3.174  17.004 -0.2275  0.5162 -0.8316
 5688SOL     OW28525   0.827   0.052   7.234 -0.3615  0.3625 -0.1819
 5688SOL    HW128526   0.774   4.713   7.278  1.6743  1.1318  3.4946
 5688SOL    HW228527   0.905   0.057   7.289 -1.4976 -1.6907  1.6253
 5689SOL     OW28528   3.980   4.172  12.182  0.2001 -0.7057  0.0476
 5689SOL    HW128529   3.899   4.138  12.143 -0.6590  0.9270  0.4164
 5689SOL    HW228530   4.010   4.093  12.227  1.7700  0.1431  0.4908
 5690SOL     OW28531   4.622   2.428  11.992 -0.6574 -0.0134 -0.1880
 5690SOL    HW128532   4.661   2.340  11.997  1.2663  0.8868  0.5156
 5690SOL    HW228533   4.635   2.466  12.079  0.5347 -1.4767  0.2789
 5691SOL     OW28534   3.981   4.725   8.336  0.1400  0.0932 -0.2277
 5691SOL    HW128535   4.035   0.068   8.300  0.2416  0.0761 -0.1103
 5691SOL    HW228536   4.021   4.647   8.296  0.8496  1.3435 -1.9607
 5692SOL     OW28537   4.460   4.405   6.356  0.1835 -0.1302  0.1655
 5692SOL    HW128538   4.444   4.498   6.376  1.7460  0.3771 -0.9727
 5692SOL    HW228539   4.414   4.399   6.272 -1.1362 -0.0720  0.8758
 5693SOL     OW28540   2.986   0.819   4.122 -0.2125 -0.2006 -0.0796
 5693SOL    HW128541   2.918   0.875   4.084 -0.1025  0.2993  0.4694
 5693SOL    HW228542   2.998   0.867   4.204  0.8600  2.0729 -1.5587
 5694SOL     OW28543   2.606   0.002   2.282 -0.3327 -0.0707 -0.4217
 5694SOL    HW128544   2.600   4.643   2.323  0.5585 -0.9206 -2.0962
 5694SOL    HW228545   2.600   0.066   2.353 -0.3992  0.7290 -1.1508
 5695SOL     OW28546   2.742   4.151   8.874 -0.3778 -0.4285 -0.1795
 5695SOL    HW128547   2.776   4.241   8.872 -0.0926 -0.5469 -0.7002
 5695SOL    HW228548   2.818   4.100   8.847  0.3589  1.7131 -2.1669
 5696SOL     OW28549   0.165   2.588  14.486 -0.2686  0.0973 -0.1017
 5696SOL    HW128550   0.141   2.670  14.529 -1.2687 -1.3575  2.0798
 5696SOL    HW228551   0.154   2.528  14.559 -1.1245 -0.7086 -0.8887
 5697SOL     OW28552   1.563   1.364   8.010 -0.1966 -0.1898  0.0699
 5697SOL    HW128553   1.513   1.383   8.089 -0.8466  1.0740 -0.6465
 5697SOL    HW228554   1.493   1.353   7.945 -1.1349  2.1717  0.7122
 5698SOL     OW28555   3.432   2.642   2.520 -0.4015 -0.0415 -0.0380
 5698SOL    HW128556   3.416   2.667   2.429  2.1138 -1.5313 -0.8900
 5698SOL    HW228557   3.419   2.728   2.561 -0.1332 -1.6411  3.3915
 5699SOL     OW28558   1.072   2.580   0.076 -0.7227 -0.0353  0.3639
 5699SOL    HW128559   1.161   2.548   0.096  0.1576  3.0421  1.4074
 5699SOL    HW228560   1.027   2.590   0.160  0.3794  0.9098  0.8504
 5700SOL     OW28561   0.401   3.939   6.088  0.5219 -0.9128 -0.5977
 5700SOL    HW128562   0.448   3.860   6.115  1.3374 -0.6694 -1.2706
 5700SOL    HW228563   0.476   3.995   6.067  0.8779 -1.6670 -1.3410
 5701SOL     OW28564   3.283   2.075   3.801 -0.4963 -0.4087 -0.4202
 5701SOL    HW128565   3.332   2.047   3.724 -0.8898  2.0329 -1.5615
 5701SOL    HW228566   3.341   2.142   3.837 -1.4523  0.1214  0.1475
 5702SOL     OW28567   1.231   0.373   4.375 -0.1224 -0.0345 -0.8283
 5702SOL    HW128568   1.141   0.404   4.364  0.0821  1.3871  1.3694
 5702SOL    HW228569   1.277   0.455   4.354  0.8415 -0.2119  0.5313
 5703SOL     OW28570   4.152   1.337   5.729 -0.2461  0.2543 -0.2111
 5703SOL    HW128571   4.129   1.277   5.658 -0.0513 -1.1963  0.9319
 5703SOL    HW228572   4.106   1.416   5.703  0.1530  0.6672  0.3310
 5704SOL     OW28573   2.282   2.262   7.075  0.0776 -0.0297  0.2838
 5704SOL    HW128574   2.362   2.293   7.033 -0.5333  2.7205  1.1896
 5704SOL    HW228575   2.310   2.174   7.102 -2.0577 -0.4691  1.0497
 5705SOL     OW28576   3.402   4.619   2.201  0.1256 -0.2190  0.0419
 5705SOL    HW128577   3.390   4.528   2.176 -3.2633  0.5210 -1.0484
 5705SOL    HW228578   3.377   4.614   2.293  0.9691 -2.5038  0.1398
 5706SOL     OW28579   4.128   0.912   4.443  0.8414  0.4350  0.1868
 5706SOL    HW128580   4.079   0.973   4.388  2.4415  0.9464 -0.6627
 5706SOL    HW228581   4.121   0.953   4.529 -0.2445  0.1011  0.2512
 5707SOL     OW28582   3.637   0.717  14.174  0.2995 -0.6056 -0.0308
 5707SOL    HW128583   3.632   0.677  14.087 -1.2017 -1.0791  0.2855
 5707SOL    HW228584   3.732   0.734  14.178  0.1409 -0.3635  2.3610
 5708SOL     OW28585   0.626   0.299   6.354 -0.2861  0.2375  0.2079
 5708SOL    HW128586   0.586   0.346   6.427  2.6666  0.9077  1.3885
 5708SOL    HW228587   0.720   0.312   6.365  0.4149 -1.9989 -3.1539
 5709SOL     OW28588   1.708   2.553   5.162 -0.2502 -0.3453  0.0631
 5709SOL    HW128589   1.663   2.522   5.241  1.1537  0.3188  1.1327
 5709SOL    HW228590   1.650   2.615   5.118 -0.5708  0.7019  1.9606
 5710SOL     OW28591   3.999   4.532   6.249  0.1890  0.3010  0.2756
 5710SOL    HW128592   3.904   4.535   6.263  0.1222 -0.2176 -0.1005
 5710SOL    HW228593   4.013   4.614   6.201  0.7114  0.4701  0.7085
 5711SOL     OW28594   4.568   3.183   0.945  0.2953 -0.0861 -0.4544
 5711SOL    HW128595   4.537   3.240   0.875  0.5719 -0.9521 -1.2891
 5711SOL    HW228596   4.588   3.242   1.017 -2.2717  0.4635 -0.1706
 5712SOL     OW28597   0.436   4.472   2.027  0.0338  0.2482  0.0509
 5712SOL    HW128598   0.357   4.479   1.974  2.3991  1.6151 -3.2953
 5712SOL    HW228599   0.407   4.499   2.115  2.3066 -1.3524  1.2987
 5713SOL     OW28600   3.719   2.666   2.572 -0.0704 -0.1195 -0.3225
 5713SOL    HW128601   3.724   2.761   2.578  2.9626 -0.3039  0.1316
 5713SOL    HW228602   3.628   2.651   2.597  0.1708 -1.0467  0.0003
 5714SOL     OW28603   2.732   3.185   3.681 -0.0978  0.1438 -0.5463
 5714SOL    HW128604   2.664   3.149   3.624  0.5960 -1.2774 -0.4946
 5714SOL    HW228605   2.803   3.202   3.619  0.1871 -1.5408 -0.6947
 5715SOL     OW28606   3.581   4.315   8.695  0.1677 -0.4061  0.3124
 5715SOL    HW128607   3.579   4.410   8.683 -0.7733 -0.2113  2.0223
 5715SOL    HW228608   3.640   4.296   8.621  1.0138  0.2338  0.8176
 5716SOL     OW28609   0.084   1.526   3.582 -0.2703 -0.1085  0.1756
 5716SOL    HW128610   0.065   1.436   3.553  0.9149  0.9995 -4.0214
 5716SOL    HW228611   0.084   1.574   3.500  0.0730 -1.4159 -0.5980
 5717SOL     OW28612   4.399   2.973   0.837 -0.1130  0.4235 -0.7418
 5717SOL    HW128613   4.327   3.007   0.891  1.7953  1.1093  1.3299
 5717SOL    HW228614   4.476   3.023   0.862 -0.2136  0.8936 -1.3911
 5718SOL     OW28615   2.212   2.325   0.917 -0.0369 -0.4435 -0.3172
 5718SOL    HW128616   2.235   2.409   0.877 -0.3098  1.0126  2.5298
 5718SOL    HW228617   2.155   2.283   0.853 -1.1025 -0.0004  0.3395
 5719SOL     OW28618   1.542   1.992   4.113  0.3311 -0.2373 -0.2304
 5719SOL    HW128619   1.521   2.086   4.117 -2.3498 -0.8630  0.6348
 5719SOL    HW228620   1.499   1.968   4.031  0.1709  0.6786 -0.4157
 5720SOL     OW28621   3.673   1.333   4.103 -0.0537 -0.1168 -0.0751
 5720SOL    HW128622   3.696   1.414   4.150  0.8749  0.3063 -1.2725
 5720SOL    HW228623   3.587   1.364   4.074  0.4846  1.1393 -0.3301
 5721SOL     OW28624   1.224   4.604   7.440  0.5556 -0.3354  1.2122
 5721SOL    HW128625   1.263   4.547   7.373 -0.8703  0.8576 -0.6199
 5721SOL    HW228626   1.268   4.566   7.517 -0.7943 -1.9520  1.1865
 5722SOL     OW28627   2.956   0.204  17.682  0.1926  0.0043 -0.1424
 5722SOL    HW128628   2.963   0.242   0.059  0.1492  1.9578 -0.9860
 5722SOL    HW228629   2.974   0.111  17.694 -0.5878 -0.4816 -2.6912
 5723SOL     OW28630   0.937   0.928   0.660  0.1766  0.1539  0.3731
 5723SOL    HW128631   0.943   0.986   0.736  0.6926 -0.4421  0.7829
 5723SOL    HW228632   0.863   0.969   0.616  0.2453  1.7327  1.7555
 5724SOL     OW28633   0.014   0.876  12.311  0.2053 -0.6515  0.3226
 5724SOL    HW128634   0.031   0.970  12.306  3.7853 -1.2751  0.7874
 5724SOL    HW228635   0.055   0.855  12.395  0.8700 -1.2315 -0.1511
 5725SOL     OW28636   2.004   4.421   0.607  0.1288  0.0034 -0.3189
 5725SOL    HW128637   2.009   4.482   0.680 -0.2224 -1.0806  0.6120
 5725SOL    HW228638   2.090   4.432   0.567  0.8109 -0.8258  0.9027
 5726SOL     OW28639   1.042   1.775   8.549 -0.3907  0.0469 -0.3596
 5726SOL    HW128640   0.952   1.752   8.527 -0.5572  0.1402  0.2163
 5726SOL    HW228641   1.067   1.699   8.601  0.6691  1.0553  0.6387
 5727SOL     OW28642   1.366   3.278  11.448 -0.3082  0.1847 -0.2508
 5727SOL    HW128643   1.415   3.202  11.417  0.9191  0.6198  0.6194
 5727SOL    HW228644   1.297   3.277  11.381 -1.7834 -2.2335  1.2895
 5728SOL     OW28645   1.562   2.074   3.495 -0.2353  0.1906 -0.6156
 5728SOL    HW128646   1.529   2.105   3.410 -1.2600 -2.0241 -1.0328
 5728SOL    HW228647   1.647   2.032   3.485  0.2378  1.1816 -0.8221
 5729SOL     OW28648   4.383   2.509   2.357  0.0202 -0.1646 -0.3900
 5729SOL    HW128649   4.461   2.503   2.302 -0.0515 -1.3331 -0.3721
 5729SOL    HW228650   4.308   2.511   2.297 -0.8430 -0.4519  0.6730
 5730SOL     OW28651   0.620   0.081   4.105 -0.1139 -0.2632  0.1153
 5730SOL    HW128652   0.700   0.078   4.053  0.1766 -2.3806  0.6476
 5730SOL    HW228653   0.556   0.020   4.068  2.1747 -1.6152 -1.6384
 5731SOL     OW28654   2.794   0.583   1.372 -0.0399 -0.1889 -0.6813
 5731SOL    HW128655   2.831   0.625   1.294 -1.9341 -1.1664 -2.1297
 5731SOL    HW228656   2.709   0.549   1.344 -0.2315  0.6285 -1.1007
 5732SOL     OW28657   1.390   3.630   0.629 -0.0352 -0.1541  0.0417
 5732SOL    HW128658   1.438   3.655   0.708 -3.8628 -0.1367  2.3420
 5732SOL    HW228659   1.363   3.718   0.601 -0.5671  0.6061  2.9458
 5733SOL     OW28660   3.688   0.538   2.452  0.0598 -0.0045 -0.1666
 5733SOL    HW128661   3.648   0.458   2.420  3.5541 -0.9151 -2.2838
 5733SOL    HW228662   3.708   0.500   2.538 -1.0935  0.0680  0.1281
 5734SOL     OW28663   0.666   2.357   8.275 -0.1578 -0.4475  0.2661
 5734SOL    HW128664   0.591   2.416   8.283 -0.4625 -1.1185  2.5004
 5734SOL    HW228665   0.725   2.414   8.226 -0.7361  0.9704  1.2464
 5735SOL     OW28666   0.152   1.842   2.618  0.2811 -0.0183 -0.1959
 5735SOL    HW128667   0.219   1.774   2.615 -1.0495 -1.2812 -1.6011
 5735SOL    HW228668   0.146   1.844   2.522 -1.2350 -0.0375 -0.0916
 5736SOL     OW28669   3.300   1.835   6.532 -0.7303  0.0037 -0.3479
 5736SOL    HW128670   3.210   1.834   6.565 -0.3966  2.4358  0.6636
 5736SOL    HW228671   3.288   1.832   6.437  2.6111  1.2246 -0.7935
 5737SOL     OW28672   0.177   3.699  12.471  0.1799 -0.1006 -0.1207
 5737SOL    HW128673   0.115   3.631  12.493 -1.9043  1.7323 -0.3570
 5737SOL    HW228674   0.260   3.663  12.502 -1.5762 -3.1609  1.0161
 5738SOL     OW28675   3.127   1.325   2.702 -0.3368 -0.6442  0.2137
 5738SOL    HW128676   3.076   1.270   2.762 -0.7337 -1.4314 -0.8469
 5738SOL    HW228677   3.204   1.321   2.758  0.3895 -2.4913 -0.9356
 5739SOL     OW28678   3.749   4.549   6.329 -0.2294 -0.5649 -0.5671
 5739SOL    HW128679   3.661   4.514   6.312 -0.4234  0.7309 -2.3227
 5739SOL    HW228680   3.758   4.510   6.416 -2.8526  0.2584  0.0686
 5740SOL     OW28681   2.552   4.305  12.244 -0.5002  0.2214 -0.0656
 5740SOL    HW128682   2.576   4.305  12.337  1.1901  2.3529 -0.5153
 5740SOL    HW228683   2.477   4.363  12.252  0.1696  1.1275 -0.3165
 5741SOL     OW28684   1.054   3.756   7.300 -0.2165  0.6931  0.1750
 5741SOL    HW128685   0.987   3.792   7.359  0.0938  0.2430  0.8133
 5741SOL    HW228686   1.035   3.796   7.216 -2.1782 -2.4912 -0.9150
 5742SOL     OW28687   4.616   1.912  17.349  0.4096 -0.2353  0.3042
 5742SOL    HW128688   4.580   1.988  17.303 -0.4336  0.2977  1.8425
 5742SOL    HW228689   4.638   1.855  17.276  1.3936 -1.3915  1.5235
 5743SOL     OW28690   4.159   0.848   6.039  0.4421  0.1539  0.1436
 5743SOL    HW128691   4.160   0.757   6.069  1.0409  0.4880  1.1270
 5743SOL    HW228692   4.082   0.874   6.090  0.6296 -2.3675  1.7091
 5744SOL     OW28693   0.297   2.209   2.378 -0.4959  0.6347 -0.5981
 5744SOL    HW128694   0.219   2.263   2.391 -1.1226 -0.7317  1.3219
 5744SOL    HW228695   0.319   2.182   2.467 -4.2181  0.7121  0.3778
 5745SOL     OW28696   0.800   4.192   7.521 -0.1667  0.1028 -0.0741
 5745SOL    HW128697   0.785   4.150   7.436 -1.1082 -0.7968  0.5487
 5745SOL    HW228698   0.867   4.132   7.553 -1.0294 -0.3900  0.7874
 5746SOL     OW28699   2.291   4.485   5.214 -0.2753  0.7873  0.6764
 5746SOL    HW128700   2.386   4.473   5.226 -0.2564  0.7059  0.4480
 5746SOL    HW228701   2.265   4.395   5.196  0.0652  0.5406  1.4332
 5747SOL     OW28702   2.887   3.912  15.844  0.0597  0.0921 -0.1832
 5747SOL    HW128703   2.974   3.914  15.882 -0.5644 -0.3255  1.2561
 5747SOL    HW228704   2.849   3.837  15.890 -0.7633  1.2054  0.9685
 5748SOL     OW28705   3.645   3.184  17.144  0.2650 -0.5539  0.4113
 5748SOL    HW128706   3.644   3.103  17.095  0.2599 -0.3617  0.0943
 5748SOL    HW228707   3.621   3.240  17.070  0.7177  1.7810  2.0350
 5749SOL     OW28708   1.584   3.152   3.347 -0.1470 -0.4450 -0.0840
 5749SOL    HW128709   1.628   3.089   3.289  0.3412 -0.8294  0.7039
 5749SOL    HW228710   1.638   3.136   3.425  0.8216 -0.6075 -0.7829
 5750SOL     OW28711   2.841   0.980   5.058  0.9008 -0.1352 -0.1431
 5750SOL    HW128712   2.783   1.049   5.026 -0.5771 -1.5864 -0.6442
 5750SOL    HW228713   2.812   0.968   5.148  2.5576  0.1623  0.4109
 5751SOL     OW28714   2.624   0.801   9.106  0.4936 -0.0694  1.1299
 5751SOL    HW128715   2.583   0.888   9.106  3.3427  1.2572  1.2376
 5751SOL    HW228716   2.555   0.745   9.142  0.4458  0.4434  1.8345
 5752SOL     OW28717   1.696   3.430   9.863  0.2638  0.2568  0.4403
 5752SOL    HW128718   1.767   3.380   9.904 -0.0943  0.3885  1.2237
 5752SOL    HW228719   1.688   3.505   9.923  0.6990  0.2306  0.5315
 5753SOL     OW28720   1.115   1.869   6.694 -0.2122  0.3115  0.0502
 5753SOL    HW128721   1.044   1.890   6.634 -2.0640  0.5270  2.3310
 5753SOL    HW228722   1.096   1.776   6.702  4.3041 -0.9325 -3.4385
 5754SOL     OW28723   4.701   2.355   1.328 -0.6506 -0.0860  0.3903
 5754SOL    HW128724   4.712   2.260   1.329  0.9457  0.1007  3.3158
 5754SOL    HW228725   4.614   2.368   1.291 -0.5611  1.5314  0.7625
 5755SOL     OW28726   1.058   1.252   5.846  0.2460  0.1550  0.2205
 5755SOL    HW128727   1.123   1.319   5.869 -0.0564  0.5953 -0.1962
 5755SOL    HW228728   1.052   1.203   5.928  2.1766  1.6366  1.2704
 5756SOL     OW28729   1.819   1.441   6.145 -0.1345  0.0578  0.6292
 5756SOL    HW128730   1.896   1.472   6.098 -0.2360  0.0885  0.4825
 5756SOL    HW228731   1.754   1.484   6.090  0.8280 -1.6179 -1.8161
 5757SOL     OW28732   2.019   4.108   0.527  0.4490 -0.6073  0.1716
 5757SOL    HW128733   2.018   4.192   0.573 -3.0391 -0.4360 -0.2075
 5757SOL    HW228734   2.046   4.049   0.597  1.6905  0.7890  0.8638
 5758SOL     OW28735   0.365   1.641  17.043 -0.7625 -0.3023 -0.2912
 5758SOL    HW128736   0.327   1.634  17.131  1.2546 -1.2559  0.5083
 5758SOL    HW228737   0.460   1.634  17.056 -0.7711  1.8760  0.9874
 5759SOL     OW28738   1.107   3.615   6.163 -0.3499  0.3318 -0.1675
 5759SOL    HW128739   1.202   3.622   6.155 -0.2044  1.3410  2.7829
 5759SOL    HW228740   1.094   3.528   6.123  2.4434  0.0971 -0.5282
 5760SOL     OW28741   1.392   3.215  14.964 -0.2508  0.4360 -0.5886
 5760SOL    HW128742   1.462   3.277  14.941 -0.1098  0.3891 -0.2766
 5760SOL    HW228743   1.361   3.192  14.876 -0.9578 -1.1645  0.0943
 5761SOL     OW28744   0.638   4.295   2.140 -0.0779 -0.1545 -0.3908
 5761SOL    HW128745   0.569   4.351   2.104 -0.0591  0.3184  0.3102
 5761SOL    HW228746   0.653   4.332   2.227  0.0519 -1.1724  0.0137
 5762SOL     OW28747   4.526   3.472   4.128  0.1024 -0.0785  0.0626
 5762SOL    HW128748   4.549   3.498   4.039  0.9296 -0.1367  0.2545
 5762SOL    HW228749   4.608   3.426   4.144  0.1339  0.3437  1.1520
 5763SOL     OW28750   3.942   2.411   0.163 -0.0402  0.4712 -0.0225
 5763SOL    HW128751   4.033   2.442   0.160 -0.5727  2.1694  1.3018
 5763SOL    HW228752   3.891   2.490   0.180  0.0838  0.5686 -0.1014
 5764SOL     OW28753   3.790   1.887   9.388  0.8915  0.1082 -0.8728
 5764SOL    HW128754   3.871   1.841   9.407  0.4932 -0.6709 -1.0582
 5764SOL    HW228755   3.780   1.925   9.476  0.1754 -1.1052 -0.4227
 5765SOL     OW28756   2.799   3.571   7.490  0.0435  0.0264 -0.3298
 5765SOL    HW128757   2.815   3.662   7.515  0.9617 -0.0664 -0.5921
 5765SOL    HW228758   2.782   3.532   7.575 -0.2188 -0.7549 -0.7435
 5766SOL     OW28759   3.333   3.193   8.558  0.4539  0.1677 -0.1547
 5766SOL    HW128760   3.353   3.287   8.560  0.2142  0.1703  2.4845
 5766SOL    HW228761   3.322   3.177   8.465 -1.6625 -1.7085  0.4285
 5767SOL     OW28762   4.525   3.301  12.499 -0.0912  0.5072 -0.1435
 5767SOL    HW128763   4.616   3.281  12.521 -0.3155 -0.9298 -0.5464
 5767SOL    HW228764   4.529   3.393  12.473 -1.3313  0.3026 -1.0707
 5768SOL     OW28765   2.747   2.755   6.125 -0.5482  0.6105  0.6552
 5768SOL    HW128766   2.813   2.816   6.091 -1.8302  0.0995 -2.6778
 5768SOL    HW228767   2.804   2.710   6.188  1.4422  0.9684 -0.8924
 5769SOL     OW28768   4.421   2.211   1.366  0.1782  0.0393  0.0854
 5769SOL    HW128769   4.383   2.290   1.329  2.1053  1.9508  2.1487
 5769SOL    HW228770   4.343   2.177   1.410 -1.7445  2.3594 -1.4950
 5770SOL     OW28771   2.673   2.637   5.894  0.0523  0.6145  0.2590
 5770SOL    HW128772   2.589   2.676   5.918  0.4326  1.6927 -0.1604
 5770SOL    HW228773   2.708   2.645   5.982 -1.0856  2.4884  0.5367
 5771SOL     OW28774   0.642   1.783   6.370 -0.0069  0.5108 -0.6611
 5771SOL    HW128775   0.632   1.722   6.444 -1.9803 -0.5756 -1.8028
 5771SOL    HW228776   0.619   1.725   6.297 -0.4803  0.3214 -0.3652
 5772SOL     OW28777   3.414   1.817  13.930  0.3980  0.1711 -0.1612
 5772SOL    HW128778   3.453   1.830  13.844  0.6362  2.5455  0.2945
 5772SOL    HW228779   3.358   1.741  13.919  1.0191 -0.6901  2.4365
 5773SOL     OW28780   1.545   0.900  11.554  0.0256  0.2134  0.5962
 5773SOL    HW128781   1.570   0.988  11.581  0.0290  0.0421  1.1620
 5773SOL    HW228782   1.623   0.866  11.509 -0.2893  0.4114 -0.0965
 5774SOL     OW28783   4.418   4.390  14.627 -0.1950  0.4169  0.1077
 5774SOL    HW128784   4.496   4.355  14.584 -1.1834  1.8785 -2.9116
 5774SOL    HW228785   4.467   4.456  14.675 -0.1392  0.9985 -0.7341
 5775SOL     OW28786   3.298   1.049   9.582  0.3237  0.7691  0.1231
 5775SOL    HW128787   3.373   1.080   9.532  1.2526  0.6168  1.4361
 5775SOL    HW228788   3.227   1.100   9.542  2.5480  2.4706 -1.6256
 5776SOL     OW28789   1.503   1.288   6.994  0.1276  0.4591 -0.1885
 5776SOL    HW128790   1.555   1.347   6.941 -1.8437  2.9381  0.6187
 5776SOL    HW228791   1.567   1.219   7.009 -1.4758 -0.9545  0.1750
 5777SOL     OW28792   3.935   1.974   5.477  0.6581  0.1528  0.3766
 5777SOL    HW128793   3.921   2.025   5.397 -1.1500  0.3886  0.8453
 5777SOL    HW228794   3.963   1.892   5.436  0.6661  0.2753  0.1360
 5778SOL     OW28795   3.046   2.991  17.093 -0.3553  0.6750 -0.4575
 5778SOL    HW128796   3.101   3.042  17.033  1.8394  0.3689  1.3028
 5778SOL    HW228797   3.052   2.904  17.053 -0.5207 -0.0806  1.2039
 5779SOL     OW28798   2.110   2.791   8.868 -0.3244  0.3907  0.1149
 5779SOL    HW128799   2.198   2.822   8.848  1.3467 -4.3680 -0.1329
 5779SOL    HW228800   2.139   2.701   8.886  1.0174  0.9398  0.6293
 5780SOL     OW28801   1.580   3.039  15.097 -0.0892 -0.3418 -0.0222
 5780SOL    HW128802   1.508   3.070  15.043  0.5611  1.5539  0.1624
 5780SOL    HW228803   1.656   3.040  15.038  0.1499  0.9543  0.3070
 5781SOL     OW28804   1.139   1.733   3.277  0.1258  0.2023 -0.0365
 5781SOL    HW128805   1.147   1.703   3.367 -0.2662  3.3740  1.0491
 5781SOL    HW228806   1.199   1.807   3.282  2.1846 -1.3281 -1.4342
 5782SOL     OW28807   4.005   1.510   7.042 -0.0941  0.5534 -0.5615
 5782SOL    HW128808   4.029   1.573   6.973 -1.0353  0.3459 -1.0771
 5782SOL    HW228809   4.092   1.498   7.081  0.7999 -0.9702 -3.0314
 5783SOL     OW28810   2.896   3.487  10.398 -0.1254 -0.7749 -0.0488
 5783SOL    HW128811   2.825   3.507  10.459  0.1116 -1.4242  0.4323
 5783SOL    HW228812   2.898   3.564  10.340  0.5948 -3.0215 -2.9967
 5784SOL     OW28813   0.408   0.343   6.675  0.8508 -0.8463  0.2249
 5784SOL    HW128814   0.415   0.428   6.719  2.8080 -0.2329 -1.2444
 5784SOL    HW228815   0.404   0.369   6.583 -0.0161  1.1236  0.8185
 5785SOL     OW28816   4.238   3.015   5.857  0.3515 -0.3074  0.4425
 5785SOL    HW128817   4.190   2.936   5.830  1.6223 -1.0866  0.4663
 5785SOL    HW228818   4.314   3.004   5.800 -0.2435  0.6647 -0.5500
 5786SOL     OW28819   1.481   0.780  12.826  0.3522  0.1837  0.1466
 5786SOL    HW128820   1.524   0.695  12.821 -1.1609 -0.5702 -0.1917
 5786SOL    HW228821   1.400   0.744  12.863 -0.8856  1.8763 -0.9230
 5787SOL     OW28822   4.690   3.088   2.503  0.3377  0.0002  0.3910
 5787SOL    HW128823   4.672   3.154   2.436 -0.5952  1.2860  1.9047
 5787SOL    HW228824   4.655   3.130   2.582 -0.2066  0.3538 -0.0379
 5788SOL     OW28825   3.337   4.591   2.474  0.5263 -0.0375  0.3414
 5788SOL    HW128826   3.393   4.621   2.546 -0.5707 -1.3886  1.7327
 5788SOL    HW228827   3.295   4.528   2.533  0.9287  2.3934  3.2210
 5789SOL     OW28828   0.987   0.460  16.090  0.3029  0.4212  0.5911
 5789SOL    HW128829   0.920   0.400  16.058  2.7948 -2.2347  0.3402
 5789SOL    HW228830   0.951   0.483  16.175  0.8907  1.0039  0.6913
 5790SOL     OW28831   1.821   2.420  16.711  0.1881  0.8796  0.0896
 5790SOL    HW128832   1.882   2.423  16.638 -2.9087  1.6155 -2.4707
 5790SOL    HW228833   1.853   2.335  16.742 -0.4428  0.6344  0.0757
 5791SOL     OW28834   2.052   3.139   3.064 -0.1541 -0.1965  0.2188
 5791SOL    HW128835   2.135   3.178   3.089  0.5939 -1.5293 -0.1600
 5791SOL    HW228836   1.986   3.197   3.102  1.6562 -0.6020  4.0037
 5792SOL     OW28837   2.709   3.287   7.434 -0.2513  0.0825  0.0359
 5792SOL    HW128838   2.620   3.288   7.398  0.4104 -0.9922 -1.6439
 5792SOL    HW228839   2.737   3.377   7.417 -0.6269  0.2672  0.3867
 5793SOL     OW28840   3.766   2.123   0.683 -0.1028  0.2805 -0.3196
 5793SOL    HW128841   3.759   2.106   0.589  0.7554  0.8282 -0.4876
 5793SOL    HW228842   3.678   2.160   0.694 -0.5746 -0.9547  0.0508
 5794SOL     OW28843   3.061   4.317   1.173  0.1243  0.6532 -0.6323
 5794SOL    HW128844   3.144   4.333   1.128  0.5429 -1.3444 -0.5545
 5794SOL    HW228845   3.044   4.406   1.204 -0.2132  0.8866 -1.4952
 5795SOL     OW28846   0.124   3.717   1.010  0.2705  0.4211  0.3784
 5795SOL    HW128847   0.211   3.684   0.988 -0.3822 -0.3526 -1.0100
 5795SOL    HW228848   0.073   3.666   0.948  1.3452 -0.9084  0.5812
 5796SOL     OW28849   4.710   4.017  14.019  0.1660 -0.2542  0.2831
 5796SOL    HW128850   0.065   3.979  13.989  0.3707 -0.3112  0.9177
 5796SOL    HW228851   4.663   4.020  13.936 -0.2599  0.8241  0.5641
 5797SOL     OW28852   3.740   4.304  13.589  0.4106 -0.4177  0.0665
 5797SOL    HW128853   3.733   4.342  13.677 -0.0893  0.1809 -0.2298
 5797SOL    HW228854   3.777   4.382  13.547 -2.2239  0.4463 -0.6291
 5798SOL     OW28855   1.907   0.840  12.498 -0.0857 -0.5707  0.4091
 5798SOL    HW128856   1.838   0.868  12.559 -0.4264 -1.0661  0.2430
 5798SOL    HW228857   1.881   0.866  12.410  1.4994 -0.0250  0.0987
 5799SOL     OW28858   0.346   2.621   6.819  0.1839  0.3036 -0.1021
 5799SOL    HW128859   0.416   2.638   6.756 -2.5139 -1.1532 -3.4496
 5799SOL    HW228860   0.393   2.567   6.882  1.5687  0.4454 -1.0121
 5800SOL     OW28861   0.921   4.416  14.717  1.0683  0.1319 -0.2474
 5800SOL    HW128862   1.005   4.370  14.704  0.1524 -1.5842 -0.1445
 5800SOL    HW228863   0.867   4.364  14.657  0.4955 -1.8409  1.9618
 5801SOL     OW28864   1.602   0.607   6.676 -0.2512 -0.7682  0.6240
 5801SOL    HW128865   1.680   0.602   6.731  0.0413  0.4864  0.3296
 5801SOL    HW228866   1.629   0.653   6.597 -0.4443 -0.3684  0.7887
 5802SOL     OW28867   1.175   0.158   7.427  0.4040 -0.0972  0.0861
 5802SOL    HW128868   1.177   0.062   7.424  0.6417 -0.1348  1.3831
 5802SOL    HW228869   1.105   0.169   7.492  0.0186 -0.7531 -0.2102
 5803SOL     OW28870   1.115   4.133   7.143 -0.1033 -0.1250  0.1208
 5803SOL    HW128871   1.192   4.103   7.191  0.9744  1.8797 -0.3482
 5803SOL    HW228872   1.155   4.167   7.063 -0.4365  1.6881  0.7185
 5804SOL     OW28873   1.707   3.466  11.345  0.2206 -0.1202 -0.2681
 5804SOL    HW128874   1.720   3.509  11.261 -0.5153  0.7882  0.0678
 5804SOL    HW228875   1.624   3.502  11.378  1.5617  0.9348  2.0100
 5805SOL     OW28876   3.817   4.197  16.816  0.2785 -0.0450 -0.4394
 5805SOL    HW128877   3.731   4.179  16.778  0.1382 -0.7483  0.2053
 5805SOL    HW228878   3.801   4.287  16.845 -1.9017 -0.4496 -0.4110
 5806SOL     OW28879   2.576   1.570  16.178 -0.1309  0.1467  0.0316
 5806SOL    HW128880   2.488   1.606  16.163  0.1634  1.2502  0.9106
 5806SOL    HW228881   2.557   1.520  16.258 -1.0832  0.5386  0.0529
 5807SOL     OW28882   4.720   0.707   7.208 -0.2277 -0.3623  0.0161
 5807SOL    HW128883   4.685   0.674   7.290 -1.5023  1.4755  0.2030
 5807SOL    HW228884   4.680   0.793   7.213 -0.0167 -0.1931 -1.1564
 5808SOL     OW28885   1.824   1.017   2.712  0.6618  0.2192 -0.5622
 5808SOL    HW128886   1.824   0.968   2.795 -1.3906  2.0943  0.5579
 5808SOL    HW228887   1.914   1.002   2.686  0.2554  0.5199 -2.0957
 5809SOL     OW28888   2.459   1.711   6.513 -0.4532 -0.3456  0.3066
 5809SOL    HW128889   2.364   1.704   6.524 -0.6353  1.2920 -0.2274
 5809SOL    HW228890   2.497   1.733   6.598 -0.9341 -1.2765  0.7680
 5810SOL     OW28891   2.649   2.363   8.500 -0.3900  0.3293 -0.9260
 5810SOL    HW128892   2.729   2.312   8.500  0.1669  1.1902  0.3302
 5810SOL    HW228893   2.576   2.302   8.495 -0.0972  0.0083 -1.3132
 5811SOL     OW28894   1.581   3.519   5.151  0.0495  0.0146 -0.0794
 5811SOL    HW128895   1.595   3.613   5.150  1.4893 -0.1869  1.0529
 5811SOL    HW228896   1.670   3.484   5.141 -0.2528 -0.3585 -1.5215
 5812SOL     OW28897   3.985   2.859   4.591 -0.1083 -0.1932 -0.1409
 5812SOL    HW128898   3.891   2.857   4.609 -0.1345 -0.8245 -0.3435
 5812SOL    HW228899   4.011   2.908   4.669 -0.3682  0.5806 -0.5338
 5813SOL     OW28900   4.612   1.559   8.808 -0.2288 -0.2745  0.5724
 5813SOL    HW128901   4.662   1.505   8.869  0.7107 -1.6385 -1.4238
 5813SOL    HW228902   4.673   1.589   8.741  0.5337 -2.1520  0.4096
 5814SOL     OW28903   4.165   3.419   1.025  0.5517  0.1272 -0.7316
 5814SOL    HW128904   4.084   3.388   1.065  0.4211  1.9310  0.3968
 5814SOL    HW228905   4.190   3.478   1.096 -0.5368 -1.0185  0.5965
 5815SOL     OW28906   0.760   3.331   7.908  0.7123 -0.5078 -0.2633
 5815SOL    HW128907   0.799   3.342   7.995 -0.1158  0.8936 -0.0824
 5815SOL    HW228908   0.665   3.323   7.916  0.6378 -0.6588 -1.3111
 5816SOL     OW28909   0.399   1.376   4.352  0.1600 -0.8286 -0.4458
 5816SOL    HW128910   0.304   1.385   4.349 -0.0060 -2.7654 -1.2831
 5816SOL    HW228911   0.418   1.338   4.438  0.2097  0.9859  0.3463
 5817SOL     OW28912   3.858   3.648   7.245  0.0083  0.3615  0.0512
 5817SOL    HW128913   3.813   3.594   7.310  2.9562 -1.7698  0.3384
 5817SOL    HW228914   3.935   3.595   7.224 -1.9002 -2.0573 -0.9458
 5818SOL     OW28915   0.922   1.030  17.013  0.0168  0.1761  0.4537
 5818SOL    HW128916   0.898   1.059  17.101  0.3356 -0.8463  0.8848
 5818SOL    HW228917   0.945   0.940  17.039 -0.9543 -0.2426 -0.1176
 5819SOL     OW28918   3.871   0.020  14.129  0.5112  0.1562  0.1541
 5819SOL    HW128919   3.845   4.664  14.089 -1.3589  1.2739 -0.9275
 5819SOL    HW228920   3.905   0.000  14.217 -1.2428 -1.8637  0.3835
 5820SOL     OW28921   3.929   0.070   3.894  0.1724  0.1992  0.0684
 5820SOL    HW128922   3.853   0.114   3.931  0.3479  1.5490 -1.1515
 5820SOL    HW228923   3.999   0.126   3.929  0.1854  1.1028 -1.3801
 5821SOL     OW28924   2.370   1.357   0.436 -0.0689  0.6768 -0.2623
 5821SOL    HW128925   2.302   1.405   0.483  0.0082 -0.5406  1.0758
 5821SOL    HW228926   2.390   1.286   0.497 -1.2485  0.6196  0.0522
 5822SOL     OW28927   3.090   3.304   7.174 -0.4253  0.2842  0.3122
 5822SOL    HW128928   3.071   3.382   7.121  1.1357 -0.0635 -0.7537
 5822SOL    HW228929   3.077   3.342   7.261 -0.0024 -2.7915  1.7152
 5823SOL     OW28930   3.047   1.106   2.138 -0.0521  0.7733 -0.7647
 5823SOL    HW128931   3.093   1.122   2.055 -1.1899 -1.7041 -1.8525
 5823SOL    HW228932   3.006   1.190   2.159  0.3657  0.3774  1.6096
 5824SOL     OW28933   3.081   3.329   2.356 -0.0307 -0.0974 -0.3289
 5824SOL    HW128934   3.001   3.311   2.305 -2.2891  0.5439  2.9912
 5824SOL    HW228935   3.043   3.328   2.444  1.6326 -0.1020  0.3855
 5825SOL     OW28936   0.317   0.892   3.628 -0.0375 -0.6526 -0.2308
 5825SOL    HW128937   0.267   0.860   3.553  0.0085  0.4306 -0.7200
 5825SOL    HW228938   0.250   0.904   3.695 -1.0550 -0.2607 -1.3201
 5826SOL     OW28939   2.705   2.303  16.592 -0.3619 -0.2549  0.2327
 5826SOL    HW128940   2.636   2.240  16.610 -2.8213  2.2866 -0.3673
 5826SOL    HW228941   2.685   2.352  16.513  3.6142  1.1129  0.0612
 5827SOL     OW28942   1.109   4.310   4.123 -0.4963  0.4160  0.3688
 5827SOL    HW128943   1.138   4.220   4.110 -5.3003 -0.7803 -2.2862
 5827SOL    HW228944   1.015   4.306   4.140 -0.7845  1.2900 -0.9484
 5828SOL     OW28945   1.683   0.721   7.984 -0.2708  0.0483 -1.1104
 5828SOL    HW128946   1.661   0.813   7.995 -1.6207 -0.4425  0.3017
 5828SOL    HW228947   1.686   0.710   7.889 -0.4217 -0.5721 -1.0435
 5829SOL     OW28948   4.223   1.009  17.237  0.2999  0.5653  0.5121
 5829SOL    HW128949   4.182   1.009  17.324 -0.3111  0.4834  0.2240
 5829SOL    HW228950   4.185   0.933  17.193 -0.2304 -0.3081  2.4627
 5830SOL     OW28951   1.042   3.850   1.799 -0.1478 -0.4890 -0.2452
 5830SOL    HW128952   1.095   3.801   1.862  1.1559  0.9964 -0.2029
 5830SOL    HW228953   1.009   3.921   1.854 -0.5543 -2.4882  2.1205
 5831SOL     OW28954   1.505   2.629   9.113  0.2625  0.0892 -0.3627
 5831SOL    HW128955   1.510   2.549   9.060  0.0076  0.0674 -0.3551
 5831SOL    HW228956   1.571   2.678   9.065  0.5885 -0.0442 -0.0478
 5832SOL     OW28957   2.360   4.216  10.175 -0.4464  0.2048  0.1597
 5832SOL    HW128958   2.365   4.302  10.134  0.9670 -1.7051 -3.6371
 5832SOL    HW228959   2.348   4.155  10.102  3.3574  2.7729 -2.5880
 5833SOL     OW28960   1.951   0.119  10.182 -0.2976 -0.2591  0.5124
 5833SOL    HW128961   1.977   0.135  10.091 -1.5796 -1.1246  0.0107
 5833SOL    HW228962   1.891   0.191  10.203 -1.3076 -0.3341 -2.1893
 5834SOL     OW28963   1.608   0.030   5.336 -0.6999  0.1226 -0.1136
 5834SOL    HW128964   1.641   0.040   5.247  0.9726 -1.1072  0.3728
 5834SOL    HW228965   1.596   4.663   5.345  2.4350 -0.2454 -0.0603
 5835SOL     OW28966   1.345   0.055   5.132 -0.0632  0.1850 -0.1519
 5835SOL    HW128967   1.370   4.693   5.154  0.8956  0.7103  0.8864
 5835SOL    HW228968   1.420   0.110   5.155 -0.2680  1.1465 -1.7257
 5836SOL     OW28969   3.688   4.174   7.653  0.7667  0.1947  0.0918
 5836SOL    HW128970   3.691   4.265   7.682 -0.3712  0.8108 -1.7677
 5836SOL    HW228971   3.766   4.137   7.694  0.1548 -1.0906  0.0812
 5837SOL     OW28972   2.822   0.534   7.836  0.0766  0.2940  0.2423
 5837SOL    HW128973   2.760   0.526   7.909  0.5305 -0.7575  0.5102
 5837SOL    HW228974   2.780   0.474   7.774 -0.7181  2.1522 -0.9988
 5838SOL     OW28975   1.776   2.549  15.779 -0.0645 -0.5024 -0.0912
 5838SOL    HW128976   1.683   2.542  15.757  0.0512  0.0859 -0.7391
 5838SOL    HW228977   1.804   2.640  15.788 -0.1070 -0.4695 -0.2998
 5839SOL     OW28978   4.088   1.922   7.767 -0.1194 -0.2601 -0.2063
 5839SOL    HW128979   4.157   1.860   7.744  0.0443  0.1764 -0.8918
 5839SOL    HW228980   4.023   1.865   7.809  0.3494 -1.1444 -0.6673
 5840SOL     OW28981   2.636   4.002   7.134  0.1173  1.1371 -0.4367
 5840SOL    HW128982   2.646   3.970   7.224 -0.2568 -2.2891 -1.6197
 5840SOL    HW228983   2.722   3.976   7.102  0.5678 -1.5828  3.0045
 5841SOL     OW28984   0.266   0.702   5.491 -0.1806 -0.2371 -0.1713
 5841SOL    HW128985   0.236   0.758   5.562 -0.7005 -0.3625 -0.2902
 5841SOL    HW228986   0.183   0.659   5.469 -0.7613  0.7806  0.0347
 5842SOL     OW28987   4.261   3.559   1.248  0.2370 -0.7713  0.0800
 5842SOL    HW128988   4.209   3.626   1.292  0.4233 -0.1406 -0.6551
 5842SOL    HW228989   4.347   3.595   1.270  1.8308 -5.2809  1.0912
 5843SOL     OW28990   2.142   4.094   8.509 -0.0845 -0.8620 -0.3754
 5843SOL    HW128991   2.144   4.008   8.469  1.6972 -0.6383 -0.7407
 5843SOL    HW228992   2.075   4.074   8.575 -0.1285  1.1189  0.1828
 5844SOL     OW28993   4.166   0.991   5.790 -0.0311 -0.3921 -0.2568
 5844SOL    HW128994   4.098   1.007   5.856 -0.5969 -0.8015 -0.7402
 5844SOL    HW228995   4.142   1.047   5.716 -0.4167 -3.7787 -2.6822
 5845SOL     OW28996   4.491   3.684   1.320  0.3551 -0.1702 -0.0514
 5845SOL    HW128997   4.494   3.731   1.403 -0.0216  2.0268 -1.3073
 5845SOL    HW228998   4.549   3.732   1.261 -2.1850  2.3932 -0.4477
 5846SOL     OW28999   4.204   4.146   8.898  0.3680 -0.0565 -0.0897
 5846SOL    HW129000   4.196   4.149   8.802 -0.2629  0.5319 -0.0130
 5846SOL    HW229001   4.163   4.228   8.925  1.6496  0.5937 -0.0942
 5847SOL     OW29002   2.390   0.331   0.669  0.4038 -0.4975 -0.5360
 5847SOL    HW129003   2.354   0.250   0.707  0.3510  0.5098  1.5773
 5847SOL    HW229004   2.476   0.340   0.710  0.3042 -0.4883 -0.3263
 5848SOL     OW29005   3.141   3.728   6.673 -0.1117 -0.0812 -0.2615
 5848SOL    HW129006   3.150   3.772   6.758 -1.6153 -0.1284 -0.0799
 5848SOL    HW229007   3.052   3.692   6.668 -0.4376  0.7798 -0.6028
 5849SOL     OW29008   1.545   0.427   7.554 -0.0927  0.0584  0.4240
 5849SOL    HW129009   1.628   0.458   7.518  0.1809  0.7359  1.6474
 5849SOL    HW229010   1.511   0.375   7.481  0.3712  1.8749 -1.0647
 5850SOL     OW29011   0.409   2.789  14.535  0.3223  0.4074 -0.0153
 5850SOL    HW129012   0.330   2.838  14.558  0.9447  0.6038  1.6762
 5850SOL    HW229013   0.375   2.703  14.508 -0.1267  0.1731  1.2985
 5851SOL     OW29014   3.066   0.736   8.685  0.5546  0.2970  0.1223
 5851SOL    HW129015   3.131   0.703   8.623 -0.1192 -1.4134  0.3144
 5851SOL    HW229016   2.984   0.689   8.671 -1.1641  2.4360  2.9002
 5852SOL     OW29017   1.374   3.314   0.103 -0.0469  0.3942 -0.0275
 5852SOL    HW129018   1.338   3.314   0.192  0.3771  1.6821  0.1556
 5852SOL    HW229019   1.400   3.222   0.100  0.6829  0.5570  1.1586
 5853SOL     OW29020   4.422   2.219   5.374  0.3665  0.0560 -0.0391
 5853SOL    HW129021   4.384   2.132   5.388 -0.5909  0.7526  1.7802
 5853SOL    HW229022   4.514   2.195   5.376  0.5386  0.6140 -1.6643
 5854SOL     OW29023   1.193   4.336   3.576 -0.2057  0.6412  0.1909
 5854SOL    HW129024   1.190   4.290   3.660 -2.0752 -1.2596 -0.9078
 5854SOL    HW229025   1.197   4.261   3.517  0.3172  0.4733  0.4421
 5855SOL     OW29026   4.488   1.582   4.149 -0.0988  0.1941 -0.1707
 5855SOL    HW129027   4.573   1.620   4.172 -0.6177  1.4890 -0.4021
 5855SOL    HW229028   4.509   1.555   4.059  0.3042  0.4680 -0.1586
 5856SOL     OW29029   0.627   1.316  10.014  0.0759 -0.1711 -0.0797
 5856SOL    HW129030   0.641   1.263  10.093  0.0414 -1.3919 -0.8841
 5856SOL    HW229031   0.691   1.386  10.020 -1.2578  1.0220  0.2738
 5857SOL     OW29032   0.648   4.259   6.285 -0.0506  0.0018 -0.5646
 5857SOL    HW129033   0.634   4.349   6.253 -2.5928 -0.6541 -1.2873
 5857SOL    HW229034   0.728   4.234   6.239  0.5245  1.2067 -0.2227
 5858SOL     OW29035   2.223   1.486  11.673 -0.1794  0.0541  0.7394
 5858SOL    HW129036   2.241   1.526  11.758  1.7656 -1.5359  1.0473
 5858SOL    HW229037   2.310   1.500  11.637 -0.4067  0.1453  0.2162
 5859SOL     OW29038   2.404   0.985   5.020  0.6513 -0.4084 -0.2883
 5859SOL    HW129039   2.336   1.043   5.054 -1.0358 -0.0969 -4.1361
 5859SOL    HW229040   2.439   0.943   5.098  0.7902 -0.5901 -0.4457
 5860SOL     OW29041   4.401   2.568   9.004 -0.0838  0.0633  0.2227
 5860SOL    HW129042   4.485   2.522   9.001 -1.0569 -1.7884  1.6954
 5860SOL    HW229043   4.337   2.497   9.008  1.0702 -0.8308  3.0607
 5861SOL     OW29044   2.376   4.502  15.490  0.0392  0.1169  0.6489
 5861SOL    HW129045   2.309   4.508  15.422  0.6330  0.4446  0.1023
 5861SOL    HW229046   2.444   4.441  15.463 -0.2883 -0.2923  0.7428
 5862SOL     OW29047   0.773   1.116  14.648  0.1252  0.2202 -0.0406
 5862SOL    HW129048   0.754   1.182  14.582  1.5621  0.1238 -0.5573
 5862SOL    HW229049   0.730   1.041  14.607  3.0536 -0.1357 -2.4570
 5863SOL     OW29050   2.356   2.747   4.445  0.4196  0.3360  0.2602
 5863SOL    HW129051   2.354   2.684   4.373  1.3632 -0.1059  0.6249
 5863SOL    HW229052   2.273   2.736   4.492 -0.0021 -0.5013 -0.6773
 5864SOL     OW29053   4.390   1.992   4.098 -0.3839  0.2613 -0.5718
 5864SOL    HW129054   4.295   2.001   4.101 -0.4157  0.2934 -1.6818
 5864SOL    HW229055   4.403   2.086   4.089  0.4124 -0.0905 -3.1041
 5865SOL     OW29056   4.116   3.926   2.686  0.4849 -0.0797  0.1260
 5865SOL    HW129057   4.195   3.874   2.670  0.8840  0.1867  1.1850
 5865SOL    HW229058   4.055   3.860   2.717  0.6710 -0.3063  0.0107
 5866SOL     OW29059   0.898   2.579   7.615 -0.2550 -0.6148 -0.3396
 5866SOL    HW129060   0.867   2.649   7.673  0.4908 -2.2056  1.9642
 5866SOL    HW229061   0.855   2.506   7.659  0.3559 -0.8827 -0.1876
 5867SOL     OW29062   2.987   3.751  11.661 -0.1521  0.2841  0.3036
 5867SOL    HW129063   3.041   3.799  11.725  1.9819 -1.2276 -0.3727
 5867SOL    HW229064   2.950   3.825  11.613  0.2344  0.0176 -0.3994
 5868SOL     OW29065   0.453   0.079   0.568  0.3765  0.6303  0.4131
 5868SOL    HW129066   0.367   0.037   0.574  0.3937  0.6271  0.6248
 5868SOL    HW229067   0.423   0.163   0.601 -1.3267 -0.0772  0.6562
 5869SOL     OW29068   3.525   0.562   3.083  0.1565 -0.3345 -0.2304
 5869SOL    HW129069   3.514   0.609   3.000  3.0491  0.4921 -0.1135
 5869SOL    HW229070   3.457   0.599   3.140  1.3818  1.0143  0.3246
 5870SOL     OW29071   4.050   1.291   6.284 -0.0504  0.0991 -0.1029
 5870SOL    HW129072   4.137   1.264   6.313  0.5793 -0.9136 -2.9470
 5870SOL    HW229073   4.061   1.318   6.193 -0.2973 -0.8535 -0.4113
 5871SOL     OW29074   1.178   0.022   4.670  0.3327  0.1605 -0.0141
 5871SOL    HW129075   1.126   4.704   4.605 -0.8845  0.8575  0.4578
 5871SOL    HW229076   1.258   4.698   4.665  1.3159  1.6443  0.3124
 5872SOL     OW29077   1.594   1.817   6.432  0.3394 -0.4136 -0.4232
 5872SOL    HW129078   1.507   1.856   6.442  0.3820 -0.2300 -0.7624
 5872SOL    HW229079   1.637   1.859   6.507  1.5168 -0.2314 -1.1977
 5873SOL     OW29080   0.960   0.771   8.157  0.3487 -0.3116  0.3114
 5873SOL    HW129081   0.953   0.759   8.252  1.2661  0.8699  0.5223
 5873SOL    HW229082   0.956   0.866   8.145 -1.3094 -0.4242 -0.0472
 5874SOL     OW29083   3.915   3.401   6.990 -0.9893  0.9266  0.4174
 5874SOL    HW129084   3.934   3.433   6.902  2.6317  0.6647  1.0865
 5874SOL    HW229085   4.001   3.417   7.031 -0.8308  0.5130  0.2465
 5875SOL     OW29086   2.279   0.241  12.157 -0.2403  0.1557 -0.2427
 5875SOL    HW129087   2.327   0.324  12.150  0.1972 -0.1127 -0.4381
 5875SOL    HW229088   2.297   0.204  12.070 -0.0730 -2.0210  0.7107
 5876SOL     OW29089   0.070   2.001   4.633 -0.4357  0.2899 -0.1613
 5876SOL    HW129090   0.099   1.921   4.675 -0.8046  0.0350 -0.3915
 5876SOL    HW229091   0.069   1.970   4.542  1.5146 -0.5775  0.1283
 5877SOL     OW29092   0.590   3.565   8.415 -0.3562  0.2923 -0.2279
 5877SOL    HW129093   0.633   3.568   8.501 -1.4357 -1.0111  0.3570
 5877SOL    HW229094   0.526   3.636   8.415 -0.0013  0.6159  0.1471
 5878SOL     OW29095   1.564   3.795  15.527 -0.1275  0.6729  0.1841
 5878SOL    HW129096   1.561   3.863  15.459  0.3270  0.5997  0.0890
 5878SOL    HW229097   1.559   3.850  15.604  0.7635 -0.0840  0.7878
 5879SOL     OW29098   0.387   0.467  10.853 -0.3646  0.8591 -0.5503
 5879SOL    HW129099   0.300   0.427  10.853 -0.2657  0.6377 -0.2146
 5879SOL    HW229100   0.371   0.541  10.795 -1.0735 -1.3347 -3.1356
 5880SOL     OW29101   0.869   3.120   5.438 -0.2462  0.4175 -0.2759
 5880SOL    HW129102   0.906   3.045   5.486 -0.7942  0.5510  0.3445
 5880SOL    HW229103   0.901   3.084   5.355 -0.1432 -0.2836  0.0643
 5881SOL     OW29104   1.033   3.622   4.955  0.3326 -0.5461  0.0531
 5881SOL    HW129105   1.041   3.666   5.039 -0.7473  1.6262 -0.9832
 5881SOL    HW229106   0.990   3.538   4.973  0.6261 -0.6550  0.2549
 5882SOL     OW29107   1.616   3.281   0.312  0.3768 -0.0515  0.5257
 5882SOL    HW129108   1.550   3.235   0.363  0.8362 -2.6911 -1.2258
 5882SOL    HW229109   1.644   3.356   0.364 -1.8671  1.6372 -0.7139
 5883SOL     OW29110   1.096   0.675  17.435  0.0562 -0.0337  0.6730
 5883SOL    HW129111   1.040   0.686  17.512 -0.5801 -0.0160  0.2134
 5883SOL    HW229112   1.128   0.760  17.407 -0.1499 -0.1141  0.1961
 5884SOL     OW29113   2.116   2.033   6.090  0.4104 -0.4409 -0.4484
 5884SOL    HW129114   2.059   2.102   6.054  2.1629  2.4638  2.3673
 5884SOL    HW229115   2.200   2.079   6.091 -0.8490  1.7725  6.6639
 5885SOL     OW29116   4.717   4.501   5.435  0.1981  0.1274 -0.0751
 5885SOL    HW129117   4.696   4.584   5.478  2.1420  0.5630  0.0252
 5885SOL    HW229118   4.714   4.440   5.508 -2.2864  0.0524 -0.2252
 5886SOL     OW29119   4.514   4.159  13.700  0.4700  0.3811  0.6938
 5886SOL    HW129120   4.600   4.119  13.707  0.4030  0.3598  1.4205
 5886SOL    HW229121   4.500   4.192  13.789 -1.2428  0.3220  0.4634
 5887SOL     OW29122   4.282   3.201   2.316  0.1659 -0.0875 -0.0111
 5887SOL    HW129123   4.312   3.242   2.235  1.7268  2.5333  1.9212
 5887SOL    HW229124   4.243   3.118   2.290  1.1598 -0.0381 -1.6835
 5888SOL     OW29125   2.690   1.158   0.487 -0.6426  0.5571 -0.0514
 5888SOL    HW129126   2.684   1.221   0.559 -1.3877  0.4022  0.0223
 5888SOL    HW229127   2.784   1.141   0.486 -0.7812 -0.2226 -0.1126
 5889SOL     OW29128   1.914   0.072   7.598  0.3214  0.2436  0.1355
 5889SOL    HW129129   1.948   0.092   7.685  1.3811 -0.0483 -0.2182
 5889SOL    HW229130   1.820   0.066   7.615  0.6650  0.1629  2.0401
 5890SOL     OW29131   1.193   1.434   4.581  1.2478 -0.2657  0.1223
 5890SOL    HW129132   1.108   1.478   4.583  1.5032  0.1420  2.2244
 5890SOL    HW229133   1.249   1.506   4.551  1.2097 -0.0548  0.5421
 5891SOL     OW29134   2.964   3.727  10.288  0.9438  0.0377 -0.5300
 5891SOL    HW129135   3.011   3.717  10.205  1.0316 -0.5786 -0.4045
 5891SOL    HW229136   3.022   3.774  10.349 -0.6739  0.7016  0.4830
 5892SOL     OW29137   1.891   3.400   3.974 -0.4406  0.5109  0.0187
 5892SOL    HW129138   1.922   3.407   3.884  1.6001  1.7530  0.8189
 5892SOL    HW229139   1.975   3.409   4.019  0.1121  3.0174 -1.4836
 5893SOL     OW29140   1.298   3.912  12.730  0.2074 -0.6210 -0.3145
 5893SOL    HW129141   1.311   3.849  12.660  1.2993 -0.2089 -0.4850
 5893SOL    HW229142   1.299   3.860  12.810 -2.1858  1.3353  1.0137
 5894SOL     OW29143   3.646   3.604   2.578  0.2094 -0.2992 -0.5861
 5894SOL    HW129144   3.587   3.679   2.580 -0.2881 -0.7322  0.8296
 5894SOL    HW229145   3.614   3.550   2.506 -1.8196  1.3684 -0.9513
 5895SOL     OW29146   1.688   3.179  16.738  0.5436 -0.7805  0.0037
 5895SOL    HW129147   1.700   3.209  16.828  0.6528 -1.8202  0.3414
 5895SOL    HW229148   1.649   3.095  16.763  0.0784 -0.7637 -0.6617
 5896SOL     OW29149   0.670   0.500   5.041  0.1099 -0.0101  0.5492
 5896SOL    HW129150   0.690   0.556   5.116 -0.7615 -0.3725  1.0619
 5896SOL    HW229151   0.638   0.423   5.089  0.6876 -1.2974 -1.1371
 5897SOL     OW29152   4.466   0.125   8.163  0.1715 -0.4153 -0.4476
 5897SOL    HW129153   4.498   0.059   8.225 -1.3993  0.5070  1.3777
 5897SOL    HW229154   4.488   0.201   8.217 -1.1198  0.2981 -0.9156
 5898SOL     OW29155   2.491   0.638   8.305  0.6645 -0.1023  0.0119
 5898SOL    HW129156   2.455   0.713   8.353  1.6450  0.3104  0.1048
 5898SOL    HW229157   2.585   0.653   8.314  1.2474 -2.0832 -2.9071
 5899SOL     OW29158   4.360   3.420   0.238 -0.1427 -0.3008 -0.7807
 5899SOL    HW129159   4.395   3.339   0.201 -0.0122 -0.5778 -0.0524
 5899SOL    HW229160   4.265   3.407   0.233  0.3992 -3.4031 -2.5004
 5900SOL     OW29161   0.544   2.013   9.245  0.5153 -0.0371 -0.3291
 5900SOL    HW129162   0.454   2.047   9.247 -0.6999 -3.1604  0.0271
 5900SOL    HW229163   0.578   2.085   9.297  0.5995 -0.8990  0.8192
 5901SOL     OW29164   2.269   3.933   8.054 -0.0772  0.1274 -0.0991
 5901SOL    HW129165   2.284   3.989   7.978  3.4966  1.0219  1.2702
 5901SOL    HW229166   2.331   3.965   8.119 -0.6492  1.8088 -0.3931
 5902SOL     OW29167   1.909   2.619   1.915  0.1345  0.1445  0.2591
 5902SOL    HW129168   1.849   2.680   1.957  0.8458  0.6303  0.5836
 5902SOL    HW229169   1.989   2.671   1.906 -0.3352  0.9016  0.4620
 5903SOL     OW29170   3.990   3.504  15.026 -0.0410  0.6011 -0.7318
 5903SOL    HW129171   3.903   3.515  15.064  0.6338  0.4548  0.8531
 5903SOL    HW229172   4.022   3.591  15.003 -0.0572  0.8574  0.2137
 5904SOL     OW29173   0.974   2.166   2.610 -0.4497 -0.0661  0.2657
 5904SOL    HW129174   0.891   2.214   2.620 -1.1532 -1.1712 -0.2078
 5904SOL    HW229175   0.992   2.186   2.518 -0.3189 -1.2114  0.0482
 5905SOL     OW29176   4.213   2.660   0.337 -0.6347 -0.4722 -0.2565
 5905SOL    HW129177   4.308   2.649   0.332 -0.3742  0.8555  1.5704
 5905SOL    HW229178   4.191   2.699   0.422 -2.3519  0.4577 -1.1362
 5906SOL     OW29179   2.268   0.782   4.189  0.0817  0.3137  0.1738
 5906SOL    HW129180   2.276   0.806   4.282  0.5746  0.6653  0.0436
 5906SOL    HW229181   2.182   0.819   4.169 -0.5320 -0.9886  0.4399
 5907SOL     OW29182   0.108   2.771   8.250 -0.2149 -0.3862  0.2906
 5907SOL    HW129183   0.196   2.734   8.248 -1.2128 -2.6839 -0.4303
 5907SOL    HW229184   0.090   2.784   8.157 -0.5019  2.0749  0.6736
 5908SOL     OW29185   1.527   3.202  14.463  0.1016  0.5372 -0.2255
 5908SOL    HW129186   1.520   3.127  14.403 -0.0630  0.1186  0.3137
 5908SOL    HW229187   1.600   3.183  14.522 -1.5727  0.2103  1.7331
 5909SOL     OW29188   0.427   0.190   7.031 -0.5537 -0.5818  0.0292
 5909SOL    HW129189   0.436   0.280   7.063  0.1301  0.3424 -2.8113
 5909SOL    HW229190   0.503   0.184   6.973 -0.3491 -0.8499  0.3232
 5910SOL     OW29191   3.206   0.721   7.365 -0.1935  0.1745 -0.2069
 5910SOL    HW129192   3.239   0.803   7.400  2.0012 -0.0451 -1.7709
 5910SOL    HW229193   3.166   0.755   7.285  1.1584 -0.1989 -1.0344
 5911SOL     OW29194   0.235   2.423   8.160 -1.1454  0.5698 -1.1695
 5911SOL    HW129195   0.260   2.335   8.134 -1.6777  0.0883 -0.0397
 5911SOL    HW229196   0.193   2.414   8.245  0.9216 -1.4395 -0.3606
 5912SOL     OW29197   4.194   0.157   8.543  0.2746 -0.2672 -0.6069
 5912SOL    HW129198   4.189   0.207   8.624 -2.0159  1.4848 -1.8131
 5912SOL    HW229199   4.151   0.221   8.486 -0.5758  1.2692  1.7460
 5913SOL     OW29200   3.290   0.338   6.586 -0.8413 -0.4163 -0.4124
 5913SOL    HW129201   3.322   0.399   6.519 -1.9792 -0.5680 -1.0985
 5913SOL    HW229202   3.220   0.292   6.541 -1.0104 -1.0342  0.4868
 5914SOL     OW29203   4.665   2.161   6.863  0.3904  0.0186  0.1207
 5914SOL    HW129204   4.621   2.173   6.947  0.0471 -2.7124  0.3241
 5914SOL    HW229205   4.696   2.248   6.839 -1.6064  0.7210  0.0707
 5915SOL     OW29206   0.245   4.179  11.413 -0.5177  0.7016  0.2141
 5915SOL    HW129207   0.299   4.154  11.337  1.9209 -0.0816  2.2234
 5915SOL    HW229208   0.293   4.243  11.465  1.5357 -0.3052 -0.4053
 5916SOL     OW29209   1.641   1.004   0.413 -0.4136 -0.0352  0.4498
 5916SOL    HW129210   1.564   1.018   0.469  0.0475 -0.7177  1.2626
 5916SOL    HW229211   1.622   0.915   0.383  0.1748  0.5357 -1.5697
 5917SOL     OW29212   1.493   3.348  10.713  0.4307  0.8461  0.7499
 5917SOL    HW129213   1.565   3.290  10.688  0.7792  1.6976 -0.2174
 5917SOL    HW229214   1.501   3.407  10.638 -0.8005 -0.1409 -0.1538
 5918SOL     OW29215   2.194   4.486   3.898  0.1309  0.2702 -0.2400
 5918SOL    HW129216   2.144   4.521   3.825 -2.4547  0.1383  1.4610
 5918SOL    HW229217   2.225   4.564   3.943 -2.0810  0.6357  0.6637
 5919SOL     OW29218   0.187   2.507  16.550 -0.1018 -0.2213  0.0231
 5919SOL    HW129219   0.249   2.544  16.486 -2.4515  0.1543 -2.0434
 5919SOL    HW229220   0.242   2.438  16.586  0.8167  0.6154  0.2263
 5920SOL     OW29221   2.040   1.364   7.210 -0.2278 -0.1546 -0.4161
 5920SOL    HW129222   2.029   1.428   7.141 -1.2494  2.0784  1.8137
 5920SOL    HW229223   1.986   1.393   7.284  2.0895  0.1301  1.1862
 5921SOL     OW29224   2.311   2.326  16.639 -0.2376  0.2214 -0.0099
 5921SOL    HW129225   2.367   2.373  16.577  0.1975  1.0894  1.0372
 5921SOL    HW229226   2.235   2.305  16.585 -0.1454  2.3065 -0.9716
 5922SOL     OW29227   4.477   2.512   4.587  0.6521  0.7169  0.1362
 5922SOL    HW129228   4.561   2.517   4.633  0.4764  1.6483  0.3679
 5922SOL    HW229229   4.492   2.577   4.517  1.3090  0.0727 -0.3259
 5923SOL     OW29230   3.300   3.776   7.228  0.1047 -0.3143  0.3678
 5923SOL    HW129231   3.257   3.819   7.303  3.1171  0.3724  1.6889
 5923SOL    HW229232   3.318   3.849   7.168 -0.9587 -0.6968 -0.4038
 5924SOL     OW29233   3.255   2.734   2.313 -0.2922 -0.0724 -0.1036
 5924SOL    HW129234   3.165   2.715   2.286  0.1446 -1.4374 -0.6163
 5924SOL    HW229235   3.245   2.780   2.396  0.8882  1.6825 -0.9436
 5925SOL     OW29236   3.533   1.847   6.224 -0.6080  0.2918  0.7514
 5925SOL    HW129237   3.449   1.802   6.232 -0.3537 -0.3431 -0.1378
 5925SOL    HW229238   3.573   1.801   6.150  0.9314  1.7067  0.6942
 5926SOL     OW29239   2.654   0.729   7.197 -0.0513 -0.3798 -0.0257
 5926SOL    HW129240   2.665   0.807   7.251  0.5999  0.6743 -1.7020
 5926SOL    HW229241   2.648   0.656   7.259  0.2331  1.1357  1.7866
 5927SOL     OW29242   4.386   2.074   3.777  0.4294 -0.5064 -0.0425
 5927SOL    HW129243   4.376   2.084   3.872 -1.7781 -2.6436 -0.0654
 5927SOL    HW229244   4.420   2.163   3.762 -1.8134  0.1080 -1.3911
 5928SOL     OW29245   2.245   4.639   4.386 -0.3630 -0.2452 -0.1174
 5928SOL    HW129246   2.177   4.681   4.334 -0.1680 -1.1321 -1.0818
 5928SOL    HW229247   2.249   4.677   4.474  0.1963 -2.3779  0.7760
 5929SOL     OW29248   2.894   3.182   2.240 -0.3158 -0.1140 -0.1613
 5929SOL    HW129249   2.880   3.087   2.238 -1.6587  0.1335 -2.3966
 5929SOL    HW229250   2.878   3.205   2.148 -2.7010  2.9002  0.9878
 5930SOL     OW29251   2.366   1.920   6.698  0.1342  0.2188 -0.2918
 5930SOL    HW129252   2.410   1.958   6.621  0.7182  0.2476  0.0576
 5930SOL    HW229253   2.338   2.003   6.736  0.2078 -0.2595  0.7874
 5931SOL     OW29254   3.528   0.644   4.199 -0.5946 -0.1710 -0.1396
 5931SOL    HW129255   3.595   0.632   4.266  1.2076  0.1918 -1.8711
 5931SOL    HW229256   3.509   0.554   4.173  2.2272  0.4089 -4.1745
 5932SOL     OW29257   0.986   3.237   3.353 -0.1964  0.1289  0.1991
 5932SOL    HW129258   0.926   3.308   3.332 -0.9452 -0.3890  0.5845
 5932SOL    HW229259   1.066   3.286   3.373 -0.1732 -0.1524  0.8007
 5933SOL     OW29260   1.822   4.254   7.163  0.2885 -0.1394 -0.1436
 5933SOL    HW129261   1.886   4.224   7.098 -0.0462 -2.0354  0.4297
 5933SOL    HW229262   1.867   4.331   7.198 -1.0777 -0.6144  2.6475
 5934SOL     OW29263   3.731   0.344   5.956 -0.0630  0.1772 -0.3289
 5934SOL    HW129264   3.648   0.297   5.959 -0.3155  0.7238  0.9226
 5934SOL    HW229265   3.766   0.313   5.872 -0.4277 -1.9317  0.2980
 5935SOL     OW29266   0.836   4.472   7.467  0.6616 -0.0546  0.3044
 5935SOL    HW129267   0.840   4.385   7.507 -0.6385 -0.0391  0.4574
 5935SOL    HW229268   0.898   4.452   7.396 -0.1356  0.9594 -0.6852
 5936SOL     OW29269   4.167   2.586   3.332 -0.5676  0.2424 -0.8592
 5936SOL    HW129270   4.101   2.522   3.357 -2.8724  2.1412 -2.0658
 5936SOL    HW229271   4.153   2.600   3.238 -1.2211 -0.9203 -0.9261
 5937SOL     OW29272   0.842   3.747   7.514  0.2880  0.0759  0.2570
 5937SOL    HW129273   0.839   3.699   7.596  1.1052 -0.2054  0.1219
 5937SOL    HW229274   0.893   3.821   7.548 -0.4875  0.4203  0.6633
 5938SOL     OW29275   0.338   3.978  17.323 -0.8649  0.7863 -0.3991
 5938SOL    HW129276   0.376   4.065  17.335  1.4958 -0.5002  1.4248
 5938SOL    HW229277   0.421   3.946  17.288  0.2520  3.0643  0.1897
 5939SOL     OW29278   2.476   0.663   3.148 -0.3918  0.3511  0.0104
 5939SOL    HW129279   2.537   0.589   3.144 -2.6284 -1.3580 -2.2725
 5939SOL    HW229280   2.405   0.608   3.180  0.8036 -1.2362 -0.0345
 5940SOL     OW29281   1.309   1.590   5.255  0.2167 -0.1420 -0.6387
 5940SOL    HW129282   1.271   1.540   5.183  2.7055 -2.2673 -0.4788
 5940SOL    HW229283   1.336   1.527   5.321 -0.5376 -0.2718 -0.4560
 5941SOL     OW29284   1.509   2.107  14.167 -0.0684 -0.6279 -0.5407
 5941SOL    HW129285   1.528   2.181  14.224 -0.0925 -1.2366  0.2483
 5941SOL    HW229286   1.537   2.137  14.080 -0.2610  0.0098 -0.3835
 5942SOL     OW29287   2.818   2.687  12.603  0.1066 -0.1304 -0.6052
 5942SOL    HW129288   2.835   2.595  12.582 -2.4031 -1.0938  1.5151
 5942SOL    HW229289   2.901   2.721  12.570 -0.3344  0.8054 -0.7392
 5943SOL     OW29290   2.645   0.392   4.857 -0.6040  0.0442  0.4716
 5943SOL    HW129291   2.598   0.433   4.784 -0.9040 -0.5062  0.3516
 5943SOL    HW229292   2.649   0.462   4.922  1.4083 -0.6197  1.0533
 5944SOL     OW29293   2.471   4.601  14.779  0.3016  0.4791  0.4300
 5944SOL    HW129294   2.468   4.586  14.873  1.6417 -0.9161  0.2532
 5944SOL    HW229295   2.434   4.515  14.758 -0.4199  0.4847  1.7197
 5945SOL     OW29296   1.447   0.611   8.013  0.0118 -0.1174  0.0490
 5945SOL    HW129297   1.534   0.648   8.002 -0.9072  1.9281 -0.4692
 5945SOL    HW229298   1.403   0.682   7.964  1.3707  1.2295  0.7878
 5946SOL     OW29299   3.223   3.435   1.008 -0.7452  0.1723  0.0072
 5946SOL    HW129300   3.149   3.379   1.032  0.0639 -0.5710  0.7889
 5946SOL    HW229301   3.206   3.512   1.061  0.5191  1.2001 -1.0651
 5947SOL     OW29302   0.946   3.315   1.041  0.0377 -0.2947 -0.5618
 5947SOL    HW129303   0.937   3.357   1.127 -0.8341  0.3802 -0.9776
 5947SOL    HW229304   0.989   3.379   0.985  0.4696  0.0722  0.1813
 5948SOL     OW29305   2.245   3.509   6.020 -0.4566  0.3093  0.0055
 5948SOL    HW129306   2.257   3.416   6.002  1.2896  0.5560 -0.1654
 5948SOL    HW229307   2.299   3.530   6.096  0.5062 -2.3558  0.0553
 5949SOL     OW29308   2.827   3.359  12.653  0.1324 -0.3100 -0.5346
 5949SOL    HW129309   2.807   3.449  12.680 -1.2978 -1.1112  1.1107
 5949SOL    HW229310   2.861   3.377  12.566  0.8863  0.8432  0.0019
 5950SOL     OW29311   2.211   1.011  16.616 -0.0498  0.0821  0.2608
 5950SOL    HW129312   2.198   1.085  16.556 -2.0822 -0.7047 -0.2663
 5950SOL    HW229313   2.148   0.945  16.588 -0.0656 -0.4295  1.5075
 5951SOL     OW29314   1.163   0.793   9.135 -0.0436 -0.0822  0.2189
 5951SOL    HW129315   1.070   0.769   9.140 -0.1147 -0.1289 -1.3351
 5951SOL    HW229316   1.201   0.708   9.112  0.5473 -0.2440  1.7699
 5952SOL     OW29317   1.216   1.348   0.923  0.4790  0.1140 -0.1982
 5952SOL    HW129318   1.135   1.309   0.952  0.7224 -0.8984 -0.8801
 5952SOL    HW229319   1.187   1.438   0.908 -0.1601  0.1695  1.4882
 5953SOL     OW29320   2.844   4.557   7.011 -0.7016  0.0566 -0.0535
 5953SOL    HW129321   2.773   4.504   6.975  0.5030  0.0056 -2.3280
 5953SOL    HW229322   2.844   4.522   7.100 -1.6639  0.3000  0.0428
 5954SOL     OW29323   1.564   2.896  15.801 -0.0048 -0.1529 -0.2006
 5954SOL    HW129324   1.478   2.889  15.843  0.3864  0.7143  0.7388
 5954SOL    HW229325   1.536   2.886  15.710  0.4007  0.1696 -0.3631
 5955SOL     OW29326   2.166   2.683   2.389  0.2724 -0.0023 -0.0745
 5955SOL    HW129327   2.221   2.622   2.437 -1.1481 -0.8425  0.4974
 5955SOL    HW229328   2.165   2.755   2.451  2.6653 -0.0525  0.0064
 5956SOL     OW29329   0.492   1.287   8.500 -0.2657  0.9447 -0.4434
 5956SOL    HW129330   0.531   1.373   8.516  0.1721  0.0444  3.4115
 5956SOL    HW229331   0.545   1.229   8.555 -0.7227 -0.8132 -1.8460
 5957SOL     OW29332   1.298   3.648  16.117 -0.3636  0.0488 -0.1511
 5957SOL    HW129333   1.310   3.704  16.193  0.0605 -1.3160  0.7875
 5957SOL    HW229334   1.266   3.568  16.159  1.6327 -0.2955  0.6953
 5958SOL     OW29335   1.113   1.748   7.732 -0.0050 -0.3692  0.2917
 5958SOL    HW129336   1.099   1.806   7.807  1.0350  2.1140 -1.4398
 5958SOL    HW229337   1.193   1.704   7.760  0.9267  1.3661  0.3315
 5959SOL     OW29338   1.853   0.509   7.607 -0.4027 -0.1129 -0.5776
 5959SOL    HW129339   1.808   0.579   7.654  0.0553  0.3550 -0.8376
 5959SOL    HW229340   1.945   0.533   7.613 -0.8744  1.2088  1.3858
 5960SOL     OW29341   3.490   3.425   8.305 -0.1241 -0.9693  0.6012
 5960SOL    HW129342   3.564   3.479   8.332  0.9756 -1.7888 -0.7361
 5960SOL    HW229343   3.429   3.443   8.376 -1.9067 -2.2216 -0.6146
 5961SOL     OW29344   1.383   3.917  12.407 -0.3474  0.9002 -0.6047
 5961SOL    HW129345   1.349   3.946  12.322 -1.6512  1.3055  0.0496
 5961SOL    HW229346   1.322   3.854  12.443  1.0577  1.0157  1.9852
 5962SOL     OW29347   3.244   3.630   4.306 -0.3172 -0.3881  0.2007
 5962SOL    HW129348   3.215   3.705   4.358  0.3853  0.5299 -0.7352
 5962SOL    HW229349   3.177   3.621   4.239  3.4130 -0.6787 -3.4689
 5963SOL     OW29350   1.530   2.963   3.915  0.4545 -0.3157  0.0030
 5963SOL    HW129351   1.516   3.022   3.989  1.9473 -1.4233  1.1558
 5963SOL    HW229352   1.601   3.014   3.876 -1.1993  1.9993 -0.0116
 5964SOL     OW29353   0.034   3.959   4.241  0.1153 -0.4117  0.5140
 5964SOL    HW129354   4.676   3.918   4.257 -0.8608  0.5958 -2.1500
 5964SOL    HW229355   0.013   4.053   4.248 -0.5994 -0.4721 -0.8559
 5965SOL     OW29356   1.915   0.186   2.545 -0.1242 -0.8448 -0.1981
 5965SOL    HW129357   1.950   0.243   2.613  0.4542 -0.1126 -1.1288
 5965SOL    HW229358   1.894   0.102   2.587  1.5024 -1.4666 -0.6412
 5966SOL     OW29359   2.629   1.710   9.062  0.3568  0.2378  0.2306
 5966SOL    HW129360   2.675   1.633   9.027  2.4874  1.5690  0.1023
 5966SOL    HW229361   2.552   1.693   9.008 -0.8057 -0.5577  2.1744
 5967SOL     OW29362   4.582   1.320   1.521  0.3009  0.4249  0.5201
 5967SOL    HW129363   4.594   1.234   1.480  0.6558  0.1286  1.2454
 5967SOL    HW229364   4.574   1.363   1.436 -2.2862  0.0560  0.5853
 5968SOL     OW29365   0.891   1.516  13.953 -0.5858 -0.0625  0.2948
 5968SOL    HW129366   0.846   1.434  13.970  0.2881 -0.9618 -1.7563
 5968SOL    HW229367   0.822   1.570  13.915  1.1525  0.6458 -1.8432
 5969SOL     OW29368   1.802   3.122   6.090  0.3075 -0.2344 -0.1546
 5969SOL    HW129369   1.871   3.097   6.029  1.7638  1.1086  0.9411
 5969SOL    HW229370   1.849   3.174   6.155  0.0503 -0.5221  0.2612
 5970SOL     OW29371   1.548   3.005  17.214 -0.1301 -0.2981  0.2372
 5970SOL    HW129372   1.605   2.942  17.168  0.7830  0.1615  0.7386
 5970SOL    HW229373   1.483   2.942  17.245  1.0420 -0.8099  1.6569
 5971SOL     OW29374   2.745   3.883   4.698  0.5538 -0.1859 -0.0905
 5971SOL    HW129375   2.770   3.895   4.790 -0.6998  1.3621  0.0452
 5971SOL    HW229376   2.691   3.806   4.712  2.4204 -1.7478 -1.5180
 5972SOL     OW29377   4.668   2.592   4.183  0.0654 -0.5099 -0.0952
 5972SOL    HW129378   0.031   2.564   4.170  0.5439  1.1957 -0.4125
 5972SOL    HW229379   4.636   2.583   4.093 -1.2486 -0.9317  0.4172
 5973SOL     OW29380   4.188   1.889   8.553  0.0537 -0.1858 -0.2504
 5973SOL    HW129381   4.275   1.851   8.540  1.1997  3.0618 -2.0214
 5973SOL    HW229382   4.134   1.851   8.484 -1.9689  0.3844  1.0012
 5974SOL     OW29383   3.535   1.747  10.323 -0.1290 -0.2858 -0.0249
 5974SOL    HW129384   3.455   1.747  10.376 -1.6983  0.3324 -2.3579
 5974SOL    HW229385   3.540   1.842  10.307  3.0140 -0.4513  0.0934
 5975SOL     OW29386   1.744   1.929   6.199 -0.4250  0.8991  0.6604
 5975SOL    HW129387   1.735   1.907   6.106  2.7648 -1.7735  1.0021
 5975SOL    HW229388   1.666   1.896   6.243 -0.8248 -0.3111 -0.9631
 5976SOL     OW29389   3.648   1.135  14.393  0.0393 -0.3779 -0.7624
 5976SOL    HW129390   3.612   1.098  14.474 -1.7146 -0.6442 -1.6637
 5976SOL    HW229391   3.575   1.111  14.335 -2.4117  1.4184  1.5934
 5977SOL     OW29392   0.773   4.153  17.508  0.4590 -0.0632 -0.3987
 5977SOL    HW129393   0.700   4.128  17.565 -0.4265 -0.1209 -1.5649
 5977SOL    HW229394   0.742   4.238  17.476  2.5382  0.2486 -1.5486
 5978SOL     OW29395   2.908   4.566  11.659 -0.1462 -0.1154 -0.0974
 5978SOL    HW129396   2.932   4.657  11.676  0.6570 -0.5330  1.0276
 5978SOL    HW229397   2.959   4.544  11.582  0.3001 -0.8879  0.4076
 5979SOL     OW29398   4.636   2.448   3.627 -0.4699  0.2246  0.0278
 5979SOL    HW129399   4.676   2.363   3.610 -0.9756 -0.0060 -0.0318
 5979SOL    HW229400   4.681   2.496   3.558 -0.4820 -1.2140 -0.9854
 5980SOL     OW29401   2.613   4.325   9.900  0.0620 -0.6325  0.1308
 5980SOL    HW129402   2.532   4.301   9.945 -1.1929  2.3764 -0.5284
 5980SOL    HW229403   2.637   4.401   9.953  1.4571 -2.5624  2.2882
 5981SOL     OW29404   1.938   2.476   1.478 -0.4241 -0.0851 -0.2645
 5981SOL    HW129405   1.850   2.442   1.487 -0.9135  2.0348  2.8185
 5981SOL    HW229406   1.954   2.467   1.384 -3.1649 -2.4407 -0.5030
 5982SOL     OW29407   1.849   4.544   1.496 -0.2797  0.4589 -0.1246
 5982SOL    HW129408   1.760   4.573   1.517  0.2379  0.1851  2.5578
 5982SOL    HW229409   1.897   4.620   1.528  1.5873 -0.8919  0.2811
 5983SOL     OW29410   1.061   3.663  10.957  0.1304 -0.6584 -0.4753
 5983SOL    HW129411   1.054   3.682  11.050 -0.9720 -0.8978 -0.5133
 5983SOL    HW229412   1.153   3.686  10.940  0.0927 -0.4401 -0.3899
 5984SOL     OW29413   1.601   0.518  14.892  0.0229 -0.4790 -0.0932
 5984SOL    HW129414   1.576   0.464  14.817 -0.1394 -1.2568  0.5235
 5984SOL    HW229415   1.689   0.541  14.861  0.4270 -2.5622 -0.4561
 5985SOL     OW29416   1.246   0.707   3.809  0.3770 -0.2766  0.0181
 5985SOL    HW129417   1.294   0.719   3.891 -0.7959  0.4244  0.5829
 5985SOL    HW229418   1.210   0.795   3.801  0.5777 -0.3949 -2.2190
 5986SOL     OW29419   3.062   2.387   4.759 -0.9143 -0.2664  0.0396
 5986SOL    HW129420   3.042   2.427   4.844 -2.6850 -0.3188 -0.3500
 5986SOL    HW229421   3.038   2.461   4.702 -2.2097 -1.5180 -1.0326
 5987SOL     OW29422   4.395   1.351  11.091  0.3192  0.1974  0.0107
 5987SOL    HW129423   4.486   1.324  11.099 -0.4418 -3.0657 -2.2216
 5987SOL    HW229424   4.368   1.352  11.183  1.3572 -0.1185  0.3126
 5988SOL     OW29425   3.349   0.777   6.044 -0.6098  0.4871 -0.2759
 5988SOL    HW129426   3.389   0.831   5.975  1.9919 -0.7759  0.2715
 5988SOL    HW229427   3.276   0.833   6.072 -0.0385  2.3166 -2.4263
 5989SOL     OW29428   1.837   2.059   8.201  0.0866  0.9565  0.2957
 5989SOL    HW129429   1.771   2.096   8.142  0.4643 -0.0507 -0.7734
 5989SOL    HW229430   1.812   1.969   8.222 -0.9159  0.9955 -0.7183
 5990SOL     OW29431   3.522   1.362   1.705  0.1280  0.1022  0.4911
 5990SOL    HW129432   3.536   1.425   1.634  0.5553  1.2477  1.6065
 5990SOL    HW229433   3.428   1.348   1.713  0.2508 -0.0727  1.5388
 5991SOL     OW29434   3.840   0.719   6.352 -0.0740  0.1767  0.0437
 5991SOL    HW129435   3.808   0.631   6.333  0.3965 -0.2976  1.4252
 5991SOL    HW229436   3.758   0.768   6.357 -1.2274 -1.6741 -1.0215
 5992SOL     OW29437   1.422   4.366   5.863  0.4927  0.0956  0.2693
 5992SOL    HW129438   1.482   4.440   5.863 -2.0118  2.0991 -2.0897
 5992SOL    HW229439   1.423   4.328   5.951  0.5448  0.5038  0.4433
 5993SOL     OW29440   2.970   1.300  14.080  0.7824 -0.2656  0.3844
 5993SOL    HW129441   2.949   1.388  14.112 -1.4550 -0.3781 -0.8131
 5993SOL    HW229442   2.937   1.299  13.991 -0.6112 -1.5236  0.8991
 5994SOL     OW29443   1.679   3.432  15.228  0.0846  0.1001  0.0124
 5994SOL    HW129444   1.667   3.457  15.137 -1.9535 -1.1365 -0.0520
 5994SOL    HW229445   1.605   3.473  15.273 -1.3509 -1.5603 -0.8462
 5995SOL     OW29446   2.692   0.833  15.716  0.0624 -0.0463  0.3927
 5995SOL    HW129447   2.759   0.878  15.767  1.5063 -1.8467  0.0861
 5995SOL    HW229448   2.669   0.910  15.664  0.5607 -1.2836 -1.6676
 5996SOL     OW29449   2.768   2.822  10.256  0.8173  0.3598 -0.1353
 5996SOL    HW129450   2.780   2.893  10.193 -2.0595  1.8093  0.9527
 5996SOL    HW229451   2.688   2.793  10.213  0.8225  2.4404 -1.5137
 5997SOL     OW29452   4.707   0.069   2.972 -0.0331 -0.4635  0.2071
 5997SOL    HW129453   4.631   0.125   2.989  0.1892  0.0783 -0.5784
 5997SOL    HW229454   0.062   0.116   2.973 -0.3824  0.2247 -2.0772
 5998SOL     OW29455   0.325   2.656   2.221  0.0588 -0.4354 -0.2920
 5998SOL    HW129456   0.323   2.739   2.174  0.9921  0.5192  1.3969
 5998SOL    HW229457   0.396   2.663   2.285 -1.4158 -0.8050  1.3728
 5999SOL     OW29458   4.173   0.727   7.229 -0.7020  0.4767  1.0740
 5999SOL    HW129459   4.244   0.780   7.264  0.0778  0.0782  0.0935
 5999SOL    HW229460   4.150   0.663   7.296 -0.4466  1.2379  1.8859
 6000SOL     OW29461   3.368   0.750   3.265 -0.1479  0.2986 -0.9935
 6000SOL    HW129462   3.369   0.845   3.253 -0.6646  0.3754 -0.4545
 6000SOL    HW229463   3.362   0.755   3.361  0.2129  1.2330 -1.0170
 6001SOL     OW29464   4.151   4.337  13.656  0.4872 -0.6139 -0.2627
 6001SOL    HW129465   4.240   4.334  13.622  0.1406 -3.0837 -0.9458
 6001SOL    HW229466   4.151   4.430  13.681  0.4062 -0.0074 -2.5752
 6002SOL     OW29467   0.267   0.171   9.432  0.4702 -0.5218 -0.3498
 6002SOL    HW129468   0.304   0.199   9.516  1.4119  0.9158 -1.2478
 6002SOL    HW229469   0.267   0.248   9.376  0.3948 -0.1087  0.2180
 6003SOL     OW29470   1.089   1.771   4.899 -0.1860 -0.0236  0.9382
 6003SOL    HW129471   1.030   1.820   4.841  0.2939 -0.8898 -0.2702
 6003SOL    HW229472   1.032   1.695   4.912  0.5821 -1.1116 -2.1838
 6004SOL     OW29473   0.487   2.863   2.910 -0.0891 -0.6959 -1.0692
 6004SOL    HW129474   0.432   2.857   2.832 -0.3363  1.9580 -1.1027
 6004SOL    HW229475   0.570   2.859   2.862 -0.0584  2.0538 -1.2501
 6005SOL     OW29476   3.191   1.190  14.741 -0.0331  0.0034  0.0945
 6005SOL    HW129477   3.205   1.113  14.686  0.4077  1.0051 -1.1751
 6005SOL    HW229478   3.096   1.200  14.739 -0.2380 -1.8397  0.0602
 6006SOL     OW29479   0.288   2.088   9.212 -0.2143  0.2989 -0.2430
 6006SOL    HW129480   0.270   2.174   9.250  2.8510  0.7651  0.1311
 6006SOL    HW229481   0.315   2.105   9.122 -0.8517 -1.5610 -0.7908
 6007SOL     OW29482   0.879   1.360   9.883  0.5925  0.0297 -0.8026
 6007SOL    HW129483   0.902   1.332   9.971  2.1690  1.9941 -0.6017
 6007SOL    HW229484   0.867   1.271   9.847  0.2071 -0.3958  0.3820
 6008SOL     OW29485   1.697   1.635   7.645 -0.8777 -0.3662  0.2460
 6008SOL    HW129486   1.787   1.667   7.648 -0.9590  0.1824 -2.8150
 6008SOL    HW229487   1.702   1.541   7.662  0.1926 -0.1451  1.1264
 6009SOL     OW29488   3.370   4.405   7.871 -0.1895 -0.3544  0.5410
 6009SOL    HW129489   3.418   4.449   7.800  1.5907 -1.3866  1.1123
 6009SOL    HW229490   3.421   4.448   7.940  0.9683 -0.3719 -0.3096
 6010SOL     OW29491   1.743   0.279   6.726 -0.2599  0.6696 -0.1556
 6010SOL    HW129492   1.679   0.337   6.768 -3.1981 -2.3824 -0.3948
 6010SOL    HW229493   1.722   0.196   6.768 -0.4128  0.2574 -1.0386
 6011SOL     OW29494   1.164   2.692   4.622 -0.1592  0.2926 -0.1448
 6011SOL    HW129495   1.152   2.779   4.583  1.7078  0.6367  0.0521
 6011SOL    HW229496   1.082   2.685   4.670 -1.5964 -0.4052 -2.7158
 6012SOL     OW29497   3.757   1.228   4.490 -0.2375 -0.2409  0.1338
 6012SOL    HW129498   3.799   1.240   4.576  1.8405 -3.9138 -0.3889
 6012SOL    HW229499   3.828   1.193   4.436  1.3012  0.6078  1.5900
 6013SOL     OW29500   4.353   2.154   8.298  0.5972 -0.5875 -0.4636
 6013SOL    HW129501   4.412   2.093   8.341  1.2633 -0.4989 -1.2556
 6013SOL    HW229502   4.408   2.232   8.288 -0.2952  0.5662  3.6134
 6014SOL     OW29503   4.593   2.986   4.606  0.0397  0.3119 -0.2369
 6014SOL    HW129504   4.620   3.034   4.528 -2.2276  0.2160 -1.0829
 6014SOL    HW229505   4.624   2.896   4.602 -1.6242 -0.3305  1.3672
 6015SOL     OW29506   3.361   3.019   9.193 -0.7986 -0.0039 -0.0947
 6015SOL    HW129507   3.408   2.943   9.160  0.5167  0.4233  0.8207
 6015SOL    HW229508   3.348   3.079   9.119 -2.2597  0.3562  0.4601
 6016SOL     OW29509   2.021   1.066   7.129 -0.2231 -0.0917 -0.0739
 6016SOL    HW129510   2.016   1.162   7.124  0.4305  0.0121  1.3542
 6016SOL    HW229511   1.950   1.038   7.187 -1.3055 -0.6332 -1.6814
 6017SOL     OW29512   0.753   0.613   4.519  0.0872  0.0026  0.0017
 6017SOL    HW129513   0.754   0.628   4.425 -0.3545  5.0752  0.8065
 6017SOL    HW229514   0.697   0.537   4.529 -0.1923 -0.0060 -1.6714
 6018SOL     OW29515   2.491   4.071   4.117  0.3014 -0.6334  0.1118
 6018SOL    HW129516   2.545   3.996   4.142  0.6514 -0.5131 -0.2901
 6018SOL    HW229517   2.502   4.079   4.022  0.7651  0.8483  0.2947
 6019SOL     OW29518   4.671   3.657  16.326 -0.6830 -0.3827 -0.0373
 6019SOL    HW129519   4.651   3.749  16.310 -0.1129 -0.1735  0.4611
 6019SOL    HW229520   4.581   3.628  16.341 -1.0875  1.5836  1.3122
 6020SOL     OW29521   2.170   4.692   3.708 -0.2392 -0.1834  0.2226
 6020SOL    HW129522   2.253   0.010   3.716 -0.4050  0.1802 -0.1146
 6020SOL    HW229523   2.170   4.682   3.612  1.8067  1.2109  0.0725
 6021SOL     OW29524   4.655   0.589   2.190  0.4371  0.0818 -0.6048
 6021SOL    HW129525   4.617   0.615   2.106 -1.6800 -1.3914 -0.1092
 6021SOL    HW229526   4.597   0.640   2.248  0.6196 -1.8414  1.2413
 6022SOL     OW29527   4.587   0.822  17.331 -0.3483 -0.0165  0.6033
 6022SOL    HW129528   4.517   0.785  17.385 -1.1037 -1.0537 -1.0956
 6022SOL    HW229529   4.651   0.788  17.395  1.1368  1.3675 -0.1623
 6023SOL     OW29530   2.270   4.217   5.156 -0.1491 -0.5503  0.0219
 6023SOL    HW129531   2.328   4.199   5.082 -0.2747  0.6327 -0.3705
 6023SOL    HW229532   2.198   4.162   5.123 -1.5721 -0.9962  3.9075
 6024SOL     OW29533   3.024   4.658  15.544  0.2554  0.2726  0.1519
 6024SOL    HW129534   2.943   4.639  15.497 -0.1853  0.1500  0.9670
 6024SOL    HW229535   3.024   0.026  15.531  1.2413  0.2700  0.1636
 6025SOL     OW29536   0.043   3.411   7.875 -0.3882 -0.7559 -0.3623
 6025SOL    HW129537   0.041   3.315   7.865 -1.2251 -0.5869 -1.8085
 6025SOL    HW229538   0.080   3.435   7.790  1.0262  0.0129  0.4787
 6026SOL     OW29539   0.083   1.354   7.741 -0.4682  0.3484  0.2402
 6026SOL    HW129540   0.036   1.309   7.671 -1.1097  0.2791  0.7149
 6026SOL    HW229541   0.073   1.447   7.720 -2.7340 -0.0327 -0.3786
 6027SOL     OW29542   4.481   3.628  16.014 -0.2946 -0.3462 -0.0230
 6027SOL    HW129543   4.413   3.607  15.950  0.6282 -1.3431 -0.6712
 6027SOL    HW229544   4.525   3.696  15.963  0.7261 -2.1005 -1.4580
 6028SOL     OW29545   0.527   0.697   2.044  0.3253  0.4031 -0.1519
 6028SOL    HW129546   0.512   0.791   2.038  0.0498  0.3479 -0.2942
 6028SOL    HW229547   0.439   0.669   2.069 -0.2723  1.6877 -0.8487
 6029SOL     OW29548   0.661   3.518   2.538  0.2467 -0.6717 -0.1387
 6029SOL    HW129549   0.627   3.474   2.459  3.5299 -2.5043 -0.5216
 6029SOL    HW229550   0.729   3.458   2.566  0.3007  0.4852  2.1795
 6030SOL     OW29551   2.645   3.049  14.922 -0.1192 -0.2378 -0.2606
 6030SOL    HW129552   2.609   2.988  14.987 -1.9915  1.5471  0.3542
 6030SOL    HW229553   2.680   3.119  14.977 -0.4317  0.6036 -1.1262
 6031SOL     OW29554   2.805   1.728  13.253  0.2362 -0.5414 -0.6828
 6031SOL    HW129555   2.824   1.722  13.347  1.5407  1.2551 -0.8452
 6031SOL    HW229556   2.845   1.807  13.218 -0.3924 -0.9437 -2.3097
 6032SOL     OW29557   1.870   2.479   7.744  0.0561 -0.7410  0.4330
 6032SOL    HW129558   1.961   2.500   7.763  0.0727  1.8325 -2.4326
 6032SOL    HW229559   1.863   2.523   7.659  0.7836 -2.2172 -0.3905
 6033SOL     OW29560   4.168   2.282   3.104  0.5860 -0.0873 -0.0050
 6033SOL    HW129561   4.185   2.188   3.098  1.9173  0.1751 -0.3324
 6033SOL    HW229562   4.073   2.283   3.092  0.3166  0.1076  2.2056
 6034SOL     OW29563   4.675   2.377  16.474  0.0144  0.2290  0.4924
 6034SOL    HW129564   4.619   2.347  16.546  0.0925 -1.1785 -0.0338
 6034SOL    HW229565   0.007   2.434  16.523 -1.0615  2.4583 -0.7693
 6035SOL     OW29566   2.113   1.639   8.890  0.0236 -1.0847  0.2964
 6035SOL    HW129567   2.177   1.598   8.947  0.9709 -0.1279 -0.0902
 6035SOL    HW229568   2.152   1.649   8.803 -0.1818 -1.1104  0.2008
 6036SOL     OW29569   3.816   0.582   6.070  0.9260  0.0520  0.0264
 6036SOL    HW129570   3.755   0.521   6.029  0.2166  0.6214  0.2433
 6036SOL    HW229571   3.755   0.645   6.107  0.2577 -0.7709  0.3369
 6037SOL     OW29572   3.041   2.981  13.719 -0.4170 -0.3068  0.1753
 6037SOL    HW129573   3.067   2.957  13.808  2.6038  0.8813 -0.3904
 6037SOL    HW229574   3.117   2.950  13.671  0.9111  1.8802  0.8828
 6038SOL     OW29575   2.264   1.512   6.279 -0.7628  0.3807  0.2276
 6038SOL    HW129576   2.330   1.582   6.272  0.4398 -0.8911 -1.1976
 6038SOL    HW229577   2.188   1.562   6.308 -1.5872 -0.1205 -1.0809
 6039SOL     OW29578   3.758   1.640  14.960 -0.4164  0.6582  0.5471
 6039SOL    HW129579   3.818   1.709  14.987 -1.7679  2.0788 -0.1462
 6039SOL    HW229580   3.754   1.645  14.864 -0.5927 -0.7512  0.4698
 6040SOL     OW29581   3.599   3.102   1.701 -0.0076  0.5313 -0.0071
 6040SOL    HW129582   3.600   3.124   1.794  1.6988  0.0597  0.0876
 6040SOL    HW229583   3.603   3.007   1.703  0.8150  0.6031  1.4914
 6041SOL     OW29584   3.808   0.203   6.666  0.3834 -0.5126 -0.1841
 6041SOL    HW129585   3.734   0.143   6.678 -1.5742  1.5696 -2.0532
 6041SOL    HW229586   3.767   0.287   6.645 -0.3966 -0.4391  1.6203
 6042SOL     OW29587   3.285   4.502   1.046 -0.2525 -0.0228  0.4705
 6042SOL    HW129588   3.373   4.468   1.030  0.3042  1.3559  0.5673
 6042SOL    HW229589   3.302   4.590   1.080  0.0645 -0.1786  0.7125
 6043SOL     OW29590   1.044   2.818   6.916  0.6225  0.3215 -0.2615
 6043SOL    HW129591   1.100   2.865   6.854  0.1502  0.4045 -0.6275
 6043SOL    HW229592   1.031   2.740   6.862  1.6137 -1.1552  1.6270
 6044SOL     OW29593   4.267   3.488   4.737 -0.1742  0.1210 -0.6709
 6044SOL    HW129594   4.271   3.451   4.649  1.6451 -1.7461  0.1663
 6044SOL    HW229595   4.357   3.483   4.769  0.3504  3.6915 -1.6520
 6045SOL     OW29596   0.126   2.369  12.643 -0.3111 -0.0270  0.1092
 6045SOL    HW129597   0.165   2.423  12.575 -0.5763 -0.9566 -0.7719
 6045SOL    HW229598   0.196   2.383  12.708  0.4474  0.9432 -0.9280
 6046SOL     OW29599   4.033   3.460   6.732 -0.3108  0.0294  0.0205
 6046SOL    HW129600   4.116   3.468   6.780 -1.9737 -0.5103  3.0294
 6046SOL    HW229601   4.057   3.401   6.661 -0.7746 -0.5878  0.3850
 6047SOL     OW29602   2.879   2.267  10.964 -0.7009  0.2658 -0.5845
 6047SOL    HW129603   2.848   2.209  11.034 -1.2270  2.6418  1.1495
 6047SOL    HW229604   2.808   2.261  10.900 -2.4398 -0.7802  1.4055
 6048SOL     OW29605   4.046   3.561   5.298 -0.3514  0.2437 -0.7140
 6048SOL    HW129606   4.066   3.475   5.333 -1.9588  0.3922  0.5586
 6048SOL    HW229607   3.953   3.554   5.278 -0.3490  1.2215 -1.0953
 6049SOL     OW29608   4.133   4.360   6.990 -0.2335 -0.2349 -0.1709
 6049SOL    HW129609   4.095   4.360   7.078  2.2757  1.4741  0.9028
 6049SOL    HW229610   4.111   4.269   6.971  0.8964 -0.5317 -0.0010
 6050SOL     OW29611   1.806   0.789   6.535  0.0738 -0.1226  0.2638
 6050SOL    HW129612   1.801   0.873   6.490 -1.4502  0.4249  1.4476
 6050SOL    HW229613   1.871   0.737   6.490  0.3306 -0.4626  1.0322
 6051SOL     OW29614   2.036   4.677   6.456  0.3345 -0.3044 -0.0239
 6051SOL    HW129615   2.102   4.608   6.445  0.2072 -0.6957  1.6529
 6051SOL    HW229616   2.028   4.707   6.366  0.4810 -1.5764 -0.4568
 6052SOL     OW29617   1.817   0.829  17.072 -0.6216  0.1555 -0.0726
 6052SOL    HW129618   1.824   0.916  17.034 -0.2935  0.8694  1.5899
 6052SOL    HW229619   1.840   0.772  16.999  0.1675 -0.9703  1.0379
 6053SOL     OW29620   2.132   0.865   3.008 -0.6725 -0.1910 -0.3751
 6053SOL    HW129621   2.128   0.958   2.988  0.4499  0.3728  1.9388
 6053SOL    HW229622   2.079   0.831   2.936 -0.5573  1.2540 -1.1318
 6054SOL     OW29623   2.232   0.830   9.467 -0.2408 -0.1976  0.0415
 6054SOL    HW129624   2.153   0.819   9.521 -0.5435 -1.2860 -0.6240
 6054SOL    HW229625   2.309   0.838   9.522 -1.1139  0.4168  1.1715
 6055SOL     OW29626   1.822   0.334   8.308 -0.1157 -0.4813 -0.1442
 6055SOL    HW129627   1.749   0.309   8.251  0.0494  0.2337 -0.6686
 6055SOL    HW229628   1.866   0.254   8.279  0.0816 -0.4082 -0.0493
 6056SOL     OW29629   1.497   1.793   0.170 -0.7617  0.1750 -0.5116
 6056SOL    HW129630   1.426   1.734   0.145  0.9280 -1.7544 -0.8294
 6056SOL    HW229631   1.451   1.876   0.169  0.2928  0.7489 -1.4675
 6057SOL     OW29632   3.775   3.503  15.779  0.4636  0.5278  0.1005
 6057SOL    HW129633   3.838   3.466  15.717 -0.0774 -0.2614  0.0186
 6057SOL    HW229634   3.826   3.574  15.818  3.3776 -1.4938  0.0279
 6058SOL     OW29635   0.763   2.563   5.098  0.7316 -0.0680  0.0396
 6058SOL    HW129636   0.832   2.596   5.156 -3.0445  2.1517  3.2868
 6058SOL    HW229637   0.816   2.526   5.028  0.8507  0.0529  0.0657
 6059SOL     OW29638   4.236   1.262  16.231  0.1752  0.3822  0.6913
 6059SOL    HW129639   4.160   1.206  16.213  2.5855 -2.2455 -1.2936
 6059SOL    HW229640   4.274   1.275  16.145 -2.5008  2.8205 -0.1383
 6060SOL     OW29641   2.840   2.206   3.700 -0.1866 -0.2199  0.1870
 6060SOL    HW129642   2.898   2.146   3.747 -0.1728  0.9594  1.6355
 6060SOL    HW229643   2.751   2.176   3.720  0.0848 -1.2505 -0.1516
 6061SOL     OW29644   1.838   1.640   3.581  0.1564 -0.1539 -0.1330
 6061SOL    HW129645   1.917   1.669   3.535  1.8476 -3.5753  0.5659
 6061SOL    HW229646   1.841   1.544   3.578 -1.3612 -0.2392  1.0084
 6062SOL     OW29647   4.499   0.135   0.204 -1.0973 -0.3956 -0.1160
 6062SOL    HW129648   4.448   0.133   0.285 -1.3743 -0.4348 -0.2918
 6062SOL    HW229649   4.566   0.073   0.233 -2.0111 -2.4065 -2.3334
 6063SOL     OW29650   3.034   1.166   2.905 -0.1172  0.2604 -0.0722
 6063SOL    HW129651   3.068   1.077   2.895 -0.0421  0.2600  0.1685
 6063SOL    HW229652   3.009   1.176   2.997  2.2898  0.5296  0.5714
 6064SOL     OW29653   3.569   2.898   3.534 -0.1145  0.1275  0.1116
 6064SOL    HW129654   3.478   2.913   3.510 -0.2121  0.5933  0.7625
 6064SOL    HW229655   3.562   2.819   3.587  0.7323 -0.2613 -0.3433
 6065SOL     OW29656   0.128   1.873  15.248  0.0279  0.0171  0.0879
 6065SOL    HW129657   0.210   1.842  15.210  0.5404  0.8342  0.5292
 6065SOL    HW229658   0.142   1.889  15.341 -1.3345 -0.0085  0.2923
 6066SOL     OW29659   1.679   2.130   4.357 -0.6414  0.1072  0.4849
 6066SOL    HW129660   1.635   2.193   4.300  0.8842 -0.3372 -1.1828
 6066SOL    HW229661   1.614   2.117   4.426  0.9077  0.1334  1.9466
 6067SOL     OW29662   4.594   4.362   9.388  0.4173 -1.1387 -0.3471
 6067SOL    HW129663   4.569   4.293   9.449  0.3876 -1.1797 -0.4049
 6067SOL    HW229664   4.650   4.414   9.446 -2.1916  1.1146  0.1132
 6068SOL     OW29665   1.513   3.495  10.462 -0.7567 -0.4110 -0.0046
 6068SOL    HW129666   1.571   3.489  10.386  1.2699  1.6305  1.3905
 6068SOL    HW229667   1.426   3.492  10.421 -1.1808  4.2538  0.6059
 6069SOL     OW29668   3.856   3.777  14.757  0.1491  0.0811  0.2296
 6069SOL    HW129669   3.894   3.695  14.723 -2.0325 -0.2481 -1.4292
 6069SOL    HW229670   3.915   3.839  14.715  1.1292  0.0995  1.6377
 6070SOL     OW29671   0.369   3.437   3.972 -0.2220 -0.0419 -0.0468
 6070SOL    HW129672   0.317   3.499   3.922  1.8738  0.6437 -1.4003
 6070SOL    HW229673   0.373   3.355   3.923 -0.1413  0.2904 -0.6005
 6071SOL     OW29674   1.484   0.020   6.078 -0.3758  0.0421 -1.0190
 6071SOL    HW129675   1.490   0.012   5.983  0.1629 -0.1404 -0.9651
 6071SOL    HW229676   1.516   4.663   6.107 -2.8134 -0.6707 -0.3611
 6072SOL     OW29677   0.628   0.062   5.291 -0.9335 -0.1825 -0.1651
 6072SOL    HW129678   0.567   4.723   5.323 -2.0478  1.0315  0.2374
 6072SOL    HW229679   0.655   0.103   5.373 -0.1891  0.5617 -0.7799
 6073SOL     OW29680   3.580   3.772   4.506 -0.2674 -0.0239  0.4722
 6073SOL    HW129681   3.619   3.737   4.426 -2.3576  0.9629 -0.9689
 6073SOL    HW229682   3.603   3.710   4.576  1.2227  0.6891  0.6137
 6074SOL     OW29683   4.109   1.148  15.802 -0.2937 -0.3471  0.1716
 6074SOL    HW129684   4.150   1.186  15.725  1.7004 -0.8121  1.0001
 6074SOL    HW229685   4.016   1.164  15.787 -0.1480 -0.1810 -0.5480
 6075SOL     OW29686   4.558   4.193   4.602  0.2542  0.7616 -0.4629
 6075SOL    HW129687   4.474   4.167   4.642  1.1403  2.4949  2.5212
 6075SOL    HW229688   4.586   4.261   4.663  1.6042  0.0469 -0.2795
 6076SOL     OW29689   1.334   0.150   7.054  0.1934 -1.0193 -0.4668
 6076SOL    HW129690   1.392   0.147   7.130 -0.1946 -1.8099 -0.2006
 6076SOL    HW229691   1.396   0.156   6.982 -0.4788  1.5856 -0.8353
 6077SOL     OW29692   1.598   1.441   0.873 -0.4542 -0.3725  0.3361
 6077SOL    HW129693   1.583   1.430   0.779  2.4081  1.1267 -0.2795
 6077SOL    HW229694   1.564   1.529   0.886 -1.7601 -0.9665  0.9764
 6078SOL     OW29695   3.982   0.748   5.241  0.1393  0.5730 -1.4316
 6078SOL    HW129696   3.961   0.655   5.234  0.9516  0.4840 -2.6401
 6078SOL    HW229697   4.073   0.747   5.212 -0.4220 -0.6355 -3.1331
 6079SOL     OW29698   3.527   1.999  14.098  0.0858  0.0120  0.1946
 6079SOL    HW129699   3.547   2.052  14.021 -1.5575 -0.0471 -0.2776
 6079SOL    HW229700   3.473   1.928  14.063  0.5508 -0.9712  1.4806
 6080SOL     OW29701   4.154   4.275  17.351  0.2568 -0.2697 -0.2982
 6080SOL    HW129702   4.073   4.278  17.300 -0.9970 -2.1840  1.5885
 6080SOL    HW229703   4.168   4.182  17.366 -0.3111 -0.3884 -0.5071
 6081SOL     OW29704   2.159   3.542  10.067  0.5307 -0.1874  0.4885
 6081SOL    HW129705   2.120   3.615  10.116  1.8490  0.7276  0.1835
 6081SOL    HW229706   2.232   3.518  10.125  1.0177  0.9562  0.3532
 6082SOL     OW29707   1.063   3.032   2.313 -0.3028 -0.1549 -0.0478
 6082SOL    HW129708   0.973   3.064   2.316 -0.7081 -0.9774 -3.3178
 6082SOL    HW229709   1.109   3.113   2.335 -2.3506  1.4940 -1.8573
 6083SOL     OW29710   2.071   0.097   0.920 -0.2596  0.0796  0.0280
 6083SOL    HW129711   1.988   0.140   0.898  0.0226 -0.1565 -1.4971
 6083SOL    HW229712   2.053   0.073   1.011 -0.3461 -0.3262 -0.0977
 6084SOL     OW29713   1.863   0.993   2.124 -0.3116 -0.2471 -0.1107
 6084SOL    HW129714   1.946   0.948   2.107 -0.8735 -1.7450  1.0590
 6084SOL    HW229715   1.886   1.066   2.182  2.2366  2.6363 -4.7754
 6085SOL     OW29716   3.378   0.414   3.646 -0.0130  0.1253 -0.3957
 6085SOL    HW129717   3.375   0.458   3.561  1.1798  0.1022 -0.4498
 6085SOL    HW229718   3.468   0.429   3.675  0.0868 -1.4187  0.1205
 6086SOL     OW29719   2.557   3.211  12.802  0.1983  0.1119 -0.3631
 6086SOL    HW129720   2.520   3.130  12.835 -0.8835  0.9710  0.5351
 6086SOL    HW229721   2.631   3.215  12.863 -0.7021  3.5024  0.5379
 6087SOL     OW29722   0.723   4.605   5.913  0.5177  0.0584 -0.7925
 6087SOL    HW129723   0.780   4.671   5.953 -0.6613  1.3074 -1.1921
 6087SOL    HW229724   0.748   4.520   5.948 -1.9521 -1.2498 -2.2187
 6088SOL     OW29725   4.622   3.704  10.914  0.3730  0.1910 -0.0494
 6088SOL    HW129726   4.568   3.783  10.909 -0.3714 -0.4222 -1.7435
 6088SOL    HW229727   4.644   3.692  11.006  2.1669  2.5552 -0.2028
 6089SOL     OW29728   4.049   4.065   9.668  0.5906 -0.0144  0.7267
 6089SOL    HW129729   4.110   4.018   9.612 -0.0151  0.5349 -0.4113
 6089SOL    HW229730   3.982   4.097   9.607  1.3899  1.2703  0.5068
 6090SOL     OW29731   0.556   3.051   6.061 -0.5072  0.2123 -0.1319
 6090SOL    HW129732   0.491   2.982   6.076  0.3847 -0.6574 -0.2779
 6090SOL    HW229733   0.610   3.043   6.139 -0.1784 -1.5245 -0.5319
 6091SOL     OW29734   3.366   2.100   6.548  0.0941  0.0127 -0.3206
 6091SOL    HW129735   3.415   2.130   6.472 -1.1382  0.4313 -0.9510
 6091SOL    HW229736   3.362   2.007   6.524 -0.1179 -0.0072 -0.2035
 6092SOL     OW29737   4.713   1.331   3.444  0.1199 -0.1092  0.2495
 6092SOL    HW129738   4.652   1.267   3.482  0.0124  1.3915  2.6338
 6092SOL    HW229739   4.650   1.399   3.419 -1.0531 -0.6105  1.8138
 6093SOL     OW29740   3.753   4.442   3.366 -0.4717 -0.2541 -0.3653
 6093SOL    HW129741   3.775   4.350   3.353 -0.2230 -0.0581 -1.3610
 6093SOL    HW229742   3.754   4.443   3.462  1.5997  0.7673 -0.3865
 6094SOL     OW29743   2.075   0.922   9.945  0.4385  0.2272 -0.5261
 6094SOL    HW129744   2.157   0.964   9.917  1.2749 -0.6004  0.6674
 6094SOL    HW229745   2.103   0.856  10.008  0.6025  1.6501  0.8737
 6095SOL     OW29746   2.881   0.326  16.941 -0.6387  0.0574 -0.3712
 6095SOL    HW129747   2.884   0.271  17.019 -0.1690  0.7696  0.1202
 6095SOL    HW229748   2.790   0.357  16.950 -0.5765  0.3699 -0.8695
 6096SOL     OW29749   0.539   4.574  16.885  0.4363 -0.2534  0.0388
 6096SOL    HW129750   0.471   4.583  16.952  0.8164 -1.8376  0.6328
 6096SOL    HW229751   0.618   4.563  16.937  1.0436 -0.5431 -0.9530
 6097SOL     OW29752   0.450   2.925   4.697 -0.3796  0.0057 -0.3315
 6097SOL    HW129753   0.388   2.916   4.769  0.8588 -1.3673  0.5657
 6097SOL    HW229754   0.443   2.840   4.654  4.7509  0.0995 -1.4401
 6098SOL     OW29755   0.638   2.941   8.473 -0.3732 -0.2889  0.3037
 6098SOL    HW129756   0.624   3.030   8.503  0.3967  0.7666 -2.5119
 6098SOL    HW229757   0.670   2.893   8.550  0.8275  0.5631  0.3305
 6099SOL     OW29758   3.077   3.181   6.271 -0.3622  0.2686  0.2583
 6099SOL    HW129759   3.166   3.199   6.239 -0.7383  0.1141 -0.8714
 6099SOL    HW229760   3.101   3.147   6.357 -0.7197  0.4610  0.4345
 6100SOL     OW29761   0.795   3.385  13.586 -0.4249 -1.0248  0.4257
 6100SOL    HW129762   0.706   3.382  13.621 -0.0935 -1.4513  1.2322
 6100SOL    HW229763   0.784   3.452  13.518  0.0530 -0.5966  0.7639
 6101SOL     OW29764   0.993   0.515   4.344 -0.4713  0.3891  0.0129
 6101SOL    HW129765   0.917   0.569   4.322 -0.9550 -1.1926 -2.2095
 6101SOL    HW229766   1.040   0.574   4.403  0.9429  1.2115 -1.9762
 6102SOL     OW29767   2.306   3.954  14.635 -0.0849  0.3798  0.2932
 6102SOL    HW129768   2.309   3.954  14.539  1.3691 -0.3373  0.3403
 6102SOL    HW229769   2.398   3.937  14.650 -0.7005 -0.5202  3.0029
 6103SOL     OW29770   1.790   3.034  11.494 -0.3048  0.2283  0.0893
 6103SOL    HW129771   1.794   2.984  11.576 -1.4763  0.0215  0.0265
 6103SOL    HW229772   1.787   2.961  11.433 -1.9981 -1.6197  2.4087
 6104SOL     OW29773   3.843   0.687   7.847 -0.0023  0.5065  0.0950
 6104SOL    HW129774   3.865   0.746   7.919  0.9278  0.4869 -0.1752
 6104SOL    HW229775   3.750   0.698   7.825  0.1420  3.1569  0.8453
 6105SOL     OW29776   1.340   3.975   9.897 -0.1717  0.3033  0.6628
 6105SOL    HW129777   1.287   3.998   9.820  0.0469  1.2943  0.8098
 6105SOL    HW229778   1.346   3.882   9.878  0.4184  0.2236  1.2765
 6106SOL     OW29779   0.494   0.324   4.128  0.1268 -0.0211  0.2203
 6106SOL    HW129780   0.524   0.364   4.047 -1.8885 -0.4128 -0.6999
 6106SOL    HW229781   0.554   0.251   4.142 -0.7013 -0.5867  0.8538
 6107SOL     OW29782   3.332   2.992   1.897 -0.7129  0.4115 -0.1331
 6107SOL    HW129783   3.296   3.009   1.984 -1.3616 -1.2521 -0.0725
 6107SOL    HW229784   3.251   2.999   1.847  0.1777 -0.7350 -1.7227
 6108SOL     OW29785   1.411   1.615   4.133 -0.6715 -0.5839  0.1135
 6108SOL    HW129786   1.434   1.694   4.182  1.3476 -0.8036 -0.4702
 6108SOL    HW229787   1.319   1.594   4.147 -0.5348 -0.8187  0.6620
 6109SOL     OW29788   3.718   4.468   3.632 -0.4210 -0.2691 -0.1660
 6109SOL    HW129789   3.644   4.512   3.675  0.0022 -0.6530  0.9727
 6109SOL    HW229790   3.775   4.462   3.709 -1.3272 -0.9809  0.4552
 6110SOL     OW29791   2.048   0.636   1.262 -0.4544 -0.3228  0.0287
 6110SOL    HW129792   2.083   0.591   1.339  0.1712  0.1488  0.0168
 6110SOL    HW229793   2.001   0.564   1.220  1.3048 -2.1566  1.1873
 6111SOL     OW29794   0.938   3.614  12.646 -0.0580 -0.0375 -0.2821
 6111SOL    HW129795   0.931   3.557  12.570 -1.2891  0.2055 -0.3533
 6111SOL    HW229796   1.001   3.562  12.696  0.2184  0.7619  0.1968
 6112SOL     OW29797   1.147   2.426   8.828  0.1740  0.2618 -0.3817
 6112SOL    HW129798   1.118   2.477   8.752  0.0563 -1.5028 -1.5065
 6112SOL    HW229799   1.240   2.413   8.811  0.1639  0.4460 -0.5803
 6113SOL     OW29800   1.253   3.498  14.468  0.4993  0.0545 -0.5186
 6113SOL    HW129801   1.202   3.457  14.537 -1.6300  0.1307 -2.0329
 6113SOL    HW229802   1.340   3.482  14.504  0.1944  1.3461  0.7970
 6114SOL     OW29803   2.277   0.335   6.709  0.2540 -0.1084  0.4526
 6114SOL    HW129804   2.259   0.370   6.797 -0.0650  0.0580  0.3229
 6114SOL    HW229805   2.370   0.314   6.717  0.1349 -0.6080  0.5397
 6115SOL     OW29806   0.561   1.576   1.558 -0.2235 -0.0894  0.0900
 6115SOL    HW129807   0.528   1.521   1.487  0.0127  2.5219 -2.0575
 6115SOL    HW229808   0.564   1.513   1.630 -0.9278 -1.1501 -0.8075
 6116SOL     OW29809   3.700   0.878   3.017  0.1740 -0.4491 -0.0471
 6116SOL    HW129810   3.626   0.908   2.965 -1.3610  0.3462  2.5707
 6116SOL    HW229811   3.760   0.866   2.943 -2.5368 -2.5680 -1.8897
 6117SOL     OW29812   4.350   3.596   8.286 -0.2600 -0.4026  0.1426
 6117SOL    HW129813   4.422   3.652   8.314  0.5265 -0.3562 -1.9444
 6117SOL    HW229814   4.289   3.665   8.258  0.5116  0.4680  0.6163
 6118SOL     OW29815   2.245   4.440   1.020 -0.3966 -0.3889  0.4254
 6118SOL    HW129816   2.230   4.347   1.002 -1.0422  0.4539 -3.3872
 6118SOL    HW229817   2.339   4.448   1.036 -0.7194  1.2519  1.5196
 6119SOL     OW29818   0.894   3.510  16.343 -0.1080  0.3115  0.1458
 6119SOL    HW129819   0.915   3.419  16.365  0.7634  0.4065 -0.2895
 6119SOL    HW229820   0.971   3.551  16.383 -0.2025 -0.3229  0.9736
 6120SOL     OW29821   3.052   3.857   7.969  0.1235  0.4418  0.4912
 6120SOL    HW129822   3.039   3.869   8.063  1.8440 -0.4740  0.8394
 6120SOL    HW229823   3.123   3.793   7.968 -2.0262 -1.9832  1.4159
 6121SOL     OW29824   1.342   0.604   4.346  0.0768 -0.5262 -0.2228
 6121SOL    HW129825   1.277   0.668   4.319  1.1856  1.0635  0.9099
 6121SOL    HW229826   1.405   0.666   4.382 -0.4241  0.3016 -0.7924
 6122SOL     OW29827   4.580   2.118   1.621 -0.1557 -0.1040  0.1239
 6122SOL    HW129828   4.503   2.140   1.568  0.2932 -3.3845 -1.8797
 6122SOL    HW229829   4.560   2.025   1.624  0.9715 -0.2736  2.3924
 6123SOL     OW29830   3.622   3.415  14.079 -0.2116  0.3390  0.0590
 6123SOL    HW129831   3.713   3.410  14.108  0.0554 -1.4683 -1.0910
 6123SOL    HW229832   3.624   3.499  14.032 -0.8378 -0.2004 -0.9423
 6124SOL     OW29833   4.524   1.599  11.585  0.1104  0.5418 -0.2486
 6124SOL    HW129834   4.563   1.517  11.615  0.4178  1.5040  2.0298
 6124SOL    HW229835   4.540   1.598  11.491  0.0219 -1.8699 -0.2472
 6125SOL     OW29836   2.439   2.480   2.311 -0.1415  0.9267  0.1047
 6125SOL    HW129837   2.399   2.491   2.397 -0.9745  0.0581 -0.1667
 6125SOL    HW229838   2.395   2.399   2.284  3.4258 -0.5364 -1.2727
 6126SOL     OW29839   1.876   3.606   5.798  0.5845 -0.5803 -0.1640
 6126SOL    HW129840   1.783   3.597   5.777  1.0359 -1.0382 -1.9268
 6126SOL    HW229841   1.905   3.538   5.737 -0.4148 -1.4982  0.3714
 6127SOL     OW29842   0.573   3.548   5.241 -0.0752  0.5583 -0.4629
 6127SOL    HW129843   0.607   3.559   5.152  0.5240 -1.4837 -0.4815
 6127SOL    HW229844   0.544   3.637   5.262  0.9648  0.0935  3.0334
 6128SOL     OW29845   4.013   3.138   0.216  0.4517  0.0947 -0.1433
 6128SOL    HW129846   4.047   3.064   0.166 -1.6788  1.3995 -3.4832
 6128SOL    HW229847   3.922   3.135   0.187 -0.2669 -2.4072  2.3360
 6129SOL     OW29848   4.263   2.248   6.371  0.0157  0.0272 -0.0843
 6129SOL    HW129849   4.350   2.281   6.391 -1.5058  2.4447  2.5435
 6129SOL    HW229850   4.280   2.156   6.350  2.1192  0.0195  1.6126
 6130SOL     OW29851   2.839   2.358   2.059 -0.1676  0.6765  0.6764
 6130SOL    HW129852   2.878   2.429   2.008 -2.9344  0.6121 -1.5562
 6130SOL    HW229853   2.869   2.285   2.005 -0.9376 -0.3476  1.6191
 6131SOL     OW29854   2.910   3.573   2.935 -0.4172  0.2810  0.2173
 6131SOL    HW129855   2.922   3.517   3.011  1.9238  0.4934  0.0175
 6131SOL    HW229856   2.993   3.622   2.936 -0.9651  1.1509  2.6068
 6132SOL     OW29857   0.106   4.379  11.151 -0.2790 -0.1942 -0.1662
 6132SOL    HW129858   0.094   4.461  11.200  3.0015 -0.0206  0.3544
 6132SOL    HW229859   0.047   4.329  11.206 -2.4533  0.8649 -1.5034
 6133SOL     OW29860   1.208   3.437   0.733 -0.0053  0.5387  0.3381
 6133SOL    HW129861   1.139   3.475   0.787 -1.0259 -0.5454 -0.1995
 6133SOL    HW229862   1.270   3.509   0.723 -0.8841  1.2532  0.0613
 6134SOL     OW29863   1.557   0.670   2.517 -0.2702 -0.0117 -0.2519
 6134SOL    HW129864   1.651   0.690   2.526 -0.8450  2.1934  1.1116
 6134SOL    HW229865   1.535   0.752   2.562  0.6435 -0.1658  0.4855
 6135SOL     OW29866   3.067   1.773   5.442  0.1663  0.2706 -0.3700
 6135SOL    HW129867   2.997   1.792   5.504  1.2759 -0.5818  1.1506
 6135SOL    HW229868   3.136   1.829   5.477 -0.4695  0.9950 -0.3038
 6136SOL     OW29869   0.805   2.758   7.778 -0.0119 -0.5293 -0.4863
 6136SOL    HW129870   0.849   2.819   7.837  3.2430 -2.4334 -0.9493
 6136SOL    HW229871   0.714   2.788   7.789 -0.1423 -0.7189 -1.0564
 6137SOL     OW29872   1.422   1.413   6.152  0.2311  0.3129  0.3213
 6137SOL    HW129873   1.435   1.364   6.233  1.7682 -0.7033 -0.5338
 6137SOL    HW229874   1.498   1.470   6.151 -0.1580  0.7834 -1.8936
 6138SOL     OW29875   3.596   3.619   1.605 -0.1668  0.2289  0.0756
 6138SOL    HW129876   3.670   3.669   1.639 -0.1817  0.2019  0.1477
 6138SOL    HW229877   3.520   3.667   1.637 -1.7785 -1.2228 -1.5772
 6139SOL     OW29878   1.293   4.477   4.244  0.4938  0.7413  0.0998
 6139SOL    HW129879   1.344   4.532   4.184 -1.0050  0.6803 -1.1997
 6139SOL    HW229880   1.236   4.421   4.192 -0.6258  1.8205  0.1775
 6140SOL     OW29881   0.323   2.269  16.625 -0.2581  0.2729 -0.1598
 6140SOL    HW129882   0.339   2.271  16.719  0.5170 -2.3348 -0.2176
 6140SOL    HW229883   0.345   2.182  16.591  0.5155 -0.0592  1.1977
 6141SOL     OW29884   0.590   4.679   6.855  0.0952 -0.2373 -0.3199
 6141SOL    HW129885   0.532   4.609   6.885  1.1817 -0.6229  0.8708
 6141SOL    HW229886   0.662   4.653   6.913 -0.4756  1.3433  1.1215
 6142SOL     OW29887   1.520   3.551   4.730 -0.1547  0.1808 -0.0859
 6142SOL    HW129888   1.596   3.501   4.757 -1.1678  0.0350  2.5348
 6142SOL    HW229889   1.474   3.562   4.814  1.5348  0.2774  0.8148
 6143SOL     OW29890   1.909   4.179   3.586 -0.0291  0.1825 -0.6197
 6143SOL    HW129891   1.833   4.121   3.581 -1.2100  1.4932  2.2583
 6143SOL    HW229892   1.872   4.258   3.626  2.5210  0.0287  2.1173
 6144SOL     OW29893   3.275   1.748   9.369 -0.3278 -0.3551  0.6430
 6144SOL    HW129894   3.278   1.827   9.423 -1.5321 -1.8161  2.8522
 6144SOL    HW229895   3.290   1.677   9.431 -2.1416 -1.9042 -0.6681
 6145SOL     OW29896   1.042   2.895   0.302  0.2829  0.4167 -0.0789
 6145SOL    HW129897   1.072   2.804   0.300 -1.0423 -0.0211 -0.1043
 6145SOL    HW229898   1.119   2.946   0.278  0.6920  0.0274  0.3932
 6146SOL     OW29899   0.504   0.651   2.899 -0.0286 -0.1845  0.2102
 6146SOL    HW129900   0.550   0.579   2.941 -0.5052  0.0372  1.1181
 6146SOL    HW229901   0.558   0.676   2.824 -1.5126  0.0172 -0.8011
 6147SOL     OW29902   2.890   4.020   6.009 -0.3660  0.0403  0.2694
 6147SOL    HW129903   2.945   4.072   6.068 -1.1344 -0.2495  1.2399
 6147SOL    HW229904   2.953   3.970   5.957  0.0132 -0.1417  0.8964
 6148SOL     OW29905   1.941   1.112   6.662  0.1376  0.3138  0.0782
 6148SOL    HW129906   2.005   1.181   6.644 -0.9558  0.8671 -1.7416
 6148SOL    HW229907   1.927   1.088   6.571  2.4638 -0.6030 -0.0528
 6149SOL     OW29908   1.519   1.702   8.070  0.1443 -0.0093 -0.2111
 6149SOL    HW129909   1.578   1.637   8.109 -0.2736 -1.7691 -2.4877
 6149SOL    HW229910   1.583   1.760   8.028  1.7246 -0.9440  0.8909
 6150SOL     OW29911   0.430   1.526   4.693 -0.3092  0.0133 -0.3415
 6150SOL    HW129912   0.338   1.534   4.720 -0.4658 -1.0654 -0.5358
 6150SOL    HW229913   0.437   1.439   4.652  2.8222 -0.0207  0.2885
 6151SOL     OW29914   2.970   0.087   5.659  0.3551 -0.1102 -0.0275
 6151SOL    HW129915   3.005   4.726   5.671  0.7565  0.2449  1.4758
 6151SOL    HW229916   2.901   0.069   5.595  0.9394  0.0292 -0.6919
 6152SOL     OW29917   1.804   0.571  15.210  0.2684  0.0195  0.7467
 6152SOL    HW129918   1.731   0.517  15.180  0.9225  0.9898 -2.5185
 6152SOL    HW229919   1.866   0.502  15.185  0.7814  0.3253  1.1756
 6153SOL     OW29920   2.607   4.700   1.341 -0.4375 -0.0396  1.0997
 6153SOL    HW129921   2.573   0.021   1.265 -0.2711 -1.6345 -0.0095
 6153SOL    HW229922   2.530   4.654   1.373 -1.7122 -0.1598 -2.1518
 6154SOL     OW29923   3.349   1.645   5.340 -0.3000 -0.5112 -0.2026
 6154SOL    HW129924   3.259   1.642   5.308 -0.1264 -1.3593 -0.6051
 6154SOL    HW229925   3.344   1.704   5.415  1.8303 -0.0319 -0.4281
 6155SOL     OW29926   0.692   4.052  10.437 -0.2552  0.2672  0.4489
 6155SOL    HW129927   0.661   3.967  10.467  0.4923 -0.1348  0.1080
 6155SOL    HW229928   0.768   4.022  10.386 -0.1745 -1.0833  1.3496
 6156SOL     OW29929   0.285   2.096  13.678 -0.2008 -0.1337  0.9645
 6156SOL    HW129930   0.217   2.090  13.746 -1.3950  1.5895 -0.0651
 6156SOL    HW229931   0.228   2.127  13.608  0.8713 -0.5283 -0.0818
 6157SOL     OW29932   0.736   1.091   9.099  0.8407  0.1393 -0.7216
 6157SOL    HW129933   0.697   1.091   9.187 -1.6584  0.5722 -1.8349
 6157SOL    HW229934   0.695   1.171   9.065 -0.0642 -0.7948 -1.8281
 6158SOL     OW29935   3.364   0.922  12.906  0.4324 -0.0645  0.2613
 6158SOL    HW129936   3.329   1.004  12.939  1.0016  0.9071 -1.5609
 6158SOL    HW229937   3.317   0.871  12.972 -0.8423  0.8061  0.0097
 6159SOL     OW29938   2.004   4.677  16.709  0.4214 -0.1719  0.0421
 6159SOL    HW129939   1.992   4.620  16.633 -2.0678  0.0711  0.2418
 6159SOL    HW229940   1.926   0.005  16.703  1.2745  1.1460  1.2049
 6160SOL     OW29941   2.471   4.344  11.976  0.1876 -0.1366  0.4968
 6160SOL    HW129942   2.530   4.315  12.045  0.5138 -3.8856 -1.3424
 6160SOL    HW229943   2.536   4.376  11.913 -0.5753  0.1530 -0.1463
 6161SOL     OW29944   1.827   1.273   2.555 -0.3746 -0.1866 -0.0024
 6161SOL    HW129945   1.748   1.315   2.521 -0.0888  2.4310  2.6131
 6161SOL    HW229946   1.799   1.226   2.633 -0.8593  1.0675  0.5899
 6162SOL     OW29947   2.735   1.645   3.485 -0.2091 -0.0385 -0.2346
 6162SOL    HW129948   2.724   1.599   3.567  0.4757  0.3586  0.0842
 6162SOL    HW229949   2.783   1.586   3.426 -0.5272 -2.3920  1.8821
 6163SOL     OW29950   1.667   4.639   1.228  0.3483  0.0854  0.2614
 6163SOL    HW129951   1.686   4.703   1.296  0.5475 -1.9448  2.1124
 6163SOL    HW229952   1.718   4.563   1.256  1.3414  0.3453 -0.8295
 6164SOL     OW29953   4.601   1.604   5.335 -0.3587  0.9558 -0.3184
 6164SOL    HW129954   4.590   1.689   5.292 -2.2384  0.8364 -0.0966
 6164SOL    HW229955   4.613   1.539   5.266 -2.2025 -1.0612  1.2796
 6165SOL     OW29956   3.668   0.596   4.642  0.5136 -0.0820  1.1597
 6165SOL    HW129957   3.721   0.518   4.655  0.1761 -0.8100 -1.8370
 6165SOL    HW229958   3.577   0.565   4.643  0.6308 -0.4933 -0.2217
 6166SOL     OW29959   3.304   0.602   7.789  0.4341  0.0598  0.2747
 6166SOL    HW129960   3.244   0.663   7.746  0.6404 -0.8018 -1.2438
 6166SOL    HW229961   3.290   0.519   7.744 -1.0924  1.3646 -1.6869
 6167SOL     OW29962   2.125   1.404   9.561 -0.0385 -0.3335  0.6156
 6167SOL    HW129963   2.173   1.396   9.643  1.5075  0.9902 -0.1678
 6167SOL    HW229964   2.136   1.313   9.531  1.2896 -0.4930  1.5965
 6168SOL     OW29965   2.143   4.307  14.022  0.0275  0.3874 -0.2460
 6168SOL    HW129966   2.124   4.302  13.929 -0.4901  0.0274 -0.1195
 6168SOL    HW229967   2.067   4.354  14.057 -0.1532  1.5654 -2.1798
 6169SOL     OW29968   1.156   1.527  16.483  0.2796 -0.1474 -0.6294
 6169SOL    HW129969   1.182   1.453  16.428  3.8874 -0.1963  1.1963
 6169SOL    HW229970   1.232   1.529  16.541  0.1131 -2.8447 -0.3506
 6170SOL     OW29971   0.166   2.283   8.802  0.1838  0.0184  0.7876
 6170SOL    HW129972   0.245   2.232   8.786 -0.4813  0.1359 -2.8771
 6170SOL    HW229973   0.190   2.367   8.840 -1.1123  0.3832  0.8221
 6171SOL     OW29974   2.088   2.903   9.445  0.5294  0.3133 -0.8192
 6171SOL    HW129975   2.101   2.990   9.482 -2.8145  0.9031 -1.0117
 6171SOL    HW229976   2.117   2.911   9.354  0.6800 -0.3080 -0.8289
 6172SOL     OW29977   2.175   1.175   1.654 -0.0464 -0.2716  0.4384
 6172SOL    HW129978   2.203   1.158   1.564  3.4877  2.1119  1.0524
 6172SOL    HW229979   2.255   1.183   1.706 -1.6476  2.5440  2.4845
 6173SOL     OW29980   4.367   3.957   3.589  0.0044  0.3205 -0.0628
 6173SOL    HW129981   4.313   4.027   3.552 -1.0869 -0.1920  0.5611
 6173SOL    HW229982   4.374   3.887   3.524 -3.1067 -0.6289  0.6441
 6174SOL     OW29983   1.252   4.206  14.313 -0.1501 -0.0981  0.0583
 6174SOL    HW129984   1.332   4.246  14.276  0.4929 -1.5416 -0.1068
 6174SOL    HW229985   1.186   4.271  14.291 -2.0777 -1.8235  0.7894
 6175SOL     OW29986   0.108   3.203   2.093 -0.1822 -0.1292  0.1888
 6175SOL    HW129987   0.089   3.296   2.108  1.1012 -0.1857  2.2336
 6175SOL    HW229988   0.201   3.194   2.075  0.0674  0.8155  0.9852
 6176SOL     OW29989   1.062   2.199   4.183  0.2841 -0.1011  0.0117
 6176SOL    HW129990   1.149   2.222   4.150 -0.3516  1.3836 -0.6153
 6176SOL    HW229991   1.072   2.222   4.275  0.8707  0.0888 -0.0948
 6177SOL     OW29992   1.552   1.462   9.089  0.3297  0.1009  0.4947
 6177SOL    HW129993   1.536   1.473   8.995 -1.3401 -1.5051  0.5944
 6177SOL    HW229994   1.584   1.373   9.100 -0.3854 -0.0472  1.3876
 6178SOL     OW29995   3.688   4.303   7.207 -0.6242 -0.0408  0.2898
 6178SOL    HW129996   3.681   4.393   7.176 -1.9020 -0.8475 -1.7646
 6178SOL    HW229997   3.745   4.314   7.284  0.4424 -1.2950 -0.3236
 6179SOL     OW29998   1.557   2.306   4.223 -0.5218  0.4934  0.1813
 6179SOL    HW129999   1.559   2.379   4.285  0.5314  2.0871 -1.7008
 6179SOL    HW230000   1.545   2.345   4.137  0.3896 -1.6190 -0.9031
 6180SOL     OW30001   4.328   3.852  13.432 -0.5427  0.3428 -0.1954
 6180SOL    HW130002   4.324   3.757  13.428  0.1438  0.3177 -0.3382
 6180SOL    HW230003   4.354   3.879  13.343 -0.2537  1.1920  0.1473
 6181SOL     OW30004   1.787   1.488   6.795 -0.6900  0.0192  0.3012
 6181SOL    HW130005   1.746   1.511   6.878 -0.2686  5.0438 -0.8965
 6181SOL    HW230006   1.875   1.523   6.811 -0.4732 -0.1248 -0.5708
 6182SOL     OW30007   0.803   1.346   8.640  0.1954  0.4382 -0.0138
 6182SOL    HW130008   0.868   1.285   8.676 -1.9439 -0.5989  2.0894
 6182SOL    HW230009   0.731   1.352   8.703  1.5819  1.7219  1.4791
 6183SOL     OW30010   3.567   1.653  16.472  0.5107  0.3899  0.4715
 6183SOL    HW130011   3.648   1.677  16.515  1.6350 -3.0271  0.2999
 6183SOL    HW230012   3.512   1.731  16.479 -0.1760 -0.1136  0.6780
 6184SOL     OW30013   4.425   4.431  13.810  0.5294 -0.0120  0.4511
 6184SOL    HW130014   4.503   4.456  13.761  0.4260  0.5353  0.5665
 6184SOL    HW230015   4.378   4.515  13.806  0.7230 -0.0151 -1.8478
 6185SOL     OW30016   2.430   3.723   7.943  0.5815 -0.6938  0.0171
 6185SOL    HW130017   2.384   3.804   7.962  1.3572 -0.4230  0.7300
 6185SOL    HW230018   2.400   3.664   8.013 -0.0039  0.8061  1.0211
 6186SOL     OW30019   0.201   3.887  11.114 -0.0426  0.0556  0.2821
 6186SOL    HW130020   0.133   3.902  11.180  0.0905 -0.2121  0.4821
 6186SOL    HW230021   0.164   3.934  11.039 -1.4467 -1.4498  0.0374
 6187SOL     OW30022   0.675   4.291  12.868  0.1955 -0.8253 -0.1453
 6187SOL    HW130023   0.716   4.250  12.792 -0.2604  0.1424 -0.9138
 6187SOL    HW230024   0.750   4.347  12.888 -2.0045  1.4157  1.7653
 6188SOL     OW30025   0.386   2.501  12.594  0.4521  0.2580  0.5794
 6188SOL    HW130026   0.374   2.581  12.646  0.4338 -0.1138  1.1512
 6188SOL    HW230027   0.402   2.440  12.667  0.0913  0.1815  0.5959
 6189SOL     OW30028   1.396   1.902   2.525  0.6947  0.1576  0.5692
 6189SOL    HW130029   1.341   1.972   2.561 -1.6139 -1.6138  0.4783
 6189SOL    HW230030   1.350   1.897   2.441  0.1122  0.5380  0.8610
 6190SOL     OW30031   2.901   4.403   6.272 -0.5782  0.3142 -0.7508
 6190SOL    HW130032   2.935   4.353   6.198  1.3070  0.7896 -0.1966
 6190SOL    HW230033   2.968   4.390   6.339 -0.4036  0.0974 -0.9679
 6191SOL     OW30034   4.672   0.259   4.613  0.4041 -0.2020 -0.2289
 6191SOL    HW130035   0.036   0.283   4.601  0.0713  0.4868 -1.3897
 6191SOL    HW230036   4.675   0.169   4.647 -0.1369  0.1475  0.7527
 6192SOL     OW30037   1.209   3.052   6.383 -0.8597  0.5756 -0.0008
 6192SOL    HW130038   1.273   3.116   6.353  1.3620 -1.3142  0.6678
 6192SOL    HW230039   1.221   3.064   6.477 -1.6926  1.2709  0.0204
 6193SOL     OW30040   4.686   2.835   2.619  0.5035 -0.1125  0.6636
 6193SOL    HW130041   4.659   2.908   2.564 -0.6532  0.4550  1.9741
 6193SOL    HW230042   0.004   2.792   2.547  1.3128 -0.1558  1.2034
 6194SOL     OW30043   1.332   4.505   6.546 -0.5429 -0.1238 -0.2659
 6194SOL    HW130044   1.301   4.426   6.591 -0.8628  0.5562  0.7054
 6194SOL    HW230045   1.395   4.482   6.478 -0.7971  1.0216 -0.8870
 6195SOL     OW30046   3.873   1.085   9.058 -0.6202  0.8672 -0.0450
 6195SOL    HW130047   3.820   1.161   9.037 -2.0775 -1.1242 -3.5491
 6195SOL    HW230048   3.849   1.062   9.148  0.2377  0.1381 -0.0077
 6196SOL     OW30049   3.770   3.672   5.415  0.1345 -0.3462  0.0816
 6196SOL    HW130050   3.751   3.765   5.410  2.7542  0.0891 -1.6452
 6196SOL    HW230051   3.823   3.666   5.494  2.2853  2.4421 -1.1596
 6197SOL     OW30052   2.725   2.958   5.594  0.0973  0.1187 -1.0132
 6197SOL    HW130053   2.767   2.914   5.520  0.3147 -1.1346 -0.1435
 6197SOL    HW230054   2.634   2.960   5.566  0.0850  1.7090 -0.8646
 6198SOL     OW30055   1.717   2.213   8.646 -0.2687 -0.0585 -0.2280
 6198SOL    HW130056   1.682   2.284   8.592 -0.9771 -0.0103  0.3066
 6198SOL    HW230057   1.653   2.147   8.621  0.1354 -0.5014 -0.0969
 6199SOL     OW30058   2.581   1.259   2.064 -0.3827 -0.4323  0.1327
 6199SOL    HW130059   2.630   1.193   2.014  1.4337  1.7128 -0.8792
 6199SOL    HW230060   2.637   1.336   2.064 -0.0291 -0.6880 -0.5785
 6200SOL     OW30061   0.405   4.243   8.653 -0.0455 -0.0571  0.1645
 6200SOL    HW130062   0.488   4.249   8.701  1.2465  2.8986 -2.4341
 6200SOL    HW230063   0.387   4.149   8.658 -0.5401  0.1519  2.3094
 6201SOL     OW30064   0.109   0.090   7.121  0.1612 -0.2769 -0.4956
 6201SOL    HW130065   0.191   0.138   7.129  0.2905 -0.7155  0.6929
 6201SOL    HW230066   0.044   0.157   7.143 -0.4715  0.0445 -3.2177
 6202SOL     OW30067   4.431   0.803   1.820 -0.1293 -0.6481 -0.6350
 6202SOL    HW130068   4.377   0.868   1.866  0.5913 -1.5509  1.4836
 6202SOL    HW230069   4.493   0.868   1.787 -0.2626  0.1434  0.6557
 6203SOL     OW30070   4.329   2.943  15.589 -0.1430  0.3502 -0.2312
 6203SOL    HW130071   4.354   3.027  15.626  0.0153 -0.4639  1.5346
 6203SOL    HW230072   4.269   2.977  15.522 -2.7936 -1.2520  1.3215
 6204SOL     OW30073   1.462   0.910   5.966  0.3113  0.3656  0.6355
 6204SOL    HW130074   1.437   0.980   5.905  0.1840  1.4552  1.9284
 6204SOL    HW230075   1.418   0.936   6.046  2.3548  1.9576  1.2379
 6205SOL     OW30076   1.650   1.466   5.918 -0.0929 -0.2295  0.1744
 6205SOL    HW130077   1.566   1.513   5.919  0.0371 -0.0164  0.7630
 6205SOL    HW230078   1.693   1.512   5.846 -1.4111 -0.0517 -0.5099
 6206SOL     OW30079   2.225   0.710   8.359 -0.0982  0.4763 -0.4589
 6206SOL    HW130080   2.139   0.668   8.350 -0.8999  2.1735 -0.8357
 6206SOL    HW230081   2.272   0.631   8.385 -2.6984 -1.0198 -0.2917
 6207SOL     OW30082   2.012   4.551   3.151  0.3320 -0.7551  0.3980
 6207SOL    HW130083   1.969   4.468   3.171 -1.2220  0.4139  1.8536
 6207SOL    HW230084   2.034   4.550   3.058  0.2964 -0.9976  0.3935
 6208SOL     OW30085   0.068   1.727  13.842  0.1178  0.1631  0.1241
 6208SOL    HW130086   0.088   1.742  13.750 -0.0524  1.4722  0.3003
 6208SOL    HW230087   0.081   1.633  13.853 -5.3301 -0.4566  1.5966
 6209SOL     OW30088   2.019   2.375   6.240 -0.0480  0.1618  1.1235
 6209SOL    HW130089   1.986   2.442   6.299 -2.5550 -1.4040  1.4938
 6209SOL    HW230090   1.954   2.307   6.257  0.3092 -0.7536 -1.1791
 6210SOL     OW30091   2.580   2.286   6.225  0.3255 -0.1819  0.1642
 6210SOL    HW130092   2.656   2.287   6.283  0.2702  0.0484  0.2340
 6210SOL    HW230093   2.560   2.378   6.239 -0.8564 -0.6527  1.5884
 6211SOL     OW30094   1.889   2.911   7.730 -0.0779  0.0386 -0.4134
 6211SOL    HW130095   1.877   2.992   7.681 -1.3586  0.7169  1.0316
 6211SOL    HW230096   1.856   2.948   7.812 -1.5047 -0.5971 -0.6984
 6212SOL     OW30097   2.950   1.589   7.598  0.8789  0.0171 -0.1616
 6212SOL    HW130098   3.019   1.522   7.598  0.3870 -0.4961 -0.5097
 6212SOL    HW230099   2.972   1.628   7.513  0.2472  0.7731  0.0326
 6213SOL     OW30100   2.780   1.776   9.760  0.0870 -0.2567  0.1658
 6213SOL    HW130101   2.753   1.697   9.712  1.5185  1.7751 -4.0055
 6213SOL    HW230102   2.870   1.789   9.729  0.3274  0.6981  1.2689
 6214SOL     OW30103   0.592   2.548   3.260  0.0573  0.2946  0.2827
 6214SOL    HW130104   0.511   2.514   3.299  0.3516 -0.6210  0.0970
 6214SOL    HW230105   0.563   2.560   3.170 -1.1935 -0.5497  0.5753
 6215SOL     OW30106   1.647   0.809   2.226  0.1676 -0.5999 -0.8270
 6215SOL    HW130107   1.683   0.879   2.172  2.3718 -1.0357  0.0463
 6215SOL    HW230108   1.676   0.841   2.311  1.7811 -2.7336 -0.5755
 6216SOL     OW30109   3.400   3.844   5.679 -0.8183  0.3306  0.7638
 6216SOL    HW130110   3.355   3.824   5.597 -0.0922  0.5916  0.3019
 6216SOL    HW230111   3.412   3.758   5.718 -0.3437 -0.7045 -1.7155
 6217SOL     OW30112   0.150   3.880   4.000  0.2423  0.6671 -0.8663
 6217SOL    HW130113   0.153   3.786   4.018  1.5437  0.5978 -1.4509
 6217SOL    HW230114   0.101   3.897   4.081  0.3399 -2.6879 -0.0863
 6218SOL     OW30115   1.739   3.212   1.777  0.0695 -0.2262 -0.1764
 6218SOL    HW130116   1.688   3.292   1.794  0.5593  0.4291 -1.7798
 6218SOL    HW230117   1.807   3.230   1.843 -0.6389 -0.5369  0.6435
 6219SOL     OW30118   2.219   3.734   5.914  0.0279 -0.2514  0.3852
 6219SOL    HW130119   2.134   3.762   5.946  0.0679  0.1420  0.1461
 6219SOL    HW230120   2.219   3.643   5.946 -1.7244  0.0672  1.2618
 6220SOL     OW30121   3.994   4.323   7.206  0.0430  0.5697  0.2944
 6220SOL    HW130122   3.961   4.284   7.287 -0.2627 -0.2314 -0.2223
 6220SOL    HW230123   3.922   4.306   7.145  0.1831  1.4394 -0.1111
 6221SOL     OW30124   0.766   4.246  14.570  0.0760 -0.4108  0.0765
 6221SOL    HW130125   0.744   4.162  14.531 -2.1508  0.0654  0.2857
 6221SOL    HW230126   0.699   4.308  14.540  1.1627  1.6752  1.9297
 6222SOL     OW30127   0.041   3.087   5.729  0.5448  1.0124 -0.2065
 6222SOL    HW130128   0.133   3.115   5.728  0.1878  2.2015 -0.2702
 6222SOL    HW230129   4.726   3.172   5.734  1.6911  1.4282  2.4644
 6223SOL     OW30130   0.279   2.318   3.595 -0.7185  0.2532 -0.5175
 6223SOL    HW130131   0.230   2.279   3.523 -0.4768 -0.2826 -0.3917
 6223SOL    HW230132   0.354   2.261   3.613 -1.2838 -0.2770  0.1413
 6224SOL     OW30133   1.992   1.907   6.291 -0.3042 -0.1504 -0.1844
 6224SOL    HW130134   2.022   1.986   6.246 -4.7182  1.4898 -0.1962
 6224SOL    HW230135   1.909   1.904   6.245 -0.9259  0.4098  0.8797
 6225SOL     OW30136   3.059   2.456   8.885 -0.0939  0.3501  0.1974
 6225SOL    HW130137   3.004   2.430   8.959 -1.0638  1.1681 -0.2300
 6225SOL    HW230138   3.087   2.541   8.921  0.8075  0.2279 -0.2144
 6226SOL     OW30139   2.369   3.971   5.934 -0.3395  0.4865 -0.1475
 6226SOL    HW130140   2.322   3.887   5.932 -1.7034  1.2565  0.2953
 6226SOL    HW230141   2.435   3.968   5.864  1.3666 -0.6360  1.5280
 6227SOL     OW30142   1.358   1.804   9.181 -0.2228 -0.5605  0.6423
 6227SOL    HW130143   1.297   1.878   9.186 -0.1881 -0.5206  0.4658
 6227SOL    HW230144   1.297   1.734   9.158 -1.4516  1.0523 -0.9361
 6228SOL     OW30145   0.480   1.810   7.341 -0.2103 -0.0849  0.4052
 6228SOL    HW130146   0.545   1.842   7.278 -0.4794  0.5340  0.4420
 6228SOL    HW230147   0.534   1.754   7.397 -0.6012 -0.3306  0.5327
 6229SOL     OW30148   3.170   0.620   4.052 -0.3506  0.2518 -0.3612
 6229SOL    HW130149   3.241   0.682   4.038 -1.7707  2.1457  0.7369
 6229SOL    HW230150   3.099   0.681   4.071  0.3754  0.3756  2.0168
 6230SOL     OW30151   2.286   0.603  11.870  0.6684  0.0210  0.0856
 6230SOL    HW130152   2.292   0.514  11.837 -0.9238 -0.8668  2.1624
 6230SOL    HW230153   2.345   0.653  11.814 -1.0231 -2.0478 -3.4917
 6231SOL     OW30154   4.047   4.013   8.336  0.5759 -0.2211 -0.0471
 6231SOL    HW130155   3.983   4.063   8.286  1.1327  0.6617  0.1315
 6231SOL    HW230156   4.033   4.043   8.426 -2.1091  0.6049 -0.7409
 6232SOL     OW30157   3.033   1.701   0.039  0.3967 -0.3622  0.1258
 6232SOL    HW130158   2.972   1.765   0.074  1.0709 -1.4517  3.2534
 6232SOL    HW230159   3.065   1.653   0.115  0.9470  0.1213  0.1955
 6233SOL     OW30160   0.389   3.624  10.468  0.0942 -0.1908 -0.5359
 6233SOL    HW130161   0.372   3.619  10.562  1.2209 -0.1031 -0.3347
 6233SOL    HW230162   0.365   3.539  10.430 -0.3229  0.7281 -2.3186
 6234SOL     OW30163   3.871   0.309   4.422 -0.5171  0.4853 -0.0445
 6234SOL    HW130164   3.787   0.273   4.450 -1.4209  1.2563 -1.7395
 6234SOL    HW230165   3.836   0.374   4.360 -2.2485 -1.5940 -1.2518
 6235SOL     OW30166   3.722   2.928   4.833 -0.6589 -0.2961  0.6402
 6235SOL    HW130167   3.727   2.864   4.762  0.1572  0.1079  0.3417
 6235SOL    HW230168   3.716   2.867   4.907  0.1093 -1.2260 -0.0696
 6236SOL     OW30169   1.586   1.361   4.834  0.8673 -0.0180  0.0459
 6236SOL    HW130170   1.494   1.380   4.851  0.2905 -1.1079 -1.9133
 6236SOL    HW230171   1.607   1.445   4.793  0.1503  0.1423  0.0180
 6237SOL     OW30172   2.570   3.756   5.255 -0.0691 -0.0141  0.0093
 6237SOL    HW130173   2.516   3.680   5.234  0.3295 -0.2579 -0.1408
 6237SOL    HW230174   2.544   3.770   5.346  0.5382 -1.3654  0.4014
 6238SOL     OW30175   1.130   4.305   4.965  0.3034 -0.2870  0.3897
 6238SOL    HW130176   1.157   4.300   4.873  2.6939  0.9400  1.0116
 6238SOL    HW230177   1.086   4.389   4.967  3.1043  1.1478  1.2614
 6239SOL     OW30178   0.481   0.043   6.356  0.1545 -0.0641 -0.4625
 6239SOL    HW130179   0.442   0.057   6.443  1.2944 -0.3645  0.1044
 6239SOL    HW230180   0.520   0.128   6.338  1.5956 -0.5970  0.1342
 6240SOL     OW30181   4.644   0.480   1.709 -0.3813 -0.6193 -0.0382
 6240SOL    HW130182   4.675   0.560   1.667 -1.4474 -1.2226 -2.0008
 6240SOL    HW230183   4.550   0.485   1.696 -0.0603 -1.7759 -2.9254
 6241SOL     OW30184   0.069   1.148   0.445  0.1151 -0.0796  0.0953
 6241SOL    HW130185   4.720   1.125   0.498 -1.0806  0.3048 -1.4662
 6241SOL    HW230186   0.137   1.102   0.494  0.3445  1.3292  1.0846
 6242SOL     OW30187   2.504   3.317   5.976  0.0438  0.0398 -0.3050
 6242SOL    HW130188   2.517   3.308   5.882  0.3822 -0.3522 -0.2186
 6242SOL    HW230189   2.409   3.308   5.982  0.1951 -1.2343  0.1466
 6243SOL     OW30190   2.073   2.938   3.426  0.1637  0.0708  0.3563
 6243SOL    HW130191   2.155   2.964   3.384 -0.2932 -2.8403 -2.2995
 6243SOL    HW230192   2.008   2.995   3.387  0.5024 -0.5758 -1.1604
 6244SOL     OW30193   4.502   2.098   8.887 -0.1451 -0.4427 -0.6617
 6244SOL    HW130194   4.546   2.017   8.913  0.6664 -0.4962 -2.2218
 6244SOL    HW230195   4.434   2.053   8.837 -2.0247  2.2481 -0.5313
 6245SOL     OW30196   4.340   3.140  12.655 -0.2586  0.1443  0.4255
 6245SOL    HW130197   4.395   3.204  12.610 -0.1722 -0.8107 -0.8099
 6245SOL    HW230198   4.337   3.075  12.585 -0.3336 -0.0282  0.5860
 6246SOL     OW30199   1.130   1.089   4.882  0.1890  0.2862 -0.1036
 6246SOL    HW130200   1.045   1.097   4.838  1.2772 -1.3539 -2.5366
 6246SOL    HW230201   1.103   1.103   4.972  1.4528  0.3298  0.2669
 6247SOL     OW30202   1.237   2.998   4.789 -0.9360  0.0434  0.0678
 6247SOL    HW130203   1.281   3.079   4.762 -1.8946  0.1808 -1.0533
 6247SOL    HW230204   1.269   2.975   4.876  0.5688 -1.8255 -0.9720
 6248SOL     OW30205   4.553   0.816   6.669 -0.3387  0.2286  1.0033
 6248SOL    HW130206   4.537   0.722   6.665 -1.9425  0.5903 -1.1670
 6248SOL    HW230207   4.640   0.819   6.629 -0.0673 -0.9570  1.5038
 6249SOL     OW30208   2.539   1.965   0.282 -0.1022 -0.0894  0.3894
 6249SOL    HW130209   2.465   2.025   0.277  0.0494  0.0171 -0.5366
 6249SOL    HW230210   2.613   2.025   0.273  1.0928 -1.3218  2.0645
 6250SOL     OW30211   0.492   4.248   5.181 -0.1380 -1.1004  0.0010
 6250SOL    HW130212   0.424   4.315   5.178 -0.4593 -1.3963  0.5698
 6250SOL    HW230213   0.533   4.257   5.267 -1.1134 -1.0940  0.4644
 6251SOL     OW30214   1.407   3.292   2.687  0.5069 -0.1512  0.4580
 6251SOL    HW130215   1.377   3.353   2.754 -2.5695 -0.4707 -0.6291
 6251SOL    HW230216   1.453   3.228   2.741  0.0441  0.2390  1.3078
 6252SOL     OW30217   3.540   4.109   6.118 -0.2254  0.5081 -0.2092
 6252SOL    HW130218   3.473   4.052   6.155 -0.6662  1.4533  0.4374
 6252SOL    HW230219   3.603   4.096   6.189 -0.8954  1.2238  0.5089
 6253SOL     OW30220   0.939   0.432   7.723 -0.1990 -0.1651 -0.2122
 6253SOL    HW130221   0.894   0.514   7.743 -0.5179 -0.5379  0.6243
 6253SOL    HW230222   0.990   0.454   7.645  2.0700 -0.0711  1.2953
 6254SOL     OW30223   3.289   3.719   6.028  0.2149 -0.2644  0.3255
 6254SOL    HW130224   3.336   3.679   5.955  1.7341 -0.5639  1.4879
 6254SOL    HW230225   3.199   3.690   6.013  0.1245  0.0664  0.2246
 6255SOL     OW30226   0.074   3.123   7.811  0.3527 -0.3234 -0.1154
 6255SOL    HW130227   0.131   3.047   7.824  0.9149 -0.2941 -2.3519
 6255SOL    HW230228   0.076   3.127   7.715  0.1902 -2.9042 -0.2290
 6256SOL     OW30229   4.367   0.632   6.267 -0.2293  0.0787 -0.4454
 6256SOL    HW130230   4.334   0.609   6.354 -0.4313  2.8677  0.2358
 6256SOL    HW230231   4.293   0.606   6.213 -0.7861 -0.1691  0.4527
 6257SOL     OW30232   2.059   4.540   2.175  0.1623 -0.1033 -0.7877
 6257SOL    HW130233   2.045   4.460   2.125  0.5915 -0.9797  0.4899
 6257SOL    HW230234   2.129   4.517   2.236 -0.8378 -1.2110 -0.0539
 6258SOL     OW30235   1.909   1.301  16.744  0.3271 -0.3879 -0.3049
 6258SOL    HW130236   1.901   1.215  16.783 -1.4518  0.7064  1.7157
 6258SOL    HW230237   1.915   1.355  16.822  0.6478 -0.3103 -0.3844
 6259SOL     OW30238   3.707   3.293   7.667  0.2043 -0.1082 -0.9342
 6259SOL    HW130239   3.770   3.225   7.692  0.3627 -0.2227 -1.6517
 6259SOL    HW230240   3.709   3.282   7.572  0.1011 -1.5448 -0.7683
 6260SOL     OW30241   2.539   4.198  15.968 -0.0081  0.3996  0.1916
 6260SOL    HW130242   2.563   4.273  15.914  0.1446  1.1164  1.2547
 6260SOL    HW230243   2.490   4.248  16.033 -0.5310 -0.0530  0.1448
 6261SOL     OW30244   1.892   4.500  16.233 -0.1667 -0.9127  0.7260
 6261SOL    HW130245   1.936   4.522  16.315  2.3259  1.0194 -1.1293
 6261SOL    HW230246   1.877   4.587  16.197 -1.0892 -1.4522 -0.2173
 6262SOL     OW30247   1.753   0.271  10.270  0.7878 -0.2042 -0.0831
 6262SOL    HW130248   1.795   0.356  10.287  3.0614 -1.3878  0.2863
 6262SOL    HW230249   1.746   0.226  10.354 -0.3672  0.9830  0.4595
 6263SOL     OW30250   3.110   4.481   5.031 -0.3217  0.7630 -0.1614
 6263SOL    HW130251   3.100   4.572   5.060  0.1571  0.9476 -0.5793
 6263SOL    HW230252   3.187   4.498   4.977  0.0103  0.7983  0.3148
 6264SOL     OW30253   3.260   4.425   8.211  0.0500  0.2800  0.1405
 6264SOL    HW130254   3.326   4.482   8.172 -1.5902  1.7153 -0.5437
 6264SOL    HW230255   3.177   4.473   8.208 -1.3041 -2.0907 -0.3545
 6265SOL     OW30256   0.945   2.674   6.389  0.3309  0.1578  0.1523
 6265SOL    HW130257   0.975   2.595   6.434 -1.6248 -0.5549  0.1860
 6265SOL    HW230258   0.942   2.733   6.464  2.1464 -0.0972  0.4268
 6266SOL     OW30259   2.041   2.059   0.196 -0.6079 -0.2689 -0.1484
 6266SOL    HW130260   1.951   2.048   0.165  0.3111 -2.4240 -2.1276
 6266SOL    HW230261   2.078   1.981   0.154  1.8929 -0.0923  1.6844
 6267SOL     OW30262   4.305   2.674   4.796  0.2046  0.1773 -0.1661
 6267SOL    HW130263   4.319   2.597   4.742  1.1490 -0.3926  0.8893
 6267SOL    HW230264   4.239   2.727   4.752 -0.5104 -0.0513  0.6224
 6268SOL     OW30265   2.704   3.010   7.438 -0.3284 -0.5801  0.5202
 6268SOL    HW130266   2.740   3.004   7.349  1.1899  0.9058  1.0420
 6268SOL    HW230267   2.723   3.099   7.467 -3.1925 -0.2314  1.3304
 6269SOL     OW30268   1.734   3.095   0.144 -0.5740 -0.1848  0.4488
 6269SOL    HW130269   1.825   3.124   0.142 -0.3808 -0.8538 -0.7177
 6269SOL    HW230270   1.698   3.169   0.193 -0.3553  1.9586 -2.6261
 6270SOL     OW30271   2.730   2.830   4.172 -0.4745  0.0812  0.1325
 6270SOL    HW130272   2.768   2.901   4.120  0.2660 -1.0317 -0.8395
 6270SOL    HW230273   2.799   2.764   4.173 -1.9725 -1.4066  3.3867
 6271SOL     OW30274   3.452   3.542   8.851  0.1630  0.5432  0.1793
 6271SOL    HW130275   3.400   3.604   8.902 -1.0356  2.4277 -3.3151
 6271SOL    HW230276   3.540   3.561   8.885  0.5236  0.2350 -0.5884
 6272SOL     OW30277   3.377   4.307   9.201 -0.1012  0.1997  0.1970
 6272SOL    HW130278   3.335   4.244   9.142  0.2574 -0.9743  1.1852
 6272SOL    HW230279   3.409   4.358   9.126  0.4104 -0.3865  0.0130
 6273SOL     OW30280   3.994   2.290   2.468  0.7787  0.2350  0.3233
 6273SOL    HW130281   3.917   2.329   2.425  0.5773 -0.2162  0.2689
 6273SOL    HW230282   3.968   2.199   2.485 -0.1737  0.2448 -1.0904
 6274SOL     OW30283   0.560   4.391   2.385 -0.0355 -0.2975  0.4985
 6274SOL    HW130284   0.581   4.484   2.393  1.0513 -0.5288  0.3344
 6274SOL    HW230285   0.474   4.407   2.347 -0.6512 -0.5653  1.7781
 6275SOL     OW30286   4.673   2.389   5.616 -0.3467 -0.1711  0.5890
 6275SOL    HW130287   4.695   2.308   5.570  2.4351  0.7740  0.2818
 6275SOL    HW230288   4.627   2.434   5.545  0.4092  3.8233  2.6132
 6276SOL     OW30289   2.166   0.301   1.970  0.6906 -0.5282  0.1833
 6276SOL    HW130290   2.111   0.379   1.980  0.5944 -0.3283 -1.8116
 6276SOL    HW230291   2.102   0.230   1.960 -0.3751  0.4191  0.2860
 6277SOL     OW30292   3.889   0.451   2.195  0.1164  0.0663  0.1700
 6277SOL    HW130293   3.839   0.384   2.241  0.1700  0.2786  0.5380
 6277SOL    HW230294   3.976   0.445   2.235  0.4776  0.8355 -0.4980
 6278SOL     OW30295   2.599   3.013   5.176  0.3176  0.4414 -0.0585
 6278SOL    HW130296   2.627   3.103   5.188 -0.8108  0.7461  0.3180
 6278SOL    HW230297   2.526   3.029   5.115 -0.3674  1.3397  1.0004
 6279SOL     OW30298   0.314   4.426   4.086 -0.6780 -0.3644 -0.6083
 6279SOL    HW130299   0.333   4.420   4.180  0.2989 -0.2273 -0.7991
 6279SOL    HW230300   0.219   4.412   4.084 -0.7827  0.7379 -2.8528
 6280SOL     OW30301   2.967   1.964   4.209 -0.5781 -0.3797  0.3267
 6280SOL    HW130302   3.007   2.051   4.202  1.1487 -1.3481 -1.9807
 6280SOL    HW230303   3.014   1.927   4.284 -0.7936  2.0970  1.6762
 6281SOL     OW30304   1.836   0.339   7.390 -0.6635 -0.5968 -0.2947
 6281SOL    HW130305   1.847   0.398   7.465 -0.5605 -0.6856 -0.2412
 6281SOL    HW230306   1.886   0.265   7.425 -0.7341 -0.2608  0.5253
 6282SOL     OW30307   1.245   1.064  14.469  0.3600  0.0463 -0.1381
 6282SOL    HW130308   1.310   0.996  14.454  0.8163  0.9315 -2.2577
 6282SOL    HW230309   1.165   1.012  14.464 -0.2517  0.8875  1.0312
 6283SOL     OW30310   1.924   2.033  10.531 -0.2052 -0.6245  0.0185
 6283SOL    HW130311   1.842   2.076  10.555 -0.5048 -1.9329  1.3603
 6283SOL    HW230312   1.978   2.110  10.515 -3.2243  1.0584 -2.0855
 6284SOL     OW30313   1.756   0.842  10.217 -0.1785 -0.2174 -0.0651
 6284SOL    HW130314   1.748   0.807  10.306  0.9472  0.1177  0.1612
 6284SOL    HW230315   1.673   0.804  10.188 -0.8660 -0.6672  2.4692
 6285SOL     OW30316   3.619   3.078   6.845 -0.0184  0.5032 -0.2455
 6285SOL    HW130317   3.542   3.125   6.878 -2.0574 -1.7189 -1.8690
 6285SOL    HW230318   3.685   3.147   6.842  0.2539  0.2703  0.2677
 6286SOL     OW30319   3.172   3.599   8.220 -0.3489  0.2721 -0.3769
 6286SOL    HW130320   3.200   3.507   8.221  0.2863  0.4957  2.1697
 6286SOL    HW230321   3.080   3.581   8.200 -0.0767  0.4213 -1.7829
 6287SOL     OW30322   1.848   0.578  12.605 -0.0604  0.2037  0.4228
 6287SOL    HW130323   1.864   0.657  12.554  1.6999 -1.2990 -1.3795
 6287SOL    HW230324   1.903   0.579  12.683  0.2202  1.1079  0.2114
 6288SOL     OW30325   1.768   1.467  10.080  0.4606 -0.1144  0.4537
 6288SOL    HW130326   1.846   1.412  10.091  3.2115  3.4725 -1.1306
 6288SOL    HW230327   1.746   1.497  10.169  4.1083  2.2459  0.5542
 6289SOL     OW30328   3.707   1.763   6.427 -0.1262 -0.0537  0.4163
 6289SOL    HW130329   3.683   1.676   6.459 -1.5473  0.3431  0.4390
 6289SOL    HW230330   3.647   1.785   6.356  1.4594  1.0528 -0.5851
 6290SOL     OW30331   3.525   3.341   3.165 -0.2177 -0.1661  0.0108
 6290SOL    HW130332   3.534   3.256   3.209 -0.2741 -0.5927 -0.8110
 6290SOL    HW230333   3.517   3.315   3.074 -1.6069 -0.9278  0.3654
 6291SOL     OW30334   2.586   4.094   0.062  0.7700  0.2200  0.3535
 6291SOL    HW130335   2.605   4.070   0.153 -2.0456  1.5388  1.3086
 6291SOL    HW230336   2.667   4.139   0.041  1.5044 -1.6058 -0.6870
 6292SOL     OW30337   4.060   3.004  13.880  0.0405  0.5846  0.5173
 6292SOL    HW130338   4.014   2.952  13.815  2.3522 -1.6002  0.6243
 6292SOL    HW230339   4.017   2.972  13.960  0.9780  1.9505  1.5779
 6293SOL     OW30340   0.546   2.616   2.994  0.1719  0.1681 -0.0248
 6293SOL    HW130341   0.615   2.634   2.930 -0.9803 -0.9762 -1.6082
 6293SOL    HW230342   0.492   2.694   2.980  0.2182  0.5027  1.6977
 6294SOL     OW30343   2.033   1.283   3.853  0.6450 -0.5589 -0.2535
 6294SOL    HW130344   1.968   1.260   3.786 -0.5670 -0.9817  1.0886
 6294SOL    HW230345   1.979   1.334   3.913  2.0460 -1.4299  1.7423
 6295SOL     OW30346   1.175   1.210   5.476  0.1955  0.4916  0.1336
 6295SOL    HW130347   1.251   1.228   5.531  1.5380  0.4893 -1.7139
 6295SOL    HW230348   1.213   1.185   5.392 -0.5242 -2.2038  0.5782
 6296SOL     OW30349   2.007   4.391   5.955  0.7604  0.0472 -0.0080
 6296SOL    HW130350   1.946   4.403   6.028  1.2148  1.3716  0.1635
 6296SOL    HW230351   1.977   4.314   5.908 -0.0404  0.5541 -0.3416
 6297SOL     OW30352   2.687   2.194   0.200 -0.0457  0.2733 -0.1339
 6297SOL    HW130353   2.691   2.274   0.251 -2.9110  0.2446  0.1569
 6297SOL    HW230354   2.771   2.157   0.227 -0.3636 -0.2169  0.1801
 6298SOL     OW30355   4.521   1.854   3.281 -0.5214  0.0872 -0.1487
 6298SOL    HW130356   4.454   1.826   3.344 -0.6434  0.7775  0.0262
 6298SOL    HW230357   4.581   1.890   3.347 -1.3659  0.5236  0.3857
 6299SOL     OW30358   1.087   3.442  11.858  0.1877  0.1248  0.1909
 6299SOL    HW130359   1.148   3.491  11.803  0.2130  1.5135  1.4648
 6299SOL    HW230360   1.136   3.360  11.863 -0.1273 -0.0636  0.1178
 6300SOL     OW30361   0.508   4.342   5.454  0.3618  0.2307 -0.6871
 6300SOL    HW130362   0.489   4.431   5.425  1.0154 -0.3478 -2.8931
 6300SOL    HW230363   0.418   4.311   5.443 -1.1242  3.8433  1.3512
 6301SOL     OW30364   0.836   1.162  17.563  0.2758  0.3923 -0.3118
 6301SOL    HW130365   0.769   1.223  17.594  2.3159  1.8542  1.2239
 6301SOL    HW230366   0.900   1.191  17.628  1.9714  0.9496 -2.2314
 6302SOL     OW30367   3.652   1.265  14.737  0.3821  0.3323  0.0861
 6302SOL    HW130368   3.576   1.319  14.755 -0.4139 -0.6145 -0.4067
 6302SOL    HW230369   3.700   1.320  14.675 -2.7798  1.0468 -1.6937
 6303SOL     OW30370   2.186   4.261   4.078 -0.1847  0.1750  0.5013
 6303SOL    HW130371   2.213   4.174   4.047 -0.9275 -0.0780  0.5693
 6303SOL    HW230372   2.173   4.313   3.998 -0.1984 -0.2011  0.2602
 6304SOL     OW30373   2.916   1.970  13.181 -0.1078 -0.3753  0.4081
 6304SOL    HW130374   2.863   1.979  13.103  1.0986  1.2646 -0.2370
 6304SOL    HW230375   2.950   2.060  13.185 -0.6373 -0.2209  1.4713
 6305SOL     OW30376   1.379   3.205   9.770 -0.4329 -0.2886 -0.2115
 6305SOL    HW130377   1.316   3.143   9.807  0.4392  1.4761  4.2530
 6305SOL    HW230378   1.406   3.250   9.850 -2.0193 -3.9835  2.4047
 6306SOL     OW30379   0.858   2.127   8.345  0.2532  0.4580 -0.6858
 6306SOL    HW130380   0.835   2.211   8.305  0.9608  0.7529 -0.4747
 6306SOL    HW230381   0.851   2.073   8.266 -3.1927 -0.0044 -0.0597
 6307SOL     OW30382   3.821   0.238   1.908 -0.2630 -0.6049 -1.1458
 6307SOL    HW130383   3.911   0.266   1.896 -0.6711  1.3652  0.4451
 6307SOL    HW230384   3.829   0.170   1.976 -1.5179  0.1110 -0.2740
 6308SOL     OW30385   0.786   3.061   3.313  0.2433  0.0875 -0.5277
 6308SOL    HW130386   0.815   2.972   3.292 -0.4513 -0.2107 -0.1939
 6308SOL    HW230387   0.869   3.109   3.305  1.2034 -1.4528  0.0231
 6309SOL     OW30388   0.280   0.939  17.686  0.5473 -0.0712  0.4401
 6309SOL    HW130389   0.239   0.917   0.058 -0.2632  0.2074  0.1258
 6309SOL    HW230390   0.371   0.911  17.686  0.9313  1.1598 -0.5562
 6310SOL     OW30391   4.121   3.920   7.447 -0.4921 -0.8592  0.3186
 6310SOL    HW130392   4.071   3.925   7.365 -0.0646 -0.1273  0.1017
 6310SOL    HW230393   4.177   3.997   7.438 -1.7767 -0.2044 -2.1748
 6311SOL     OW30394   1.319   2.731   6.851 -0.5220 -0.2289 -0.8386
 6311SOL    HW130395   1.331   2.796   6.921 -2.3616 -0.2824 -0.4771
 6311SOL    HW230396   1.405   2.732   6.810  0.6913  2.5173  1.7768
 6312SOL     OW30397   3.814   4.286  11.213 -0.5175 -0.4599  0.7004
 6312SOL    HW130398   3.891   4.329  11.175 -1.1594 -0.7134 -0.8629
 6312SOL    HW230399   3.764   4.289  11.132  0.5013  0.5752  0.0963
 6313SOL     OW30400   2.153   2.530   7.840  0.3534 -0.0321  0.0789
 6313SOL    HW130401   2.243   2.521   7.807 -0.1087 -0.7487 -0.9839
 6313SOL    HW230402   2.137   2.442   7.876 -0.0683 -0.8970 -2.2111
 6314SOL     OW30403   2.256   2.096   1.820  0.1935 -0.4088  0.0865
 6314SOL    HW130404   2.184   2.108   1.882 -0.2204  1.3103 -0.7113
 6314SOL    HW230405   2.316   2.161   1.856 -0.7014 -0.7825  2.2373
 6315SOL     OW30406   4.070   3.977   4.339 -0.0307  0.4930  0.3050
 6315SOL    HW130407   4.002   3.910   4.348  2.0295 -1.4187  1.6441
 6315SOL    HW230408   4.134   3.940   4.278 -0.0993 -0.0595  0.5636
 6316SOL     OW30409   3.373   1.820   8.866  0.2357  0.1749  0.4866
 6316SOL    HW130410   3.378   1.791   8.957  1.2088 -0.0572  0.3578
 6316SOL    HW230411   3.365   1.914   8.878  0.0766  0.2148  0.0455
 6317SOL     OW30412   2.384   4.339  14.269 -0.5927 -0.0510  0.0517
 6317SOL    HW130413   2.392   4.422  14.222 -1.0446 -1.2229 -2.1458
 6317SOL    HW230414   2.448   4.289  14.219  0.9904 -0.0400  2.1064
 6318SOL     OW30415   4.112   2.917   4.353 -0.2926 -0.0155 -0.3185
 6318SOL    HW130416   4.060   2.897   4.431 -0.7128  2.2483 -0.0048
 6318SOL    HW230417   4.204   2.918   4.380  0.0359 -2.9163 -1.2734
 6319SOL     OW30418   1.656   4.184   8.767 -1.1077 -0.7774  0.1875
 6319SOL    HW130419   1.691   4.106   8.811  1.0644 -0.2896 -0.6915
 6319SOL    HW230420   1.654   4.240   8.844  0.2827 -1.6490  0.8451
 6320SOL     OW30421   2.554   2.688   5.055  0.0681  0.2894  0.3997
 6320SOL    HW130422   2.479   2.632   5.038 -0.1075  0.8133 -0.5641
 6320SOL    HW230423   2.522   2.727   5.137  1.2095 -0.6826  1.3015
 6321SOL     OW30424   2.505   2.882   7.589  0.2131 -0.1759 -0.4900
 6321SOL    HW130425   2.583   2.918   7.547  2.0836 -1.5781  1.7746
 6321SOL    HW230426   2.530   2.790   7.592 -0.0095 -0.1489  2.8402
 6322SOL     OW30427   2.572   3.065   0.748  0.3808 -0.5032 -0.2819
 6322SOL    HW130428   2.535   3.148   0.720  2.3959 -0.0803 -1.6884
 6322SOL    HW230429   2.663   3.092   0.757  0.6608 -0.9351 -1.8432
 6323SOL     OW30430   4.626   0.793   5.341  0.1393 -0.6441 -0.0163
 6323SOL    HW130431   4.531   0.791   5.332  0.1542  0.9952 -0.6414
 6323SOL    HW230432   4.652   0.738   5.414  0.9337  0.0775  0.2497
 6324SOL     OW30433   4.524   3.711   4.260  0.3819 -0.1566  0.1691
 6324SOL    HW130434   4.579   3.659   4.319 -0.4297 -2.5863 -1.2457
 6324SOL    HW230435   4.525   3.640   4.196  0.2394  0.8379 -0.9291
 6325SOL     OW30436   2.403   0.648   3.969 -0.3108  0.1699 -0.0358
 6325SOL    HW130437   2.334   0.583   3.982 -1.0119  0.9143 -0.0503
 6325SOL    HW230438   2.349   0.725   3.986 -0.6846 -0.0986 -0.0004
 6326SOL     OW30439   4.110   1.336   1.064  0.2805  0.2416  0.3481
 6326SOL    HW130440   4.140   1.327   1.154 -1.6115 -1.3723  0.8286
 6326SOL    HW230441   4.164   1.276   1.013 -0.8561  0.5784 -1.2511
 6327SOL     OW30442   4.612   1.869   4.188 -0.1260 -0.2003  0.1430
 6327SOL    HW130443   4.524   1.906   4.178  0.7851  1.9587  0.0451
 6327SOL    HW230444   4.650   1.927   4.121 -0.5604 -0.9548 -0.7581
 6328SOL     OW30445   3.324   0.501   3.396 -0.0550  0.5253 -0.1653
 6328SOL    HW130446   3.311   0.433   3.330 -1.3694  1.3202 -0.7187
 6328SOL    HW230447   3.318   0.580   3.342 -1.2496  1.0580  0.7581
 6329SOL     OW30448   1.987   4.455   6.929  0.0204  0.2484  0.2339
 6329SOL    HW130449   1.938   4.534   6.908  0.5514  0.7232  0.7697
 6329SOL    HW230450   2.046   4.459   6.853 -0.4031 -2.8258 -0.2499
 6330SOL     OW30451   2.223   2.343  15.244 -0.4067 -0.1404  0.2288
 6330SOL    HW130452   2.243   2.250  15.257  1.3438  0.1207 -0.6427
 6330SOL    HW230453   2.310   2.375  15.267 -0.6832  1.6264 -1.2373
 6331SOL     OW30454   1.758   0.903   8.956 -0.7862  0.3374 -0.2503
 6331SOL    HW130455   1.810   0.847   9.013 -0.9788  3.2198  2.7232
 6331SOL    HW230456   1.706   0.941   9.026 -1.4204 -1.3484  0.1958
 6332SOL     OW30457   2.367   0.184   6.224 -0.5667  0.3172 -0.2840
 6332SOL    HW130458   2.300   0.156   6.286 -1.2204  0.4600 -0.9268
 6332SOL    HW230459   2.437   0.187   6.289 -1.2423  0.7194  0.4124
 6333SOL     OW30460   0.340   4.504   2.283  0.5419  0.3852  0.0642
 6333SOL    HW130461   0.266   4.443   2.282 -0.4735  1.5855  1.8977
 6333SOL    HW230462   0.294   4.588   2.278  1.3800  0.8339 -0.1455
 6334SOL     OW30463   2.279   2.898  14.863 -0.3794 -0.3755 -0.1510
 6334SOL    HW130464   2.295   2.934  14.951  1.4480  0.8015 -0.9596
 6334SOL    HW230465   2.280   2.977  14.808 -3.2378 -2.1706 -2.7369
 6335SOL     OW30466   4.365   1.861  12.520  0.4961  0.4685  0.2049
 6335SOL    HW130467   4.388   1.809  12.597  2.2268  1.4301  0.3497
 6335SOL    HW230468   4.452   1.899  12.505  0.0397  1.8343  1.0647
 6336SOL     OW30469   1.346   4.290   7.415 -0.2165  0.0072 -0.0599
 6336SOL    HW130470   1.415   4.310   7.479  0.6035 -1.4597 -0.4771
 6336SOL    HW230471   1.394   4.269   7.335  0.9914 -0.3594  0.7585
 6337SOL     OW30472   1.360   0.628   5.390 -0.1005 -0.1255 -0.1328
 6337SOL    HW130473   1.286   0.688   5.397  0.2358  0.4538 -1.6000
 6337SOL    HW230474   1.328   0.574   5.318  0.5563 -1.3391  0.4823
 6338SOL     OW30475   0.819   1.273   4.572  0.7045 -0.1831 -0.4611
 6338SOL    HW130476   0.724   1.279   4.586  0.8079  1.8464 -0.6672
 6338SOL    HW230477   0.825   1.206   4.504  1.0601 -1.2891  0.6582
 6339SOL     OW30478   2.250   3.276   5.250  0.4765  0.2402  0.2091
 6339SOL    HW130479   2.286   3.201   5.202  1.4987  3.1096 -3.5389
 6339SOL    HW230480   2.155   3.265   5.241  0.5517 -0.8614  0.7722
 6340SOL     OW30481   3.708   3.352  15.992  0.5547 -0.1142 -0.2629
 6340SOL    HW130482   3.706   3.418  15.923  0.3943 -0.6912 -0.8170
 6340SOL    HW230483   3.797   3.354  16.027 -0.2616 -1.1457  1.8449
 6341SOL     OW30484   4.720   0.793   5.951  0.0613  0.1010  0.0466
 6341SOL    HW130485   0.023   0.750   6.031 -1.1762 -1.4111 -0.3101
 6341SOL    HW230486   4.682   0.872   5.990 -0.3344 -0.3910  0.6579
 6342SOL     OW30487   0.871   3.065   8.824  0.5570 -0.4657 -0.4586
 6342SOL    HW130488   0.807   3.026   8.884  0.8521  0.6300  0.5535
 6342SOL    HW230489   0.952   3.023   8.851 -0.0075 -0.2730  1.5232
 6343SOL     OW30490   0.575   1.185   8.759 -0.2439  0.1084 -0.0550
 6343SOL    HW130491   0.576   1.090   8.764 -2.1068  0.0219 -1.3538
 6343SOL    HW230492   0.521   1.199   8.837 -0.0469 -0.2904  0.1496
 6344SOL     OW30493   4.680   1.157   2.143  0.2427 -0.0089  0.3853
 6344SOL    HW130494   4.655   1.180   2.233 -1.2423  0.6067 -0.1851
 6344SOL    HW230495   4.596   1.116   2.121 -0.8696  1.3237  2.1035
 6345SOL     OW30496   2.855   4.527   2.893 -0.2270  0.1052 -0.1436
 6345SOL    HW130497   2.776   4.529   2.839 -1.0233  0.4758  1.0269
 6345SOL    HW230498   2.869   4.619   2.919 -0.0536  0.1279 -0.3236
 6346SOL     OW30499   3.695   3.605   8.928  0.1815 -0.2852 -0.3616
 6346SOL    HW130500   3.781   3.598   8.969  1.5123  2.6866 -2.6900
 6346SOL    HW230501   3.700   3.692   8.888 -0.6865  0.4573  1.1375
 6347SOL     OW30502   2.637   2.785   7.180  0.5873 -0.5885 -0.0501
 6347SOL    HW130503   2.707   2.849   7.164 -1.3869  1.9478  1.3503
 6347SOL    HW230504   2.584   2.790   7.101  1.3288  0.3283 -0.5017
 6348SOL     OW30505   0.351   0.689  13.569  0.0177 -0.1031  0.4127
 6348SOL    HW130506   0.265   0.720  13.541 -0.0631 -1.6448 -1.0736
 6348SOL    HW230507   0.345   0.737  13.651  0.6821  1.7325 -0.6198
 6349SOL     OW30508   0.923   3.401   5.057 -0.1737  0.0548 -0.1170
 6349SOL    HW130509   0.868   3.330   5.024 -0.0963  0.5090 -1.2293
 6349SOL    HW230510   0.951   3.382   5.146  0.3085  1.4510  0.0345
 6350SOL     OW30511   3.692   0.822   4.846 -0.1511 -0.1900 -0.2359
 6350SOL    HW130512   3.721   0.756   4.783  2.3926 -0.9193  1.7292
 6350SOL    HW230513   3.601   0.844   4.828 -0.4707 -1.1640  0.1854
 6351SOL     OW30514   1.343   1.784   4.862 -0.6520 -0.2858  0.1442
 6351SOL    HW130515   1.255   1.765   4.895 -0.4423 -0.6472  0.4903
 6351SOL    HW230516   1.313   1.862   4.816 -0.1811  0.1757  0.6186
 6352SOL     OW30517   0.564   3.911  11.584 -0.0859  0.1796 -0.3229
 6352SOL    HW130518   0.524   3.829  11.554 -1.1648  0.5821  0.0303
 6352SOL    HW230519   0.646   3.914  11.534  0.4948 -0.6520  0.5826
 6353SOL     OW30520   2.005   0.803  16.529  0.5322  0.0133 -0.2251
 6353SOL    HW130521   1.943   0.840  16.466  0.9524  0.6034 -0.2896
 6353SOL    HW230522   1.954   0.807  16.610  0.6729 -1.6180 -0.0597
 6354SOL     OW30523   1.054   2.468  16.869  0.2471  0.2886 -0.1211
 6354SOL    HW130524   1.130   2.507  16.912 -0.0296 -0.0710  0.6774
 6354SOL    HW230525   1.093   2.423  16.794  0.4802  1.4137 -0.6825
 6355SOL     OW30526   3.821   1.032  13.122  0.4973 -0.4897 -0.2798
 6355SOL    HW130527   3.911   1.000  13.128  0.7502  0.5135  1.3880
 6355SOL    HW230528   3.830   1.127  13.135 -0.1780 -0.2316 -1.6363
 6356SOL     OW30529   3.989   1.684   6.128  0.8529  0.4696  0.1708
 6356SOL    HW130530   3.966   1.633   6.050 -1.0675 -1.6738  2.1133
 6356SOL    HW230531   4.084   1.680   6.114  0.6041  0.6884 -1.6154
 6357SOL     OW30532   4.327   4.116   7.388  0.5123 -0.3513  0.2890
 6357SOL    HW130533   4.365   4.071   7.313 -0.8176 -0.3700 -0.3794
 6357SOL    HW230534   4.313   4.204   7.355  0.2964  0.0870  1.5695
 6358SOL     OW30535   1.104   0.648   8.844 -0.3803 -0.5633  0.2405
 6358SOL    HW130536   1.056   0.587   8.899 -1.2344 -1.7250 -1.7766
 6358SOL    HW230537   1.093   0.609   8.757 -0.9263  0.9773 -0.3986
 6359SOL     OW30538   2.710   4.316   5.962 -0.2910  0.3055  0.2631
 6359SOL    HW130539   2.666   4.381   5.907 -0.8257 -0.3551 -0.0942
 6359SOL    HW230540   2.770   4.275   5.899  1.7948  2.9192  0.5538
 6360SOL     OW30541   4.061   1.088   4.667 -0.2309 -0.1100  0.5044
 6360SOL    HW130542   3.971   1.122   4.668 -0.7653 -1.5373  0.5196
 6360SOL    HW230543   4.115   1.164   4.647  1.8040 -1.5394  0.6541
 6361SOL     OW30544   1.554   0.922  16.414  0.4773  0.2424 -0.3039
 6361SOL    HW130545   1.623   0.963  16.465  0.3806 -1.5379  1.2323
 6361SOL    HW230546   1.615   0.884  16.351  2.4017 -0.0450  1.7291
 6362SOL     OW30547   0.891   3.946   7.118  0.3837 -0.3385 -0.1270
 6362SOL    HW130548   0.891   3.962   7.024 -0.2408 -0.7731 -0.2005
 6362SOL    HW230549   0.956   4.015   7.135 -1.0742  0.6107  1.5758
 6363SOL     OW30550   4.314   0.097   1.886 -0.3062  0.3959 -0.2007
 6363SOL    HW130551   4.393   0.085   1.833  1.6326  1.3170  2.4798
 6363SOL    HW230552   4.338   0.170   1.944  0.9913  0.7493 -1.1683
 6364SOL     OW30553   1.762   2.604   2.475 -0.2823 -0.0346  0.5585
 6364SOL    HW130554   1.691   2.553   2.514  1.1747 -3.5021 -1.3643
 6364SOL    HW230555   1.737   2.695   2.493  4.3274  1.2149  0.5731
 6365SOL     OW30556   2.861   1.321   4.925  0.1076  0.0182  0.9202
 6365SOL    HW130557   2.775   1.283   4.943 -0.6612  1.2534 -0.1055
 6365SOL    HW230558   2.916   1.243   4.920  0.8516  0.6493 -0.7706
 6366SOL     OW30559   1.587   1.097   6.184 -0.0067 -0.3938 -0.0673
 6366SOL    HW130560   1.660   1.038   6.161 -1.2799 -1.9546 -0.1094
 6366SOL    HW230561   1.638   1.169   6.223  0.4719 -0.9311  0.3082
 6367SOL     OW30562   0.405   0.199   9.667 -0.0739 -0.0087 -0.0437
 6367SOL    HW130563   0.436   0.136   9.732 -0.7164  0.2894  0.5641
 6367SOL    HW230564   0.479   0.258   9.677  1.4254 -2.2549  2.0006
 6368SOL     OW30565   2.936   4.099   8.461  0.1902 -0.1940  0.0630
 6368SOL    HW130566   2.858   4.050   8.489 -0.9719  1.2919 -0.5743
 6368SOL    HW230567   2.923   4.117   8.368 -0.4746  0.8712  0.3587
 6369SOL     OW30568   2.900   2.607  17.056 -0.6427  0.3501  0.1923
 6369SOL    HW130569   2.832   2.660  17.095 -1.7135 -1.6124  1.0072
 6369SOL    HW230570   2.850   2.558  16.990  0.1099  0.7265 -0.6700
 6370SOL     OW30571   0.558   1.174  10.748 -0.0533  0.3107 -0.3035
 6370SOL    HW130572   0.643   1.151  10.787 -0.3310  2.0949  1.3612
 6370SOL    HW230573   0.522   1.086  10.737  0.7068 -0.4381  3.0834
 6371SOL     OW30574   4.111   3.751  14.899  0.4226 -0.0041  0.2983
 6371SOL    HW130575   4.129   3.826  14.957  0.6861 -1.5181  2.1637
 6371SOL    HW230576   4.044   3.795  14.846 -1.9453 -1.4492  2.0800
 6372SOL     OW30577   0.669   0.716   6.403 -0.5863 -0.0806 -0.2136
 6372SOL    HW130578   0.703   0.639   6.447 -0.8493  1.0868  2.0815
 6372SOL    HW230579   0.714   0.716   6.319 -1.2377  2.7969 -0.5943
 6373SOL     OW30580   0.983   4.540   7.690  0.3669 -0.0342 -0.6124
 6373SOL    HW130581   0.893   4.548   7.722  0.6253 -1.5025  0.5000
 6373SOL    HW230582   0.960   4.541   7.597 -1.0266  0.7762 -0.2636
 6374SOL     OW30583   3.450   1.665  12.269  0.5326 -0.2101 -0.4545
 6374SOL    HW130584   3.398   1.734  12.228 -3.0825 -2.6779  0.0527
 6374SOL    HW230585   3.385   1.611  12.314 -2.2189  0.4477 -3.6390
 6375SOL     OW30586   3.365   0.324  11.084 -0.0647 -0.1501 -0.0693
 6375SOL    HW130587   3.414   0.252  11.124  0.3370  0.9603  1.4601
 6375SOL    HW230588   3.354   0.288  10.997 -1.2859 -2.5778  1.1117
 6376SOL     OW30589   0.382   2.701  12.773 -0.4990  0.1174  0.6608
 6376SOL    HW130590   0.322   2.692  12.846 -1.6096  0.8840 -0.1592
 6376SOL    HW230591   0.432   2.774  12.810  2.1509  0.2868 -3.1995
 6377SOL     OW30592   2.574   2.283   1.266 -0.1840  0.3492  0.0689
 6377SOL    HW130593   2.516   2.348   1.225 -2.2319 -1.7596 -0.4138
 6377SOL    HW230594   2.534   2.202   1.233  0.2724 -0.1411  0.7143
 6378SOL     OW30595   1.299   3.801   8.215 -0.5395  0.3490  0.4446
 6378SOL    HW130596   1.300   3.865   8.286  1.0231  1.5613 -0.6601
 6378SOL    HW230597   1.299   3.859   8.138  0.6617 -0.2229  0.0161
 6379SOL     OW30598   4.041   3.816  11.684  0.4192 -0.2416 -0.2916
 6379SOL    HW130599   3.999   3.858  11.759 -1.0953 -0.4108 -1.0500
 6379SOL    HW230600   4.070   3.739  11.735  0.5668  0.4292  0.6343
 6380SOL     OW30601   3.390   0.473   1.678 -0.1527 -0.3938  0.3295
 6380SOL    HW130602   3.444   0.515   1.745  0.3699  1.1872 -1.0715
 6380SOL    HW230603   3.306   0.453   1.719  0.3589 -0.1790  1.4665
 6381SOL     OW30604   4.189   0.617   0.649 -0.4580  0.1775 -0.2229
 6381SOL    HW130605   4.120   0.618   0.583  1.0352  0.8247 -1.7669
 6381SOL    HW230606   4.179   0.528   0.682 -2.0828  0.7155  0.7233
 6382SOL     OW30607   3.070   0.269   2.855  0.0832 -0.6632 -0.3169
 6382SOL    HW130608   3.061   0.306   2.942  1.5559 -0.1779 -0.3672
 6382SOL    HW230609   2.992   0.311   2.818 -0.7985 -1.8498  0.1865
 6383SOL     OW30610   1.102   4.063   5.855 -0.4056  0.2716 -0.1389
 6383SOL    HW130611   1.168   4.123   5.819  1.3470 -1.3675  0.3538
 6383SOL    HW230612   1.046   4.040   5.782 -0.1105  1.8069 -0.8541
 6384SOL     OW30613   2.102   4.092   5.609  0.3774  0.3383 -0.2980
 6384SOL    HW130614   2.011   4.122   5.609  0.8984  1.8814  1.1846
 6384SOL    HW230615   2.120   4.094   5.515  2.0769 -2.1431  0.0074
 6385SOL     OW30616   2.066   0.070   6.139  0.0776 -0.0792  0.3524
 6385SOL    HW130617   2.116   0.151   6.132 -2.1260  1.1333 -1.3435
 6385SOL    HW230618   2.024   0.074   6.053  0.1772  1.0069  0.3626
 6386SOL     OW30619   2.515   3.874   9.885  0.1064 -0.6489 -0.2169
 6386SOL    HW130620   2.605   3.892   9.859  0.0606  0.0453  0.1207
 6386SOL    HW230621   2.536   3.795   9.936  1.1683 -1.3496 -1.7566
 6387SOL     OW30622   2.142   0.392   3.709  0.6945  0.1067  0.1060
 6387SOL    HW130623   2.212   0.359   3.654  1.2544  0.6306  0.4977
 6387SOL    HW230624   2.128   0.478   3.669  1.2212  0.3555  0.4462
 6388SOL     OW30625   2.546   1.018   4.047 -0.1999  0.3093 -0.1717
 6388SOL    HW130626   2.461   1.035   4.087 -0.5681  1.0499 -1.2924
 6388SOL    HW230627   2.571   1.110   4.042  1.3297 -0.2499 -2.9254
 6389SOL     OW30628   3.896   4.424   8.724 -0.3203  0.1434  0.2954
 6389SOL    HW130629   3.932   4.501   8.680 -1.6898 -0.6697 -2.2415
 6389SOL    HW230630   3.861   4.385   8.645 -1.8404  0.5070  0.7873
 6390SOL     OW30631   3.658   4.027   4.064  0.0474 -0.4032 -0.0740
 6390SOL    HW130632   3.651   4.033   4.160  2.8027 -0.1355  0.1202
 6390SOL    HW230633   3.714   3.951   4.047  0.4380  0.2189 -1.5278
 6391SOL     OW30634   1.204   0.684   1.814  0.8009 -0.0437  0.3064
 6391SOL    HW130635   1.280   0.651   1.766  1.5647  0.2081  1.3605
 6391SOL    HW230636   1.175   0.600   1.848 -1.2443  0.5461  0.0151
 6392SOL     OW30637   0.467   2.259   3.230  0.7198 -0.3735 -0.5469
 6392SOL    HW130638   0.395   2.200   3.251  0.0781  1.2322  1.7843
 6392SOL    HW230639   0.436   2.294   3.147 -0.3028  0.9392  0.3818
 6393SOL     OW30640   3.173   1.854  15.732  0.0807 -0.1843  0.5825
 6393SOL    HW130641   3.089   1.899  15.727 -0.7344 -1.9173 -1.3287
 6393SOL    HW230642   3.162   1.773  15.682  0.7889 -0.3874  0.7496
 6394SOL     OW30643   0.676   1.240   2.014  0.2761  0.2351 -0.1537
 6394SOL    HW130644   0.668   1.172   2.082 -0.4098  0.4093 -0.0525
 6394SOL    HW230645   0.735   1.203   1.949  2.6594  1.0764  1.5179
 6395SOL     OW30646   2.460   1.440  16.405  0.1592 -0.3480 -0.5000
 6395SOL    HW130647   2.391   1.414  16.344  0.5693 -0.6847 -0.8257
 6395SOL    HW230648   2.419   1.511  16.454  0.6493  0.8602 -1.8343
 6396SOL     OW30649   3.720   1.087  17.024  0.0992 -0.3130  0.3793
 6396SOL    HW130650   3.704   1.134  16.942 -0.4931 -2.0050 -0.4808
 6396SOL    HW230651   3.743   0.998  16.997  0.5549  0.0582 -0.4259
 6397SOL     OW30652   1.242   0.949   6.469  0.2424 -0.5707  0.0063
 6397SOL    HW130653   1.303   0.908   6.530  0.4005  1.0897  0.9436
 6397SOL    HW230654   1.226   0.878   6.406  0.3970 -1.7099  1.2533
 6398SOL     OW30655   3.844   4.008  15.031 -0.1235 -0.5876 -0.6123
 6398SOL    HW130656   3.858   4.022  15.124 -0.1734 -0.4027 -0.6319
 6398SOL    HW230657   3.786   3.933  15.024 -2.3768  1.1522 -0.5164
 6399SOL     OW30658   4.717   0.752   8.274  0.6765 -0.3090  0.0167
 6399SOL    HW130659   0.021   0.831   8.318  1.3829 -0.1263 -0.8240
 6399SOL    HW230660   4.639   0.727   8.324 -0.5637 -0.7460 -2.1126
 6400SOL     OW30661   1.102   0.480   0.318  0.4149  0.1996  0.0916
 6400SOL    HW130662   1.159   0.419   0.366  0.4608 -1.9076 -2.6394
 6400SOL    HW230663   1.172   0.540   0.294  0.0836  0.1134 -1.1048
 6401SOL     OW30664   2.456   0.709  15.815  0.1130  0.2732  0.0297
 6401SOL    HW130665   2.539   0.745  15.785  0.1089  0.5093  0.3096
 6401SOL    HW230666   2.464   0.618  15.787 -1.0122 -0.2771  1.4791
 6402SOL     OW30667   3.452   0.191   4.670 -0.4203 -0.4168  0.1243
 6402SOL    HW130668   3.423   0.234   4.751 -0.0567 -1.5937  0.8881
 6402SOL    HW230669   3.499   0.118   4.712 -2.5258 -0.5662  2.1987
 6403SOL     OW30670   3.650   4.320  10.984 -0.3965  0.4678  0.3556
 6403SOL    HW130671   3.570   4.320  10.932 -0.5025  1.5494  0.5169
 6403SOL    HW230672   3.686   4.406  10.963  0.0449  0.4789  1.1542
 6404SOL     OW30673   3.759   0.996   7.401 -0.0539  0.3354  0.0120
 6404SOL    HW130674   3.696   1.061   7.433 -1.1527 -1.2874  1.1611
 6404SOL    HW230675   3.784   0.956   7.484  1.4385  1.0394 -0.1055
 6405SOL     OW30676   1.663   4.578   8.979  0.4226 -0.5166  0.3308
 6405SOL    HW130677   1.710   4.661   8.970 -0.3456 -0.1581 -0.3168
 6405SOL    HW230678   1.578   4.598   9.020 -0.7248 -2.8297 -0.9225
 6406SOL     OW30679   3.479   1.150   4.798  0.2311 -0.0808 -0.0085
 6406SOL    HW130680   3.478   1.056   4.784  0.4128 -0.0091 -0.5136
 6406SOL    HW230681   3.556   1.171   4.850  0.2682  0.4859 -0.2863
 6407SOL     OW30682   3.489   2.369   7.952 -0.0524 -0.2856  0.1799
 6407SOL    HW130683   3.486   2.336   8.042  0.2921  1.3858  0.8128
 6407SOL    HW230684   3.438   2.300   7.909  1.1058  0.7074 -2.7615
 6408SOL     OW30685   2.840   2.380   4.392 -0.2509 -0.5009  0.3233
 6408SOL    HW130686   2.755   2.360   4.430 -3.0043  2.7124 -4.2142
 6408SOL    HW230687   2.863   2.461   4.436 -0.1211  1.0342 -2.5452
 6409SOL     OW30688   3.021   4.177  12.934  0.3393  0.3429  0.0314
 6409SOL    HW130689   3.098   4.152  12.986  0.5908  1.1332  0.0372
 6409SOL    HW230690   2.960   4.208  13.001 -1.0935 -2.6967  0.1452
 6410SOL     OW30691   3.623   2.449   7.380 -0.5250  0.1995  0.1241
 6410SOL    HW130692   3.679   2.526   7.390  0.2460 -0.2005 -1.0623
 6410SOL    HW230693   3.538   2.475   7.345 -1.1154 -1.3340  0.4249
 6411SOL     OW30694   2.633   2.214   4.071 -0.2797  0.0456 -0.5804
 6411SOL    HW130695   2.633   2.127   4.110  0.0823  0.7445  1.0008
 6411SOL    HW230696   2.697   2.189   4.004  1.0012  0.5595  0.4483
 6412SOL     OW30697   1.680   3.819   6.138 -0.0437  0.0617  0.0263
 6412SOL    HW130698   1.720   3.895   6.096  1.1262 -1.0726 -0.9346
 6412SOL    HW230699   1.734   3.747   6.105 -0.0702  0.2943 -0.5273
 6413SOL     OW30700   3.230   3.433  16.900 -0.1600 -0.7433  0.5379
 6413SOL    HW130701   3.183   3.477  16.828  0.1450 -0.2016  0.6679
 6413SOL    HW230702   3.318   3.456  16.870 -0.4341 -0.6164 -0.1742
 6414SOL     OW30703   4.495   4.694  14.353  0.5133 -0.7228  0.0476
 6414SOL    HW130704   4.522   4.606  14.379  0.7444 -0.5707  0.3222
 6414SOL    HW230705   4.530   4.711  14.266 -2.8749  1.7467 -0.8197
 6415SOL     OW30706   3.112   2.909   9.262 -0.0828  0.0711 -0.6287
 6415SOL    HW130707   3.113   2.890   9.356 -0.4059  0.9891 -0.4487
 6415SOL    HW230708   3.195   2.957   9.253  0.0003 -0.4102 -2.4476
 6416SOL     OW30709   2.266   0.809  14.660 -0.0010 -0.3426  0.6623
 6416SOL    HW130710   2.349   0.849  14.633 -0.5176 -0.2270 -0.7614
 6416SOL    HW230711   2.216   0.880  14.701 -0.1082  0.5419 -0.9807
 6417SOL     OW30712   2.147   3.239   4.096 -0.5519 -0.5688  0.0874
 6417SOL    HW130713   2.164   3.245   4.001  1.6490  0.3516  0.5399
 6417SOL    HW230714   2.118   3.148   4.107 -1.0516 -0.0264  3.1277
 6418SOL     OW30715   4.003   2.550   4.314 -0.3120  0.0073  0.2712
 6418SOL    HW130716   3.999   2.501   4.232 -1.2921  0.2637  0.1744
 6418SOL    HW230717   4.069   2.509   4.370 -0.9755 -0.4678  0.6999
 6419SOL     OW30718   2.686   3.489   1.722 -0.3368 -0.3766  0.5323
 6419SOL    HW130719   2.747   3.416   1.725 -1.1317 -0.9454  2.6500
 6419SOL    HW230720   2.730   3.558   1.771  0.6326 -1.0896  0.6637
 6420SOL     OW30721   4.651   2.337   8.900  0.6437 -0.2995 -0.2344
 6420SOL    HW130722   4.725   2.322   8.841  0.9888 -0.1420  0.1598
 6420SOL    HW230723   4.594   2.262   8.883 -0.0294 -0.3387  2.2169
 6421SOL     OW30724   2.653   2.686   4.695  0.0751 -0.2009  0.2805
 6421SOL    HW130725   2.669   2.677   4.601  0.1957 -0.5334  0.3328
 6421SOL    HW230726   2.629   2.598   4.723 -0.6211 -0.5982 -1.5560
 6422SOL     OW30727   0.748   1.250   8.341 -0.5097  0.1673 -0.2896
 6422SOL    HW130728   0.771   1.299   8.420  0.6409  0.6932 -0.9380
 6422SOL    HW230729   0.805   1.173   8.346 -0.0739  0.5623  0.8164
 6423SOL     OW30730   3.792   0.588   3.139  0.1624  0.0581  0.2611
 6423SOL    HW130731   3.718   0.589   3.079  0.9295 -0.4943 -0.7049
 6423SOL    HW230732   3.753   0.546   3.215  4.2613 -0.6234  2.0150
 6424SOL     OW30733   0.347   0.447   4.683 -0.1702  0.2656 -0.3123
 6424SOL    HW130734   0.392   0.520   4.724 -0.7497 -0.4459  1.5682
 6424SOL    HW230735   0.272   0.446   4.743  0.0365 -0.9857 -0.0820
 6425SOL     OW30736   1.557   2.303   8.183  0.6083 -0.1141  0.1265
 6425SOL    HW130737   1.599   2.368   8.128  2.1308 -0.9074  0.3431
 6425SOL    HW230738   1.578   2.223   8.135  0.4278 -0.3215  0.3917
 6426SOL     OW30739   4.480   3.417   6.736 -0.2259 -0.5513  0.5100
 6426SOL    HW130740   4.434   3.497   6.759  0.2256  0.0614 -0.7370
 6426SOL    HW230741   4.520   3.448   6.654 -0.8488  0.2003  0.4968
 6427SOL     OW30742   1.536   2.148   1.289  0.1387 -0.1640  0.2219
 6427SOL    HW130743   1.465   2.194   1.333  1.3275  0.4219  1.5377
 6427SOL    HW230744   1.533   2.079   1.355 -4.1004  1.8157  2.1181
 6428SOL     OW30745   0.162   1.203   3.725 -0.5031 -0.4391 -0.0811
 6428SOL    HW130746   0.224   1.132   3.707  0.5603  0.9531 -1.9130
 6428SOL    HW230747   0.186   1.261   3.652 -2.9364 -1.8587 -2.0032
 6429SOL     OW30748   4.205   0.186   5.626 -0.0436  0.0688  0.6261
 6429SOL    HW130749   4.227   0.248   5.696  1.0960  0.7405 -0.3404
 6429SOL    HW230750   4.120   0.146   5.647  0.1545 -0.4873  0.3462
 6430SOL     OW30751   1.538   1.841   5.047  0.0230 -0.3348 -0.0458
 6430SOL    HW130752   1.580   1.788   4.979  0.3171  2.8490 -2.3736
 6430SOL    HW230753   1.456   1.856   5.000  1.5876  1.4600 -2.1836
 6431SOL     OW30754   3.096   0.915   3.875  0.2956 -0.0068  0.2434
 6431SOL    HW130755   3.050   0.868   3.945  0.2577 -0.4942 -0.1035
 6431SOL    HW230756   3.186   0.886   3.888  0.8904  1.7597 -0.0463
 6432SOL     OW30757   2.683   3.759   8.057 -0.3814  0.1574 -0.2279
 6432SOL    HW130758   2.674   3.682   8.114 -1.5307  2.0346  2.1052
 6432SOL    HW230759   2.600   3.753   8.010 -0.4210 -0.3980 -0.0889
 6433SOL     OW30760   1.022   2.685   7.168 -0.6606  0.0040 -0.1464
 6433SOL    HW130761   1.013   2.741   7.090 -1.8861  2.4737  1.7912
 6433SOL    HW230762   1.074   2.612   7.133  1.4483  1.4566 -0.0289
 6434SOL     OW30763   1.951   0.516   4.117 -0.4086  0.1774  0.2271
 6434SOL    HW130764   1.967   0.513   4.212  1.0900 -2.3520 -0.0857
 6434SOL    HW230765   1.899   0.437   4.101  0.3849 -0.8721  2.6670
 6435SOL     OW30766   2.620   2.763  12.929  0.0812 -0.3066 -0.2148
 6435SOL    HW130767   2.667   2.679  12.931  0.0933 -0.2712  1.2111
 6435SOL    HW230768   2.637   2.791  12.839  2.5869  1.4208  0.8057
 6436SOL     OW30769   1.677   0.858   4.249  0.6747  0.1546 -0.3715
 6436SOL    HW130770   1.612   0.851   4.319 -1.2869 -2.3095 -2.4444
 6436SOL    HW230771   1.669   0.953   4.240  1.8697  0.4327  1.4464
 6437SOL     OW30772   2.805   4.523  12.156 -0.1292  0.5954 -0.0967
 6437SOL    HW130773   2.893   4.515  12.120  0.1620 -1.5131  1.0830
 6437SOL    HW230774   2.802   4.441  12.204  1.1344  1.1215  0.8691
 6438SOL     OW30775   3.000   2.559   7.576  0.3640 -0.3534  0.6056
 6438SOL    HW130776   3.090   2.558   7.607  0.5652 -3.5898 -0.0310
 6438SOL    HW230777   2.983   2.653   7.581 -3.3911 -0.8794 -1.6802
 6439SOL     OW30778   3.782   2.985   6.401  0.1808  0.0005 -0.1405
 6439SOL    HW130779   3.869   2.947   6.414 -0.0449 -0.4665 -0.0219
 6439SOL    HW230780   3.790   3.052   6.469  1.2247 -0.8480  0.5813
 6440SOL     OW30781   3.223   0.185   3.554  0.1618 -0.0920 -0.3181
 6440SOL    HW130782   3.293   0.136   3.512  0.7794  1.1459 -0.7313
 6440SOL    HW230783   3.271   0.266   3.573  0.8449 -0.3901 -0.7934
 6441SOL     OW30784   0.432   2.639   4.958 -0.6484 -0.2421 -0.3113
 6441SOL    HW130785   0.403   2.609   5.044 -1.3718 -1.7392 -1.0802
 6441SOL    HW230786   0.387   2.721   4.939  0.6910  0.7908  0.9606
 6442SOL     OW30787   0.579   3.814   3.457 -0.1683 -0.3194 -0.2198
 6442SOL    HW130788   0.558   3.789   3.367  0.7587 -0.6785 -0.3385
 6442SOL    HW230789   0.516   3.880   3.485  0.1884  0.5329 -1.3875
 6443SOL     OW30790   4.607   2.631   8.315  0.6773 -0.0496 -0.0529
 6443SOL    HW130791   4.569   2.716   8.337 -0.3247 -0.6328  0.5099
 6443SOL    HW230792   4.685   2.669   8.277  1.0299  1.0727  1.7924
 6444SOL     OW30793   1.608   2.368   3.044 -0.5237 -0.4146 -0.0139
 6444SOL    HW130794   1.601   2.321   3.127 -0.7836 -0.2855  0.0358
 6444SOL    HW230795   1.526   2.340   3.003 -2.1988  1.6653  1.8956
 6445SOL     OW30796   2.312   3.280  11.234  0.0859  0.2596 -0.2383
 6445SOL    HW130797   2.390   3.231  11.261 -0.9051 -0.0559  2.0510
 6445SOL    HW230798   2.260   3.277  11.315 -0.5759  1.1589 -0.6371
 6446SOL     OW30799   2.992   2.166  17.278  0.0562 -0.3943 -0.4327
 6446SOL    HW130800   3.023   2.086  17.236  0.4603 -0.3791 -0.1542
 6446SOL    HW230801   3.001   2.219  17.199  0.3800  1.6811  1.0242
 6447SOL     OW30802   3.867   2.154  14.336 -0.1204 -0.4315 -0.3796
 6447SOL    HW130803   3.786   2.185  14.296  0.7585 -0.5694 -2.2690
 6447SOL    HW230804   3.917   2.236  14.329 -0.1201 -0.4789 -0.8638
 6448SOL     OW30805   1.141   3.165   7.291 -0.8465 -0.1442  0.1138
 6448SOL    HW130806   1.210   3.228   7.314 -0.5316 -0.2855 -0.4428
 6448SOL    HW230807   1.062   3.220   7.295 -1.1335 -0.4452 -1.5563
 6449SOL     OW30808   0.624   2.546   6.124  0.2587 -0.1102  0.7936
 6449SOL    HW130809   0.624   2.456   6.092 -0.5415  0.1167  0.1313
 6449SOL    HW230810   0.553   2.543   6.189  0.3165 -0.4303  0.8424
 6450SOL     OW30811   0.958   3.752   2.406 -0.0223  0.4024  0.0786
 6450SOL    HW130812   1.013   3.680   2.437 -0.0862  0.3829  0.1469
 6450SOL    HW230813   1.006   3.795   2.335 -0.2690  1.5875  0.6319
 6451SOL     OW30814   0.046   3.131  16.503  0.2165  0.0159  0.2829
 6451SOL    HW130815   0.007   3.136  16.415 -2.4126  0.7223  1.5114
 6451SOL    HW230816   4.713   3.067  16.540  1.5069 -1.8732 -0.8699
 6452SOL     OW30817   3.752   2.506   4.483 -0.7551 -0.1513 -0.2221
 6452SOL    HW130818   3.833   2.479   4.440 -1.4490 -2.4069 -0.1395
 6452SOL    HW230819   3.696   2.431   4.460 -1.2329 -0.4325  1.8525
 6453SOL     OW30820   1.330   2.384  13.012  0.6528 -0.2358  0.8436
 6453SOL    HW130821   1.361   2.471  12.987 -1.2357  0.4215  0.8039
 6453SOL    HW230822   1.386   2.367  13.088  0.9850  0.7708  0.8179
 6454SOL     OW30823   2.968   0.641   2.614  0.2428  0.4652 -0.0524
 6454SOL    HW130824   2.915   0.609   2.687  2.7388 -3.6764 -0.0928
 6454SOL    HW230825   2.925   0.596   2.541  0.8406  1.0240 -0.7522
 6455SOL     OW30826   4.194   0.366   3.616 -0.1014  0.4345 -0.6183
 6455SOL    HW130827   4.204   0.271   3.608 -1.7867  0.0007  2.5703
 6455SOL    HW230828   4.117   0.391   3.565  0.3015  2.4372 -0.2683
 6456SOL     OW30829   2.172   0.490   2.484 -0.2492  0.0737  0.7499
 6456SOL    HW130830   2.212   0.546   2.417 -2.2798 -0.2211 -0.7088
 6456SOL    HW230831   2.198   0.536   2.564 -0.7360 -1.8558  2.0179
 6457SOL     OW30832   2.046   1.010   5.985 -0.0840  0.0435 -0.0170
 6457SOL    HW130833   2.030   1.091   5.938 -0.9325  0.3174  0.7584
 6457SOL    HW230834   2.137   0.996   5.958  0.3265 -0.2106  1.5025
 6458SOL     OW30835   3.658   2.598   5.948  0.0505  0.2800 -0.0480
 6458SOL    HW130836   3.574   2.586   5.903 -0.3942  0.8087  0.6440
 6458SOL    HW230837   3.702   2.521   5.911  1.6767  0.9085  0.5635
 6459SOL     OW30838   0.201   3.162   4.821  0.1488 -0.0099  0.1973
 6459SOL    HW130839   0.237   3.182   4.907 -0.3694 -0.6741  0.5687
 6459SOL    HW230840   0.230   3.071   4.817 -1.0360 -0.2993 -2.1530
 6460SOL     OW30841   2.776   3.155   2.800  0.2177 -0.2969 -0.4927
 6460SOL    HW130842   2.868   3.178   2.815  0.1244 -0.3432  0.1477
 6460SOL    HW230843   2.773   3.075   2.852 -0.0124 -0.8168 -1.3111
 6461SOL     OW30844   2.945   1.868   2.248 -0.1761  0.4926 -0.6064
 6461SOL    HW130845   2.896   1.860   2.166  1.2810 -0.6596 -1.3640
 6461SOL    HW230846   3.031   1.890   2.213 -0.0165  0.4350 -0.2471
 6462SOL     OW30847   2.595   2.478   6.671  0.0668 -0.3493  0.0047
 6462SOL    HW130848   2.535   2.486   6.745  0.4397  0.4320  0.2150
 6462SOL    HW230849   2.674   2.479   6.724 -0.9274  0.6841  1.4620
 6463SOL     OW30850   3.192   0.521   0.361 -0.3598  0.1220 -0.6984
 6463SOL    HW130851   3.109   0.493   0.321 -0.1880  0.3165 -1.1978
 6463SOL    HW230852   3.264   0.491   0.305  0.8880  1.2793  0.2874
 6464SOL     OW30853   3.988   0.790   2.010 -0.6046  0.1317 -0.3975
 6464SOL    HW130854   3.931   0.820   1.938 -2.0384 -0.1868  0.6071
 6464SOL    HW230855   3.921   0.787   2.078  0.8644  0.1338  1.0515
 6465SOL     OW30856   3.796   2.303  11.681  0.0462  0.1073 -0.1084
 6465SOL    HW130857   3.716   2.262  11.714  0.2386  0.8192  1.2450
 6465SOL    HW230858   3.852   2.308  11.759 -1.9877 -1.8101  1.4786
 6466SOL     OW30859   2.038   3.916  12.760 -0.7257 -0.0959 -0.0917
 6466SOL    HW130860   2.121   3.960  12.782 -1.6402  2.3264 -1.4293
 6466SOL    HW230861   2.045   3.888  12.669 -0.0917  0.8762 -0.3477
 6467SOL     OW30862   2.574   2.410   4.779  0.3028 -0.6449  0.2288
 6467SOL    HW130863   2.549   2.318   4.779  1.6077 -1.0014 -0.1550
 6467SOL    HW230864   2.649   2.415   4.839  0.1754 -2.9152  0.5715
 6468SOL     OW30865   3.845   4.630   3.173  0.6798  0.2293 -0.3129
 6468SOL    HW130866   3.894   4.676   3.241  1.4938 -2.5797  0.9985
 6468SOL    HW230867   3.817   4.551   3.218 -0.3663  1.1551  0.6773
 6469SOL     OW30868   4.348   4.420   4.048  0.5438  0.3475  0.2732
 6469SOL    HW130869   4.259   4.394   4.074  0.8362 -2.0582 -1.1125
 6469SOL    HW230870   4.384   4.333   4.033 -0.1301 -0.2693  2.2009
 6470SOL     OW30871   1.413   1.617   2.513  0.3153  0.3390 -0.0466
 6470SOL    HW130872   1.342   1.631   2.450 -1.0743  0.4720  1.5394
 6470SOL    HW230873   1.418   1.705   2.550  1.8073  0.9419 -1.6926
 6471SOL     OW30874   2.342   0.014  15.944 -0.0227  0.2367 -0.2289
 6471SOL    HW130875   2.379   4.666  15.989  0.3827 -0.6842 -2.1077
 6471SOL    HW230876   2.380   4.715  15.860 -0.7915  1.2934 -0.9093
 6472SOL     OW30877   4.241   0.738   3.144 -0.3936 -0.4394  0.2388
 6472SOL    HW130878   4.265   0.683   3.219  0.7635 -0.1039  0.1147
 6472SOL    HW230879   4.171   0.694   3.096  0.3322  0.4407 -1.6430
 6473SOL     OW30880   3.167   0.874   9.750 -0.0378 -0.3013  0.9230
 6473SOL    HW130881   3.217   0.949   9.718  0.2619 -1.2966 -0.9807
 6473SOL    HW230882   3.139   0.835   9.667  0.0009  1.2428  0.1917
 6474SOL     OW30883   0.628   1.993   1.996 -0.4638  0.5968 -0.3241
 6474SOL    HW130884   0.591   2.062   1.940 -0.0541 -0.9683 -2.5643
 6474SOL    HW230885   0.673   1.951   1.922 -0.7536  0.4964 -0.4451
 6475SOL     OW30886   4.572   4.289   1.876  0.2928  0.8094  0.2695
 6475SOL    HW130887   4.574   4.197   1.851 -1.8611  0.6422  0.7331
 6475SOL    HW230888   4.637   4.323   1.814  2.1250 -1.3664  0.9946
 6476SOL     OW30889   2.150   4.180   1.019 -0.3115  0.1516  0.4598
 6476SOL    HW130890   2.160   4.113   1.086  2.4146  0.3255  0.2077
 6476SOL    HW230891   2.230   4.158   0.972 -0.7121  0.2975 -0.2941
 6477SOL     OW30892   3.738   0.865   7.151  0.0277  0.0107  0.7220
 6477SOL    HW130893   3.768   0.901   7.234  1.0732  1.1585 -0.1418
 6477SOL    HW230894   3.821   0.866   7.103 -1.0713  1.4013 -1.1757
 6478SOL     OW30895   2.297   2.227   2.617 -0.5563 -0.4910  0.1308
 6478SOL    HW130896   2.277   2.135   2.601 -0.1668 -0.4511 -0.6254
 6478SOL    HW230897   2.367   2.222   2.682  0.8211  0.5383 -1.2496
 6479SOL     OW30898   2.493   0.919   8.444 -0.2851 -0.2660 -0.4058
 6479SOL    HW130899   2.518   1.009   8.464  3.0157 -0.7599 -2.3491
 6479SOL    HW230900   2.476   0.888   8.533  0.3665  1.3432  0.2803
 6480SOL     OW30901   1.499   0.787   1.742 -0.1904 -0.2185 -0.1033
 6480SOL    HW130902   1.455   0.704   1.728  1.1934 -0.8199 -0.8756
 6480SOL    HW230903   1.588   0.760   1.766 -0.9320 -2.4353  0.1626
 6481SOL     OW30904   2.247   2.254  10.236  0.1121  0.1983  0.6784
 6481SOL    HW130905   2.323   2.201  10.212 -0.3292 -0.4128  0.6534
 6481SOL    HW230906   2.216   2.266  10.146 -0.9931 -1.0324  0.8961
 6482SOL     OW30907   2.080   4.400   4.405  0.3333  0.1423  0.0705
 6482SOL    HW130908   2.041   4.427   4.489 -0.7191 -1.3367  0.0554
 6482SOL    HW230909   2.154   4.459   4.394  0.0219  0.6324  0.5914
 6483SOL     OW30910   2.201   1.784   6.044 -0.4105 -0.6171 -0.0084
 6483SOL    HW130911   2.265   1.820   6.106  1.4888 -2.9789 -0.6147
 6483SOL    HW230912   2.149   1.864   6.039 -0.9865 -1.1060 -1.4615
 6484SOL     OW30913   0.199   3.768   1.812  0.1411  0.6736 -0.0763
 6484SOL    HW130914   0.214   3.674   1.807  0.7734  0.7704  0.0077
 6484SOL    HW230915   0.265   3.788   1.878  2.6878  2.8740 -3.2682
 6485SOL     OW30916   4.566   2.055   3.119 -0.0554  0.0071  0.1655
 6485SOL    HW130917   4.550   1.983   3.180  0.5955 -0.6286 -0.4063
 6485SOL    HW230918   4.505   2.123   3.147  0.0290 -0.0917  0.5814
 6486SOL     OW30919   4.470   0.015  11.082  0.2088  0.6911 -0.0887
 6486SOL    HW130920   4.532   4.715  11.014  1.0157  1.6165  0.2803
 6486SOL    HW230921   4.503   0.101  11.106  0.2089  0.0583  2.1979
 6487SOL     OW30922   0.081   4.020  15.457 -0.2542  0.1598 -0.1151
 6487SOL    HW130923   0.086   3.939  15.406  1.5386  0.8223 -0.9957
 6487SOL    HW230924   0.069   3.986  15.545 -0.5939 -0.9788 -0.5998
 6488SOL     OW30925   2.218   4.143  14.214  0.3410  0.2464 -0.2529
 6488SOL    HW130926   2.264   4.217  14.255 -0.1478  0.7918 -0.6964
 6488SOL    HW230927   2.178   4.190  14.141 -1.9148  1.6223  1.8560
 6489SOL     OW30928   3.526   0.337   2.279 -0.5497  0.0648  0.1401
 6489SOL    HW130929   3.611   0.293   2.287  0.9505  2.4303 -2.7631
 6489SOL    HW230930   3.489   0.301   2.197 -1.3732  1.1380  0.0421
 6490SOL     OW30931   3.118   1.834   7.283  0.5344  0.6322 -0.1126
 6490SOL    HW130932   3.154   1.873   7.203  0.3836 -0.5367 -0.7489
 6490SOL    HW230933   3.182   1.863   7.347  0.0437 -0.3923  0.8503
 6491SOL     OW30934   4.005   3.488   4.281 -0.2631 -0.4054 -0.1890
 6491SOL    HW130935   3.946   3.418   4.253 -0.3817  0.4550 -2.1019
 6491SOL    HW230936   4.061   3.501   4.204 -0.6701  0.9361 -0.2622
 6492SOL     OW30937   4.034   3.301  16.676 -0.2450 -0.4814 -0.1190
 6492SOL    HW130938   4.029   3.273  16.584 -0.8671 -1.6866  0.2751
 6492SOL    HW230939   3.942   3.316  16.699  0.3312  1.2055  1.0359
 6493SOL     OW30940   3.225   3.183   4.155  0.4678 -0.7734  0.0390
 6493SOL    HW130941   3.242   3.253   4.218  0.0547 -0.7852  0.1636
 6493SOL    HW230942   3.150   3.140   4.195 -1.1996  0.5190 -1.7005
 6494SOL     OW30943   3.961   3.352   2.354 -0.4349 -0.3592 -0.4273
 6494SOL    HW130944   3.945   3.311   2.269  1.2818 -0.5833 -0.6424
 6494SOL    HW230945   3.954   3.445   2.330 -0.0107 -0.6241 -1.6004
 6495SOL     OW30946   0.109   3.708   1.544 -0.2333 -0.3525  0.1556
 6495SOL    HW130947   0.153   3.632   1.583  0.6980  0.1980  0.1768
 6495SOL    HW230948   0.126   3.690   1.451  3.1074  0.6001  0.6111
 6496SOL     OW30949   1.744   4.514   1.917 -0.6223 -0.0529  0.1282
 6496SOL    HW130950   1.766   4.426   1.887 -1.6833 -0.0206 -0.7594
 6496SOL    HW230951   1.814   4.523   1.981  0.4266 -0.5599 -0.9460
 6497SOL     OW30952   1.432   3.449   8.177  0.0604  0.5974 -0.3306
 6497SOL    HW130953   1.435   3.381   8.110  0.4421  0.6556 -0.3732
 6497SOL    HW230954   1.352   3.423   8.223  0.8026 -0.0013  0.6270
 6498SOL     OW30955   3.627   3.181   4.896 -0.2107 -0.3445  0.1729
 6498SOL    HW130956   3.551   3.195   4.840  0.7255  2.5949 -0.3940
 6498SOL    HW230957   3.675   3.109   4.855 -2.4203 -1.2516 -0.8053
 6499SOL     OW30958   3.396   0.902   3.762 -0.1908 -0.3375  0.0721
 6499SOL    HW130959   3.420   0.865   3.847 -0.3206  1.1056  0.7448
 6499SOL    HW230960   3.454   0.978   3.750 -0.3025 -0.5677 -1.8810
 6500SOL     OW30961   3.157   2.696  16.996  0.4573  1.0242 -0.0138
 6500SOL    HW130962   3.066   2.665  16.995  1.1940 -1.1523  0.6306
 6500SOL    HW230963   3.188   2.657  16.914  1.8186 -1.0828  1.5163
 6501SOL     OW30964   2.581   1.337  16.760  0.0735 -0.7370  0.0791
 6501SOL    HW130965   2.582   1.415  16.817  1.9362  0.5470 -1.7018
 6501SOL    HW230966   2.490   1.335  16.729  0.3750  0.0971 -0.8787
 6502SOL     OW30967   1.715   1.358   2.929 -0.3541 -0.1048  0.6781
 6502SOL    HW130968   1.718   1.454   2.938  0.0810 -0.0357 -0.2028
 6502SOL    HW230969   1.799   1.325   2.962 -0.1779 -1.7133 -1.4097
 6503SOL     OW30970   4.671   4.315   7.340  0.4824  0.3746  0.1698
 6503SOL    HW130971   4.627   4.272   7.413  0.2876  0.2883  0.0023
 6503SOL    HW230972   0.026   4.268   7.335  1.1206  1.3023  2.0964
 6504SOL     OW30973   0.174   0.205   6.747 -1.0162  0.2920 -0.6948
 6504SOL    HW130974   0.142   0.244   6.828  1.0276  1.0908 -0.2673
 6504SOL    HW230975   0.252   0.259   6.733 -1.5098  1.0929 -0.2895
 6505SOL     OW30976   2.576   2.812   8.335  0.3459  0.0694 -0.5319
 6505SOL    HW130977   2.624   2.893   8.315 -0.5927  0.1455 -2.4458
 6505SOL    HW230978   2.513   2.840   8.401 -0.5161 -0.8258 -0.9757
 6506SOL     OW30979   4.487   4.531   9.219 -0.1308  0.4115  0.1006
 6506SOL    HW130980   4.518   4.462   9.278 -0.4491  1.3419  1.3487
 6506SOL    HW230981   4.397   4.528   9.252  0.9805 -0.0802  3.1371
 6507SOL     OW30982   3.766   2.008  16.531  0.0901 -0.3170 -0.1538
 6507SOL    HW130983   3.757   1.931  16.586  0.7618  1.2045  2.0825
 6507SOL    HW230984   3.769   2.086  16.586 -1.7924 -0.7011  0.4755
 6508SOL     OW30985   3.216   4.101   4.783 -0.3082  1.0284 -0.5905
 6508SOL    HW130986   3.136   4.142   4.751 -0.2046  0.8700 -1.0468
 6508SOL    HW230987   3.199   4.007   4.793  1.4000  0.6343 -1.3426
 6509SOL     OW30988   2.377   1.676   0.668 -0.2112 -0.2623 -0.8530
 6509SOL    HW130989   2.421   1.600   0.706  1.0820  0.5376 -0.7349
 6509SOL    HW230990   2.444   1.726   0.622  0.1654  0.0761  0.0569
 6510SOL     OW30991   2.634   0.178   8.570  0.6095  0.0014  0.2578
 6510SOL    HW130992   2.726   0.205   8.581  0.4577  0.9035 -0.7016
 6510SOL    HW230993   2.641   0.083   8.583  1.6192 -0.1755 -1.5732
 6511SOL     OW30994   3.906   0.727  14.229  0.2497  0.6305  0.2773
 6511SOL    HW130995   3.966   0.654  14.243  0.5067  0.9329  0.7509
 6511SOL    HW230996   3.962   0.791  14.185 -0.7467  1.0041 -0.4547
 6512SOL     OW30997   3.030   0.455   4.274  0.2283 -0.2104  0.5182
 6512SOL    HW130998   3.092   0.454   4.202  1.0864 -0.2017  1.2574
 6512SOL    HW230999   2.953   0.430   4.223  0.1746 -1.1861  1.0869
 6513SOL     OW31000   2.045   0.708   3.922 -0.2843  0.5400 -0.3146
 6513SOL    HW131001   2.016   0.702   4.013 -0.8992  2.7156 -0.3761
 6513SOL    HW231002   2.124   0.761   3.930  0.9422 -1.1892 -0.8379
 6514SOL     OW31003   3.811   2.249  16.682 -0.2090  0.4655  0.3761
 6514SOL    HW131004   3.821   2.294  16.598 -0.7098  0.7902  0.4897
 6514SOL    HW231005   3.903   2.237  16.706  0.0237 -1.1984 -1.4034
 6515SOL     OW31006   3.271   2.033  14.175  0.0257  0.7229  0.5777
 6515SOL    HW131007   3.365   2.045  14.163 -0.3625  1.6494 -1.5030
 6515SOL    HW231008   3.249   2.000  14.088  1.2519 -1.0102  0.9357
 6516SOL     OW31009   1.103   3.283   4.499 -0.5407  0.8269 -0.0818
 6516SOL    HW131010   1.031   3.338   4.468 -0.4794  0.7668 -0.3346
 6516SOL    HW231011   1.045   3.209   4.515 -1.1027  1.6125  1.4609
 6517SOL     OW31012   1.048   1.281   2.527 -0.3611 -0.3564  0.3139
 6517SOL    HW131013   1.011   1.265   2.613  1.6004 -1.3034  0.9906
 6517SOL    HW231014   1.090   1.195   2.522  0.5285  0.2565 -3.1593
 6518SOL     OW31015   1.594   3.451  14.190 -0.5480  0.0240  0.5968
 6518SOL    HW131016   1.540   3.467  14.113  0.0968 -1.4231 -0.1620
 6518SOL    HW231017   1.529   3.426  14.256 -1.7954  0.0902 -0.5971
 6519SOL     OW31018   2.341   3.242   6.353 -0.5415  0.3258  0.2482
 6519SOL    HW131019   2.434   3.252   6.334 -0.4794  0.7935  0.7776
 6519SOL    HW231020   2.311   3.331   6.337 -0.4129  0.4048  0.4332
 6520SOL     OW31021   3.747   3.902   7.342 -0.2560 -0.0991 -1.4380
 6520SOL    HW131022   3.723   3.810   7.328 -0.0402 -0.5363  1.1675
 6520SOL    HW231023   3.798   3.902   7.422  3.0073 -0.7990 -3.5280
 6521SOL     OW31024   1.707   3.764   9.677  0.2104 -0.1264  0.2950
 6521SOL    HW131025   1.777   3.804   9.625  2.5649  0.6019  4.0837
 6521SOL    HW231026   1.665   3.712   9.608  1.6885  0.7758 -1.2883
 6522SOL     OW31027   2.466   2.487   3.724  0.1767 -0.0891 -0.5270
 6522SOL    HW131028   2.451   2.394   3.707  1.9776 -0.5598  0.3655
 6522SOL    HW231029   2.507   2.512   3.641  1.6270 -1.9396 -0.3767
 6523SOL     OW31030   2.758   1.299  16.140 -0.3916  0.5768  0.2660
 6523SOL    HW131031   2.745   1.377  16.088 -0.1402  1.5436  1.6524
 6523SOL    HW231032   2.668   1.278  16.166  0.0194 -1.0596  0.3760
 6524SOL     OW31033   0.083   1.675   5.131 -0.1010  0.1255 -0.2588
 6524SOL    HW131034   0.138   1.752   5.145  0.0360 -0.2516  1.2978
 6524SOL    HW231035   0.115   1.617   5.201  0.3751 -2.0482 -2.2702
 6525SOL     OW31036   0.558   1.483   2.049 -0.1107  0.1517 -0.2840
 6525SOL    HW131037   0.596   1.396   2.042 -1.2084 -0.3057 -0.6229
 6525SOL    HW231038   0.552   1.508   1.956  1.2417 -0.2335 -0.4619
 6526SOL     OW31039   4.499   0.200   2.523  0.1185 -0.0298 -0.2648
 6526SOL    HW131040   4.583   0.231   2.557  0.5973 -2.0935  0.4074
 6526SOL    HW231041   4.515   0.107   2.507 -0.0233 -0.0386 -0.3573
 6527SOL     OW31042   1.322   1.937   3.236  0.0984 -0.0073  0.0170
 6527SOL    HW131043   1.392   1.887   3.194 -0.1783  0.2534 -0.7460
 6527SOL    HW231044   1.278   1.995   3.175  0.2617 -0.9949 -1.0406
 6528SOL     OW31045   2.962   2.846   6.478  0.1275  0.5096  0.1055
 6528SOL    HW131046   2.941   2.845   6.571  3.0579  0.7316  0.7809
 6528SOL    HW231047   3.058   2.848   6.473  0.0759 -1.2173 -1.6366
 6529SOL     OW31048   0.212   2.642   5.846 -0.4484 -0.7631 -0.2340
 6529SOL    HW131049   0.174   2.638   5.758 -0.3071  0.6255 -0.3542
 6529SOL    HW231050   0.282   2.577   5.843  0.2544  0.0773 -1.4481
 6530SOL     OW31051   4.659   1.056   1.406  0.0694 -0.2111  0.3107
 6530SOL    HW131052   4.602   0.996   1.455  1.0145 -0.7370  0.7668
 6530SOL    HW231053   4.643   1.036   1.314  0.3282  0.2665  0.1646
 6531SOL     OW31054   1.390   0.180   8.030 -0.1658 -0.8989  0.8518
 6531SOL    HW131055   1.319   0.117   8.038  0.6141 -1.6791  1.6248
 6531SOL    HW231056   1.369   0.216   7.944 -2.0638 -1.4664  1.0762
 6532SOL     OW31057   2.613   0.182   3.860  0.3238 -0.4711 -0.2607
 6532SOL    HW131058   2.656   0.268   3.857 -0.7142 -0.0084 -2.0767
 6532SOL    HW231059   2.675   0.129   3.809  0.3151 -0.3315 -0.4204
 6533SOL     OW31060   3.378   3.062   5.577  0.3004 -0.4930 -0.4295
 6533SOL    HW131061   3.451   3.077   5.518  1.3061 -0.4043  0.8248
 6533SOL    HW231062   3.309   3.117   5.539 -2.7563 -2.5371  2.1236
 6534SOL     OW31063   2.418   4.118   4.926  0.1833  0.4116  0.9234
 6534SOL    HW131064   2.498   4.150   4.885 -0.1545  2.2659  1.6780
 6534SOL    HW231065   2.353   4.153   4.864 -1.2233 -1.7234  1.2092
 6535SOL     OW31066   4.410   0.969   2.048 -0.2556  0.7633  0.4135
 6535SOL    HW131067   4.493   0.926   2.071 -0.3608  1.1493  1.5123
 6535SOL    HW231068   4.366   0.968   2.133  0.4815 -1.9356  0.7514
 6536SOL     OW31069   1.947   0.472   4.395  0.2804 -0.6429 -0.3632
 6536SOL    HW131070   1.994   0.392   4.417  2.0935  1.0800  1.9059
 6536SOL    HW231071   1.899   0.501   4.472  1.3936  1.1485 -0.3352
 6537SOL     OW31072   2.860   0.963   9.366  0.0584 -0.2027  0.1615
 6537SOL    HW131073   2.872   0.948   9.272 -2.5086  0.8964 -0.3475
 6537SOL    HW231074   2.884   1.055   9.366  0.6518 -0.3532 -1.4241
 6538SOL     OW31075   2.793   0.379   3.917 -0.1689  0.0315 -0.1614
 6538SOL    HW131076   2.888   0.379   3.909 -0.2579 -2.1190 -1.1716
 6538SOL    HW231077   2.790   0.448   3.983  2.4573  2.1547 -2.2508
 6539SOL     OW31078   3.871   1.094  15.261  0.0825  0.3235  0.2515
 6539SOL    HW131079   3.842   1.149  15.188 -1.0445  1.0685  1.2669
 6539SOL    HW231080   3.785   1.061  15.287 -0.5515  1.2753 -0.6295
 6540SOL     OW31081   4.524   1.068   1.787  0.2237 -0.2841 -0.4335
 6540SOL    HW131082   4.601   1.088   1.840  0.0151  2.5254 -1.2300
 6540SOL    HW231083   4.566   1.009   1.724  2.5019  1.7205 -0.7707
 6541SOL     OW31084   2.849   2.972   3.035  0.1439  0.1718 -0.0325
 6541SOL    HW131085   2.941   2.992   3.050  0.2547 -0.1626 -0.2691
 6541SOL    HW231086   2.842   2.877   3.045 -3.7971  0.4929  0.3667
 6542SOL     OW31087   1.794   1.086  17.004  0.0339 -0.1461 -0.1937
 6542SOL    HW131088   1.789   1.127  17.090  0.7106  0.8601 -0.6387
 6542SOL    HW231089   1.707   1.109  16.970  0.0533  0.1897 -0.0144
 6543SOL     OW31090   0.563   3.155   0.173  0.5806 -0.2947 -0.0473
 6543SOL    HW131091   0.543   3.063   0.154  0.7777 -0.1462 -0.9901
 6543SOL    HW231092   0.655   3.145   0.197  0.4403 -0.9513  0.2414
 6544SOL     OW31093   1.925   1.171   2.318 -0.4384  0.1147 -0.0743
 6544SOL    HW131094   1.887   1.190   2.404 -1.7483 -0.7444 -0.4594
 6544SOL    HW231095   1.907   1.252   2.271 -0.2925 -0.5362 -1.2568
 6545SOL     OW31096   3.773   3.068   8.941 -0.7169  0.1060  0.6627
 6545SOL    HW131097   3.850   3.024   8.904 -2.0572 -2.2810  0.6658
 6545SOL    HW231098   3.755   3.134   8.874 -0.9122 -0.8248 -0.2046
 6546SOL     OW31099   3.187   2.810   6.748  0.5236  0.0847 -0.2239
 6546SOL    HW131100   3.280   2.797   6.769 -0.0311 -1.8161  1.0940
 6546SOL    HW231101   3.183   2.776   6.659  0.9613 -2.3666  0.6842
 6547SOL     OW31102   2.283   0.354   3.467  0.0711  0.2349 -0.2093
 6547SOL    HW131103   2.292   0.427   3.405  0.4815 -0.5766 -1.0993
 6547SOL    HW231104   2.350   0.296   3.432  3.1021  1.9091  2.7951
 6548SOL     OW31105   3.667   1.493   2.475  0.3704 -0.0986  0.2169
 6548SOL    HW131106   3.573   1.512   2.472  0.4839  0.1451 -1.4494
 6548SOL    HW231107   3.684   1.483   2.382  0.8476  2.0025  0.0848
 6549SOL     OW31108   4.483   0.024  13.804 -0.3320 -0.3884  0.0619
 6549SOL    HW131109   4.403   0.055  13.761  0.4722  2.8191  0.9308
 6549SOL    HW231110   4.552   0.031  13.738  0.1214  1.1418  0.7033
 6550SOL     OW31111   3.935   1.753   7.951  0.1163 -0.0612 -0.0048
 6550SOL    HW131112   3.930   1.693   8.025 -1.1144  1.6834  1.3205
 6550SOL    HW231113   3.858   1.720   7.906  0.1205 -0.2392  0.1218
 6551SOL     OW31114   4.234   4.529   9.329 -0.1099 -0.1546  0.0230
 6551SOL    HW131115   4.147   4.566   9.338 -0.3955 -0.9279  0.4245
 6551SOL    HW231116   4.268   4.573   9.406 -2.6058 -0.1652  1.1052
 6552SOL     OW31117   0.320   1.660   1.641 -0.5004 -0.3076 -0.1673
 6552SOL    HW131118   0.407   1.651   1.602 -0.6334 -0.8845 -0.3321
 6552SOL    HW231119   0.279   1.575   1.625  2.1765 -1.7595  0.8381
 6553SOL     OW31120   2.926   0.127  16.074  0.9291  0.0340  0.1321
 6553SOL    HW131121   3.015   0.097  16.060  0.7656 -0.9422  1.2667
 6553SOL    HW231122   2.875   0.075  16.011  1.9409 -1.0269  0.1979
 6554SOL     OW31123   4.657   4.321   2.483  0.3518 -0.0789  0.0569
 6554SOL    HW131124   4.626   4.326   2.392  0.6545 -0.0375 -0.0434
 6554SOL    HW231125   4.700   4.407   2.489  0.9962 -0.1936 -2.5304
 6555SOL     OW31126   3.737   1.776   1.582 -0.1069 -0.2235  0.5327
 6555SOL    HW131127   3.646   1.804   1.575 -0.7585 -2.2807  0.7841
 6555SOL    HW231128   3.730   1.741   1.670  1.4053  1.0164  1.1538
 6556SOL     OW31129   1.071   1.004  11.414 -0.5967 -0.0133 -0.0553
 6556SOL    HW131130   1.101   1.031  11.327 -1.8564 -0.1635 -0.5469
 6556SOL    HW231131   0.975   1.005  11.405 -0.5563 -1.2574 -0.6814
 6557SOL     OW31132   3.762   1.084   9.812  0.5986 -0.1839  0.0842
 6557SOL    HW131133   3.763   1.003   9.863 -0.3387  0.2579  0.7982
 6557SOL    HW231134   3.688   1.139   9.838  1.2862  0.2798  1.0374
 6558SOL     OW31135   3.146   0.481   8.077  0.1835  0.9204 -0.3852
 6558SOL    HW131136   3.170   0.507   7.988  2.8248 -0.6511 -0.1467
 6558SOL    HW231137   3.122   0.390   8.060 -2.0607  1.0512  2.1700
 6559SOL     OW31138   3.963   1.304   6.812 -0.5116  0.2191 -0.7165
 6559SOL    HW131139   4.039   1.304   6.754 -0.4762  0.9895 -0.6768
 6559SOL    HW231140   3.961   1.383   6.867 -2.3260 -0.9337  0.9016
 6560SOL     OW31141   1.382   1.642   4.488  0.7160  0.5979  0.5680
 6560SOL    HW131142   1.310   1.684   4.441  1.7743 -0.8093 -2.3736
 6560SOL    HW231143   1.426   1.722   4.515  1.4255  0.7713 -1.0479
 6561SOL     OW31144   1.099   4.686   2.045 -0.5243  0.2945  0.3482
 6561SOL    HW131145   1.150   4.696   1.965  0.7100  0.1716  1.1228
 6561SOL    HW231146   1.007   4.703   2.023 -0.3679 -1.4437 -1.6479
 6562SOL     OW31147   3.640   3.296  16.902 -0.0772 -0.3255  0.2689
 6562SOL    HW131148   3.580   3.230  16.865  0.1322  1.0468 -2.5449
 6562SOL    HW231149   3.590   3.377  16.891  1.1164  0.5399  1.3453
 6563SOL     OW31150   0.842   0.305  15.926  0.0871  0.3056 -0.4048
 6563SOL    HW131151   0.895   0.233  15.959  1.5415  1.0734 -1.0549
 6563SOL    HW231152   0.858   0.306  15.832 -0.0759 -2.1095 -0.4721
 6564SOL     OW31153   0.598   2.785   7.091  0.2943  0.0846 -0.2914
 6564SOL    HW131154   0.587   2.701   7.047  0.0537 -0.0777  0.0709
 6564SOL    HW231155   0.539   2.841   7.041  0.3222  0.5698  0.2172
 6565SOL     OW31156   1.548   0.460   6.388  0.0039  0.2520  0.2619
 6565SOL    HW131157   1.486   0.470   6.459  1.2786 -0.0312  1.4111
 6565SOL    HW231158   1.602   0.387   6.418 -1.2862 -0.6826  0.2831
 6566SOL     OW31159   3.633   2.434   8.577 -0.0042  0.4025 -0.5930
 6566SOL    HW131160   3.599   2.521   8.598 -1.3071 -0.2466 -0.0266
 6566SOL    HW231161   3.582   2.371   8.628 -0.4224  1.1109 -0.1345
 6567SOL     OW31162   2.536   2.531  15.453 -0.2575  0.0891  0.4231
 6567SOL    HW131163   2.615   2.585  15.450  0.9052 -1.6595 -0.8646
 6567SOL    HW231164   2.476   2.601  15.431 -0.2385 -0.3271 -0.9566
 6568SOL     OW31165   2.255   2.472   8.583  0.5225  0.4249 -0.7646
 6568SOL    HW131166   2.204   2.547   8.552 -0.0332  1.1041  1.8159
 6568SOL    HW231167   2.257   2.414   8.506 -0.9449 -1.9920  1.0047
 6569SOL     OW31168   4.232   2.689   1.501  0.2363  0.2484  0.1531
 6569SOL    HW131169   4.255   2.676   1.409 -5.1290  1.0160 -1.2681
 6569SOL    HW231170   4.320   2.699   1.537  0.8104  3.1615 -2.0622
 6570SOL     OW31171   0.226   3.491   3.731 -0.2436  0.0509  0.1915
 6570SOL    HW131172   0.196   3.403   3.752 -2.9221  0.5623 -1.5087
 6570SOL    HW231173   0.209   3.499   3.637 -1.0886  0.5910  0.3897
 6571SOL     OW31174   3.840   1.598   5.278 -0.2811  0.0502 -0.3090
 6571SOL    HW131175   3.789   1.678   5.287  1.6053  1.1399  0.8540
 6571SOL    HW231176   3.773   1.538   5.247 -1.3758  1.3944 -0.5513
 6572SOL     OW31177   3.076   3.165   8.997 -0.2090 -0.3754 -0.6577
 6572SOL    HW131178   3.117   3.224   8.933 -0.4599 -1.6135 -1.9450
 6572SOL    HW231179   3.088   3.080   8.955 -0.4142 -0.9290  0.4009
 6573SOL     OW31180   0.071   2.083   1.260 -0.0917 -0.0200  0.2261
 6573SOL    HW131181   0.145   2.098   1.201  0.3351 -1.5070  0.3657
 6573SOL    HW231182   0.119   2.100   1.341  0.8496  0.9169 -0.5363
 6574SOL     OW31183   0.633   3.576  12.245 -0.1206  0.0263 -0.0019
 6574SOL    HW131184   0.560   3.514  12.255 -0.5630  0.4138 -0.8434
 6574SOL    HW231185   0.700   3.521  12.204 -2.1194 -1.8111 -0.8019
 6575SOL     OW31186   1.274   0.745   3.495 -0.0214  0.8445 -0.0416
 6575SOL    HW131187   1.202   0.804   3.473  0.5675  1.0926 -1.2736
 6575SOL    HW231188   1.265   0.759   3.589  0.3503  0.9095 -0.0185
 6576SOL     OW31189   0.587   1.704  13.560  0.1739  0.2631 -0.3828
 6576SOL    HW131190   0.534   1.737  13.632 -0.0961  0.7041 -0.7870
 6576SOL    HW231191   0.677   1.704  13.595  0.2648 -1.2380 -0.6098
 6577SOL     OW31192   1.137   3.918   4.267 -0.0986  0.3314 -0.2718
 6577SOL    HW131193   1.136   3.832   4.309  1.4179 -0.2946 -1.5201
 6577SOL    HW231194   1.043   3.927   4.250  0.5111  1.5222 -3.0189
 6578SOL     OW31195   3.760   2.644   1.076 -0.1274 -0.1560  0.0465
 6578SOL    HW131196   3.673   2.631   1.114  0.0663 -0.9243  0.2309
 6578SOL    HW231197   3.791   2.705   1.144 -0.9031 -1.5624  1.6680
 6579SOL     OW31198   2.368   1.086  12.618 -0.5773  0.0482  0.2408
 6579SOL    HW131199   2.415   1.011  12.581  0.1190  0.0434  1.1408
 6579SOL    HW231200   2.277   1.058  12.610  0.2502 -2.4935 -0.3275
 6580SOL     OW31201   2.792   2.309   7.965  0.5810 -0.0436 -0.7918
 6580SOL    HW131202   2.801   2.238   8.028 -1.1332  1.5518  1.2707
 6580SOL    HW231203   2.715   2.283   7.914  0.2898  1.8493 -1.3330
 6581SOL     OW31204   3.410   2.310  17.333  0.6268 -0.3613  0.2921
 6581SOL    HW131205   3.398   2.388  17.279 -3.4887 -0.7565  0.6192
 6581SOL    HW231206   3.342   2.319  17.400 -0.1866  0.1529 -0.6120
 6582SOL     OW31207   4.159   4.514  17.698 -0.4020  0.5193  0.1578
 6582SOL    HW131208   4.085   4.464   0.022 -1.7236  1.7970 -0.7863
 6582SOL    HW231209   4.201   4.552   0.064 -1.4028  1.2866  0.3213
 6583SOL     OW31210   3.540   1.685   3.448  0.0134  0.2339 -0.3951
 6583SOL    HW131211   3.466   1.737   3.416  0.0740  0.0451 -0.8371
 6583SOL    HW231212   3.576   1.760   3.496  1.9706 -0.7015 -0.4126
 6584SOL     OW31213   3.433   0.425   1.190  0.0544 -0.5765  0.1449
 6584SOL    HW131214   3.399   0.457   1.274  0.5889  1.4054 -0.3937
 6584SOL    HW231215   3.414   0.493   1.126 -1.2102 -1.8415 -0.8199
 6585SOL     OW31216   2.687   0.769   5.408 -0.6764  0.3084  0.0454
 6585SOL    HW131217   2.763   0.785   5.463  0.6821  0.2436 -1.8399
 6585SOL    HW231218   2.627   0.744   5.479 -0.7611  2.3048  0.6680
 6586SOL     OW31219   4.246   3.500   3.558  0.1826 -0.5187  0.0795
 6586SOL    HW131220   4.231   3.413   3.595 -1.0227  1.3326  3.9026
 6586SOL    HW231221   4.158   3.528   3.531 -0.1067 -0.9496  0.5887
 6587SOL     OW31222   3.134   4.234   3.289  0.1245  0.5477 -0.3029
 6587SOL    HW131223   3.216   4.187   3.279 -0.7071 -0.8520 -0.5470
 6587SOL    HW231224   3.076   4.166   3.255  2.2281 -1.1148 -0.5272
 6588SOL     OW31225   0.353   1.662   7.926  0.2875 -0.0468 -0.5008
 6588SOL    HW131226   0.309   1.604   7.988 -0.8893 -1.0680 -2.2915
 6588SOL    HW231227   0.310   1.746   7.943  2.9264  0.7274  2.1308
 6589SOL     OW31228   0.269   0.991   5.123 -0.0173 -0.4509  0.1031
 6589SOL    HW131229   0.198   1.034   5.076 -0.6645 -1.2976  0.3038
 6589SOL    HW231230   0.236   0.934   5.192 -0.3834 -0.2100  0.1267
 6590SOL     OW31231   1.223   2.710   5.086 -0.6617  0.1105 -0.5193
 6590SOL    HW131232   1.287   2.734   5.152 -2.1270 -1.4949  1.4641
 6590SOL    HW231233   1.244   2.777   5.021 -0.5308  0.3181 -0.2632
 6591SOL     OW31234   2.342   2.943   8.795  0.0388 -0.0273 -0.0221
 6591SOL    HW131235   2.421   2.896   8.824 -1.3185 -1.7661  0.8332
 6591SOL    HW231236   2.342   2.939   8.700 -0.0835 -1.8337  0.0574
 6592SOL     OW31237   2.395   0.069   7.234 -0.4125  0.2358 -0.0852
 6592SOL    HW131238   2.451   0.034   7.165  0.5655 -1.4999  1.5806
 6592SOL    HW231239   2.411   0.162   7.221  1.8171 -0.4679 -2.2840
 6593SOL     OW31240   2.563   0.496   5.589  0.0911  0.0731  0.1640
 6593SOL    HW131241   2.489   0.528   5.641  1.7130  1.5942  1.5214
 6593SOL    HW231242   2.602   0.429   5.644 -2.1074 -0.1862  1.4232
 6594SOL     OW31243   0.934   0.539   5.685  0.0509 -0.3018 -0.3423
 6594SOL    HW131244   0.990   0.608   5.723  0.5400  0.0131 -1.6318
 6594SOL    HW231245   0.848   0.580   5.671  0.4243  1.0757  1.4128
 6595SOL     OW31246   1.599   3.543  13.879 -0.2299 -0.2980 -0.5095
 6595SOL    HW131247   1.511   3.532  13.914  0.0914  0.1080  0.4211
 6595SOL    HW231248   1.631   3.602  13.947 -0.1287  0.9124 -1.6027
 6596SOL     OW31249   1.778   2.249   1.293  0.5258 -0.1883  0.0076
 6596SOL    HW131250   1.812   2.239   1.382 -1.9223  0.2708  0.9855
 6596SOL    HW231251   1.690   2.215   1.303  1.0473 -2.0093 -1.6857
 6597SOL     OW31252   1.943   0.079   2.135  0.1234  0.3428 -0.0668
 6597SOL    HW131253   1.855   0.075   2.172  0.3673 -0.5401  0.4154
 6597SOL    HW231254   1.958   4.714   2.155  0.6031  0.5342  0.4644
 6598SOL     OW31255   3.335   4.571   7.640  0.0549  0.2001  0.2871
 6598SOL    HW131256   3.337   4.498   7.578 -0.8734 -1.6701  2.4585
 6598SOL    HW231257   3.423   4.608   7.633  0.9790 -1.8880  0.7601
 6599SOL     OW31258   1.231   3.753   3.604  0.0078 -0.1558  0.1862
 6599SOL    HW131259   1.237   3.659   3.622 -0.5322 -0.0618  0.8232
 6599SOL    HW231260   1.141   3.748   3.572  0.6564 -1.6007 -1.3882
 6600SOL     OW31261   0.025   1.432  17.138  0.0760  0.0294  0.4067
 6600SOL    HW131262   0.062   1.416  17.052  0.0277 -1.1363  0.6007
 6600SOL    HW231263   0.040   1.350  17.186 -0.0793 -1.2718 -1.8098
 6601SOL     OW31264   2.162   1.612   1.708  0.3369  0.0272  0.1406
 6601SOL    HW131265   2.105   1.540   1.683  0.7438 -0.6581  1.1611
 6601SOL    HW231266   2.200   1.627   1.622  0.7489  1.8810  0.6621
 6602SOL     OW31267   1.658   2.340  16.349  0.0575 -0.3581 -0.4753
 6602SOL    HW131268   1.664   2.254  16.391  3.1531  1.2007  2.2309
 6602SOL    HW231269   1.733   2.333  16.291  0.0182 -3.5006 -0.1810
 6603SOL     OW31270   0.153   2.160   8.174 -0.0129 -0.3872  0.2350
 6603SOL    HW131271   0.064   2.172   8.140  0.0843 -0.9543 -0.2264
 6603SOL    HW231272   0.140   2.178   8.267  1.8173 -1.4194  0.6862
 6604SOL     OW31273   4.462   0.532   8.699  0.3964  0.3908 -0.2775
 6604SOL    HW131274   4.555   0.541   8.717  0.2737 -0.6070  0.7893
 6604SOL    HW231275   4.426   0.553   8.785 -0.6534  1.6214 -1.0071
 6605SOL     OW31276   4.573   1.918   2.298 -0.1055 -0.1658 -0.1954
 6605SOL    HW131277   4.549   1.826   2.307 -0.9052  0.0444 -0.1959
 6605SOL    HW231278   4.526   1.956   2.371 -1.1233  0.6315 -1.2587
 6606SOL     OW31279   2.100   0.772   9.700  0.3528  0.5753 -0.5148
 6606SOL    HW131280   2.097   0.708   9.772  1.5446  0.0862 -0.9025
 6606SOL    HW231281   2.096   0.858   9.741 -0.5654 -1.7033  4.2025
 6607SOL     OW31282   0.827   4.498   8.987  0.0561 -0.5181  0.1462
 6607SOL    HW131283   0.747   4.536   9.022  0.5981  1.9010 -1.3024
 6607SOL    HW231284   0.877   4.492   9.069 -2.1353  0.7754  1.5736
 6608SOL     OW31285   1.484   4.300   2.578  0.4081 -0.2305 -0.2661
 6608SOL    HW131286   1.540   4.346   2.641  0.0635  0.0710 -0.1821
 6608SOL    HW231287   1.423   4.366   2.546  0.3071 -0.0363  0.3260
 6609SOL     OW31288   2.439   4.615   4.759  0.3307  0.2386 -0.4304
 6609SOL    HW131289   2.382   4.615   4.836 -0.9629 -0.5731 -1.3859
 6609SOL    HW231290   2.373   4.635   4.693  1.7315 -0.1360 -1.9463
 6610SOL     OW31291   4.542   4.345   5.743 -0.0097  0.2001 -0.3628
 6610SOL    HW131292   4.504   4.324   5.828  1.1091 -1.1487 -0.1895
 6610SOL    HW231293   4.511   4.435   5.740 -2.6065 -0.6056  2.0746
 6611SOL     OW31294   3.629   4.034   7.143 -0.6560  0.3285  0.5226
 6611SOL    HW131295   3.668   3.980   7.212 -0.3811 -1.3241 -0.9006
 6611SOL    HW231296   3.633   4.119   7.186  1.6647  0.3079  0.3904
 6612SOL     OW31297   4.086   0.954  16.326  0.2882  0.7663  0.3907
 6612SOL    HW131298   3.997   0.919  16.331  1.0200 -1.0168  0.8385
 6612SOL    HW231299   4.083   0.996  16.240  0.3884 -1.1115 -0.5323
 6613SOL     OW31300   0.853   4.460   8.729 -0.0059  0.5234  0.3381
 6613SOL    HW131301   0.844   4.467   8.824  1.6654  1.7249  0.3967
 6613SOL    HW231302   0.833   4.549   8.698 -0.6436  0.4007  0.3989
 6614SOL     OW31303   2.186   3.076   8.052 -0.4500  0.0793 -0.2984
 6614SOL    HW131304   2.093   3.095   8.039 -0.3787  1.4865  1.2264
 6614SOL    HW231305   2.211   3.080   7.959  0.0831 -2.7351 -0.2785
 6615SOL     OW31306   2.195   2.810   8.157  0.4877 -0.2576  0.2793
 6615SOL    HW131307   2.208   2.898   8.122 -3.3122 -0.2074 -1.0230
 6615SOL    HW231308   2.103   2.801   8.132  0.6172 -0.3415 -0.1635
 6616SOL     OW31309   0.159   0.827  16.115  0.1663 -0.5956  0.3451
 6616SOL    HW131310   0.163   0.734  16.137  1.9050 -1.0991 -2.0846
 6616SOL    HW231311   0.252   0.849  16.122  0.0662 -0.4147  1.0668
 6617SOL     OW31312   1.213   3.553   7.029  0.0390  0.0612 -0.2322
 6617SOL    HW131313   1.185   3.480   6.972 -0.8243 -0.1185  0.4290
 6617SOL    HW231314   1.302   3.571   6.999 -1.0280  1.9565 -2.2416
 6618SOL     OW31315   0.989   4.131  17.634 -0.6103  0.2776  0.5489
 6618SOL    HW131316   0.923   4.151  17.568 -1.0107  3.7997  2.0249
 6618SOL    HW231317   1.017   4.220  17.653 -1.0658  0.6454 -0.4691
 6619SOL     OW31318   0.203   0.441   6.910 -0.0356  0.4042 -0.2084
 6619SOL    HW131319   0.201   0.465   7.002  3.8422 -0.1259  0.0195
 6619SOL    HW231320   0.239   0.516   6.863  0.3371  2.4104  3.3228
 6620SOL     OW31321   4.433   3.141   3.668  0.0078  0.6233  0.7730
 6620SOL    HW131322   4.338   3.132   3.665  0.2281 -1.4726 -0.2157
 6620SOL    HW231323   4.450   3.225   3.624  0.2134  0.3848  0.3937
 6621SOL     OW31324   4.646   2.604  16.711 -0.0200 -0.0678 -0.5151
 6621SOL    HW131325   4.654   2.642  16.623 -1.0709  0.9053 -0.1946
 6621SOL    HW231326   0.001   2.559  16.726  0.6985  0.8264 -1.8154
 6622SOL     OW31327   3.484   0.141   4.138  0.4692 -0.6951 -0.1731
 6622SOL    HW131328   3.457   0.085   4.211 -1.5967  1.0347  0.4072
 6622SOL    HW231329   3.494   0.067   4.079 -1.7623 -0.9776 -0.2168
 6623SOL     OW31330   1.276   2.969  14.459  0.1729  0.4518  0.7153
 6623SOL    HW131331   1.186   2.944  14.479  0.3551  0.1422  1.1359
 6623SOL    HW231332   1.264   3.007  14.372  0.9413  0.4561  0.6069
 6624SOL     OW31333   2.614   1.243   9.911  0.0246 -0.1818 -0.2096
 6624SOL    HW131334   2.703   1.253   9.944  0.2214  2.3837 -1.5381
 6624SOL    HW231335   2.583   1.333   9.911  0.1244 -0.1618  1.2524
 6625SOL     OW31336   0.699   4.003   5.414 -0.2298 -0.5064 -0.2520
 6625SOL    HW131337   0.766   3.942   5.381  1.0620  0.3980  0.7160
 6625SOL    HW231338   0.618   3.958   5.392  0.3188 -0.1206 -2.9841
 6626SOL     OW31339   3.350   2.307   3.408  0.8469  0.5874 -0.4283
 6626SOL    HW131340   3.344   2.354   3.325 -1.0635  0.5418 -0.3304
 6626SOL    HW231341   3.424   2.356   3.442  0.2218 -1.5588  4.0391
 6627SOL     OW31342   2.729   3.972   8.329 -0.5481 -0.5577  0.0304
 6627SOL    HW131343   2.646   3.999   8.288  1.3451  2.5389 -1.7892
 6627SOL    HW231344   2.701   3.920   8.404 -2.2623  0.4856  0.1106
 6628SOL     OW31345   0.905   2.567  13.482 -0.3898  0.0965 -0.3673
 6628SOL    HW131346   0.812   2.572  13.462 -0.5074 -0.4037  0.0566
 6628SOL    HW231347   0.933   2.498  13.422  0.2327 -1.9329  2.2677
 6629SOL     OW31348   3.107   0.577   9.318  0.0940  0.1980 -0.0052
 6629SOL    HW131349   3.037   0.605   9.258  1.8188  1.7249 -1.3009
 6629SOL    HW231350   3.116   0.493   9.272  0.9533 -0.0631  0.6434
 6630SOL     OW31351   3.778   4.202   3.571 -0.0211  0.5422  0.3940
 6630SOL    HW131352   3.720   4.278   3.582  0.7017  0.9362  1.4938
 6630SOL    HW231353   3.786   4.177   3.663 -1.9160 -0.7121  0.2160
 6631SOL     OW31354   3.453   0.107   6.652  0.9202 -0.1732 -0.3259
 6631SOL    HW131355   3.477   0.143   6.737 -1.3002 -1.5964  0.8888
 6631SOL    HW231356   3.373   0.159   6.641 -0.7027 -3.0650 -2.2184
 6632SOL     OW31357   4.117   3.953  15.079 -0.2381 -0.2092 -0.2130
 6632SOL    HW131358   4.024   3.968  15.065 -0.5066  0.1228  1.9179
 6632SOL    HW231359   4.148   4.041  15.100 -0.7506  0.3387 -1.7467
 6633SOL     OW31360   1.322   1.859   8.380 -0.0283  0.2073  0.0411
 6633SOL    HW131361   1.262   1.784   8.374 -2.1320  2.1345 -3.2817
 6633SOL    HW231362   1.404   1.824   8.415  0.0821 -0.6311 -1.0379
 6634SOL     OW31363   4.410   3.515   6.216  0.2998 -0.1987 -0.0066
 6634SOL    HW131364   4.407   3.571   6.139 -0.3280 -0.4872 -0.1985
 6634SOL    HW231365   4.443   3.580   6.279  1.9208 -2.1965  1.2153
 6635SOL     OW31366   1.015   1.470   4.911 -0.1002 -0.1450 -0.0290
 6635SOL    HW131367   0.990   1.502   4.825  0.5461  0.8274  0.1441
 6635SOL    HW231368   0.948   1.404   4.929  0.0859 -0.7502 -1.5708
 6636SOL     OW31369   3.631   0.683   0.446 -0.1718 -0.0485 -0.2291
 6636SOL    HW131370   3.674   0.685   0.532  0.2827 -1.4739 -0.4298
 6636SOL    HW231371   3.542   0.664   0.476  1.4272 -2.7828  2.8334
 6637SOL     OW31372   1.743   0.227   6.437 -0.1677  0.0343  0.5530
 6637SOL    HW131373   1.731   0.133   6.421 -0.3272  0.5614 -2.5733
 6637SOL    HW231374   1.778   0.229   6.526  1.0984  0.2232  0.0457
 6638SOL     OW31375   3.858   4.369  16.551  0.0588  0.0268  0.3626
 6638SOL    HW131376   3.881   4.422  16.474 -0.9386 -1.9866 -1.3250
 6638SOL    HW231377   3.942   4.371  16.596  1.3583  1.4875 -2.0980
 6639SOL     OW31378   0.117   2.356   3.178  0.4676 -0.5082  0.1525
 6639SOL    HW131379   0.026   2.382   3.194  0.9142  2.0923 -1.4509
 6639SOL    HW231380   0.099   2.318   3.092 -0.0104 -0.6625  0.3239
 6640SOL     OW31381   4.234   1.651   4.131  0.1410  0.3068  0.0251
 6640SOL    HW131382   4.207   1.603   4.053  2.4478 -0.6197 -0.2149
 6640SOL    HW231383   4.326   1.625   4.136 -0.1172 -0.6249 -0.1160
 6641SOL     OW31384   2.128   2.805   7.265 -0.4730  0.0076 -0.4913
 6641SOL    HW131385   2.148   2.723   7.219 -0.2768 -0.3291  0.1955
 6641SOL    HW231386   2.148   2.794   7.358 -1.7464 -0.1658 -0.2339
 6642SOL     OW31387   3.462   0.588  17.538 -0.0478  0.7515  0.3292
 6642SOL    HW131388   3.390   0.526  17.529 -1.6677  2.7143 -0.2558
 6642SOL    HW231389   3.416   0.655  17.588 -0.5899 -2.5963  4.2831
 6643SOL     OW31390   1.214   1.787   8.920  0.6346  0.1887  0.1170
 6643SOL    HW131391   1.235   1.861   8.977  0.7479 -0.3556  0.7783
 6643SOL    HW231392   1.199   1.722   8.988  2.2409 -0.9569 -0.6165
 6644SOL     OW31393   1.604   1.865   2.006  0.1476 -0.1495  0.3246
 6644SOL    HW131394   1.598   1.949   1.959 -0.5300 -1.6566 -2.2581
 6644SOL    HW231395   1.669   1.820   1.951  1.5454  0.5843  1.3865
 6645SOL     OW31396   2.293   2.117  10.697 -0.0592 -0.2996 -0.3378
 6645SOL    HW131397   2.224   2.179  10.722  0.4734  1.2605 -2.7420
 6645SOL    HW231398   2.260   2.060  10.628 -0.4574  0.3108 -0.6513
 6646SOL     OW31399   4.199   3.320  13.550 -0.0743  0.0103  0.0618
 6646SOL    HW131400   4.213   3.278  13.635  0.5954  0.4354  0.1621
 6646SOL    HW231401   4.145   3.253  13.508  2.3449 -1.4144 -0.8129
 6647SOL     OW31402   0.269   2.627   3.806 -0.7618 -0.4571  0.4834
 6647SOL    HW131403   0.258   2.692   3.875 -0.9738 -0.9008  0.8643
 6647SOL    HW231404   0.223   2.670   3.734 -0.3687 -2.0493 -0.7420
 6648SOL     OW31405   3.200   1.126   8.293  0.4524  0.3640  0.7483
 6648SOL    HW131406   3.132   1.191   8.311 -1.5520 -1.3060 -0.8402
 6648SOL    HW231407   3.225   1.090   8.379  0.7710  1.0614  0.9531
 6649SOL     OW31408   0.193   0.991   2.843  0.2560 -0.0379  0.2528
 6649SOL    HW131409   0.175   0.916   2.786 -0.1630 -0.0474  0.3992
 6649SOL    HW231410   0.105   1.027   2.848  0.1626 -0.3593  0.9045
 6650SOL     OW31411   4.055   4.471   0.284  0.4459 -0.1710 -0.2435
 6650SOL    HW131412   4.081   4.512   0.366  1.8555  0.0823 -0.8198
 6650SOL    HW231413   3.970   4.513   0.269  1.3110  2.0239  1.1970
 6651SOL     OW31414   4.323   1.268   3.144  0.2299 -0.0251 -0.4530
 6651SOL    HW131415   4.301   1.321   3.221 -1.0417 -1.6652  0.2956
 6651SOL    HW231416   4.405   1.225   3.169  0.0401  0.8570  1.7269
 6652SOL     OW31417   3.355   2.595   7.468  0.0377  0.4813 -0.4095
 6652SOL    HW131418   3.367   2.689   7.452 -1.7014  0.9108  0.7860
 6652SOL    HW231419   3.360   2.604   7.563  0.4696 -1.3995 -0.2616
 6653SOL     OW31420   1.788   3.057   8.520  0.2242  0.0624  0.1615
 6653SOL    HW131421   1.696   3.084   8.525  0.0070 -0.5803 -0.3921
 6653SOL    HW231422   1.802   3.000   8.445 -1.1753  1.3453 -1.0691
 6654SOL     OW31423   3.878   2.699   8.935 -0.2717 -0.6740 -0.0976
 6654SOL    HW131424   3.948   2.740   8.883  1.4639 -0.6514  2.2363
 6654SOL    HW231425   3.872   2.620   8.881  1.7051  0.2299 -1.6509
 6655SOL     OW31426   3.049   1.570   2.600 -0.3112  0.2682 -0.5485
 6655SOL    HW131427   3.095   1.490   2.624 -1.4064 -1.4667 -4.2012
 6655SOL    HW231428   2.959   1.544   2.619 -0.7657  1.0546 -1.5933
 6656SOL     OW31429   4.287   2.646  14.947 -0.0771  0.1608 -0.0552
 6656SOL    HW131430   4.330   2.718  14.902 -0.4500 -0.4358 -1.3545
 6656SOL    HW231431   4.346   2.576  14.920  0.4827  0.0353  1.4582
 6657SOL     OW31432   2.268   3.729   3.200  0.5465  0.4874 -0.1461
 6657SOL    HW131433   2.227   3.696   3.120  1.7203  0.2444 -0.6442
 6657SOL    HW231434   2.215   3.803   3.229 -1.9907 -1.3993  0.1242
 6658SOL     OW31435   2.198   4.162   3.676  0.3819  0.0795  0.3762
 6658SOL    HW131436   2.121   4.155   3.619  0.0499  1.1238  0.7050
 6658SOL    HW231437   2.186   4.089   3.736 -0.7735 -0.5090 -0.5734
 6659SOL     OW31438   1.314   3.100   3.482 -0.0593  0.2982  0.8942
 6659SOL    HW131439   1.398   3.094   3.435 -1.2921  2.2566 -1.5214
 6659SOL    HW231440   1.308   3.020   3.535  1.0627  1.3141  2.5799
 6660SOL     OW31441   4.123   3.099   3.379  0.1195  0.8516 -0.2404
 6660SOL    HW131442   4.109   3.032   3.446  0.9194  0.4265 -0.5057
 6660SOL    HW231443   4.217   3.090   3.365  0.0019  1.8889 -1.6711
 6661SOL     OW31444   0.889   1.518   3.155  0.2939 -0.5957  0.0863
 6661SOL    HW131445   0.890   1.606   3.118 -1.8635 -1.4690 -2.0416
 6661SOL    HW231446   0.923   1.470   3.080  1.5708 -0.7671  0.7756
 6662SOL     OW31447   4.061   3.734  13.604  0.1253  0.1378  0.5352
 6662SOL    HW131448   4.151   3.741  13.573  0.3727 -0.1408  1.1929
 6662SOL    HW231449   4.050   3.639  13.594 -0.6041  0.2211  0.5946
 6663SOL     OW31450   0.662   3.902   4.652  0.4304 -0.1552 -0.1478
 6663SOL    HW131451   0.703   3.982   4.685 -1.4252  0.9786 -0.5847
 6663SOL    HW231452   0.729   3.834   4.653  0.5264 -0.0533  0.5003
 6664SOL     OW31453   1.565   0.413  15.149 -0.1248  0.4601  0.2588
 6664SOL    HW131454   1.471   0.397  15.157  0.2871 -1.9064  0.3539
 6664SOL    HW231455   1.558   0.461  15.067  2.4526 -2.3861 -1.5946
 6665SOL     OW31456   2.988   2.524  10.937  0.1756  0.2271 -0.3547
 6665SOL    HW131457   2.966   2.431  10.948 -1.9752  0.7639 -0.0970
 6665SOL    HW231458   3.080   2.524  10.963 -0.3481  0.3686  1.4958
 6666SOL     OW31459   0.097   0.681   6.160 -0.3515 -0.3447  0.1226
 6666SOL    HW131460   0.157   0.744   6.199 -0.8090  0.5578 -0.6407
 6666SOL    HW231461   0.144   0.602   6.189  1.0838  0.4704 -0.0017
 6667SOL     OW31462   1.943   0.768   9.428  0.3445 -0.3957  0.0418
 6667SOL    HW131463   1.972   0.751   9.518  0.4995 -0.6758 -0.0599
 6667SOL    HW231464   1.956   0.682   9.387 -1.7161 -0.5106 -0.3624
 6668SOL     OW31465   1.281   4.027   3.624  0.5835 -0.1783  0.8137
 6668SOL    HW131466   1.345   3.971   3.668 -0.4674 -1.2279  0.9702
 6668SOL    HW231467   1.231   3.955   3.588 -0.3099  1.3637 -1.0239
 6669SOL     OW31468   1.935   1.977   7.559 -0.2647 -0.2923  0.3766
 6669SOL    HW131469   1.887   1.903   7.520  3.9672 -2.5932 -0.4969
 6669SOL    HW231470   2.011   1.930   7.592  0.8267  1.4351  0.2952
 6670SOL     OW31471   2.167   4.029   6.141  0.2714  0.5325  0.1711
 6670SOL    HW131472   2.120   3.992   6.066  1.1312 -3.4783  1.6167
 6670SOL    HW231473   2.254   4.047   6.104  0.3237  1.9166  0.9945
 6671SOL     OW31474   3.265   4.249   5.216 -0.7609 -0.1275 -0.0188
 6671SOL    HW131475   3.214   4.327   5.195 -0.7476 -0.0168  0.3781
 6671SOL    HW231476   3.305   4.223   5.133 -0.4015  0.4922 -0.0413
 6672SOL     OW31477   2.459   0.898   2.441  0.2923 -0.1795 -0.4722
 6672SOL    HW131478   2.441   0.805   2.426  2.3433 -0.5155 -0.8192
 6672SOL    HW231479   2.546   0.913   2.406 -0.4413  0.6595 -1.9095
 6673SOL     OW31480   4.399   2.957  12.897  0.6340  0.3422  0.1436
 6673SOL    HW131481   4.381   3.031  12.839  1.3934  0.5021  0.1041
 6673SOL    HW231482   4.489   2.971  12.927  0.0072  1.3051  1.5432
 6674SOL     OW31483   0.516   0.103   2.166  0.0479 -0.0682 -0.1056
 6674SOL    HW131484   0.600   0.148   2.157  0.1826 -0.2324  0.3370
 6674SOL    HW231485   0.534   0.039   2.236 -0.7389 -0.0352  0.1286
 6675SOL     OW31486   4.252   1.228  15.594  0.1767  0.1453  0.6035
 6675SOL    HW131487   4.322   1.184  15.547  0.9372  1.1557  0.7894
 6675SOL    HW231488   4.191   1.256  15.525  1.9214  1.1827 -0.5271
 6676SOL     OW31489   1.377   0.931   1.547  0.6696  0.4015 -0.1767
 6676SOL    HW131490   1.441   0.866   1.575  1.1490  1.0857  0.3077
 6676SOL    HW231491   1.292   0.887   1.554  0.4265  0.5745 -1.8711
 6677SOL     OW31492   2.138   0.441   8.653  0.1399 -0.0433  0.1718
 6677SOL    HW131493   2.113   0.503   8.721 -0.6491  0.0589 -0.2125
 6677SOL    HW231494   2.214   0.487   8.619 -0.9693  1.6331 -0.0207
 6678SOL     OW31495   1.984   0.325  12.717 -0.7028  0.1117  0.2291
 6678SOL    HW131496   1.953   0.297  12.631  0.2677 -0.6195  0.1189
 6678SOL    HW231497   2.044   0.394  12.688  0.7788 -0.3466  2.1944
 6679SOL     OW31498   3.408   1.559   7.617 -0.7357  0.2814  0.4735
 6679SOL    HW131499   3.358   1.596   7.545 -1.0071  2.1631  1.6246
 6679SOL    HW231500   3.397   1.633   7.678 -1.7585  1.4410 -1.1128
 6680SOL     OW31501   4.719   2.932   2.917  0.0021 -0.0720 -0.0124
 6680SOL    HW131502   0.001   2.906   2.825 -1.0484 -1.1210  0.1820
 6680SOL    HW231503   4.709   2.845   2.955 -1.3866  0.2372  0.3247
 6681SOL     OW31504   1.462   3.963   8.381  0.0101  0.4606 -0.0064
 6681SOL    HW131505   1.394   3.997   8.439 -0.0565 -1.2901  0.9433
 6681SOL    HW231506   1.504   4.042   8.347  0.3416 -0.5464 -1.9353
 6682SOL     OW31507   1.632   3.828   7.944  0.5540  0.0104  0.0081
 6682SOL    HW131508   1.623   3.747   7.995 -2.2387  1.1116  1.2767
 6682SOL    HW231509   1.560   3.837   7.882  0.6443  1.2079  0.0802
 6683SOL     OW31510   0.692   3.457   6.428 -0.3358 -0.1662  0.1562
 6683SOL    HW131511   0.691   3.504   6.344 -1.2260 -0.2758  0.1048
 6683SOL    HW231512   0.610   3.475   6.472  0.5357 -0.7409  1.9931
 6684SOL     OW31513   4.092   2.894   6.704 -0.0565  0.2004  0.1882
 6684SOL    HW131514   4.018   2.891   6.765  1.6209 -0.8505  2.1565
 6684SOL    HW231515   4.108   2.988   6.694  0.0106  0.0340 -1.3800
 6685SOL     OW31516   1.681   0.800  13.131  0.1233  0.1600  0.1986
 6685SOL    HW131517   1.760   0.824  13.180 -0.0906 -0.0526  0.6494
 6685SOL    HW231518   1.661   0.713  13.167 -0.1235 -0.6086 -1.8096
 6686SOL     OW31519   4.234   0.194   1.604  0.2413  0.0882  0.5810
 6686SOL    HW131520   4.237   0.149   1.689 -1.4085  2.2369  1.7598
 6686SOL    HW231521   4.217   0.116   1.551 -0.9124 -1.3101  2.9790
 6687SOL     OW31522   4.535   2.818   4.867  0.4248 -0.1457  0.1971
 6687SOL    HW131523   4.550   2.882   4.797 -0.4322  0.3188  0.4305
 6687SOL    HW231524   4.487   2.749   4.822 -1.1118  0.9768  0.0914
 6688SOL     OW31525   4.117   0.579   4.085  0.1531 -0.0686  0.1108
 6688SOL    HW131526   4.188   0.602   4.145  0.3263 -1.2897  0.3654
 6688SOL    HW231527   4.162   0.618   4.010  3.0827 -2.4454  0.6104
 6689SOL     OW31528   2.979   2.248  13.095 -0.3533 -0.3368  0.8381
 6689SOL    HW131529   3.018   2.308  13.032  1.2961 -2.1540  0.1045
 6689SOL    HW231530   2.891   2.239  13.059 -0.3829  0.1390  0.7985
 6690SOL     OW31531   0.977   0.115   5.433  0.4180  0.0532 -0.0296
 6690SOL    HW131532   0.947   0.176   5.501  2.0517 -0.3268  1.0277
 6690SOL    HW231533   0.930   0.035   5.458 -0.6526  1.4242  2.3862
 6691SOL     OW31534   4.413   1.651  10.469  0.2867 -0.0262 -0.4804
 6691SOL    HW131535   4.416   1.698  10.553 -0.1099  1.1481 -1.1239
 6691SOL    HW231536   4.419   1.565  10.509  1.8640 -0.0419 -0.7690
 6692SOL     OW31537   4.152   0.941   3.474 -0.7936 -0.2150 -0.4862
 6692SOL    HW131538   4.193   0.885   3.541 -1.0237 -0.9362 -0.9433
 6692SOL    HW231539   4.238   0.945   3.431 -0.9945  1.2379 -0.7251
 6693SOL     OW31540   4.673   0.287   8.881 -0.9991 -0.1290 -0.6355
 6693SOL    HW131541   4.704   0.371   8.914 -1.9411  1.4508 -3.7746
 6693SOL    HW231542   4.584   0.293   8.917 -1.5665 -0.9646 -1.8912
 6694SOL     OW31543   1.585   3.915  16.743  0.0081 -0.2925  0.6008
 6694SOL    HW131544   1.550   3.832  16.775  2.5117 -2.4251 -2.1866
 6694SOL    HW231545   1.651   3.935  16.810 -0.2952 -2.5554  1.5450
 6695SOL     OW31546   3.449   3.111   2.617 -0.3093 -0.2013 -0.4880
 6695SOL    HW131547   3.496   3.151   2.544 -1.1308  3.8617  1.2053
 6695SOL    HW231548   3.370   3.165   2.621  1.5758  2.4446  1.2519
 6696SOL     OW31549   3.130   1.492   5.124  0.7531 -0.0732  0.1786
 6696SOL    HW131550   3.083   1.415   5.156 -1.4443  1.4673  0.6521
 6696SOL    HW231551   3.064   1.557   5.149  0.4825  0.2364 -1.3639
 6697SOL     OW31552   0.116   3.856   7.395 -0.2398 -0.3581 -0.0134
 6697SOL    HW131553   0.025   3.851   7.365 -0.3311  0.3832  0.1561
 6697SOL    HW231554   0.132   3.950   7.399  0.7744 -0.5909  1.3393
 6698SOL     OW31555   4.443   0.416  17.035 -0.0973 -0.6423 -0.7257
 6698SOL    HW131556   4.384   0.398  16.962  0.8401  1.9395 -2.0931
 6698SOL    HW231557   4.487   0.495  17.005  1.6822 -1.0935  0.6695
 6699SOL     OW31558   3.561   1.959   5.576  1.0749 -0.1200 -0.1554
 6699SOL    HW131559   3.502   2.012   5.628  1.0623  0.4960 -0.7987
 6699SOL    HW231560   3.630   1.949   5.642 -0.6341  2.2187  1.9585
 6700SOL     OW31561   1.845   2.975   7.046 -0.1700 -0.0226  0.2422
 6700SOL    HW131562   1.777   2.913   7.021 -0.9542 -0.1529  2.7440
 6700SOL    HW231563   1.929   2.934   7.023  1.5515  2.8823  1.3093
 6701SOL     OW31564   0.477   2.385   2.640  0.1590  0.3100 -0.0014
 6701SOL    HW131565   0.402   2.424   2.595 -1.1199 -1.7114  0.3537
 6701SOL    HW231566   0.524   2.464   2.665 -0.4149  1.3668 -2.2176
 6702SOL     OW31567   1.620   2.399   6.198  0.3224 -0.4165  0.5064
 6702SOL    HW131568   1.699   2.394   6.251 -0.6421 -2.0042  1.8006
 6702SOL    HW231569   1.658   2.419   6.112 -0.5828  2.7634  0.8311
 6703SOL     OW31570   2.519   1.394   7.183 -0.4838 -0.0435 -0.0381
 6703SOL    HW131571   2.592   1.367   7.237  0.9283  0.4079 -1.7053
 6703SOL    HW231572   2.512   1.483   7.218  1.8531 -0.6717  1.9896
 6704SOL     OW31573   3.401   0.552   8.919  0.0109 -0.8016  0.0466
 6704SOL    HW131574   3.381   0.492   8.991 -3.0219  1.0583  0.7549
 6704SOL    HW231575   3.323   0.608   8.916  0.5107 -0.1513 -1.0566
 6705SOL     OW31576   0.966   3.163   6.331  0.4040 -0.0008 -0.2286
 6705SOL    HW131577   1.007   3.248   6.349 -1.9773  1.0259  0.3328
 6705SOL    HW231578   1.041   3.106   6.349  0.8238  0.0317 -1.8668
 6706SOL     OW31579   4.713   0.904   4.328  0.0846 -0.1531 -0.2004
 6706SOL    HW131580   4.725   0.981   4.384 -0.7433 -1.5356  1.8827
 6706SOL    HW231581   4.686   0.833   4.386  0.8319  1.2034  1.8488
 6707SOL     OW31582   3.029   1.733   1.981  0.3889 -0.3312 -1.4969
 6707SOL    HW131583   2.945   1.778   1.991 -1.0244 -4.0562  3.5079
 6707SOL    HW231584   3.098   1.797   2.000 -2.1134  2.0777 -0.4669
 6708SOL     OW31585   0.971   1.328   7.862 -0.2836  0.0340  0.5201
 6708SOL    HW131586   0.905   1.318   7.930 -2.0176 -1.0871 -1.3185
 6708SOL    HW231587   0.900   1.341   7.799  1.7854  1.5014 -1.5289
 6709SOL     OW31588   3.536   4.426   0.995 -0.7043  0.5285  0.6111
 6709SOL    HW131589   3.610   4.370   0.973 -1.2946  0.5622 -1.4420
 6709SOL    HW231590   3.578   4.512   1.003  0.5645 -0.1218  1.0371
 6710SOL     OW31591   3.015   0.767   3.644  0.5924 -0.6653  0.0248
 6710SOL    HW131592   3.019   0.836   3.709 -1.6616 -0.9542  0.4658
 6710SOL    HW231593   3.058   0.693   3.687 -0.4509 -2.6830 -2.3696
 6711SOL     OW31594   4.167   2.120   1.995 -0.7383  0.0708 -0.1486
 6711SOL    HW131595   4.164   2.148   1.904  0.7463  1.2776  0.1782
 6711SOL    HW231596   4.257   2.088   2.002  0.1067  2.6802  0.8194
 6712SOL     OW31597   2.980   0.153   6.179 -0.4873 -0.0425  0.0828
 6712SOL    HW131598   2.886   0.154   6.159 -0.2293  0.3361 -1.1561
 6712SOL    HW231599   3.007   0.067   6.147 -0.0020  0.4165 -0.7516
 6713SOL     OW31600   0.564   3.044   3.143  0.2237 -0.2713 -0.1652
 6713SOL    HW131601   0.630   3.019   3.207  0.6038  1.6616  0.2055
 6713SOL    HW231602   0.539   2.963   3.098 -1.1803  1.0113 -1.6907
 6714SOL     OW31603   3.480   1.374  12.366  0.2307 -0.3216 -0.0233
 6714SOL    HW131604   3.405   1.421  12.403  1.6053  0.4700  1.7015
 6714SOL    HW231605   3.437   1.331  12.291  2.7060  1.0935 -2.2515
 6715SOL     OW31606   3.886   2.436   6.060 -0.1276  0.3733 -0.1329
 6715SOL    HW131607   3.945   2.403   6.128  1.2735  0.2889 -1.3672
 6715SOL    HW231608   3.827   2.362   6.051 -0.3387  0.6230 -0.8562
 6716SOL     OW31609   3.017   1.669   3.829 -0.1034 -0.5624 -0.0120
 6716SOL    HW131610   3.006   1.581   3.793 -0.6242 -1.0009  1.2201
 6716SOL    HW231611   3.033   1.662   3.923  1.1197  0.8785 -0.1096
 6717SOL     OW31612   2.276   1.397   3.815  0.3526  0.2153 -0.1831
 6717SOL    HW131613   2.199   1.343   3.831 -0.1284  1.6372  2.2604
 6717SOL    HW231614   2.230   1.477   3.788 -0.7597 -0.2797  0.2232
 6718SOL     OW31615   1.580   2.305  14.314 -0.6778 -0.4156 -0.3270
 6718SOL    HW131616   1.638   2.320  14.389 -1.5623  0.9023  0.0796
 6718SOL    HW231617   1.585   2.392  14.277 -0.5615 -0.1370  0.3418
 6719SOL     OW31618   2.770   3.154   4.345  0.3614  0.1117 -0.2654
 6719SOL    HW131619   2.830   3.195   4.408 -0.7096  2.0779 -0.5188
 6719SOL    HW231620   2.683   3.192   4.354  0.2548  0.0303 -0.9628
 6720SOL     OW31621   3.062   4.376   6.527 -0.2564  0.2009 -0.6288
 6720SOL    HW131622   2.982   4.346   6.570 -0.1101  0.1164 -0.4168
 6720SOL    HW231623   3.130   4.317   6.560 -1.3605 -0.3860  0.5746
 6721SOL     OW31624   0.792   1.104  17.303 -0.1804  0.3056 -0.7548
 6721SOL    HW131625   0.747   1.180  17.266 -0.8236  0.4774  0.4034
 6721SOL    HW231626   0.811   1.137  17.390 -2.4209 -0.4357  0.0225
 6722SOL     OW31627   2.176   2.002   2.237 -0.1801 -0.0841  0.3641
 6722SOL    HW131628   2.128   1.985   2.156  0.9290 -1.3799 -0.0220
 6722SOL    HW231629   2.105   2.006   2.301 -1.0806  2.9631 -0.8057
 6723SOL     OW31630   3.922   3.607   9.052  0.0321  0.4162  0.0901
 6723SOL    HW131631   3.897   3.699   9.062  1.5836  0.9396 -0.8911
 6723SOL    HW231632   4.017   3.609   9.056 -0.0615  0.0069  3.1860
 6724SOL     OW31633   1.380   0.176  14.468  0.2995  0.2657  0.0816
 6724SOL    HW131634   1.418   0.111  14.527  1.1396  0.6821 -0.0091
 6724SOL    HW231635   1.433   0.179  14.388  0.5845 -1.1750  0.2158
 6725SOL     OW31636   1.536   4.415   1.131  0.2970  0.3353 -0.0495
 6725SOL    HW131637   1.571   4.503   1.147  0.1486  0.4054 -0.1061
 6725SOL    HW231638   1.590   4.357   1.184 -0.0380 -0.8431 -1.0247
 6726SOL     OW31639   2.446   0.017   6.020 -0.0426  0.2335 -0.0648
 6726SOL    HW131640   2.385   0.046   5.952  1.1281 -0.4326 -1.4033
 6726SOL    HW231641   2.417   0.075   6.090 -1.4036 -0.0647 -0.3749
 6727SOL     OW31642   3.916   2.919   7.328 -0.7822 -0.3174 -1.1573
 6727SOL    HW131643   3.940   2.945   7.417 -1.8747  0.4597 -1.0895
 6727SOL    HW231644   3.846   2.981   7.309  0.5133  1.3075 -0.7218
 6728SOL     OW31645   4.140   0.264   5.930 -0.1085  0.1850  0.0941
 6728SOL    HW131646   4.141   0.360   5.927  2.2683  0.1198 -1.2065
 6728SOL    HW231647   4.085   0.246   6.006 -0.4498  0.6822 -0.0342
 6729SOL     OW31648   2.100   1.225   9.873 -0.3410  0.2209  0.2648
 6729SOL    HW131649   2.099   1.229   9.968 -1.0326 -0.7381  0.2944
 6729SOL    HW231650   2.014   1.261   9.855 -0.0911  1.1520  0.9506
 6730SOL     OW31651   2.091   4.279  15.806  0.0775 -0.0487  0.1986
 6730SOL    HW131652   2.186   4.280  15.793  0.1004  1.2294  0.4302
 6730SOL    HW231653   2.076   4.273  15.900 -0.6860  2.8788  0.2754
 6731SOL     OW31654   3.405   3.315   5.771  0.0953  0.1253 -0.7006
 6731SOL    HW131655   3.313   3.287   5.767  0.2478 -0.6489  1.1810
 6731SOL    HW231656   3.447   3.255   5.833  1.4814  0.4841 -1.2961
 6732SOL     OW31657   0.518   1.814  10.282  0.1722  0.5541  0.3110
 6732SOL    HW131658   0.434   1.835  10.243 -0.1086  1.6629  1.4952
 6732SOL    HW231659   0.558   1.756  10.217 -0.2061 -0.4830  1.0105
 6733SOL     OW31660   0.167   0.096   5.135  0.5041  0.0943 -0.3013
 6733SOL    HW131661   0.149   0.008   5.168  0.4005  1.4477  3.3095
 6733SOL    HW231662   0.164   0.146   5.216  1.6919  0.9231 -0.7580
 6734SOL     OW31663   0.843   2.394   8.814  0.0530  0.2321 -0.2190
 6734SOL    HW131664   0.828   2.393   8.719  1.3300 -1.5904 -0.4062
 6734SOL    HW231665   0.933   2.427   8.820  1.1893 -2.8932 -0.1491
 6735SOL     OW31666   3.036   2.906   6.924  0.0272  0.3738 -0.1080
 6735SOL    HW131667   3.112   2.884   6.870 -0.6727  0.9403 -1.3139
 6735SOL    HW231668   3.078   2.924   7.009 -0.2959  0.7391 -0.0266
 6736SOL     OW31669   2.217   4.704   6.851  0.0917 -0.4050 -0.4300
 6736SOL    HW131670   2.173   0.051   6.810  1.5201  0.6426 -0.0522
 6736SOL    HW231671   2.171   4.631   6.809  1.3477 -0.5168 -1.6258
 6737SOL     OW31672   3.940   4.569   9.362  0.1459  0.4371  0.1878
 6737SOL    HW131673   3.895   4.522   9.293 -1.3273  1.4091  0.4891
 6737SOL    HW231674   3.914   4.659   9.342 -0.0076  0.9177  2.4823
 6738SOL     OW31675   2.881   3.137   9.823 -0.1056 -0.7491  0.0613
 6738SOL    HW131676   2.865   3.060   9.768 -1.4378 -1.7151  1.8082
 6738SOL    HW231677   2.802   3.185   9.800  0.8570  0.6352 -0.4083
 6739SOL     OW31678   1.647   2.112   1.887  0.2299 -0.3218 -0.0970
 6739SOL    HW131679   1.670   2.088   1.797  2.2944 -0.8313  0.5471
 6739SOL    HW231680   1.740   2.118   1.912 -0.3772 -0.6924  2.2039
 6740SOL     OW31681   2.194   3.736   6.473 -0.3661 -0.3284  0.2421
 6740SOL    HW131682   2.115   3.753   6.422 -0.3990  2.1823  1.0910
 6740SOL    HW231683   2.181   3.812   6.531 -0.3265  1.6915 -2.3648
 6741SOL     OW31684   1.611   2.727   5.873  0.1482 -0.4147 -0.1249
 6741SOL    HW131685   1.558   2.666   5.822 -0.0797  0.9356 -1.5191
 6741SOL    HW231686   1.592   2.693   5.960  0.6750 -0.0368  0.1384
 6742SOL     OW31687   1.928   1.055  12.888  0.2353  0.0867  0.1455
 6742SOL    HW131688   1.912   1.108  12.966 -2.1259 -0.7934  0.2408
 6742SOL    HW231689   1.855   0.994  12.894 -2.5276  3.1594 -1.8343
 6743SOL     OW31690   2.559   0.967  10.274 -0.1214 -0.7285 -0.1668
 6743SOL    HW131691   2.606   0.990  10.194 -1.6338  1.2764 -0.4804
 6743SOL    HW231692   2.541   1.051  10.315  2.3052 -1.2988  2.0806
 6744SOL     OW31693   1.979   3.784   7.476 -0.3811 -0.1890  0.1972
 6744SOL    HW131694   1.984   3.808   7.568  1.9042  0.8211 -0.1976
 6744SOL    HW231695   1.890   3.748   7.474 -1.3991  2.2608  1.1487
 6745SOL     OW31696   4.553   2.251   9.865  0.5782  0.4835  0.1393
 6745SOL    HW131697   4.474   2.249   9.811  1.6990 -1.7931 -1.4244
 6745SOL    HW231698   4.617   2.257   9.795 -0.3051  1.0154 -0.6194
 6746SOL     OW31699   2.628   3.542   8.227  0.7839 -0.0827 -0.1935
 6746SOL    HW131700   2.592   3.475   8.168  0.0283 -1.0588  1.3835
 6746SOL    HW231701   2.577   3.535   8.308 -0.8731  0.6282 -1.1509
 6747SOL     OW31702   3.261   0.343   7.715 -0.6159  0.0460 -0.0802
 6747SOL    HW131703   3.170   0.316   7.705 -0.4237  0.1529 -2.1995
 6747SOL    HW231704   3.300   0.321   7.630 -2.0002 -0.4965 -0.5714
 6748SOL     OW31705   2.447   2.704   8.937 -0.0982  0.2168  0.3838
 6748SOL    HW131706   2.464   2.761   9.012 -0.8145  1.8072 -0.6650
 6748SOL    HW231707   2.367   2.659   8.965  0.7825  0.4916  3.4066
 6749SOL     OW31708   3.923   0.474   2.791 -0.3955  0.0488  0.5681
 6749SOL    HW131709   3.927   0.393   2.842  3.7302 -0.6148 -0.8013
 6749SOL    HW231710   3.828   0.472   2.775 -1.0484  1.7399  4.1690
 6750SOL     OW31711   4.563   2.008   8.429  0.1091 -0.2682 -0.5326
 6750SOL    HW131712   4.519   1.955   8.496  0.1106 -0.0790 -0.3814
 6750SOL    HW231713   4.638   1.956   8.400 -0.0456 -1.1322  0.6287
 6751SOL     OW31714   3.308   0.157   9.733  0.5002 -0.2547  0.1436
 6751SOL    HW131715   3.299   0.213   9.810 -0.3992 -1.1641  0.6852
 6751SOL    HW231716   3.374   0.097   9.768  2.0954  1.9609  0.9612
 6752SOL     OW31717   1.876   1.385  12.243 -0.2510  0.1546 -0.0606
 6752SOL    HW131718   1.844   1.337  12.167  0.9401 -2.3682  1.0340
 6752SOL    HW231719   1.821   1.350  12.313  0.8526  0.8413  1.1438
 6753SOL     OW31720   1.656   1.913   8.873  0.4813 -0.0067 -0.6807
 6753SOL    HW131721   1.621   1.843   8.929  0.6898 -0.1271 -0.7009
 6753SOL    HW231722   1.575   1.962   8.862  1.4672  1.1995 -2.6302
 6754SOL     OW31723   3.858   1.279   1.072 -0.3928  0.2037 -0.1389
 6754SOL    HW131724   3.851   1.184   1.063 -1.5386  0.4522 -1.8909
 6754SOL    HW231725   3.952   1.300   1.070 -0.7730  2.0349  1.6545
 6755SOL     OW31726   2.374   2.923   2.120 -0.5045  0.8455  0.0118
 6755SOL    HW131727   2.407   2.909   2.031  0.8604  2.5118  0.2572
 6755SOL    HW231728   2.362   2.830   2.141  0.4138  0.2852 -1.9507
 6756SOL     OW31729   0.958   3.722   6.374  0.1806 -0.4349 -0.3232
 6756SOL    HW131730   0.887   3.662   6.352  1.0535 -2.0634  1.3445
 6756SOL    HW231731   1.027   3.694   6.314  0.5618 -1.6093  0.6822
 6757SOL     OW31732   3.672   0.374   7.466 -0.2488 -0.3041 -0.2617
 6757SOL    HW131733   3.643   0.405   7.552 -0.6485  0.9083 -0.8330
 6757SOL    HW231734   3.764   0.357   7.487  0.3434  1.3651 -1.4837
 6758SOL     OW31735   3.722   3.175  13.484  0.1574 -0.6092 -0.2480
 6758SOL    HW131736   3.629   3.159  13.468 -0.1431  2.2766 -1.4926
 6758SOL    HW231737   3.750   3.182  13.392  0.2526  0.3402 -0.1503
 6759SOL     OW31738   2.311   2.841  17.198 -0.3959  0.7086 -0.2691
 6759SOL    HW131739   2.221   2.808  17.204  0.6403 -1.9305  0.8609
 6759SOL    HW231740   2.368   2.769  17.226 -2.2734 -1.3877 -1.7953
 6760SOL     OW31741   0.750   4.646  11.250 -0.5020  0.2713  0.4282
 6760SOL    HW131742   0.806   4.684  11.318 -1.0664  1.7812  0.0605
 6760SOL    HW231743   0.675   4.706  11.251  0.1466  1.0573  1.7345
 6761SOL     OW31744   2.028   2.393  13.980 -0.3815  0.2130 -0.3513
 6761SOL    HW131745   2.067   2.320  14.029  1.1572  0.3204 -1.4285
 6761SOL    HW231746   2.072   2.471  14.014  0.6798 -2.0969  3.6437
 6762SOL     OW31747   4.126   4.073  16.759 -0.2553 -0.3411  0.2556
 6762SOL    HW131748   4.110   4.135  16.831 -2.4109 -1.1132  0.4549
 6762SOL    HW231749   4.215   4.042  16.774 -0.2935 -0.1171  0.9753
 6763SOL     OW31750   4.052   1.215  17.610 -0.0189 -0.1184 -0.2739
 6763SOL    HW131751   4.144   1.237  17.624 -0.0133  1.0951 -2.2726
 6763SOL    HW231752   4.055   1.124  17.580  3.3889 -0.5292  1.2937
 6764SOL     OW31753   2.823   2.618   9.084 -0.0057 -0.5975 -0.2186
 6764SOL    HW131754   2.743   2.663   9.056 -0.1127 -1.4912 -1.3501
 6764SOL    HW231755   2.809   2.530   9.049  0.3203 -1.0483  0.7877
 6765SOL     OW31756   3.282   2.339   7.089 -0.3655 -0.6785 -0.1338
 6765SOL    HW131757   3.352   2.323   7.152 -0.1076 -2.4632 -0.8899
 6765SOL    HW231758   3.328   2.343   7.005  1.6479  0.1566  0.9960
 6766SOL     OW31759   0.896   2.560   6.151 -0.3449 -0.4466  0.3302
 6766SOL    HW131760   0.914   2.620   6.223  0.0253 -1.5994  1.1961
 6766SOL    HW231761   0.801   2.564   6.146 -0.3555 -0.5712  0.4339
 6767SOL     OW31762   3.230   2.599  17.369  0.7543  0.1426  0.2336
 6767SOL    HW131763   3.223   2.679  17.318 -1.0017  0.6003  1.1944
 6767SOL    HW231764   3.149   2.557  17.341  0.1869  1.8914 -0.6994
 6768SOL     OW31765   2.677   2.783   0.890 -0.1523  0.0057  0.2904
 6768SOL    HW131766   2.647   2.872   0.874  0.3446  0.6058  2.6936
 6768SOL    HW231767   2.643   2.776   0.979  1.1741  0.1918  0.8103
 6769SOL     OW31768   1.766   1.549   5.002  0.1653 -0.6570 -0.3891
 6769SOL    HW131769   1.692   1.592   4.960  2.2401  4.1211  0.8151
 6769SOL    HW231770   1.740   1.459   4.983 -0.3942 -0.8426  1.2875
 6770SOL     OW31771   1.797   0.261   4.049  0.1935 -0.0900  0.4316
 6770SOL    HW131772   1.832   0.274   3.961  0.3808 -0.3383  0.4671
 6770SOL    HW231773   1.836   0.178   4.078 -1.6357 -0.8565  0.7275
 6771SOL     OW31774   2.959   2.388   0.490 -0.7523  0.2210  0.7460
 6771SOL    HW131775   3.042   2.434   0.477 -2.2027  2.0466 -1.8901
 6771SOL    HW231776   2.899   2.462   0.480  0.8283  1.2774 -0.7941
 6772SOL     OW31777   1.443   3.453   5.843  0.1964  0.0679  0.3281
 6772SOL    HW131778   1.491   3.402   5.908 -0.0150 -0.3807  0.1329
 6772SOL    HW231779   1.521   3.482   5.795 -1.0758  3.4937  0.2985
 6773SOL     OW31780   2.268   3.072  14.631 -0.4333 -0.2822  0.0130
 6773SOL    HW131781   2.318   3.136  14.681 -0.5546 -0.0591 -0.1569
 6773SOL    HW231782   2.335   3.039  14.571  0.9264  0.4452  1.1230
 6774SOL     OW31783   2.186   2.276   5.265  0.2430  0.1954 -0.6308
 6774SOL    HW131784   2.142   2.322   5.336  1.0910  3.2224 -2.0758
 6774SOL    HW231785   2.150   2.320   5.187 -1.5482  2.5830  1.5336
 6775SOL     OW31786   2.856   1.824   7.786  0.6811  0.0148 -0.1936
 6775SOL    HW131787   2.885   1.905   7.743  1.4282 -1.7339 -2.9956
 6775SOL    HW231788   2.888   1.754   7.729 -0.6215 -1.3977  0.7990
 6776SOL     OW31789   0.625   1.321  13.778  0.2948 -0.4014 -0.1828
 6776SOL    HW131790   0.686   1.248  13.790 -1.2675 -1.8925 -1.3547
 6776SOL    HW231791   0.636   1.367  13.862 -1.9251 -0.6527  0.2386
 6777SOL     OW31792   0.198   0.878   6.322  0.0572  0.6562  0.2106
 6777SOL    HW131793   0.133   0.885   6.391 -1.1783  1.0522 -0.9999
 6777SOL    HW231794   0.274   0.868   6.379 -0.3685 -1.6128  0.3837
 6778SOL     OW31795   4.115   0.345   7.192 -0.0744 -1.0807 -0.2140
 6778SOL    HW131796   4.138   0.408   7.124  1.6313 -0.8784  0.5558
 6778SOL    HW231797   4.197   0.336   7.240 -0.7006 -1.0545  0.8529
 6779SOL     OW31798   4.122   4.458   3.241  0.6191  0.2133  0.3003
 6779SOL    HW131799   4.107   4.552   3.229 -0.0704  0.4256  2.7713
 6779SOL    HW231800   4.177   4.432   3.168 -1.1863  0.3822 -1.1405
 6780SOL     OW31801   3.587   0.868   0.167 -0.0474 -0.1503 -0.7845
 6780SOL    HW131802   3.493   0.881   0.184  0.2948 -0.1531  1.1885
 6780SOL    HW231803   3.595   0.851   0.074  1.9294 -0.8986 -0.4756
 6781SOL     OW31804   0.372   3.928   2.308 -0.3808 -0.1953 -0.6344
 6781SOL    HW131805   0.428   3.902   2.234 -0.8766 -0.6474 -0.8494
 6781SOL    HW231806   0.352   4.013   2.270  1.4301  1.3984  1.9400
 6782SOL     OW31807   1.602   2.399   6.517 -0.2172 -0.1961 -0.7528
 6782SOL    HW131808   1.587   2.493   6.508 -0.1339 -0.2381 -1.3383
 6782SOL    HW231809   1.608   2.367   6.426 -0.5089  1.2107 -1.2661
 6783SOL     OW31810   2.739   1.468  15.851 -0.0145 -0.3249 -0.0450
 6783SOL    HW131811   2.773   1.537  15.794  1.9073 -2.1766 -1.1446
 6783SOL    HW231812   2.648   1.485  15.829  0.5144  0.8335 -1.3723
 6784SOL     OW31813   2.751   3.272   3.951 -0.5450 -0.2964 -0.1723
 6784SOL    HW131814   2.746   3.368   3.946 -1.5497 -0.3394  0.1000
 6784SOL    HW231815   2.737   3.245   3.860 -1.6774 -1.5199  0.3730
 6785SOL     OW31816   3.294   0.948   9.043  0.4014 -0.7577 -0.1899
 6785SOL    HW131817   3.291   0.908   9.131 -0.1551  4.2575  2.0458
 6785SOL    HW231818   3.389   0.959   9.049  0.3934 -0.4618 -0.6388
 6786SOL     OW31819   4.639   4.558   4.035 -0.0262  0.7546 -0.7373
 6786SOL    HW131820   4.549   4.532   4.014 -0.1604 -0.8171  1.8824
 6786SOL    HW231821   4.624   4.584   4.126  1.4434 -2.5617  0.4336
 6787SOL     OW31822   2.872   1.722   0.713 -0.2011 -0.3778 -0.1685
 6787SOL    HW131823   2.959   1.729   0.674 -0.7141  0.2579 -1.2006
 6787SOL    HW231824   2.821   1.672   0.649 -1.5812 -1.9150  2.1355
 6788SOL     OW31825   4.421   1.599   8.016 -0.2524 -0.2009  0.1180
 6788SOL    HW131826   4.454   1.545   7.944 -1.6851  0.1197 -0.7707
 6788SOL    HW231827   4.396   1.530   8.078 -2.8337  1.7268  1.2336
 6789SOL     OW31828   4.600   4.279  12.088  0.3040  0.0607 -0.4175
 6789SOL    HW131829   4.680   4.230  12.105  0.0368 -0.5125 -0.8033
 6789SOL    HW231830   4.562   4.225  12.018 -0.6469 -3.2196  2.5887
 6790SOL     OW31831   2.902   0.270  16.678 -0.2628 -0.4953 -0.1098
 6790SOL    HW131832   2.891   0.289  16.772  0.5964 -2.9342  0.4721
 6790SOL    HW231833   2.995   0.284  16.663 -0.2950 -0.6520 -0.4491
 6791SOL     OW31834   3.667   3.735   2.218  0.3036  0.1845  0.4734
 6791SOL    HW131835   3.725   3.803   2.251 -2.6690  2.6175  0.7146
 6791SOL    HW231836   3.586   3.767   2.258 -2.1487 -1.9860 -2.7074
 6792SOL     OW31837   1.130   2.125   7.373  0.1408  0.4914  0.3543
 6792SOL    HW131838   1.168   2.149   7.458  1.5749  0.0926 -0.1588
 6792SOL    HW231839   1.164   2.035   7.366  1.3535  0.9517  0.2160
 6793SOL     OW31840   2.171   0.388   7.365 -0.1911 -0.2076  0.4220
 6793SOL    HW131841   2.250   0.389   7.311 -0.2830 -0.0045  0.2909
 6793SOL    HW231842   2.212   0.435   7.438 -0.9357  1.7382 -0.4263
 6794SOL     OW31843   0.867   4.197  15.476  0.0323 -0.1913  0.2535
 6794SOL    HW131844   0.778   4.203  15.509 -0.0652  0.9232 -0.2040
 6794SOL    HW231845   0.865   4.279  15.427 -0.6576  0.2260  0.9957
 6795SOL     OW31846   0.774   0.647   6.130 -0.7944  0.4284  0.1842
 6795SOL    HW131847   0.848   0.588   6.143 -3.7849 -3.3008  0.4235
 6795SOL    HW231848   0.760   0.647   6.035  1.7725 -0.3308 -0.1970
 6796SOL     OW31849   2.994   3.504   9.301 -0.3942  0.5291  0.8448
 6796SOL    HW131850   3.003   3.419   9.257  2.3139  1.0047  0.5013
 6796SOL    HW231851   3.027   3.564   9.234 -0.7474  0.4304  0.5856
 6797SOL     OW31852   3.760   3.086   0.154 -0.0391  0.0527 -0.1222
 6797SOL    HW131853   3.684   3.137   0.125 -1.2564  1.1563  4.9558
 6797SOL    HW231854   3.735   2.996   0.131  0.6377 -0.0203 -0.5736
 6798SOL     OW31855   3.766   4.063  16.350 -0.4062 -0.3045  0.5662
 6798SOL    HW131856   3.813   4.076  16.432  0.1035 -0.8518  0.3595
 6798SOL    HW231857   3.759   3.967  16.348  1.3852 -0.3614 -2.1290
 6799SOL     OW31858   0.910   0.721   9.206 -0.2904 -0.1812  1.1853
 6799SOL    HW131859   0.886   0.760   9.291 -0.6560 -0.3433  1.1557
 6799SOL    HW231860   0.860   0.641   9.220 -1.3456  0.1612 -0.6595
 6800SOL     OW31861   2.117   4.008  15.365 -0.0537  0.4866  0.7335
 6800SOL    HW131862   2.065   4.043  15.438 -1.1658  1.7372 -0.6520
 6800SOL    HW231863   2.167   3.932  15.395  0.3724  0.5856  0.2705
 6801SOL     OW31864   0.694   4.658   2.381  0.0260 -0.3034  0.5094
 6801SOL    HW131865   0.767   4.689   2.434  0.4613  0.9834 -0.8047
 6801SOL    HW231866   0.736   4.627   2.301  1.2115  1.6688  0.3714
 6802SOL     OW31867   4.188   4.523   7.769 -0.0258  0.5069 -0.0746
 6802SOL    HW131868   4.192   4.428   7.756 -0.8093  0.3802  0.6052
 6802SOL    HW231869   4.273   4.546   7.807  0.4849 -0.6909 -0.4795
 6803SOL     OW31870   0.344   0.392   2.034  0.4956 -0.4986 -0.1083
 6803SOL    HW131871   0.308   0.480   2.031 -0.2841 -0.8211 -0.0355
 6803SOL    HW231872   0.417   0.404   2.095 -0.9015  0.8076  1.3068
 6804SOL     OW31873   1.191   2.628  15.989 -0.2339  0.5153  0.2223
 6804SOL    HW131874   1.173   2.564  16.058  0.8660 -0.5267 -0.4613
 6804SOL    HW231875   1.107   2.647  15.948 -0.3469 -0.0689  0.1826
 6805SOL     OW31876   2.978   3.105   1.557 -0.3090 -0.2768  0.3108
 6805SOL    HW131877   3.057   3.156   1.542  0.1931 -0.1701  3.3330
 6805SOL    HW231878   2.975   3.040   1.486 -2.1684 -1.6638  1.6357
 6806SOL     OW31879   0.700   0.964   6.038 -0.0637 -0.5962  0.1316
 6806SOL    HW131880   0.755   0.887   6.055  0.6142  0.1529  1.2942
 6806SOL    HW231881   0.613   0.924   6.035 -0.9898  1.2143  2.9834
 6807SOL     OW31882   0.710   3.481  11.795  0.8050  0.5555 -0.0865
 6807SOL    HW131883   0.780   3.533  11.834  1.4598 -1.1856  1.1047
 6807SOL    HW231884   0.755   3.398  11.775 -1.1816 -0.4748 -0.3125
 6808SOL     OW31885   3.052   2.568  12.215  0.3509  0.4116  0.1116
 6808SOL    HW131886   3.084   2.483  12.246 -0.3983  0.2664  0.4941
 6808SOL    HW231887   3.099   2.626  12.275 -1.0426  0.3459  1.2798
 6809SOL     OW31888   2.683   1.170   8.576 -0.0306 -0.2366 -0.3848
 6809SOL    HW131889   2.596   1.199   8.547  1.1578 -0.4573 -4.2518
 6809SOL    HW231890   2.740   1.190   8.502 -1.1407  1.3910 -0.8110
 6810SOL     OW31891   4.099   4.342   2.021  0.5346  0.2706 -0.1010
 6810SOL    HW131892   4.135   4.431   2.024 -1.5249  1.1411 -1.0539
 6810SOL    HW231893   4.170   4.278   2.031 -1.2778 -2.0681 -2.0308
 6811SOL     OW31894   2.172   0.825   4.890  0.2560 -0.2910  0.2670
 6811SOL    HW131895   2.249   0.878   4.869  1.5116 -2.1952  0.0100
 6811SOL    HW231896   2.206   0.766   4.957  1.3988  0.1767  0.1022
 6812SOL     OW31897   1.116   2.124  10.560 -0.1055  0.3148 -0.4511
 6812SOL    HW131898   1.083   2.183  10.628 -2.8557 -1.4541 -0.2664
 6812SOL    HW231899   1.204   2.156  10.538  0.3030 -1.1522 -0.9426
 6813SOL     OW31900   0.079   4.581   5.174 -0.4765  0.0665  0.3851
 6813SOL    HW131901   0.028   4.570   5.254  0.1687  0.4470  0.8451
 6813SOL    HW231902   0.037   4.526   5.108  0.4961  1.9303 -1.8037
 6814SOL     OW31903   3.416   2.833   5.386 -0.3778  0.3135  0.2183
 6814SOL    HW131904   3.458   2.855   5.303 -0.7171  2.9730  0.7719
 6814SOL    HW231905   3.488   2.860   5.443 -0.1341  0.2063 -0.0440
 6815SOL     OW31906   2.108   2.959  13.793 -0.6117 -0.1393 -0.2458
 6815SOL    HW131907   2.184   2.990  13.744 -0.9871  2.8468  1.0560
 6815SOL    HW231908   2.052   3.036  13.797 -1.3410 -0.7239  0.7245
 6816SOL     OW31909   4.495   4.479  16.972 -0.2986 -0.5338  0.6639
 6816SOL    HW131910   4.482   4.434  17.055  1.8607 -2.4039 -0.0181
 6816SOL    HW231911   4.586   4.459  16.953 -0.5479 -0.3419 -0.7633
 6817SOL     OW31912   0.365   3.407   5.722  0.2392 -0.1447 -0.0885
 6817SOL    HW131913   0.362   3.318   5.755 -0.2288  0.3753  1.2620
 6817SOL    HW231914   0.454   3.407   5.686  0.5529 -0.5569  0.7031
 6818SOL     OW31915   0.153   2.510   7.923  0.5511 -0.8259  0.1686
 6818SOL    HW131916   0.065   2.543   7.940  1.0680  0.3965  0.4950
 6818SOL    HW231917   0.179   2.531   8.013  0.5498 -0.6116  0.1192
 6819SOL     OW31918   0.741   2.001   8.809 -0.1590  0.1698  0.0237
 6819SOL    HW131919   0.740   1.988   8.714  0.5740  2.0930 -0.2511
 6819SOL    HW231920   0.815   1.946   8.837 -1.0289 -0.9894  0.0190
 6820SOL     OW31921   0.217   3.779   3.438  0.7127 -0.5184 -0.5778
 6820SOL    HW131922   0.227   3.795   3.532 -0.2051 -0.2788 -0.5182
 6820SOL    HW231923   0.199   3.866   3.403 -1.3453 -1.6472 -2.3074
 6821SOL     OW31924   2.513   2.568   8.622 -0.5125  0.1919 -0.1281
 6821SOL    HW131925   2.551   2.498   8.570  1.5263  0.6779  0.7416
 6821SOL    HW231926   2.424   2.535   8.633 -0.0238 -0.9637  0.3216
 6822SOL     OW31927   4.288   0.501  14.687 -0.2563 -0.5793 -0.3146
 6822SOL    HW131928   4.219   0.551  14.730  1.6195  0.4367  1.4800
 6822SOL    HW231929   4.267   0.529  14.598  1.7036 -0.3043 -0.6965
 6823SOL     OW31930   0.107   1.047   1.824 -0.0169  0.6116 -0.5180
 6823SOL    HW131931   0.160   1.072   1.748  0.2413 -0.8686 -0.8258
 6823SOL    HW231932   0.124   0.952   1.829 -1.4007  0.4964  1.9798
 6824SOL     OW31933   2.244   2.609   6.358  0.2843 -0.2020 -0.4505
 6824SOL    HW131934   2.332   2.616   6.322  0.3514  1.1255 -0.0589
 6824SOL    HW231935   2.203   2.540   6.307  1.8889 -0.6871 -1.0600
 6825SOL     OW31936   0.929   2.134   1.160 -0.4811 -0.0525  0.1415
 6825SOL    HW131937   1.011   2.096   1.128 -0.5631  0.7210 -0.9950
 6825SOL    HW231938   0.904   2.063   1.218  0.7320 -1.1255 -0.6246
 6826SOL     OW31939   3.545   1.571   3.036 -0.3104 -0.1296  0.2820
 6826SOL    HW131940   3.617   1.608   2.983  0.0178 -1.5596 -0.2672
 6826SOL    HW231941   3.488   1.648   3.041 -0.6397 -0.2774 -1.1494
 6827SOL     OW31942   3.368   1.515  13.661  0.4614  0.0159  0.2324
 6827SOL    HW131943   3.346   1.459  13.735 -1.1034 -0.8531 -0.8781
 6827SOL    HW231944   3.298   1.580  13.662 -0.6956 -1.2106 -0.5244
 6828SOL     OW31945   1.313   3.744   5.700 -0.4735 -0.7079  0.6142
 6828SOL    HW131946   1.288   3.652   5.708  2.9001 -1.6724  0.1639
 6828SOL    HW231947   1.299   3.759   5.607 -2.3914 -0.7328  0.9022
 6829SOL     OW31948   1.650   2.888   7.393 -0.2622 -0.3242  0.3441
 6829SOL    HW131949   1.609   2.970   7.365  0.4996 -0.0427  0.0441
 6829SOL    HW231950   1.677   2.851   7.309  0.6787  0.2211  0.4006
 6830SOL     OW31951   1.906   3.852   9.264  0.2583 -0.1682 -0.0051
 6830SOL    HW131952   1.821   3.841   9.307 -0.3041 -0.0492 -1.0907
 6830SOL    HW231953   1.958   3.785   9.309  2.5483  0.7909 -1.2437
 6831SOL     OW31954   1.396   3.957   6.230 -0.2129  0.1752 -0.7476
 6831SOL    HW131955   1.380   3.864   6.213 -3.2435  0.5544 -0.0552
 6831SOL    HW231956   1.487   3.968   6.204  0.2450 -0.1734  0.7241
 6832SOL     OW31957   1.437   2.743   5.263  0.1191  0.6755  0.2450
 6832SOL    HW131958   1.461   2.672   5.203  0.5501  0.1846  0.9868
 6832SOL    HW231959   1.412   2.710   5.349  0.4624 -0.3566 -0.0464
 6833SOL     OW31960   1.689   0.928  12.610 -0.2724  0.0381  0.4599
 6833SOL    HW131961   1.671   1.013  12.651 -2.6162  0.3656 -1.2539
 6833SOL    HW231962   1.600   0.892  12.615  0.2941 -1.2508  1.1852
 6834SOL     OW31963   2.730   2.833   4.912 -0.2257 -0.1533  0.2297
 6834SOL    HW131964   2.677   2.775   4.967 -3.5765  1.3954 -1.3489
 6834SOL    HW231965   2.725   2.781   4.832  1.9957  1.3869 -0.9184
 6835SOL     OW31966   0.305   3.160   8.336 -0.2876 -0.6836  0.7013
 6835SOL    HW131967   0.275   3.214   8.263  3.1942 -0.4509 -0.5178
 6835SOL    HW231968   0.283   3.070   8.312 -2.8449  0.1166 -0.0496
 6836SOL     OW31969   1.671   0.322   8.814 -0.1641 -0.4931  0.0907
 6836SOL    HW131970   1.578   0.346   8.819 -0.5030 -1.7849 -0.0627
 6836SOL    HW231971   1.704   0.341   8.902  0.7435 -4.8602  0.6542
 6837SOL     OW31972   1.986   2.248  15.884 -0.7096 -0.4958 -0.3778
 6837SOL    HW131973   2.005   2.162  15.846  1.0123 -0.0965 -0.4289
 6837SOL    HW231974   2.074   2.285  15.896 -1.3211  1.1648 -1.0786
 6838SOL     OW31975   0.937   4.345   0.995  0.3495  0.4872  0.2285
 6838SOL    HW131976   0.968   4.286   1.064 -0.2095 -0.6049 -0.4491
 6838SOL    HW231977   0.844   4.323   0.993  0.7988 -1.4143  0.5452
 6839SOL     OW31978   2.216   1.017   6.513 -0.5020  0.4552  0.0825
 6839SOL    HW131979   2.190   1.104   6.544 -1.2281  0.5519 -0.8236
 6839SOL    HW231980   2.210   1.024   6.418  0.5397  2.3815  0.1621
 6840SOL     OW31981   1.674   4.666   2.982 -0.4120  0.5616 -0.3404
 6840SOL    HW131982   1.609   4.652   3.051 -1.5819  1.1825 -1.3234
 6840SOL    HW231983   1.690   4.578   2.950  1.3266  0.3735  1.0676
 6841SOL     OW31984   4.538   0.010   3.359  0.0527 -0.1129 -0.6232
 6841SOL    HW131985   4.541   4.685   3.279 -0.2637 -2.5949  0.9736
 6841SOL    HW231986   4.631   4.719   3.376 -0.1365  1.1479  1.9019
 6842SOL     OW31987   4.325   2.701   5.487  0.0181 -0.4533  0.4540
 6842SOL    HW131988   4.291   2.726   5.573 -0.1016  2.9242 -0.5862
 6842SOL    HW231989   4.241   2.665   5.457 -0.3782 -0.2616  1.3238
 6843SOL     OW31990   2.633   3.774  15.028  0.2153 -0.0612  0.1848
 6843SOL    HW131991   2.596   3.858  15.054  2.1074  1.1278 -0.9952
 6843SOL    HW231992   2.563   3.727  14.982 -1.3129  2.2512  0.1564
 6844SOL     OW31993   3.030   4.495   0.961 -0.2963  0.2539 -0.3856
 6844SOL    HW131994   3.125   4.499   0.964 -0.3958  1.8742  0.3654
 6844SOL    HW231995   3.006   4.402   0.970 -2.3858  0.8424  0.0261
 6845SOL     OW31996   0.206   1.812   4.129 -0.0209  0.0437 -0.8416
 6845SOL    HW131997   0.272   1.860   4.178 -1.1209  0.7902 -0.0841
 6845SOL    HW231998   0.140   1.882   4.122 -3.2327 -2.8761  0.1918
 6846SOL     OW31999   2.772   3.885  11.539 -0.6287  0.1916  0.7636
 6846SOL    HW132000   2.730   3.971  11.538  0.0715  0.5250 -0.9031
 6846SOL    HW232001   2.735   3.846  11.459 -0.8731 -0.1765  1.0567
 6847SOL     OW32002   4.210   1.301  17.324 -0.1911 -0.2722 -0.3022
 6847SOL    HW132003   4.204   1.396  17.313  0.1076 -0.3693 -1.2795
 6847SOL    HW232004   4.224   1.289  17.418 -1.2324 -1.3639 -0.2961
 6848SOL     OW32005   2.930   1.891  13.450  0.5750  0.0781  0.1205
 6848SOL    HW132006   2.962   1.905  13.361  1.3364 -1.0641  0.2181
 6848SOL    HW232007   2.863   1.957  13.467  1.8367  1.8040 -1.6316
 6849SOL     OW32008   3.180   3.181   4.658  0.2919 -0.1403  0.9420
 6849SOL    HW132009   3.105   3.231   4.629  0.8371 -1.3152 -2.5244
 6849SOL    HW232010   3.163   3.104   4.604 -1.6975 -0.1180  1.5460
 6850SOL     OW32011   1.827   3.425   5.138  0.2104 -0.4265  0.0118
 6850SOL    HW132012   1.911   3.471   5.148  1.6725 -3.0772 -0.1503
 6850SOL    HW232013   1.861   3.343   5.103  0.5386  0.4136 -1.6061
 6851SOL     OW32014   3.679   1.515   7.994  0.1393  0.8478 -0.4798
 6851SOL    HW132015   3.643   1.583   8.051  0.8157 -0.2025  1.1936
 6851SOL    HW232016   3.669   1.562   7.911  2.7922  0.6241 -0.9110
 6852SOL     OW32017   3.316   4.695   4.558 -0.1574 -0.0545 -0.7753
 6852SOL    HW132018   3.361   0.042   4.597  2.2008 -2.7869  1.6799
 6852SOL    HW232019   3.280   0.011   4.481 -1.3268 -2.3747 -1.5491
 6853SOL     OW32020   4.643   1.883   6.938 -0.3431  0.1532  0.3144
 6853SOL    HW132021   4.638   1.800   6.891 -0.3141  0.7403 -0.7176
 6853SOL    HW232022   4.653   1.955   6.875 -1.1979  0.0911  0.1176
 6854SOL     OW32023   1.465   1.284   1.034 -0.1456 -0.1641 -0.2664
 6854SOL    HW132024   1.518   1.333   0.971 -1.9151  1.1829 -0.7210
 6854SOL    HW232025   1.375   1.308   1.013 -0.1568  0.4116  0.4253
 6855SOL     OW32026   1.089   3.742   9.790 -0.3870  0.5850  0.1039
 6855SOL    HW132027   1.114   3.661   9.835  2.2467  2.1715  1.5037
 6855SOL    HW232028   1.028   3.705   9.726  1.5210 -1.0803 -0.7488
 6856SOL     OW32029   1.812   3.632  11.155  1.0648 -0.0047 -0.2866
 6856SOL    HW132030   1.810   3.691  11.231 -1.8368  1.6298 -1.6542
 6856SOL    HW232031   1.896   3.648  11.113  0.6659  3.6961  0.3357
 6857SOL     OW32032   4.333   1.364   9.591  0.9412  0.0580  0.7755
 6857SOL    HW132033   4.372   1.277   9.596 -0.1256 -0.4089  1.0377
 6857SOL    HW232034   4.405   1.418   9.623  1.0194 -1.5338  3.2536
 6858SOL     OW32035   0.851   4.609   1.070 -0.0720 -0.5270  1.0716
 6858SOL    HW132036   0.868   4.691   1.025  0.6916 -0.6243  1.1795
 6858SOL    HW232037   0.914   4.548   1.032 -0.3372  0.4951 -0.9875
 6859SOL     OW32038   3.588   2.801  17.583  0.4651 -0.1139  0.1633
 6859SOL    HW132039   3.610   2.832  17.671  0.5009  2.2338 -0.6664
 6859SOL    HW232040   3.607   2.870  17.519 -0.8008  0.3582  0.2905
 6860SOL     OW32041   4.173   4.162   2.850  0.3966 -0.1410 -0.2948
 6860SOL    HW132042   4.197   4.097   2.916 -0.4782 -0.2547 -0.0859
 6860SOL    HW232043   4.136   4.118   2.774  0.8545 -0.1485 -0.5148
 6861SOL     OW32044   3.301   0.379   6.211 -0.0755 -0.6310 -0.1660
 6861SOL    HW132045   3.235   0.358   6.277 -0.4043 -2.2630 -1.0129
 6861SOL    HW232046   3.359   0.433   6.265 -2.1162 -0.7015  2.0876
 6862SOL     OW32047   1.369   0.558   0.203  0.6085  0.1258 -0.3190
 6862SOL    HW132048   1.359   0.466   0.228 -0.0974  0.2997  0.0513
 6862SOL    HW232049   1.456   0.578   0.237 -0.0879  2.0382  0.3264
 6863SOL     OW32050   4.135   1.620   1.041 -0.3846 -0.2132 -0.4898
 6863SOL    HW132051   4.226   1.634   1.064 -0.4344  1.1778 -1.1573
 6863SOL    HW232052   4.126   1.533   1.080 -1.3775  0.4533  0.7679
 6864SOL     OW32053   0.584   2.755   1.736 -0.2596 -0.0728  0.3943
 6864SOL    HW132054   0.534   2.750   1.818 -0.7589  1.8038  0.2097
 6864SOL    HW232055   0.664   2.704   1.747  0.0283 -0.1928 -2.2618
 6865SOL     OW32056   2.772   1.643   4.216 -0.2071 -0.1508  0.2921
 6865SOL    HW132057   2.860   1.642   4.252 -0.9817  0.5889  2.1732
 6865SOL    HW232058   2.715   1.610   4.286 -0.3937 -0.5002 -0.0178
 6866SOL     OW32059   0.751   3.019   2.528  0.4544 -0.0566  0.0340
 6866SOL    HW132060   0.658   3.024   2.508  0.2164 -0.1482  1.1036
 6866SOL    HW232061   0.784   3.073   2.456 -0.6595  0.8485  0.2010
 6867SOL     OW32062   0.192   2.084   0.290 -0.2390  0.1813  0.3390
 6867SOL    HW132063   0.197   1.996   0.251 -2.2995  0.1967  0.0356
 6867SOL    HW232064   0.107   2.083   0.334 -0.0234  1.8683  0.7589
 6868SOL     OW32065   2.019   0.398  15.105 -0.0765  0.6539  0.1883
 6868SOL    HW132066   2.098   0.345  15.103 -0.8328 -0.5052  1.6469
 6868SOL    HW232067   1.985   0.400  15.015 -1.8637 -1.7328  0.8287
 6869SOL     OW32068   3.916   0.952  11.423  0.5832 -0.3731 -0.0647
 6869SOL    HW132069   3.913   0.973  11.330 -0.5692 -1.6396 -0.3179
 6869SOL    HW232070   3.856   1.017  11.460 -0.5589  0.0379 -2.6417
 6870SOL     OW32071   0.155   3.977   3.274  0.4919  0.2671  0.2731
 6870SOL    HW132072   0.103   3.986   3.194  0.6774 -0.5007  0.0720
 6870SOL    HW232073   0.241   3.966   3.234  1.1089 -0.1864  1.7487
 6871SOL     OW32074   4.547   2.344  16.717  0.3161 -0.1184  0.1576
 6871SOL    HW132075   4.561   2.439  16.718  1.3706 -0.2986  2.2556
 6871SOL    HW232076   4.579   2.329  16.806  0.0963 -1.0407  0.0785
 6872SOL     OW32077   3.296   3.006   8.761 -0.1021 -0.2207  0.2726
 6872SOL    HW132078   3.310   3.059   8.682  1.6040 -0.2179  0.5786
 6872SOL    HW232079   3.213   2.966   8.734 -0.1289  0.9020 -1.3072
 6873SOL     OW32080   3.315   2.005   5.352  0.0658 -0.0913  0.0120
 6873SOL    HW132081   3.275   2.086   5.382  0.7661  0.2566 -0.0131
 6873SOL    HW232082   3.311   1.946   5.427 -2.0198 -1.0972 -0.8695
 6874SOL     OW32083   2.183   1.246   5.501 -0.3282  0.2294  0.4965
 6874SOL    HW132084   2.256   1.185   5.511 -2.0428 -2.3617 -2.4690
 6874SOL    HW232085   2.193   1.310   5.571 -0.0219  1.5022 -0.7143
 6875SOL     OW32086   4.719   0.894   7.803  0.7468 -0.1788 -0.3200
 6875SOL    HW132087   4.722   0.798   7.794 -0.9346 -0.2679  0.0218
 6875SOL    HW232088   0.017   0.901   7.895  1.4759 -0.9866 -0.4613
 6876SOL     OW32089   2.464   1.156  12.875  0.6234  0.4204  0.1106
 6876SOL    HW132090   2.517   1.084  12.841 -1.2553 -1.9290  2.1346
 6876SOL    HW232091   2.380   1.112  12.893  1.5340 -0.9635  0.9877
 6877SOL     OW32092   3.334   1.015   1.585 -1.0409 -0.0357  0.3975
 6877SOL    HW132093   3.328   1.069   1.506 -2.0545  0.2074  0.6344
 6877SOL    HW232094   3.414   1.034   1.633 -0.4022  0.9283 -1.0526
 6878SOL     OW32095   1.801   1.976   0.127  0.2516  0.0834  0.2610
 6878SOL    HW132096   1.790   1.901   0.068 -1.7779 -2.4840  3.9099
 6878SOL    HW232097   1.711   2.008   0.135  0.0127 -0.5951  0.2898
 6879SOL     OW32098   3.709   1.443  12.254 -0.2980  0.1234  0.8222
 6879SOL    HW132099   3.766   1.373  12.285 -0.6639 -0.2796  0.5906
 6879SOL    HW232100   3.626   1.400  12.277 -0.4463  0.7982  1.5318
 6880SOL     OW32101   4.594   1.514   3.138  0.1164 -0.0888  0.1229
 6880SOL    HW132102   4.635   1.510   3.052 -0.1114  1.5553 -0.0582
 6880SOL    HW232103   4.612   1.425   3.168  1.3453 -0.1138 -0.7310
 6881SOL     OW32104   2.828   0.049   3.763 -0.3082 -0.0139  0.1316
 6881SOL    HW132105   2.820   4.699   3.817  0.3869  1.4405  2.3407
 6881SOL    HW232106   2.922   0.065   3.773 -0.0998 -1.1256 -0.1377
 6882SOL     OW32107   0.186   1.502   5.631  0.3573  0.1148 -0.3272
 6882SOL    HW132108   0.110   1.560   5.636 -0.0494 -0.4233 -0.2885
 6882SOL    HW232109   0.168   1.451   5.710  1.2339 -0.5797 -0.5853
 6883SOL     OW32110   4.301   0.343   5.108 -0.6142 -0.0561 -0.3806
 6883SOL    HW132111   4.371   0.279   5.093  0.4760  0.7768  1.2007
 6883SOL    HW232112   4.280   0.315   5.197  0.3446  1.1808  0.2270
 6884SOL     OW32113   1.636   1.609   3.953  0.4680 -0.3292  0.3491
 6884SOL    HW132114   1.679   1.636   4.035 -0.3522  2.0219  0.0124
 6884SOL    HW232115   1.571   1.679   3.947 -0.4374 -1.3896 -2.0559
 6885SOL     OW32116   3.831   3.406   0.107  0.7476  0.0238 -0.5080
 6885SOL    HW132117   3.809   3.398   0.014  0.7394  1.0096 -0.5921
 6885SOL    HW232118   3.746   3.381   0.144  1.8188 -1.6561  0.7882
 6886SOL     OW32119   0.571   0.098   3.040  0.3283 -0.0359 -0.2688
 6886SOL    HW132120   0.617   0.024   3.079  0.2260 -1.1059 -2.1923
 6886SOL    HW232121   0.639   0.143   2.990 -0.3596 -0.6368 -1.7323
 6887SOL     OW32122   3.684   0.959   8.789  0.1110  0.0044  0.4219
 6887SOL    HW132123   3.618   1.021   8.758  0.3946  0.4970  0.7993
 6887SOL    HW232124   3.725   0.946   8.704 -0.4731  1.7381 -0.1381
 6888SOL     OW32125   0.767   3.332  12.492 -0.4957  0.2551  0.8008
 6888SOL    HW132126   0.672   3.342  12.478 -0.5472  0.9992  1.7004
 6888SOL    HW232127   0.789   3.260  12.433 -0.9610 -0.6322  1.7124
 6889SOL     OW32128   1.053   0.262   8.147 -0.4234  0.6066 -0.0232
 6889SOL    HW132129   1.107   0.287   8.071 -0.5974  2.4003  0.4358
 6889SOL    HW232130   1.048   0.167   8.139  0.5034  0.5945 -0.5418
 6890SOL     OW32131   3.631   2.552  11.839  0.3211  0.2291 -0.1734
 6890SOL    HW132132   3.538   2.557  11.862  0.4176 -1.9454  0.6404
 6890SOL    HW232133   3.632   2.457  11.824 -0.0506 -0.1673  2.3774
 6891SOL     OW32134   1.474   0.815   9.790  0.1429  0.1245 -0.2995
 6891SOL    HW132135   1.507   0.751   9.853 -0.4449 -1.2486 -1.3979
 6891SOL    HW232136   1.381   0.797   9.775  0.2699 -0.7361 -0.0526
 6892SOL     OW32137   1.993   3.711   4.568  0.1508  0.4667 -0.4462
 6892SOL    HW132138   2.073   3.735   4.615  0.8181 -2.0480 -0.3293
 6892SOL    HW232139   2.027   3.728   4.480 -2.9951 -0.0712 -1.7491
 6893SOL     OW32140   3.294   4.063   5.823 -0.3224 -0.6815  0.1253
 6893SOL    HW132141   3.328   3.977   5.797  1.1855  0.5279 -1.8860
 6893SOL    HW232142   3.268   4.105   5.741  0.7260  0.3893  0.3554
 6894SOL     OW32143   1.426   0.338   5.845  0.2365 -0.5323 -1.0118
 6894SOL    HW132144   1.331   0.340   5.848  0.3308  1.4163  0.4873
 6894SOL    HW232145   1.454   0.425   5.818 -0.5904  0.1275  0.2741
 6895SOL     OW32146   3.811   4.226  12.553  0.3431 -0.1673  0.0741
 6895SOL    HW132147   3.884   4.166  12.569 -1.2734 -2.2513 -0.3032
 6895SOL    HW232148   3.836   4.291  12.619 -0.7472  0.5108 -0.1844
 6896SOL     OW32149   0.068   1.636   7.179 -0.2190 -0.1731 -0.2915
 6896SOL    HW132150   0.024   1.566   7.228  0.9843 -0.2800  0.6269
 6896SOL    HW232151   0.043   1.617   7.089 -0.5990  0.2490 -0.2748
 6897SOL     OW32152   0.277   0.928   0.487 -0.3146  0.1088  0.6362
 6897SOL    HW132153   0.302   0.856   0.544 -0.6895  0.3314  1.0843
 6897SOL    HW232154   0.273   0.891   0.399 -1.1511 -0.8014  1.0565
 6898SOL     OW32155   2.401   3.991   3.214 -0.5742  0.2681 -0.1448
 6898SOL    HW132156   2.446   3.910   3.239  2.1285  2.0317  0.6049
 6898SOL    HW232157   2.448   4.014   3.133  0.9492  0.4015  0.7756
 6899SOL     OW32158   0.147   0.779   1.800 -0.1984 -0.0268  0.2638
 6899SOL    HW132159   0.075   0.755   1.742  0.1126 -1.2346  0.3911
 6899SOL    HW232160   0.227   0.768   1.748 -1.8760 -1.3507 -2.0443
 6900SOL     OW32161   2.588   2.296   5.796 -0.3125  0.5376  0.4003
 6900SOL    HW132162   2.618   2.309   5.706 -0.3613 -0.2364  0.2725
 6900SOL    HW232163   2.514   2.356   5.796  0.1508  1.0790  2.7003
 6901SOL     OW32164   3.131   2.202  17.520  0.8519 -0.4127  0.3430
 6901SOL    HW132165   3.108   2.189  17.428  0.8479 -0.0458  0.2925
 6901SOL    HW232166   3.045   2.180  17.554  0.6302 -0.6416 -0.3839
 6902SOL     OW32167   0.480   0.697  15.585  0.3614 -0.7873  0.0268
 6902SOL    HW132168   0.535   0.632  15.542  1.1586  1.0437 -1.6964
 6902SOL    HW232169   0.521   0.776  15.551 -0.6855 -0.4594 -0.4815
 6903SOL     OW32170   2.615   2.342   0.554 -0.2375  0.1129 -0.2682
 6903SOL    HW132171   2.659   2.359   0.470 -0.8994  0.3057 -0.5756
 6903SOL    HW232172   2.605   2.433   0.581  1.1105  0.3433 -0.5409
 6904SOL     OW32173   2.770   0.534   6.466 -0.4852 -0.0072  0.4799
 6904SOL    HW132174   2.721   0.615   6.481 -0.1029  0.4717 -0.9006
 6904SOL    HW232175   2.847   0.552   6.520 -0.2228 -0.6209  0.3038
 6905SOL     OW32176   0.644   2.163   4.700  0.4893  0.1049 -0.5068
 6905SOL    HW132177   0.640   2.105   4.624  0.6195  0.0838 -0.4980
 6905SOL    HW232178   0.736   2.152   4.725  0.2173  0.5857  0.6771
 6906SOL     OW32179   1.308   2.511   4.893 -0.1126  0.2207 -0.1451
 6906SOL    HW132180   1.300   2.442   4.959 -0.3938  1.7540  1.4088
 6906SOL    HW232181   1.251   2.579   4.931 -0.7437  0.2471 -1.1327
 6907SOL     OW32182   0.856   1.888   6.953 -0.2109 -0.4690  0.3678
 6907SOL    HW132183   0.783   1.890   6.892  1.1863 -1.4434 -1.3115
 6907SOL    HW232184   0.886   1.978   6.939 -0.6911 -0.0607  1.8522
 6908SOL     OW32185   0.221   1.885   6.164 -0.0183 -0.5835  0.2777
 6908SOL    HW132186   0.295   1.854   6.217 -0.0177 -2.7332 -0.9710
 6908SOL    HW232187   0.180   1.940   6.230 -1.1563 -0.6293 -0.3983
 6909SOL     OW32188   0.369   1.039   2.507 -0.0836 -0.1002 -0.8189
 6909SOL    HW132189   0.446   0.995   2.542 -0.8126 -0.6562  0.0499
 6909SOL    HW232190   0.399   1.095   2.435  0.3181 -0.5939 -1.0347
 6910SOL     OW32191   0.722   1.630  16.860  0.1249 -0.0391  0.4251
 6910SOL    HW132192   0.754   1.716  16.833  2.3475 -0.3937  1.9172
 6910SOL    HW232193   0.760   1.585  16.784 -1.7616  1.0228 -1.1272
 6911SOL     OW32194   4.453   1.206   1.043 -0.5782  0.1124  0.4173
 6911SOL    HW132195   4.397   1.161   0.979 -2.0331  0.7639  1.2302
 6911SOL    HW232196   4.507   1.263   0.988 -0.6041 -0.5431 -0.2912
 6912SOL     OW32197   2.268   2.065   4.151  0.3170  0.9639 -0.7752
 6912SOL    HW132198   2.329   2.008   4.104 -0.7660 -0.4095 -0.4922
 6912SOL    HW232199   2.303   2.149   4.121 -0.1564  0.3819 -2.9050
 6913SOL     OW32200   0.280   0.279   7.749  0.0830 -0.4913  0.3671
 6913SOL    HW132201   0.369   0.281   7.715  0.4664  2.2043  1.5116
 6913SOL    HW232202   0.251   0.371   7.753  1.5545  0.0662 -2.3040
 6914SOL     OW32203   0.460   1.858  13.751  0.9058  0.5866 -0.1164
 6914SOL    HW132204   0.438   1.899  13.835  0.7948  0.5285 -0.1169
 6914SOL    HW232205   0.407   1.911  13.692  0.3021  0.6028  0.4367
 6915SOL     OW32206   2.599   4.053   3.873 -0.4086  0.6287 -0.3042
 6915SOL    HW132207   2.576   4.103   3.795 -0.9526 -0.6188 -0.9418
 6915SOL    HW232208   2.663   3.999   3.827  0.8025  1.5538  0.2852
 6916SOL     OW32209   0.077   3.915  11.925  0.3644 -0.9100 -0.1719
 6916SOL    HW132210   0.039   3.895  12.011  0.3501  0.5004  0.1392
 6916SOL    HW232211   0.031   3.994  11.899 -1.5893 -1.9399  0.1826
 6917SOL     OW32212   0.802   0.579   8.030 -0.2970  0.4315 -0.2577
 6917SOL    HW132213   0.715   0.610   8.053 -0.7663 -1.8633  1.1105
 6917SOL    HW232214   0.858   0.654   8.051 -2.7615  1.6984  1.5892
 6918SOL     OW32215   3.603   1.393   9.980 -0.5811  0.1138 -0.7342
 6918SOL    HW132216   3.576   1.352   9.897 -0.1754 -1.3566 -0.1314
 6918SOL    HW232217   3.521   1.390  10.029  0.8815  0.0000  1.6894
 6919SOL     OW32218   2.423   3.785   3.646  0.3567 -0.2966 -0.1415
 6919SOL    HW132219   2.423   3.879   3.628 -0.5340 -0.3809 -0.6098
 6919SOL    HW232220   2.341   3.763   3.601 -0.0403  0.4813  0.2046
 6920SOL     OW32221   3.835   2.371  16.441  0.0702  0.0180 -0.1531
 6920SOL    HW132222   3.849   2.326  16.357  0.6477  0.8486 -0.5020
 6920SOL    HW232223   3.821   2.463  16.419 -0.0622  0.3533  1.3671
 6921SOL     OW32224   1.405   2.289  11.482  0.0954 -0.4648 -0.2829
 6921SOL    HW132225   1.460   2.324  11.412 -2.0235  2.1063 -0.6788
 6921SOL    HW232226   1.460   2.251  11.550 -0.4369 -2.8936 -1.2327
 6922SOL     OW32227   3.113   1.175   5.300  0.1728 -0.2894  0.6268
 6922SOL    HW132228   3.116   1.080   5.305 -1.5160 -0.3742  0.0961
 6922SOL    HW232229   3.033   1.195   5.348 -0.4370  1.2148 -0.9890
 6923SOL     OW32230   1.345   1.359   6.532  0.1582  0.2921 -0.2974
 6923SOL    HW132231   1.399   1.283   6.556  0.3921  0.7358  0.5666
 6923SOL    HW232232   1.353   1.409   6.613 -1.9859 -0.9889  0.7018
 6924SOL     OW32233   2.624   4.221  10.204  0.2753  0.3676 -0.9260
 6924SOL    HW132234   2.627   4.192  10.295  0.2213  0.1919 -0.9801
 6924SOL    HW232235   2.553   4.162  10.180  0.7889  0.0587 -1.6920
 6925SOL     OW32236   0.131   2.960   2.240 -0.3806  0.1615 -0.3621
 6925SOL    HW132237   0.172   2.931   2.159  0.4846 -0.6573  0.3663
 6925SOL    HW232238   0.124   3.055   2.234 -1.8856  0.0189 -0.8379
 6926SOL     OW32239   4.388   4.264  13.489  0.0856  0.5119 -0.4673
 6926SOL    HW132240   4.453   4.224  13.547  0.6983 -0.6922 -1.9882
 6926SOL    HW232241   4.426   4.257  13.402  2.0120  0.5880  0.3787
 6927SOL     OW32242   1.600   3.471   0.119  0.0024  0.1973  0.0426
 6927SOL    HW132243   1.512   3.434   0.129  0.3374 -1.2945 -2.6501
 6927SOL    HW232244   1.656   3.411   0.168 -0.4084 -1.1198 -1.1156
 6928SOL     OW32245   3.006   1.955   8.713  0.0082 -0.3748  0.0171
 6928SOL    HW132246   2.938   1.919   8.770 -0.3417  0.9984  0.4501
 6928SOL    HW232247   3.059   2.014   8.766  1.5589 -2.0548  0.3428
 6929SOL     OW32248   2.332   0.990   1.184  0.6494 -0.3146  0.4788
 6929SOL    HW132249   2.309   0.901   1.154  0.6031 -0.3248  0.5451
 6929SOL    HW232250   2.318   1.034   1.100  0.4992 -2.3260 -0.5606
 6930SOL     OW32251   4.250   0.582   7.450 -0.1138  0.0131 -0.0677
 6930SOL    HW132252   4.214   0.586   7.538  0.0912 -0.2775  0.0286
 6930SOL    HW232253   4.300   0.500   7.447 -0.6531 -0.2819 -1.1345
 6931SOL     OW32254   0.256   2.996  14.288 -0.3177  0.0447  0.1289
 6931SOL    HW132255   0.195   3.021  14.218 -2.5649 -0.6518  1.8317
 6931SOL    HW232256   0.336   2.976  14.239 -0.4827 -0.5865  0.1221
 6932SOL     OW32257   0.429   0.885  16.143  0.0609  0.5574 -0.8363
 6932SOL    HW132258   0.496   0.917  16.082  1.6793 -2.1330 -0.4654
 6932SOL    HW232259   0.490   0.835  16.197 -1.0126 -1.3762 -1.4187
 6933SOL     OW32260   4.143   2.215   5.377 -0.2755 -0.2197  0.1526
 6933SOL    HW132261   4.107   2.224   5.289  0.1644 -1.8262 -0.2019
 6933SOL    HW232262   4.234   2.241   5.363 -0.0933 -0.8213  0.2161
 6934SOL     OW32263   3.676   4.586   7.143  0.2770  0.2772  0.0268
 6934SOL    HW132264   3.610   4.640   7.186 -0.0418 -0.4038  0.3928
 6934SOL    HW232265   3.662   4.621   7.055 -1.0707 -3.2983 -1.1929
 6935SOL     OW32266   3.406   1.647   2.710 -0.3002 -0.1817 -0.1943
 6935SOL    HW132267   3.382   1.603   2.628 -1.2428  1.1762 -0.6636
 6935SOL    HW232268   3.369   1.581   2.768  2.0176 -2.3591 -1.1920
 6936SOL     OW32269   0.715   2.521   5.667 -0.1552  0.0098  0.2765
 6936SOL    HW132270   0.714   2.586   5.737  0.0593  0.9272 -0.5764
 6936SOL    HW232271   0.769   2.453   5.708  2.0056  1.1395 -0.7703
 6937SOL     OW32272   3.336   1.878   4.036  0.4779  0.3689  0.4725
 6937SOL    HW132273   3.311   1.910   3.949 -2.6366  2.8596  2.2651
 6937SOL    HW232274   3.328   1.783   4.035  3.6487  0.0936  0.3822
 6938SOL     OW32275   0.254   1.849   5.230 -0.5240 -0.8471  0.6290
 6938SOL    HW132276   0.223   1.854   5.321  1.2242  1.5369  1.0919
 6938SOL    HW232277   0.333   1.903   5.235 -0.6476 -0.6605  0.5360
 6939SOL     OW32278   0.658   4.448   1.823  0.2426 -0.3189 -0.2403
 6939SOL    HW132279   0.641   4.522   1.764  1.6812  0.0632 -0.1661
 6939SOL    HW232280   0.576   4.440   1.872  1.1467  1.1672  1.4689
 6940SOL     OW32281   3.645   4.475   5.135 -0.1168 -0.0123  0.0953
 6940SOL    HW132282   3.611   4.556   5.097 -1.4113 -0.9615 -0.7730
 6940SOL    HW232283   3.721   4.455   5.080  0.7780  1.2606  0.8571
 6941SOL     OW32284   2.766   3.277   5.193  0.3200  0.5366  0.1735
 6941SOL    HW132285   2.815   3.221   5.254  2.8768 -0.8865 -3.2287
 6941SOL    HW232286   2.816   3.358   5.203 -1.0084  1.2606  1.0126
 6942SOL     OW32287   0.494   4.644  17.243 -0.4705  0.0027 -0.6879
 6942SOL    HW132288   0.443   4.715  17.204  0.4645  1.6266  1.0802
 6942SOL    HW232289   0.556   4.700  17.289  2.7191 -2.4836 -1.9357
 6943SOL     OW32290   2.034   2.853  14.111  0.1820 -0.0804  0.0230
 6943SOL    HW132291   2.108   2.911  14.127  0.5982 -0.4782 -0.4330
 6943SOL    HW232292   1.969   2.917  14.139  1.8928  1.5986  0.1573
 6944SOL     OW32293   3.337   3.910   4.215  0.4758 -0.1528 -0.4331
 6944SOL    HW132294   3.344   4.006   4.215  2.0081 -0.2660 -1.7276
 6944SOL    HW232295   3.345   3.900   4.309 -2.3334 -0.3933 -0.2262
 6945SOL     OW32296   0.130   1.986   9.008 -0.9960 -0.3544  0.1190
 6945SOL    HW132297   0.200   1.976   9.072 -1.4799  0.4143  0.7641
 6945SOL    HW232298   0.168   2.044   8.942 -1.2338 -0.2917  0.0377
 6946SOL     OW32299   0.285   2.883   4.910  0.1566 -0.4596 -0.8662
 6946SOL    HW132300   0.204   2.833   4.915 -0.3945  0.0957 -4.3721
 6946SOL    HW232301   0.272   2.936   4.989  2.1584  0.0300 -0.8612
 6947SOL     OW32302   4.520   1.656   2.445  0.3773  0.2987 -0.5915
 6947SOL    HW132303   4.607   1.615   2.437  0.2345 -0.2267  0.5174
 6947SOL    HW232304   4.488   1.596   2.513  0.4923  3.0868  1.9004
 6948SOL     OW32305   0.808   1.504   3.403 -0.0868  0.5413  0.2416
 6948SOL    HW132306   0.838   1.504   3.312  0.7702  0.3737  0.5257
 6948SOL    HW232307   0.723   1.545   3.391  0.2819  1.0470 -0.6879
 6949SOL     OW32308   0.173   1.702   3.061  0.6115 -0.1731  0.4529
 6949SOL    HW132309   0.117   1.752   3.002  1.2364  2.3953  2.0280
 6949SOL    HW232310   0.186   1.625   3.006 -0.3476  0.4192 -0.5811
 6950SOL     OW32311   1.795   1.601  11.638  0.0305  0.1458 -0.3123
 6950SOL    HW132312   1.830   1.663  11.703 -0.8805 -1.0137  1.2829
 6950SOL    HW232313   1.875   1.589  11.587 -0.7198  1.8359 -1.9204
 6951SOL     OW32314   2.152   1.193  13.357 -0.1058 -0.1592 -0.8828
 6951SOL    HW132315   2.140   1.261  13.290  3.0756  2.6573  1.4397
 6951SOL    HW232316   2.118   1.243  13.431  0.0709 -1.2555 -0.0600
 6952SOL     OW32317   2.310   1.171   1.954 -0.5825  0.2469 -0.5592
 6952SOL    HW132318   2.387   1.225   1.972 -0.6911  1.0773 -2.5839
 6952SOL    HW232319   2.343   1.082   1.965 -1.7406  0.1668  2.5290
 6953SOL     OW32320   2.267   3.424   0.750 -0.3389  0.2865  0.1746
 6953SOL    HW132321   2.334   3.365   0.718 -0.5572 -0.7449  1.6189
 6953SOL    HW232322   2.203   3.370   0.703 -0.6863  1.8548 -1.1508
 6954SOL     OW32323   3.284   1.734   1.551 -0.2029 -0.2216  0.2557
 6954SOL    HW132324   3.353   1.717   1.486  2.1610  1.7542  2.2590
 6954SOL    HW232325   3.311   1.677   1.622 -0.3225  0.0340  0.5051
 6955SOL     OW32326   3.042   4.691   7.495 -0.2523  0.1491 -0.2592
 6955SOL    HW132327   3.016   4.605   7.529  1.0647 -0.5265 -0.9580
 6955SOL    HW232328   3.094   4.722   7.569 -3.7236  1.3709  1.6579
 6956SOL     OW32329   3.229   4.452   2.670  0.2297 -0.4216  0.6451
 6956SOL    HW132330   3.272   4.369   2.692  0.4647  0.0367  1.9535
 6956SOL    HW232331   3.180   4.463   2.752  0.3408 -2.2261  0.9486
 6957SOL     OW32332   2.177   3.146  12.700 -0.0641  0.5557 -0.0173
 6957SOL    HW132333   2.152   3.235  12.726  0.7792  1.1677 -1.2976
 6957SOL    HW232334   2.216   3.123  12.784  0.7863 -1.0653 -0.8588
 6958SOL     OW32335   3.332   0.762   2.188  0.1005  0.3429  0.6813
 6958SOL    HW132336   3.300   0.693   2.130 -1.1914  1.4434  0.0948
 6958SOL    HW232337   3.399   0.706   2.228  0.9675  0.0741 -1.1557
 6959SOL     OW32338   4.474   1.389   7.823 -0.2233 -0.1765  0.0636
 6959SOL    HW132339   4.532   1.332   7.771 -0.9044 -0.0229 -0.8532
 6959SOL    HW232340   4.388   1.363   7.790 -1.1514  0.8632  1.6613
 6960SOL     OW32341   4.343   1.781  10.702 -0.9369 -0.3176 -0.1776
 6960SOL    HW132342   4.337   1.875  10.683 -0.9358 -0.2320  0.2282
 6960SOL    HW232343   4.403   1.789  10.777 -0.8050 -2.5119 -0.0659
 6961SOL     OW32344   1.224   0.023   5.375  0.4502 -0.1063  0.3407
 6961SOL    HW132345   1.151   0.082   5.391 -0.4068 -0.4776 -2.2615
 6961SOL    HW232346   1.240   0.045   5.283 -1.4385  0.2282  0.1011
 6962SOL     OW32347   4.200   2.014   2.406 -0.2749  0.3774 -0.9924
 6962SOL    HW132348   4.204   1.945   2.472 -1.0878  0.4811 -0.8417
 6962SOL    HW232349   4.236   1.970   2.329  0.9330 -1.5690  0.6728
 6963SOL     OW32350   1.421   4.044   4.863 -0.1246  0.0900 -0.0294
 6963SOL    HW132351   1.333   4.011   4.843 -0.5413  1.5163 -0.5746
 6963SOL    HW232352   1.463   4.029   4.778  1.3345  1.4136  0.4696
 6964SOL     OW32353   0.871   1.382   3.669  0.1724 -0.0140 -0.3908
 6964SOL    HW132354   0.893   1.475   3.675 -0.4841  0.1448 -0.4658
 6964SOL    HW232355   0.814   1.381   3.592 -0.2409 -0.1165 -0.0860
 6965SOL     OW32356   1.688   0.715   7.723  0.2938  0.2656 -0.0799
 6965SOL    HW132357   1.602   0.733   7.685  0.1557 -0.5516 -0.1469
 6965SOL    HW232358   1.736   0.793   7.694  0.0884  0.7711  0.9193
 6966SOL     OW32359   1.087   0.062   5.968  0.5623  0.3417  0.3405
 6966SOL    HW132360   1.125   4.707   6.000 -0.9303  0.1098  1.4873
 6966SOL    HW232361   1.150   0.091   5.901 -0.1045  0.5813 -0.1753
 6967SOL     OW32362   4.253   0.563  16.805  0.1555 -0.4597  0.4118
 6967SOL    HW132363   4.263   0.590  16.714 -3.5206 -0.3256  0.0633
 6967SOL    HW232364   4.274   0.470  16.807 -0.8747 -0.7337 -3.0677
 6968SOL     OW32365   1.491   2.037   2.793  0.2049  0.1411  0.2008
 6968SOL    HW132366   1.419   2.096   2.816 -0.8907 -1.1912  0.1985
 6968SOL    HW232367   1.560   2.067   2.853  1.0136  0.3370 -0.8359
 6969SOL     OW32368   3.530   2.627  13.125  0.1517 -0.7307 -0.0062
 6969SOL    HW132369   3.484   2.611  13.207  0.1245 -0.5660  0.0106
 6969SOL    HW232370   3.476   2.691  13.079  1.1985  0.8976  1.0446
 6970SOL     OW32371   0.772   2.087   3.710 -0.2653  0.1361 -0.0527
 6970SOL    HW132372   0.764   2.044   3.625 -0.2426  0.5148 -0.2475
 6970SOL    HW232373   0.702   2.152   3.704 -0.8636 -0.6664 -1.5360
 6971SOL     OW32374   0.424   0.134   7.302  0.7142  0.4835  0.1015
 6971SOL    HW132375   0.434   0.123   7.208  1.0703 -0.9623  0.3039
 6971SOL    HW232376   0.375   0.216   7.310 -3.5766 -1.7419 -3.6752
 6972SOL     OW32377   2.558   3.640  13.012 -0.8705 -0.4531 -1.1132
 6972SOL    HW132378   2.466   3.649  12.987 -1.3241 -0.2064  0.6176
 6972SOL    HW232379   2.551   3.668  13.104 -1.9133  0.0103 -1.3390
 6973SOL     OW32380   2.919   4.698   8.903  0.0586  0.2653 -0.3247
 6973SOL    HW132381   2.933   0.065   8.903 -0.4629  0.3332 -1.4293
 6973SOL    HW232382   2.853   4.688   8.835  0.2395  0.0648 -0.4712
 6974SOL     OW32383   1.348   1.766  10.316 -0.0424 -0.0137  0.3893
 6974SOL    HW132384   1.264   1.783  10.358  0.1632  2.2579 -0.1579
 6974SOL    HW232385   1.404   1.836  10.348  1.5978 -0.9768 -0.3604
 6975SOL     OW32386   1.325   1.355   3.451  0.2314  0.5045 -0.2230
 6975SOL    HW132387   1.309   1.300   3.527  1.8549 -0.7888 -0.8189
 6975SOL    HW232388   1.237   1.387   3.430  0.8293  1.7953 -0.7920
 6976SOL     OW32389   1.663   3.557   8.093 -0.2222 -0.0336 -0.4208
 6976SOL    HW132390   1.577   3.521   8.116 -0.2576 -0.8316 -1.8138
 6976SOL    HW232391   1.684   3.591   8.180  2.4282 -1.7172 -0.4269
 6977SOL     OW32392   3.725   3.330   8.822 -0.4993 -0.0824 -0.1858
 6977SOL    HW132393   3.637   3.295   8.832 -0.2062 -1.2677 -1.8566
 6977SOL    HW232394   3.713   3.425   8.813 -0.5813 -0.0993 -0.2541
 6978SOL     OW32395   2.043   3.256   2.797  0.3044 -0.3827  0.2105
 6978SOL    HW132396   1.996   3.196   2.855  0.9950 -0.9818  0.1482
 6978SOL    HW232397   2.100   3.197   2.747 -0.7661  0.8061 -2.4331
 6979SOL     OW32398   1.660   1.311   6.327 -0.7808  0.7512  0.1504
 6979SOL    HW132399   1.664   1.362   6.408 -0.8564 -0.6453  1.0398
 6979SOL    HW232400   1.711   1.361   6.263 -1.3824  0.4077 -0.5953
 6980SOL     OW32401   1.868   1.911  12.678 -0.6528  0.0854 -0.8120
 6980SOL    HW132402   1.942   1.862  12.644  0.3348  0.8041  0.3086
 6980SOL    HW232403   1.909   1.988  12.718  1.4020 -1.7532  0.6047
 6981SOL     OW32404   2.682   1.136   0.053 -0.4548  0.2631 -0.2534
 6981SOL    HW132405   2.651   1.179   0.132  2.5900 -1.3429  1.8378
 6981SOL    HW232406   2.600   1.107   0.013 -0.5206 -0.0505  0.1158
 6982SOL     OW32407   0.296   4.359   7.311  0.0799 -0.5299 -0.3764
 6982SOL    HW132408   0.302   4.454   7.297 -2.7660 -0.5088 -1.5097
 6982SOL    HW232409   0.367   4.334   7.369 -1.0087  0.4571  1.3817
 6983SOL     OW32410   3.760   3.037   2.964 -0.2912  0.9114  0.6370
 6983SOL    HW132411   3.827   3.056   3.030  1.2069  1.9802 -1.1864
 6983SOL    HW232412   3.822   3.040   2.891 -0.4471 -0.9027  0.4442
 6984SOL     OW32413   0.567   1.587   4.248 -0.2113  0.4255 -0.2159
 6984SOL    HW132414   0.503   1.516   4.261  0.3764 -0.1553 -0.4593
 6984SOL    HW232415   0.601   1.572   4.160  1.3504 -0.1585  0.4768
 6985SOL     OW32416   1.401   2.030  10.351  0.2437  0.8102  0.3552
 6985SOL    HW132417   1.392   2.059  10.260  0.1703 -0.2752  0.0119
 6985SOL    HW232418   1.357   2.104  10.393 -1.2550 -0.6983  1.4327
 6986SOL     OW32419   4.446   3.274   4.358  0.1124  0.4482 -0.8040
 6986SOL    HW132420   4.474   3.364   4.339 -0.5377  1.0083  0.9430
 6986SOL    HW232421   4.352   3.288   4.348 -0.1486 -0.8464 -0.0651
 6987SOL     OW32422   1.845   1.120   7.340 -0.3884  0.2478 -0.0086
 6987SOL    HW132423   1.884   1.080   7.418  2.1798  0.9616 -0.9246
 6987SOL    HW232424   1.834   1.214   7.357 -2.8323  0.3318 -2.1188
 6988SOL     OW32425   4.421   1.915   9.189  0.0225 -0.3790  0.3715
 6988SOL    HW132426   4.504   1.913   9.237  0.6195 -1.3894 -0.7158
 6988SOL    HW232427   4.445   1.873   9.107 -1.2236  1.5562 -1.0070
 6989SOL     OW32428   0.985   1.467   5.522  0.1604  0.3105 -0.0218
 6989SOL    HW132429   1.062   1.410   5.521  0.7003  1.0330  0.3134
 6989SOL    HW232430   0.949   1.450   5.434  3.5873 -3.2347 -0.7373
 6990SOL     OW32431   1.213   2.046   3.006  0.5218  0.4315 -0.1387
 6990SOL    HW132432   1.200   1.976   2.943 -2.4386 -1.8544  2.9498
 6990SOL    HW232433   1.140   2.107   2.994  0.4808  0.3364 -0.3642
 6991SOL     OW32434   4.353   1.383  10.259  0.1283  0.5849 -0.0200
 6991SOL    HW132435   4.448   1.377  10.254  0.2799  1.7999  1.5192
 6991SOL    HW232436   4.330   1.338  10.340  1.3659  0.1878  0.1072
 6992SOL     OW32437   4.590   3.882  17.559  0.8007 -0.3563 -0.2591
 6992SOL    HW132438   4.637   3.960  17.530  3.3494 -1.0910  1.8334
 6992SOL    HW232439   4.656   3.818  17.587  0.1653  0.3209  2.7469
 6993SOL     OW32440   4.314   1.710   5.524 -0.7242  0.9507 -0.0994
 6993SOL    HW132441   4.243   1.767   5.555 -1.2301  0.3177 -0.0786
 6993SOL    HW232442   4.352   1.675   5.605 -0.6011  0.2225 -0.4657
 6994SOL     OW32443   3.365   3.528   9.644  0.5727 -0.1448  0.6641
 6994SOL    HW132444   3.334   3.518   9.734 -1.8772  2.7113  0.1510
 6994SOL    HW232445   3.433   3.593   9.662 -0.3124  1.4061 -1.6896
 6995SOL     OW32446   0.095   0.491   3.581  0.6071 -0.1270  0.3351
 6995SOL    HW132447   0.065   0.431   3.649 -1.1935  0.1361 -0.2396
 6995SOL    HW232448   0.031   0.466   3.514  0.7917  0.6085 -0.1077
 6996SOL     OW32449   3.639   2.333   0.274  0.4024 -0.0900  0.4728
 6996SOL    HW132450   3.681   2.400   0.328 -0.2887  2.8006 -2.5798
 6996SOL    HW232451   3.605   2.388   0.203 -3.3196 -2.1970  0.6256
 6997SOL     OW32452   0.814   2.971   9.286 -0.5073 -0.0566 -0.0484
 6997SOL    HW132453   0.900   2.930   9.292 -0.0183  0.9354 -0.2432
 6997SOL    HW232454   0.757   2.907   9.244 -0.2484 -0.1959 -0.1835
 6998SOL     OW32455   3.983   3.317   5.611  0.4262  0.1259 -0.2184
 6998SOL    HW132456   3.963   3.224   5.605  0.1153  0.2214 -0.6562
 6998SOL    HW232457   3.896   3.354   5.626 -0.0769 -0.5622 -1.4488
 6999SOL     OW32458   4.592   1.063   6.791  0.2732  0.2636 -0.5364
 6999SOL    HW132459   4.585   0.978   6.749 -0.9882  1.0992 -2.0264
 6999SOL    HW232460   4.650   1.039   6.863 -1.6701 -1.0777  0.5668
 7000SOL     OW32461   2.565   0.712   4.196  0.6010 -0.0303 -0.0912
 7000SOL    HW132462   2.479   0.749   4.179  0.9133 -0.4746 -2.5856
 7000SOL    HW232463   2.560   0.657   4.118  1.3594  1.2721 -1.0818
 7001SOL     OW32464   0.882   1.952   1.351  0.1343  0.7099 -0.8492
 7001SOL    HW132465   0.942   1.947   1.425  0.0602 -0.2956 -0.8506
 7001SOL    HW232466   0.848   1.862   1.350  0.0163  0.7425  0.2168
 7002SOL     OW32467   4.713   0.069   4.928  0.6791  0.2436  0.0442
 7002SOL    HW132468   0.022   0.004   4.869  1.2121  0.0326  0.6114
 7002SOL    HW232469   0.045   0.061   5.002  0.1634  0.3285  0.4705
 7003SOL     OW32470   2.351   1.967   9.174 -0.2815  0.1987  0.0731
 7003SOL    HW132471   2.301   1.936   9.099  1.2647 -0.5287 -0.6426
 7003SOL    HW232472   2.292   1.952   9.248 -1.6493 -0.3401 -1.1358
 7004SOL     OW32473   1.034   1.664  11.325 -0.2526  0.4989  0.1176
 7004SOL    HW132474   0.988   1.663  11.240  3.0038  0.7100 -1.6244
 7004SOL    HW232475   1.088   1.742  11.314  1.3646 -0.5082  1.0746
 7005SOL     OW32476   0.960   2.770  13.872  0.2093 -0.5890 -0.1996
 7005SOL    HW132477   1.016   2.812  13.806 -1.1312 -0.7486 -1.4281
 7005SOL    HW232478   1.013   2.803  13.945  0.5108 -1.9636  0.2064
 7006SOL     OW32479   3.695   3.007   7.157  0.1201  0.1933 -0.3939
 7006SOL    HW132480   3.769   3.067   7.165 -1.0443  1.5454  0.1927
 7006SOL    HW232481   3.626   3.070   7.175 -0.5704 -0.1723 -1.7126
 7007SOL     OW32482   1.026   3.403   5.302  0.2656 -0.4663  0.2782
 7007SOL    HW132483   1.104   3.357   5.332  0.4672 -1.7671 -2.2603
 7007SOL    HW232484   0.971   3.363   5.369  0.0364 -0.1137  0.3017
 7008SOL     OW32485   2.931   2.488   6.107  0.0870  0.0357 -0.3279
 7008SOL    HW132486   3.010   2.539   6.090  0.2213  0.0796  0.4302
 7008SOL    HW232487   2.921   2.492   6.203 -1.8261  0.0552 -0.5229
 7009SOL     OW32488   0.003   0.155   1.243 -0.1585  0.3844 -0.4106
 7009SOL    HW132489   4.695   0.122   1.325  1.4627  1.7533  0.8350
 7009SOL    HW232490   4.722   0.249   1.257 -0.4643  0.3493 -0.3538
 7010SOL     OW32491   4.584   3.846  11.757  0.3261 -0.3722  0.6573
 7010SOL    HW132492   4.551   3.845  11.847 -1.0214 -0.0314  0.1683
 7010SOL    HW232493   4.549   3.763  11.727  2.8164 -0.8472 -0.9116
 7011SOL     OW32494   2.528   3.655   9.338  0.1830  0.5859 -0.1127
 7011SOL    HW132495   2.529   3.639   9.432 -0.4769  1.2677  0.0093
 7011SOL    HW232496   2.446   3.703   9.329  0.9472  1.6442 -1.5353
 7012SOL     OW32497   2.799   0.289  15.817  0.3766  0.1007 -0.4880
 7012SOL    HW132498   2.749   0.289  15.899  0.9459  2.0752 -0.1546
 7012SOL    HW232499   2.755   0.215  15.776 -0.8840  0.0048  1.0108
 7013SOL     OW32500   3.766   4.352   8.503  0.1463 -0.5790 -0.1811
 7013SOL    HW132501   3.700   4.376   8.438 -1.9525 -2.6152  1.1885
 7013SOL    HW232502   3.845   4.334   8.451  0.3587 -2.9069  0.9746
 7014SOL     OW32503   0.505   0.047   5.949  0.1070 -0.0911 -0.3757
 7014SOL    HW132504   0.586   0.015   5.908 -0.5901 -1.7680 -0.4474
 7014SOL    HW232505   0.477   4.698   5.999  2.9236 -0.4890  0.6333
 7015SOL     OW32506   4.120   3.926  11.422 -0.3420  0.6191  0.1027
 7015SOL    HW132507   4.080   3.881  11.496  0.4423 -0.2947 -0.0286
 7015SOL    HW232508   4.050   3.990  11.407  0.7874  1.3858 -1.9139
 7016SOL     OW32509   0.752   3.653   7.022  0.1207  0.1678  0.0357
 7016SOL    HW132510   0.755   3.685   7.113 -3.1303 -0.0153  0.1950
 7016SOL    HW232511   0.781   3.734   6.980  0.6643 -0.2536 -0.3882
 7017SOL     OW32512   1.008   2.592   7.981  0.0955  0.6733 -0.0053
 7017SOL    HW132513   1.088   2.549   8.013  0.1757  0.6444 -0.2485
 7017SOL    HW232514   1.038   2.641   7.905 -0.6632  0.2908 -0.5529
 7018SOL     OW32515   3.063   1.292   8.493 -0.6467 -0.0186 -0.5617
 7018SOL    HW132516   3.145   1.312   8.540  0.2671 -2.1091 -1.2512
 7018SOL    HW232517   3.018   1.233   8.553 -2.5705  1.1356 -0.8925
 7019SOL     OW32518   3.311   1.637   8.492  0.4248  0.0130 -0.0086
 7019SOL    HW132519   3.260   1.645   8.573  0.3122  1.2490 -0.1872
 7019SOL    HW232520   3.334   1.545   8.499  2.6321  0.5849  0.3396
 7020SOL     OW32521   1.147   2.611  12.618 -0.0790 -0.0920 -0.4198
 7020SOL    HW132522   1.238   2.631  12.594  0.5495 -2.5341 -0.0271
 7020SOL    HW232523   1.129   2.685  12.676 -0.9102 -0.1256 -0.6277
 7021SOL     OW32524   1.826   3.282   1.522  0.0427  0.4959  0.0458
 7021SOL    HW132525   1.819   3.216   1.591 -1.3229 -2.2977 -2.7474
 7021SOL    HW232526   1.743   3.270   1.476  0.2300  1.5050 -0.5632
 7022SOL     OW32527   4.056   0.538   1.384  0.8132  0.0627 -0.3653
 7022SOL    HW132528   4.061   0.502   1.472  1.4522  1.0197 -0.0143
 7022SOL    HW232529   3.967   0.507   1.372  0.8238 -0.3782  0.7003
 7023SOL     OW32530   3.283   4.671   4.213 -0.0273  0.0341 -0.2046
 7023SOL    HW132531   3.298   4.576   4.222  0.1634  0.2649  1.9836
 7023SOL    HW232532   3.227   4.696   4.287 -0.1649 -0.2362 -0.2175
 7024SOL     OW32533   0.638   0.358   9.752  0.0006  0.0818 -0.3027
 7024SOL    HW132534   0.608   0.420   9.685 -1.1228  0.0418  0.1575
 7024SOL    HW232535   0.580   0.393   9.820 -1.3416 -2.8161  0.0299
 7025SOL     OW32536   4.620   3.879   6.936  0.2317  0.2755 -0.2122
 7025SOL    HW132537   4.642   3.804   6.880  1.5777  1.6193 -1.4574
 7025SOL    HW232538   4.577   3.926   6.864  0.2012 -2.9246 -2.2990
 7026SOL     OW32539   0.170   3.855   8.547  0.1769  0.2863  0.2654
 7026SOL    HW132540   0.205   3.856   8.635  1.1944 -0.6614 -0.1342
 7026SOL    HW232541   0.096   3.797   8.562 -0.7264  1.2110 -0.5378
 7027SOL     OW32542   3.473   2.159   1.106 -0.7386  0.3189  0.3383
 7027SOL    HW132543   3.467   2.159   1.011  1.0002  1.0672  0.2397
 7027SOL    HW232544   3.382   2.166   1.137 -1.0725  0.8609 -0.7697
 7028SOL     OW32545   2.742   4.343   5.657 -0.3316 -0.0854 -0.1029
 7028SOL    HW132546   2.749   4.273   5.593 -0.8113  0.6548 -0.9683
 7028SOL    HW232547   2.649   4.362   5.660 -0.2961  0.0503  0.1669
 7029SOL     OW32548   0.730   3.202  12.142  0.3692  0.0516 -0.0395
 7029SOL    HW132549   0.648   3.234  12.180 -0.2886 -0.5733 -0.9314
 7029SOL    HW232550   0.779   3.284  12.137 -0.3428  0.3860 -1.7214
 7030SOL     OW32551   2.894   2.474   2.989 -0.1485 -0.1904  0.2080
 7030SOL    HW132552   2.899   2.392   3.038  1.4578  2.4797  4.4205
 7030SOL    HW232553   2.952   2.455   2.915 -0.8532  0.0716 -0.4128
 7031SOL     OW32554   0.824   2.877   5.898 -0.8568  0.2648 -0.0369
 7031SOL    HW132555   0.880   2.801   5.879 -0.4574  0.4667  0.3140
 7031SOL    HW232556   0.874   2.933   5.958 -1.4446  2.5031 -1.6688
 7032SOL     OW32557   1.319   3.172   5.494  0.2123 -0.3452 -0.6311
 7032SOL    HW132558   1.413   3.155   5.502  0.3174  0.6741  0.3857
 7032SOL    HW232559   1.322   3.256   5.448 -3.1538  0.4731  0.5938
 7033SOL     OW32560   3.186   0.719   8.919  0.5526 -0.2537 -0.1460
 7033SOL    HW132561   3.163   0.745   8.829  0.4827 -2.0595 -0.6623
 7033SOL    HW232562   3.226   0.800   8.948 -1.1804  0.0019  1.5692
 7034SOL     OW32563   0.280   2.746  13.036  0.2780 -0.3311 -0.4367
 7034SOL    HW132564   0.259   2.812  13.103  0.8076  1.2401 -1.8213
 7034SOL    HW232565   0.189   2.731  13.009  0.5374  1.0835 -2.0549
 7035SOL     OW32566   2.122   2.933  10.239 -0.3352  0.2161  0.1539
 7035SOL    HW132567   2.209   2.912  10.274  0.2183  1.1169 -0.6761
 7035SOL    HW232568   2.078   2.869  10.295 -2.0716  2.6654  1.5674
 7036SOL     OW32569   4.098   2.759   0.822 -0.3160 -0.3719 -0.0602
 7036SOL    HW132570   4.062   2.821   0.885  0.4651  1.1322 -1.1219
 7036SOL    HW232571   4.178   2.734   0.868 -1.8971 -0.5629  2.5370
 7037SOL     OW32572   3.877   1.384   8.941  1.0333  0.0018  0.2215
 7037SOL    HW132573   3.894   1.456   8.879 -2.6910  0.7581  0.0917
 7037SOL    HW232574   3.963   1.368   8.979  1.0706  0.2187  0.2313
 7038SOL     OW32575   1.094   2.951   4.144  0.3227  0.6495  0.1347
 7038SOL    HW132576   1.040   2.950   4.065  1.1572  2.1494 -0.4495
 7038SOL    HW232577   1.183   2.959   4.107  0.4026  0.3205  0.2562
 7039SOL     OW32578   2.580   3.695  11.264  0.3413  0.3636 -0.0046
 7039SOL    HW132579   2.503   3.638  11.269  0.5496  0.0775 -0.0354
 7039SOL    HW232580   2.554   3.751  11.337  0.0334  1.5711 -1.0318
 7040SOL     OW32581   0.872   3.456  12.167 -0.5596  0.1871 -0.3071
 7040SOL    HW132582   0.881   3.515  12.092  0.1467  1.5270  0.8390
 7040SOL    HW232583   0.961   3.465  12.199 -0.4288  1.2191 -0.9627
 7041SOL     OW32584   0.119   3.429   4.234 -0.4728 -0.1141 -0.0045
 7041SOL    HW132585   0.109   3.352   4.178  1.6289  1.2682 -2.2914
 7041SOL    HW232586   0.211   3.432   4.262 -0.0512 -3.8899 -0.9856
 7042SOL     OW32587   2.440   1.633  12.997 -0.0983 -0.0324  0.4950
 7042SOL    HW132588   2.401   1.601  13.079 -0.2251  1.2781  0.9537
 7042SOL    HW232589   2.427   1.568  12.928 -2.3459  1.2481 -0.3051
 7043SOL     OW32590   4.185   3.054   7.306 -0.4556  0.0129  0.0359
 7043SOL    HW132591   4.121   3.017   7.366  1.3036 -0.8081  1.3922
 7043SOL    HW232592   4.254   3.076   7.369  0.3086 -1.2989 -0.3492
 7044SOL     OW32593   1.626   0.308  12.140 -0.3072  0.0263 -0.2155
 7044SOL    HW132594   1.620   0.217  12.170  0.7164 -0.2776 -0.9440
 7044SOL    HW232595   1.718   0.329  12.159  0.4705 -1.6737 -2.1108
 7045SOL     OW32596   2.899   0.753  11.429  0.9937  0.1342 -0.3400
 7045SOL    HW132597   2.954   0.730  11.503 -1.3824 -1.0333  1.0586
 7045SOL    HW232598   2.967   0.804  11.384  3.1792 -2.4223  0.0468
 7046SOL     OW32599   0.643   0.740  16.342  0.0261 -0.9073 -0.2500
 7046SOL    HW132600   0.597   0.735  16.426 -1.0821  1.7656 -0.7035
 7046SOL    HW232601   0.708   0.810  16.346  0.9817 -1.6881 -2.0114
 7047SOL     OW32602   3.564   3.720   8.561  0.4268 -0.7366 -0.0953
 7047SOL    HW132603   3.601   3.756   8.642 -1.4310  0.2266  0.3039
 7047SOL    HW232604   3.537   3.630   8.582 -0.9163 -0.3426 -0.1570
 7048SOL     OW32605   4.406   1.819   1.022 -0.2097  0.0190  0.6515
 7048SOL    HW132606   4.402   1.817   1.118  3.2490 -1.1019  0.7690
 7048SOL    HW232607   4.333   1.874   0.995  1.6872  1.2013 -2.0948
 7049SOL     OW32608   3.991   2.435   9.207 -0.4114  0.1286  0.1863
 7049SOL    HW132609   4.045   2.499   9.161  2.2681 -0.4596  2.5890
 7049SOL    HW232610   4.057   2.405   9.269  1.4929  2.8708 -0.5264
 7050SOL     OW32611   3.918   3.442  12.132 -0.1258  0.2986 -0.4363
 7050SOL    HW132612   3.862   3.433  12.210 -0.5104 -1.7552 -0.9589
 7050SOL    HW232613   3.854   3.442  12.061 -0.3229  0.3642 -0.2578
 7051SOL     OW32614   0.660   4.630  13.986 -0.4051 -0.2895  0.0446
 7051SOL    HW132615   0.755   4.637  13.993 -0.3501 -0.6054 -0.4363
 7051SOL    HW232616   0.644   4.626  14.081 -0.6243 -0.8714 -0.0208
 7052SOL     OW32617   4.643   2.178   2.515  0.4551  0.1866 -0.6701
 7052SOL    HW132618   4.712   2.163   2.579  0.0162  0.9114 -0.0215
 7052SOL    HW232619   4.593   2.097   2.515  0.9864 -0.1368  2.0836
 7053SOL     OW32620   1.121   4.674   6.765  0.1986  0.0825 -0.6353
 7053SOL    HW132621   1.202   4.627   6.784 -2.2596 -2.4360  3.6781
 7053SOL    HW232622   1.104   4.717   6.849 -2.2696 -1.0968 -0.5474
 7054SOL     OW32623   3.376   4.339   5.541 -0.4484  0.3210  1.0302
 7054SOL    HW132624   3.435   4.295   5.603  0.1668  1.7730  1.4918
 7054SOL    HW232625   3.433   4.350   5.465 -0.9925 -1.4929  0.3632
 7055SOL     OW32626   0.180   3.768  17.437 -0.0085 -0.1797 -0.2067
 7055SOL    HW132627   0.212   3.775  17.527 -0.6720 -2.1725  0.1727
 7055SOL    HW232628   0.258   3.808  17.399 -0.2626  2.2544  1.7891
 7056SOL     OW32629   2.567   1.814   9.319 -0.1177 -0.3104  1.1278
 7056SOL    HW132630   2.515   1.889   9.293  2.1820  1.0108  0.3891
 7056SOL    HW232631   2.589   1.765   9.240 -3.3819  0.8794 -0.4913
 7057SOL     OW32632   2.231   0.448   6.163 -0.2333 -0.2069  0.5617
 7057SOL    HW132633   2.207   0.370   6.214 -1.6627 -0.1334  0.0220
 7057SOL    HW232634   2.311   0.476   6.206  1.7053 -1.4996 -2.2024
 7058SOL     OW32635   2.741   1.838   5.004  0.0986 -0.3817  0.2402
 7058SOL    HW132636   2.732   1.896   4.929  0.4548  0.2780  0.7081
 7058SOL    HW232637   2.686   1.765   4.976  0.3195 -0.5099  0.1398
 7059SOL     OW32638   1.729   3.066   3.535 -0.0101 -0.5092  1.5135
 7059SOL    HW132639   1.718   3.087   3.628  4.0490  1.3974  1.5439
 7059SOL    HW232640   1.753   2.975   3.548 -0.4248 -1.0788 -1.6957
 7060SOL     OW32641   1.969   1.293   8.741 -0.1709 -0.1018  0.3191
 7060SOL    HW132642   1.995   1.375   8.701  0.6035 -0.4129  0.1847
 7060SOL    HW232643   1.953   1.235   8.666 -3.0431  1.8842 -0.5815
 7061SOL     OW32644   0.355   1.081   0.234 -0.1546  0.4628  0.1819
 7061SOL    HW132645   0.343   1.167   0.274  0.4494 -0.1886  1.7306
 7061SOL    HW232646   0.316   1.033   0.307  0.0663 -1.1279 -0.7259
 7062SOL     OW32647   3.145   1.693   8.705  0.7982  0.6644  0.2313
 7062SOL    HW132648   3.092   1.768   8.679 -1.3351 -0.7633  0.4469
 7062SOL    HW232649   3.198   1.735   8.773  0.0271  1.0478  0.5939
 7063SOL     OW32650   0.664   3.019  12.448  0.8922 -0.4107 -0.2340
 7063SOL    HW132651   0.571   3.025  12.429  0.5758  0.5679  1.6080
 7063SOL    HW232652   0.679   2.940  12.396 -0.8166 -0.4939 -0.6126
 7064SOL     OW32653   2.132   1.540   7.039 -0.1291 -0.0273  0.1647
 7064SOL    HW132654   2.189   1.612   7.014 -1.4211  0.5718 -1.0337
 7064SOL    HW232655   2.121   1.485   6.962 -0.3747 -0.2281  0.3432
 7065SOL     OW32656   0.300   4.550  12.242  0.1559 -0.0625 -0.1049
 7065SOL    HW132657   0.320   4.457  12.249  0.3026 -0.1658 -1.8312
 7065SOL    HW232658   0.232   4.551  12.310  2.0618  0.0676  1.7799
 7066SOL     OW32659   0.121   2.909  15.348 -0.3024  0.3573  0.1229
 7066SOL    HW132660   0.080   2.964  15.280  2.9782 -0.3260 -2.3964
 7066SOL    HW232661   0.045   2.899  15.405 -0.8236 -2.1622 -1.0016
 7067SOL     OW32662   2.852   3.542   3.505  0.4320  0.0972  0.6765
 7067SOL    HW132663   2.879   3.616   3.450 -2.1441  0.4562 -0.0936
 7067SOL    HW232664   2.762   3.565   3.529 -0.2789 -2.1607  0.1406
 7068SOL     OW32665   2.278   2.466   3.420 -0.2739 -0.5648 -0.2323
 7068SOL    HW132666   2.269   2.534   3.486  0.5142 -0.7763  0.1019
 7068SOL    HW232667   2.240   2.391   3.466 -1.0240  0.5117  0.8676
 7069SOL     OW32668   0.860   0.207   1.759  0.1959 -0.0228  0.0576
 7069SOL    HW132669   0.811   0.240   1.684 -2.3930 -2.9916  0.4248
 7069SOL    HW232670   0.879   0.288   1.805 -1.4992 -0.0700  0.8451
 7070SOL     OW32671   2.254   3.780   8.896  0.0007 -0.3735 -0.5109
 7070SOL    HW132672   2.224   3.854   8.947  0.3327 -1.3979  1.1838
 7070SOL    HW232673   2.284   3.821   8.814  0.7136 -1.3289 -0.7384
 7071SOL     OW32674   0.255   0.498   0.679  0.1430  0.3851 -0.0904
 7071SOL    HW132675   0.321   0.431   0.694  0.0947 -0.0898 -2.0069
 7071SOL    HW232676   0.293   0.532   0.598 -0.7769  0.7281 -0.3781
 7072SOL     OW32677   3.064   3.876   5.831  0.0033  0.0892  0.1704
 7072SOL    HW132678   3.109   3.957   5.805 -0.4223 -0.3513 -1.9240
 7072SOL    HW232679   3.102   3.806   5.778  1.2765  0.7806  0.1674
 7073SOL     OW32680   0.362   1.267   7.725 -0.4329  0.8316 -0.6410
 7073SOL    HW132681   0.299   1.195   7.719 -1.4583  1.6804  0.0096
 7073SOL    HW232682   0.334   1.292   7.813  0.3499 -0.2957 -0.0695
 7074SOL     OW32683   4.631   3.826   5.352  0.1133 -0.4027 -0.6273
 7074SOL    HW132684   4.641   3.756   5.417 -0.6705 -0.2922 -0.3895
 7074SOL    HW232685   4.622   3.788   5.265 -2.9164 -0.3356 -0.3290
 7075SOL     OW32686   1.611   2.696   8.630  0.2640 -1.0774 -0.3115
 7075SOL    HW132687   1.544   2.764   8.640  1.9052  0.4080  0.7589
 7075SOL    HW232688   1.605   2.649   8.713 -0.6704 -1.8927 -0.8477
 7076SOL     OW32689   2.424   3.140  12.472 -0.4185 -0.0565 -0.4767
 7076SOL    HW132690   2.493   3.114  12.533 -0.8689 -2.7714 -1.1350
 7076SOL    HW232691   2.469   3.204  12.415 -0.6336 -0.4628 -1.1072
 7077SOL     OW32692   2.186   1.136  12.901 -0.3338 -0.7929  0.1608
 7077SOL    HW132693   2.104   1.089  12.884 -1.3886 -0.1586  3.4959
 7077SOL    HW232694   2.184   1.222  12.860  1.2756  0.5337  2.8660
 7078SOL     OW32695   3.757   0.766  14.487  0.0454 -0.0741 -0.0322
 7078SOL    HW132696   3.801   0.823  14.425  0.7872 -1.3897 -0.7156
 7078SOL    HW232697   3.784   0.689  14.437 -0.5751  0.5001 -1.2405
 7079SOL     OW32698   0.488   4.566   7.102  0.2889  0.0029  0.5264
 7079SOL    HW132699   0.415   4.592   7.158  0.0029  0.5600 -0.1064
 7079SOL    HW232700   0.554   4.600   7.162  0.8898  0.5871 -0.4594
 7080SOL     OW32701   4.394   2.908  11.026 -0.2892  0.3895 -0.4285
 7080SOL    HW132702   4.404   2.814  11.044  0.8376  0.6078  0.0927
 7080SOL    HW232703   4.377   2.894  10.933  1.1847 -1.0406 -0.5037
 7081SOL     OW32704   2.292   1.188   5.771  0.1344 -0.0288 -0.3325
 7081SOL    HW132705   2.336   1.189   5.855  1.4873 -1.7252 -1.0380
 7081SOL    HW232706   2.309   1.099   5.740  0.2930 -0.5081  1.1700
 7082SOL     OW32707   0.157   3.220  14.804 -0.2298  0.2252 -0.2099
 7082SOL    HW132708   0.074   3.190  14.767  0.6974 -4.2664  1.4739
 7082SOL    HW232709   0.192   3.135  14.829 -0.2913  0.3308  0.2283
 7083SOL     OW32710   2.069   1.038   3.978  0.6325  0.2596 -0.1085
 7083SOL    HW132711   2.131   1.003   3.914 -1.4150  0.7345 -2.3473
 7083SOL    HW232712   2.043   1.120   3.937  0.5959 -0.3624 -1.3264
 7084SOL     OW32713   1.110   2.531  11.931  0.2906 -0.8328 -0.0742
 7084SOL    HW132714   1.129   2.522  12.024 -0.1726 -1.3856 -0.0320
 7084SOL    HW232715   1.183   2.587  11.903 -0.0630 -0.8005 -0.9305
 7085SOL     OW32716   1.596   3.230   6.695 -0.4668  0.0191  0.5552
 7085SOL    HW132717   1.646   3.284   6.757 -0.4453  0.1518  0.4219
 7085SOL    HW232718   1.528   3.192   6.750 -0.3371 -2.3478 -0.9127
 7086SOL     OW32719   4.327   4.040   5.664 -0.4396  0.4644  0.9088
 7086SOL    HW132720   4.302   4.047   5.572 -0.1420  1.8534  0.9380
 7086SOL    HW232721   4.365   3.952   5.665  0.8134  0.9958  0.7194
 7087SOL     OW32722   1.465   0.897   2.685 -0.1923 -0.1171 -0.4942
 7087SOL    HW132723   1.441   0.854   2.767 -1.2170  0.2019 -0.6244
 7087SOL    HW232724   1.462   0.985   2.724 -1.3053 -0.6745  0.6602
 7088SOL     OW32725   2.995   4.451  13.153  1.4099  0.2555 -0.3048
 7088SOL    HW132726   3.050   4.527  13.170 -0.4465  1.5098  0.0331
 7088SOL    HW232727   2.952   4.479  13.072  1.7932  0.2893 -0.4953
 7089SOL     OW32728   3.339   2.593   4.764 -0.1694  0.0024  0.2735
 7089SOL    HW132729   3.392   2.521   4.730 -2.2749 -2.2201  1.7314
 7089SOL    HW232730   3.334   2.601   4.859 -0.1229 -0.3559  0.3046
 7090SOL     OW32731   1.978   1.100   8.561  0.2890 -0.3444 -0.1673
 7090SOL    HW132732   2.058   1.052   8.536  0.6055 -0.7427  1.6449
 7090SOL    HW232733   1.919   1.047   8.508  0.3472  1.6042 -2.2249
 7091SOL     OW32734   3.837   1.641   2.911 -0.2049  0.6468 -0.3135
 7091SOL    HW132735   3.842   1.623   2.817  1.9220  1.8973 -0.4435
 7091SOL    HW232736   3.896   1.575   2.949 -2.2101 -0.4180  0.9300
 7092SOL     OW32737   1.814   0.969   9.940 -0.6026 -0.3011 -0.3105
 7092SOL    HW132738   1.904   0.938   9.935 -1.1755 -2.0277  0.2430
 7092SOL    HW232739   1.799   0.951  10.033 -0.7471 -0.6843 -0.4076
 7093SOL     OW32740   2.994   4.486   4.252 -0.0816 -0.0821  0.3542
 7093SOL    HW132741   3.015   4.557   4.192  0.2861 -0.6945 -0.2455
 7093SOL    HW232742   2.901   4.505   4.264  0.4582  1.3943  2.1234
 7094SOL     OW32743   2.853   1.217   6.225  1.1852 -0.0696 -0.0470
 7094SOL    HW132744   2.805   1.167   6.159  0.6605  0.3678  0.0042
 7094SOL    HW232745   2.816   1.302   6.201 -0.5368 -0.3430  1.6453
 7095SOL     OW32746   1.862   4.372   9.438  0.1709 -0.0282  0.4599
 7095SOL    HW132747   1.910   4.455   9.444 -0.1960  0.2258 -0.1422
 7095SOL    HW232748   1.781   4.397   9.393 -1.3966 -0.3100  3.1100
 7096SOL     OW32749   1.283   0.093   4.361 -0.2084 -0.0271 -0.1750
 7096SOL    HW132750   1.267   0.187   4.371 -1.5970 -0.4485  1.6727
 7096SOL    HW232751   1.240   0.075   4.277 -0.7950  1.3050 -0.1619
 7097SOL     OW32752   0.718   4.595   7.745 -0.2238 -0.3530  0.3792
 7097SOL    HW132753   0.705   4.510   7.787 -1.2711 -0.4372 -0.1140
 7097SOL    HW232754   0.652   4.647   7.791 -0.5229 -0.6572  0.2990
 7098SOL     OW32755   1.550   1.334  12.624  0.6076 -0.1678  0.6731
 7098SOL    HW132756   1.578   1.261  12.679  0.9186 -0.6088 -0.0790
 7098SOL    HW232757   1.469   1.304  12.584 -1.0029  0.3894  3.5332
 7099SOL     OW32758   1.874   4.510   4.836  0.2448 -0.2465  0.0060
 7099SOL    HW132759   1.778   4.509   4.840  0.3551 -2.3901  2.3664
 7099SOL    HW232760   1.905   4.536   4.922  0.5267 -1.7579  0.3671
 7100SOL     OW32761   0.054   4.624   3.577  0.1872 -0.0429 -0.4087
 7100SOL    HW132762   0.053   4.692   3.644  0.8487 -0.5361  0.0934
 7100SOL    HW232763   0.087   4.665   3.497  0.9723 -0.0358 -0.0744
 7101SOL     OW32764   4.432   1.339  14.776  0.1293 -0.4245  0.0800
 7101SOL    HW132765   4.402   1.251  14.751  1.4339 -0.7657 -0.2707
 7101SOL    HW232766   4.440   1.375  14.688 -1.0314 -1.3650 -0.4064
 7102SOL     OW32767   4.165   2.625   6.815 -0.0944  0.5121 -0.7902
 7102SOL    HW132768   4.220   2.653   6.889 -2.5149  0.0091  1.2120
 7102SOL    HW232769   4.174   2.701   6.757 -2.1978  1.4804  0.1172
 7103SOL     OW32770   3.902   3.120   8.565  0.7124 -0.0618  0.1047
 7103SOL    HW132771   3.812   3.111   8.597  0.4370 -3.2034 -1.5684
 7103SOL    HW232772   3.892   3.086   8.476 -0.1350  1.4576 -0.3646
 7104SOL     OW32773   4.647   1.583   8.459 -0.1621  0.5595 -0.0896
 7104SOL    HW132774   4.692   1.582   8.374 -0.4992  0.3516 -0.2660
 7104SOL    HW232775   4.714   1.633   8.505  1.2244 -0.0784 -1.3997
 7105SOL     OW32776   3.095   1.517   5.511 -0.7501  0.4469  0.1757
 7105SOL    HW132777   3.078   1.610   5.499  3.0588  0.8629 -1.8910
 7105SOL    HW232778   3.025   1.485   5.453 -1.5153  1.2460  0.6558
 7106SOL     OW32779   2.210   2.340   4.842 -0.1572 -0.4846  0.0340
 7106SOL    HW132780   2.194   2.353   4.748 -0.2017  0.0253  0.1082
 7106SOL    HW232781   2.273   2.270   4.856 -1.3940 -1.9268 -1.7094
 7107SOL     OW32782   4.011   1.795   7.354 -0.2874 -0.7488  0.0235
 7107SOL    HW132783   3.998   1.865   7.291  0.0089 -2.0087 -1.4360
 7107SOL    HW232784   3.995   1.838   7.438 -0.7711  0.8393 -0.8995
 7108SOL     OW32785   0.256   1.921   2.102  0.0605 -0.2071  0.0401
 7108SOL    HW132786   0.304   1.989   2.055 -1.4289  0.9046  0.1154
 7108SOL    HW232787   0.271   1.842   2.050 -0.4551  0.6894 -1.4531
 7109SOL     OW32788   3.294   4.577   4.813  0.1754  0.2829 -0.5131
 7109SOL    HW132789   3.307   4.616   4.726  4.0124 -0.3821 -0.2625
 7109SOL    HW232790   3.348   4.499   4.799  0.3483  0.1877  0.6929
 7110SOL     OW32791   2.729   1.499   8.950  0.4959  0.5830 -0.0536
 7110SOL    HW132792   2.824   1.504   8.953  0.5007 -0.4960  1.3441
 7110SOL    HW232793   2.720   1.489   8.855  2.1658  1.3373 -0.2805
 7111SOL     OW32794   0.526   0.746  10.545  0.0507  0.2061  0.5141
 7111SOL    HW132795   0.579   0.666  10.544  1.5522  1.1621  3.1432
 7111SOL    HW232796   0.571   0.799  10.479  1.4633 -0.8826  0.5983
 7112SOL     OW32797   2.968   1.230   6.764 -0.0418  0.4090 -0.0689
 7112SOL    HW132798   3.019   1.150   6.772 -2.6520 -1.1062  1.3236
 7112SOL    HW232799   2.933   1.212   6.677  2.0821 -0.0052 -0.8253
 7113SOL     OW32800   1.354   3.891   0.531 -0.7686 -0.4821  0.4985
 7113SOL    HW132801   1.366   3.870   0.438  0.5650 -0.0611  0.5687
 7113SOL    HW232802   1.332   3.984   0.526  0.1176 -0.2004  2.1220
 7114SOL     OW32803   4.457   4.167  17.627  0.3187  0.3022 -0.0393
 7114SOL    HW132804   4.370   4.164  17.667  0.5365 -1.9902  0.2701
 7114SOL    HW232805   4.512   4.207  17.695  1.0054 -0.9066  0.1295
 7115SOL     OW32806   0.980   3.919   5.353 -0.1599  0.2796 -0.6857
 7115SOL    HW132807   1.032   3.972   5.293  3.0644  0.8806  2.6209
 7115SOL    HW232808   0.915   3.883   5.292  0.0657 -2.2496  0.5859
 7116SOL     OW32809   1.500   1.761   2.821  0.9482  0.3903  0.7055
 7116SOL    HW132810   1.503   1.852   2.791 -0.4726  0.9209  2.1714
 7116SOL    HW232811   1.576   1.720   2.780  0.1546 -0.9575  0.5779
 7117SOL     OW32812   3.885   1.421  11.721 -0.1823 -0.1694  0.3388
 7117SOL    HW132813   3.852   1.421  11.811 -0.0679 -1.3290  0.3822
 7117SOL    HW232814   3.969   1.466  11.730  0.8325 -2.0910  0.5349
 7118SOL     OW32815   2.113   3.685  12.903  0.6688 -0.0322  0.1089
 7118SOL    HW132816   2.119   3.672  12.997 -0.5989 -0.1344  0.1817
 7118SOL    HW232817   2.074   3.772  12.889  2.6342  0.7874 -0.3722
 7119SOL     OW32818   2.698   0.848   0.919 -0.0371 -0.4166 -0.3509
 7119SOL    HW132819   2.777   0.903   0.914 -1.6814  1.8064 -1.7656
 7119SOL    HW232820   2.683   0.863   1.012 -0.3000 -0.3116 -0.4111
 7120SOL     OW32821   1.525   2.967  14.339  0.2424 -0.1756  0.2669
 7120SOL    HW132822   1.449   2.919  14.371 -0.9720 -0.4569 -3.0746
 7120SOL    HW232823   1.558   2.897  14.282 -1.7373 -0.0196 -1.0450
 7121SOL     OW32824   2.955   4.621   8.588  0.1319  0.1296  0.2221
 7121SOL    HW132825   3.013   4.570   8.530 -0.2470  1.2953 -1.1654
 7121SOL    HW232826   3.009   4.699   8.600  1.8056 -1.4745  3.3911
 7122SOL     OW32827   0.937   3.482   5.824 -0.1039 -0.0465 -0.4297
 7122SOL    HW132828   0.918   3.471   5.917  1.8173 -0.3846 -0.0814
 7122SOL    HW232829   1.030   3.466   5.834  0.2611  0.9672 -2.0684
 7123SOL     OW32830   2.357   1.182   0.680 -0.1624  0.4407  0.1775
 7123SOL    HW132831   2.414   1.108   0.700  1.3539  1.3056 -0.8838
 7123SOL    HW232832   2.276   1.136   0.701  0.1654 -0.6437 -0.9968
 7124SOL     OW32833   0.251   0.865   6.979  0.2505 -0.2104  0.3144
 7124SOL    HW132834   0.274   0.943   7.030 -2.4129 -1.5676  3.5775
 7124SOL    HW232835   0.321   0.865   6.913 -1.4507 -3.3102 -1.4945
 7125SOL     OW32836   2.278   0.480   3.220 -0.3705 -0.0601  0.6388
 7125SOL    HW132837   2.200   0.535   3.235 -0.0056  0.5346  0.3622
 7125SOL    HW232838   2.259   0.447   3.132  1.9595  0.8816 -0.2098
 7126SOL     OW32839   4.225   4.595   2.060 -0.3462  0.3682 -0.4117
 7126SOL    HW132840   4.205   4.665   2.123  1.9881 -0.1149  0.8811
 7126SOL    HW232841   4.271   4.653   1.999 -1.1242  0.3950 -0.9730
 7127SOL     OW32842   2.959   4.095   5.239  0.6163 -0.2525  0.2382
 7127SOL    HW132843   2.877   4.080   5.286 -1.1545  1.0492 -2.4799
 7127SOL    HW232844   2.949   4.182   5.201  1.5487  0.0395  0.6511
 7128SOL     OW32845   1.610   1.021   3.478 -0.2820 -0.4044  0.3613
 7128SOL    HW132846   1.638   1.072   3.554 -0.2557  1.0927 -0.6576
 7128SOL    HW232847   1.644   0.932   3.489  1.3846  0.0834 -0.7793
 7129SOL     OW32848   3.921   3.968   3.130 -0.4760 -0.0192  0.3488
 7129SOL    HW132849   3.859   3.965   3.057 -1.3392  0.3720  1.0569
 7129SOL    HW232850   3.953   4.058   3.134 -0.2870 -0.0401 -0.8116
 7130SOL     OW32851   2.817   3.095   0.734  0.0969 -0.3446 -0.0600
 7130SOL    HW132852   2.889   3.158   0.745 -0.5317  0.0238  1.8841
 7130SOL    HW232853   2.839   3.062   0.647  0.0473  0.5516 -0.4103
 7131SOL     OW32854   3.290   4.100  11.950 -0.8396 -0.1801  0.3392
 7131SOL    HW132855   3.258   4.182  11.987 -1.3758 -0.6913  0.9923
 7131SOL    HW232856   3.368   4.133  11.906 -2.6964  3.2110 -0.4519
 7132SOL     OW32857   4.449   2.047   2.036  0.0248 -0.0660 -0.0794
 7132SOL    HW132858   4.488   1.961   2.056 -0.4658 -0.6782 -1.7140
 7132SOL    HW232859   4.444   2.097   2.117 -3.7473 -0.4588 -0.1055
 7133SOL     OW32860   0.646   0.887   7.339  0.1330  1.3714  0.0990
 7133SOL    HW132861   0.722   0.892   7.397  0.2381  1.3071 -0.0347
 7133SOL    HW232862   0.603   0.973   7.344  0.4035  1.5496 -0.6094
 7134SOL     OW32863   3.233   1.653   7.892  0.3397  0.4185 -0.4461
 7134SOL    HW132864   3.185   1.693   7.820  0.1503  2.4094  0.7998
 7134SOL    HW232865   3.171   1.584   7.918 -1.5774  1.2453 -2.8353
 7135SOL     OW32866   3.490   3.832   2.643  0.2719 -0.1390  0.8528
 7135SOL    HW132867   3.470   3.824   2.736 -0.0427 -0.4312  0.7588
 7135SOL    HW232868   3.407   3.801   2.607  0.6436  1.9249 -1.7622
 7136SOL     OW32869   4.726   3.658  17.250  0.8032  0.5932 -0.6197
 7136SOL    HW132870   0.038   3.678  17.334  1.4544  1.0357 -1.0270
 7136SOL    HW232871   0.072   3.678  17.192  2.4642  1.4057  1.8002
 7137SOL     OW32872   4.021   1.225   8.378  0.1120 -0.0979 -0.0065
 7137SOL    HW132873   4.096   1.274   8.409  0.2484 -1.0486  1.1686
 7137SOL    HW232874   4.003   1.251   8.288  2.3150  1.0898 -0.0839
 7138SOL     OW32875   3.697   1.996  16.239  0.2648 -0.5124  0.0526
 7138SOL    HW132876   3.698   2.023  16.331  1.0970 -1.8111  0.4244
 7138SOL    HW232877   3.705   1.901  16.240  2.6481 -0.2445  5.8883
 7139SOL     OW32878   1.825   0.901   5.205 -0.6080 -0.0748  0.2701
 7139SOL    HW132879   1.876   0.858   5.137 -0.3947 -1.1430  1.1018
 7139SOL    HW232880   1.872   0.979   5.234  1.8329 -1.3348 -0.2527
 7140SOL     OW32881   2.316   4.540   5.726 -0.0180  0.1702 -0.2385
 7140SOL    HW132882   2.320   4.634   5.709 -1.2117  0.3427  0.4418
 7140SOL    HW232883   2.226   4.518   5.704  0.8749 -3.4127 -0.3361
 7141SOL     OW32884   4.712   0.318   7.216 -0.0495 -0.6941 -0.1796
 7141SOL    HW132885   4.656   0.392   7.192 -0.1940 -0.5105  0.7322
 7141SOL    HW232886   0.004   0.353   7.302 -1.2867  2.1083 -1.0464
 7142SOL     OW32887   0.554   1.062   0.047 -0.3653 -0.4479 -0.1574
 7142SOL    HW132888   0.488   1.086   0.112 -1.9482 -3.3236 -0.7256
 7142SOL    HW232889   0.561   1.147   0.003  1.2310 -0.2268  0.5233
 7143SOL     OW32890   2.891   1.813   1.683 -0.1389  0.2163  0.2046
 7143SOL    HW132891   2.952   1.869   1.730 -0.9619  1.2166  0.1020
 7143SOL    HW232892   2.806   1.854   1.699  1.2388  3.1967 -0.1578
 7144SOL     OW32893   2.775   0.314   2.775  0.4406  0.3281  0.1560
 7144SOL    HW132894   2.683   0.338   2.763  0.8340  1.8114  0.0426
 7144SOL    HW232895   2.806   0.404   2.791 -0.1181  0.7338 -1.0112
 7145SOL     OW32896   2.314   0.300   8.416  0.5293  0.2913 -0.2421
 7145SOL    HW132897   2.281   0.275   8.503 -0.4116  3.0126  0.1784
 7145SOL    HW232898   2.281   0.228   8.363  0.5918 -0.1856  0.3570
 7146SOL     OW32899   2.601   0.982   9.477  0.3122  0.6239  0.1240
 7146SOL    HW132900   2.553   0.913   9.523 -0.0515  0.6738 -0.1847
 7146SOL    HW232901   2.678   0.936   9.444  0.1478  0.5573 -0.1638
 7147SOL     OW32902   3.251   3.343   2.999  0.2647  0.2516  0.4796
 7147SOL    HW132903   3.256   3.427   3.043 -0.7041  1.3080 -1.4098
 7147SOL    HW232904   3.336   3.343   2.953 -0.0226 -0.6833 -0.0547
 7148SOL     OW32905   1.296   2.799   1.346  0.3072  0.1466  0.1421
 7148SOL    HW132906   1.238   2.870   1.318  0.8504 -0.0023 -1.3770
 7148SOL    HW232907   1.379   2.844   1.327  0.9456 -0.7438  0.7818
 7149SOL     OW32908   1.340   2.753  13.688  0.3513 -0.4770 -0.4352
 7149SOL    HW132909   1.364   2.828  13.633 -0.7046  1.5131  1.7694
 7149SOL    HW232910   1.261   2.718  13.648 -0.4132  0.0558  0.5980
 7150SOL     OW32911   2.370   1.417  12.496  0.3185  0.2198  0.6774
 7150SOL    HW132912   2.417   1.365  12.431 -1.0698  1.4014 -1.2697
 7150SOL    HW232913   2.294   1.450  12.447  1.9296  2.0765 -0.5735
 7151SOL     OW32914   1.813   2.300   0.722 -0.1187 -0.1395 -0.3282
 7151SOL    HW132915   1.844   2.379   0.766 -0.8342 -0.8055  1.4078
 7151SOL    HW232916   1.741   2.283   0.783 -0.0074  1.2152  0.1775
 7152SOL     OW32917   3.892   1.903   5.971 -0.3539  0.1689 -0.3898
 7152SOL    HW132918   3.892   1.852   6.052  0.5053 -1.7652 -1.6167
 7152SOL    HW232919   3.882   1.834   5.907  0.7214  0.6790 -1.1106
 7153SOL     OW32920   3.525   3.641   7.204 -0.1879 -0.6083 -0.0788
 7153SOL    HW132921   3.442   3.689   7.204  0.2217  0.0898  1.7055
 7153SOL    HW232922   3.539   3.618   7.296 -0.7500 -2.2179 -0.4142
 7154SOL     OW32923   1.684   3.647   8.816  0.3356 -0.2556 -0.6645
 7154SOL    HW132924   1.773   3.613   8.813  0.4279 -0.0787  0.0855
 7154SOL    HW232925   1.657   3.650   8.724 -0.0897  1.8011 -0.4774
 7155SOL     OW32926   4.011   3.115  13.540 -0.5277  0.1255  0.4418
 7155SOL    HW132927   3.920   3.129  13.515 -0.4718 -2.2962 -1.1650
 7155SOL    HW232928   4.000   3.094  13.633  2.1645 -0.2613  0.6720
 7156SOL     OW32929   1.397   2.134  16.273  0.3936  0.0516 -0.1961
 7156SOL    HW132930   1.389   2.224  16.244  0.1151 -0.0138 -0.3164
 7156SOL    HW232931   1.348   2.083  16.209  2.1828 -2.1640  0.1632
 7157SOL     OW32932   2.944   1.681   5.199  0.5471 -0.7374  0.3155
 7157SOL    HW132933   2.945   1.744   5.126 -2.9442 -0.3409  0.6485
 7157SOL    HW232934   2.980   1.735   5.269 -0.1403  0.1750 -0.0277
 7158SOL     OW32935   3.093   2.360   1.615 -0.1883  0.4093  0.0350
 7158SOL    HW132936   3.041   2.312   1.679 -0.0579 -0.1374 -0.2689
 7158SOL    HW232937   3.080   2.452   1.641  0.0452  0.3622  0.3267
 7159SOL     OW32938   2.980   3.943   2.006  0.0440 -0.1997  0.6956
 7159SOL    HW132939   2.968   3.946   2.101  1.2505  3.9343  0.7463
 7159SOL    HW232940   2.905   3.994   1.975  1.9440  2.0851 -0.1131
 7160SOL     OW32941   0.324   2.983   4.388 -0.3401  0.6799  0.3050
 7160SOL    HW132942   0.288   2.905   4.430  0.5718  0.3268  0.4261
 7160SOL    HW232943   0.416   2.958   4.381 -0.1014  2.0196 -1.2726
 7161SOL     OW32944   4.130   4.158  13.224 -0.1832 -0.1297 -0.5842
 7161SOL    HW132945   4.106   4.170  13.316 -0.7182 -0.7908 -0.6373
 7161SOL    HW232946   4.209   4.211  13.215 -0.0429 -0.6420 -2.4194
 7162SOL     OW32947   4.378   0.327  16.526 -0.2926 -0.4936  0.1001
 7162SOL    HW132948   4.380   0.270  16.449 -1.8571 -1.2226  0.5908
 7162SOL    HW232949   4.472   0.345  16.532 -0.4768  0.3403  0.5247
 7163SOL     OW32950   1.072   1.475   3.492  0.0930 -0.3486  0.3772
 7163SOL    HW132951   0.999   1.451   3.435  0.9429 -0.3707 -0.7102
 7163SOL    HW232952   1.023   1.521   3.560  1.4193  2.4496 -0.5514
 7164SOL     OW32953   0.601   0.394   4.551  0.3376  0.2811  0.2371
 7164SOL    HW132954   0.641   0.314   4.586 -2.9859 -0.1472  3.0692
 7164SOL    HW232955   0.522   0.393   4.604 -1.3379 -2.2445 -2.2452
 7165SOL     OW32956   1.098   1.883   7.956 -0.1436  0.8898  0.3699
 7165SOL    HW132957   1.079   1.976   7.944  0.0355  0.7768 -0.7599
 7165SOL    HW232958   1.178   1.908   8.003  0.0338 -0.6634  0.9135
 7166SOL     OW32959   2.101   3.399   8.247  0.2462  0.3544  0.2102
 7166SOL    HW132960   2.011   3.366   8.252  0.5042 -0.0534  2.2536
 7166SOL    HW232961   2.140   3.346   8.317  1.3077 -1.7980 -2.0005
 7167SOL     OW32962   1.483   2.886   7.829  0.5112  0.5389 -0.2498
 7167SOL    HW132963   1.510   2.826   7.759 -0.2768 -1.1369  0.8782
 7167SOL    HW232964   1.401   2.906   7.784  0.3118 -2.7545 -1.3912
 7168SOL     OW32965   3.686   3.320   5.589 -0.7239 -0.4366  0.0285
 7168SOL    HW132966   3.600   3.311   5.548 -0.4807 -0.2056 -0.5176
 7168SOL    HW232967   3.651   3.370   5.663 -2.7454  0.3602 -1.4647
 7169SOL     OW32968   0.544   1.932  13.390 -1.1215 -0.3198 -0.5919
 7169SOL    HW132969   0.449   1.932  13.382 -1.3490  0.4155  1.8945
 7169SOL    HW232970   0.565   1.850  13.436 -0.6872  0.2010  0.1339
 7170SOL     OW32971   3.552   3.629  15.662 -0.1524  0.1268  0.0689
 7170SOL    HW132972   3.637   3.599  15.696  0.4343 -0.6689 -2.1002
 7170SOL    HW232973   3.558   3.631  15.566  1.9760  1.2858  0.2202
 7171SOL     OW32974   4.137   2.914   3.601  0.6479 -0.4204 -0.0615
 7171SOL    HW132975   4.089   2.970   3.662  0.0011  1.1639 -2.0189
 7171SOL    HW232976   4.071   2.845   3.591  0.3122 -0.2102  0.6710
 7172SOL     OW32977   0.549   1.848  17.288 -0.1565 -0.1438  0.5407
 7172SOL    HW132978   0.454   1.837  17.297 -0.2703  1.5703  1.4123
 7172SOL    HW232979   0.581   1.789  17.220  0.2883 -1.7105  2.1086
 7173SOL     OW32980   2.040   2.191   7.008  0.0496  0.7423 -1.0521
 7173SOL    HW132981   2.127   2.211   7.043  0.0839 -1.3005 -0.0167
 7173SOL    HW232982   1.985   2.210   7.085  2.1209 -1.9045  1.0618
 7174SOL     OW32983   0.162   1.309   5.872 -0.4591 -0.1311  0.9997
 7174SOL    HW132984   0.107   1.230   5.869  2.9178 -2.4401 -0.2624
 7174SOL    HW232985   0.237   1.280   5.820 -1.2923 -0.4425 -0.0276
 7175SOL     OW32986   1.473   2.908  10.700  0.3155  0.1740  0.1475
 7175SOL    HW132987   1.479   2.842  10.631  0.1878 -0.7853  1.0480
 7175SOL    HW232988   1.439   2.853  10.771  1.0757  0.2647  0.5840
 7176SOL     OW32989   3.482   3.074   7.705  0.0306  0.9117  0.7375
 7176SOL    HW132990   3.518   3.160   7.725 -0.9555  1.4556  0.1622
 7176SOL    HW232991   3.405   3.108   7.660  0.9851  0.9695 -0.8726
 7177SOL     OW32992   2.884   1.323   9.583  0.0599  0.0930 -0.6631
 7177SOL    HW132993   2.959   1.356   9.632  0.0763  0.6416 -1.0522
 7177SOL    HW232994   2.846   1.248   9.629  0.9928  0.8034  1.2509
 7178SOL     OW32995   2.550   3.861  14.674 -0.0888  0.6753 -0.0670
 7178SOL    HW132996   2.628   3.883  14.623  0.4434  0.5344  0.6874
 7178SOL    HW232997   2.548   3.765  14.677 -1.6683  0.7188  0.1602
 7179SOL     OW32998   3.918   2.453  11.041 -0.6308  0.2265 -0.5354
 7179SOL    HW132999   3.901   2.426  11.131 -0.1673 -0.1420 -0.5591
 7179SOL    HW233000   4.011   2.476  11.047 -0.8578  1.3291 -1.2229
 7180SOL     OW33001   2.449   0.347   7.296  0.2363  0.4283  0.7062
 7180SOL    HW133002   2.457   0.322   7.388  2.8679 -0.2856  0.2726
 7180SOL    HW233003   2.523   0.404   7.276  2.0125 -1.4417  1.9765
 7181SOL     OW33004   0.675   1.602   8.993  0.2833 -0.0097 -0.2215
 7181SOL    HW133005   0.685   1.662   9.067 -1.6264  1.7821 -1.4396
 7181SOL    HW233006   0.768   1.576   8.992  1.0717  2.8106  0.7022
 7182SOL     OW33007   3.629   4.015   4.330 -0.2545  0.8537 -0.2654
 7182SOL    HW133008   3.663   4.000   4.419  0.7477 -1.5274 -1.0493
 7182SOL    HW233009   3.568   4.087   4.347  0.4129  2.5887 -5.3449
 7183SOL     OW33010   4.318   2.408  11.965 -0.0680  0.4422 -0.1314
 7183SOL    HW133011   4.407   2.375  11.966  0.2636  1.4489  1.5951
 7183SOL    HW233012   4.331   2.495  12.002 -1.3857  0.8968 -0.6897
 7184SOL     OW33013   1.071   1.093   6.096 -0.6710  0.5127 -0.5770
 7184SOL    HW133014   1.160   1.070   6.125 -1.5653 -1.2235  0.8453
 7184SOL    HW233015   1.014   1.032   6.143 -0.7441  2.1485  1.4655
 7185SOL     OW33016   2.605   1.291   7.719  0.7446  0.5393 -0.0819
 7185SOL    HW133017   2.618   1.207   7.763 -1.9519 -0.5290 -1.2752
 7185SOL    HW233018   2.532   1.330   7.767  1.0028  0.4887  0.3473
 7186SOL     OW33019   2.351   2.692   0.598  0.4339 -0.3773  0.1822
 7186SOL    HW133020   2.367   2.662   0.509 -3.6202 -2.2791  0.0618
 7186SOL    HW233021   2.440   2.680   0.629  0.0862 -0.8271  1.0039
 7187SOL     OW33022   4.168   2.783   5.710  0.0206 -0.0716  0.1045
 7187SOL    HW133023   4.123   2.698   5.716 -2.2298  1.1380  0.1959
 7187SOL    HW233024   4.109   2.831   5.653 -2.6345 -3.1417  0.2558
 7188SOL     OW33025   3.717   1.558  17.036 -0.5299 -0.2757 -0.4517
 7188SOL    HW133026   3.769   1.587  17.112 -0.2908 -0.4053 -0.5670
 7188SOL    HW233027   3.672   1.479  17.065  1.0112 -0.5942  1.1318
 7189SOL     OW33028   3.802   4.305  14.296 -0.4219 -0.1257 -0.0348
 7189SOL    HW133029   3.722   4.337  14.339 -0.0586  1.3610 -0.4684
 7189SOL    HW233030   3.786   4.212  14.281  0.4478 -0.6354  2.2453
 7190SOL     OW33031   1.987   2.946   4.525  0.6434  0.0464  0.0269
 7190SOL    HW133032   1.952   2.874   4.473  2.3172 -1.8185  1.4469
 7190SOL    HW233033   1.945   2.924   4.608  0.0572  0.7834 -0.0850
 7191SOL     OW33034   2.992   4.368   5.801 -0.2888  0.6661 -0.1150
 7191SOL    HW133035   2.950   4.360   5.716 -2.8366  1.9651  1.0102
 7191SOL    HW233036   3.037   4.451   5.783  0.3673  0.1836 -0.6878
 7192SOL     OW33037   4.501   1.137   9.592 -0.1482 -0.1761  0.2457
 7192SOL    HW133038   4.492   1.044   9.613  1.4755 -0.8274 -2.0485
 7192SOL    HW233039   4.576   1.144   9.533  0.3683  0.7116  1.0025
 7193SOL     OW33040   3.319   1.882  13.567  0.0512 -0.0039 -0.1959
 7193SOL    HW133041   3.311   1.976  13.583  0.0138 -0.1536  0.6385
 7193SOL    HW233042   3.407   1.858  13.594  0.1997 -0.8079 -1.4005
 7194SOL     OW33043   0.465   2.774   8.107 -0.1045  0.3992  0.0585
 7194SOL    HW133044   0.550   2.817   8.094  1.6949 -2.8113  1.0484
 7194SOL    HW233045   0.435   2.780   8.017  2.3235 -0.3064 -0.8065
 7195SOL     OW33046   0.101   2.018   3.099 -0.4510  0.1019 -0.5080
 7195SOL    HW133047   0.010   2.049   3.100 -0.5762 -0.2587 -0.7601
 7195SOL    HW233048   0.117   2.007   3.005  1.4061 -0.9002 -0.0755
 7196SOL     OW33049   3.519   0.264   3.341 -0.4454  0.6894 -0.4804
 7196SOL    HW133050   3.558   0.347   3.368  1.1147  0.2194 -1.2791
 7196SOL    HW233051   3.564   0.248   3.258  1.1579 -2.1063  0.9481
 7197SOL     OW33052   0.599   2.215   2.873  0.4736 -0.2517  0.3495
 7197SOL    HW133053   0.552   2.134   2.887 -1.2551  0.5908 -0.5960
 7197SOL    HW233054   0.531   2.279   2.894  0.1587 -0.9227  1.3257
 7198SOL     OW33055   3.400   0.807  14.744 -0.0425  0.1418 -0.2793
 7198SOL    HW133056   3.433   0.882  14.695  1.1340 -0.6609 -0.7031
 7198SOL    HW233057   3.308   0.836  14.744  0.1706  0.8054 -1.1168
 7199SOL     OW33058   0.696   1.531  12.846 -0.1084 -0.4308 -0.2261
 7199SOL    HW133059   0.790   1.519  12.857 -0.3055 -0.0906  1.7626
 7199SOL    HW233060   0.663   1.453  12.891  1.8107 -0.6471  0.7943
 7200SOL     OW33061   0.437   2.955   6.959  0.3262  0.3016  0.6055
 7200SOL    HW133062   0.429   3.046   6.986 -1.6657  0.4968 -0.6191
 7200SOL    HW233063   0.369   2.950   6.891  1.4433 -2.6215 -0.3145
 7201SOL     OW33064   0.668   3.738   7.305 -0.0179 -0.5705  0.0958
 7201SOL    HW133065   0.613   3.660   7.314 -1.5302  0.5163  0.0303
 7201SOL    HW233066   0.711   3.745   7.390  0.1728 -2.4247  0.1538
 7202SOL     OW33067   1.585   3.122   5.502 -0.5073  0.4814 -0.1153
 7202SOL    HW133068   1.641   3.162   5.569 -1.1858 -1.7547  1.7736
 7202SOL    HW233069   1.554   3.045   5.549 -0.8266  0.5090 -0.2795
 7203SOL     OW33070   2.080   2.655   4.506 -0.0746  0.0329 -0.5658
 7203SOL    HW133071   2.112   2.569   4.478 -0.7596  0.2868 -2.1088
 7203SOL    HW233072   2.053   2.631   4.595 -2.4942 -0.7211 -1.5082
 7204SOL     OW33073   1.882   4.635   5.354 -0.0277  0.1518  0.0524
 7204SOL    HW133074   1.887   4.541   5.373  1.5007  0.1603 -0.2509
 7204SOL    HW233075   1.874   4.635   5.258 -3.9061  0.5505  0.4079
 7205SOL     OW33076   1.401   1.490   7.212  0.0185 -0.1859  0.0465
 7205SOL    HW133077   1.385   1.574   7.169 -1.5942 -0.6987 -0.3346
 7205SOL    HW233078   1.456   1.443   7.150  0.8706 -0.9132  1.3427
 7206SOL     OW33079   4.009   1.379   7.456 -0.1570  0.1638 -0.0514
 7206SOL    HW133080   3.949   1.442   7.416 -1.6306 -0.7114  0.7982
 7206SOL    HW233081   3.965   1.294   7.452 -0.0407  0.1267 -0.6452
 7207SOL     OW33082   4.570   3.553   7.619 -0.3831  0.1819 -0.3034
 7207SOL    HW133083   4.592   3.470   7.576 -0.4956  0.0468 -0.1013
 7207SOL    HW233084   4.543   3.508   7.699  1.5901  0.3268  0.4577
 7208SOL     OW33085   4.614   1.299   8.410 -1.0536  0.6269  0.6325
 7208SOL    HW133086   4.654   1.386   8.418  1.6485 -0.5208 -0.2374
 7208SOL    HW233087   4.566   1.300   8.492 -1.4038 -0.8411  0.4456
 7209SOL     OW33088   2.788   2.123   1.807  0.5227  0.1482  0.0982
 7209SOL    HW133089   2.798   2.148   1.715  3.3731  0.8958  0.6038
 7209SOL    HW233090   2.871   2.154   1.844  0.9096 -3.2711  2.0557
 7210SOL     OW33091   1.261   2.311   4.399 -0.2784  0.1326 -0.4390
 7210SOL    HW133092   1.307   2.357   4.329  1.2240  0.6218  0.8816
 7210SOL    HW233093   1.193   2.372   4.427 -0.9922 -1.7335  1.9391
 7211SOL     OW33094   1.561   2.220   7.616  0.7112 -0.2829 -0.3801
 7211SOL    HW133095   1.553   2.187   7.527  1.0185  0.5842 -0.7219
 7211SOL    HW233096   1.651   2.207   7.647  1.0046 -0.0682 -1.1534
 7212SOL     OW33097   3.234   0.406  16.914  0.3889 -0.2412 -0.6042
 7212SOL    HW133098   3.171   0.451  16.970 -0.4549 -0.3964 -1.4372
 7212SOL    HW233099   3.232   0.322  16.958 -0.2984  0.9725  1.6614
 7213SOL     OW33100   1.950   2.381  15.302 -0.0319  0.0234 -0.1382
 7213SOL    HW133101   2.037   2.396  15.265 -0.3103  2.5356  0.1924
 7213SOL    HW233102   1.903   2.335  15.233 -0.2794  0.4196 -0.2319
 7214SOL     OW33103   4.268   1.486   7.564  0.2531  0.3069 -0.0316
 7214SOL    HW133104   4.197   1.452   7.619  0.1805  0.6710  0.1006
 7214SOL    HW233105   4.222   1.495   7.480 -0.7440  0.3042  0.5089
 7215SOL     OW33106   2.644   1.771   0.073  0.1759 -0.2841  0.0012
 7215SOL    HW133107   2.588   1.824   0.130  1.2900  2.2732 -1.2979
 7215SOL    HW233108   2.727   1.817   0.087 -0.4076  0.3174  1.5656
 7216SOL     OW33109   1.696   3.816   7.588 -0.0674 -0.0050  0.0519
 7216SOL    HW133110   1.728   3.882   7.649  2.2592  1.6011 -2.9656
 7216SOL    HW233111   1.618   3.790   7.637  1.6421 -1.6161  1.9252
 7217SOL     OW33112   4.529   0.397   0.135  0.7708  0.3765  0.1230
 7217SOL    HW133113   4.528   0.304   0.156 -3.1996  0.3898 -0.1351
 7217SOL    HW233114   4.608   0.403   0.081  0.8859 -1.8702  0.0554
 7218SOL     OW33115   3.335   4.188   6.658  0.1975 -0.0313 -0.0870
 7218SOL    HW133116   3.304   4.165   6.746 -1.6611  1.9997 -0.2247
 7218SOL    HW233117   3.358   4.102   6.622  0.6980  1.3018 -2.8952
 7219SOL     OW33118   2.402   2.069   9.540 -0.0714  0.3723  0.0037
 7219SOL    HW133119   2.349   1.991   9.522  0.3810  0.0347  0.1464
 7219SOL    HW233120   2.437   2.051   9.627  2.3957  1.0210 -0.8602
 7220SOL     OW33121   2.849   3.855  13.562 -0.5837  0.3336  0.0908
 7220SOL    HW133122   2.796   3.775  13.564  0.4490 -0.3193  1.4239
 7220SOL    HW233123   2.852   3.881  13.654 -1.1199 -1.1294  0.5292
 7221SOL     OW33124   1.687   0.815   8.674 -0.6246 -0.2100  0.1260
 7221SOL    HW133125   1.732   0.731   8.686  0.7648  0.4980 -0.1646
 7221SOL    HW233126   1.687   0.847   8.765 -0.0637 -4.0523  1.4723
 7222SOL     OW33127   2.217   4.673   0.547 -0.4860 -0.3326 -0.2224
 7222SOL    HW133128   2.270   4.715   0.479 -2.0683  2.0332  0.0146
 7222SOL    HW233129   2.266   4.591   0.553 -3.1145 -1.7630  1.9637
 7223SOL     OW33130   2.172   0.239   4.784  0.1780  0.0800 -0.9958
 7223SOL    HW133131   2.084   0.257   4.817  0.9051 -0.5436  1.2983
 7223SOL    HW233132   2.210   0.327   4.789  2.3337 -0.9885  1.2894
 7224SOL     OW33133   1.785   0.710   6.049 -0.5777 -0.5074 -0.2514
 7224SOL    HW133134   1.843   0.640   6.018 -1.0572 -0.7832 -0.5265
 7224SOL    HW233135   1.718   0.654   6.088  0.2139 -0.8353  0.6339
 7225SOL     OW33136   0.436   0.903   8.562  0.3502  0.1617  0.1453
 7225SOL    HW133137   0.489   0.895   8.642  0.5375  0.2545  0.0310
 7225SOL    HW233138   0.506   0.889   8.498  0.1799 -1.4775  0.3302
 7226SOL     OW33139   4.511   3.408   3.560 -0.5886  0.5545 -0.1259
 7226SOL    HW133140   4.514   3.464   3.482  1.3275  1.3411  0.5247
 7226SOL    HW233141   4.429   3.437   3.599 -1.0200  2.7214 -2.7012
 7227SOL     OW33142   4.559   1.948  16.705  0.4951  0.2214  0.2887
 7227SOL    HW133143   4.469   1.915  16.700  0.9386 -0.7770 -1.0566
 7227SOL    HW233144   4.548   2.016  16.771  1.6211 -0.9467  1.6819
 7228SOL     OW33145   4.324   3.236   6.000  0.4373  0.1055 -0.1704
 7228SOL    HW133146   4.291   3.150   5.973 -1.8089  1.3758 -1.4433
 7228SOL    HW233147   4.416   3.220   6.022  0.1326 -3.1041 -1.2066
 7229SOL     OW33148   2.187   2.289   0.649  0.5507 -0.4261 -0.0844
 7229SOL    HW133149   2.202   2.350   0.576 -0.3830  3.4243  2.9123
 7229SOL    HW233150   2.140   2.218   0.606  0.2139  1.3271 -2.6206
 7230SOL     OW33151   4.559   2.713  16.455  0.1832 -1.0169 -0.1373
 7230SOL    HW133152   4.630   2.684  16.397  2.0828  2.0675  0.6365
 7230SOL    HW233153   4.478   2.692  16.408 -0.2527 -0.3680  0.3301
 7231SOL     OW33154   1.220   3.077  14.210 -0.1378 -0.1101 -0.6839
 7231SOL    HW133155   1.156   3.106  14.145  0.2129  1.3713 -0.3608
 7231SOL    HW233156   1.262   3.160  14.234  2.7439 -1.3978 -1.2000
 7232SOL     OW33157   4.501   4.727   1.403 -0.3783  0.1106  0.2211
 7232SOL    HW133158   4.499   0.076   1.460 -3.0901  0.6661 -0.6203
 7232SOL    HW233159   4.411   4.726   1.370  0.2121  0.1280 -1.4228
 7233SOL     OW33160   0.043   2.290   5.174 -0.0335  0.2693  0.0647
 7233SOL    HW133161   0.003   2.206   5.150  0.2346  0.1802 -0.0651
 7233SOL    HW233162   4.709   2.353   5.139  1.2694  1.2083 -0.5253
 7234SOL     OW33163   2.163   1.816  11.687  0.2046 -0.0122 -0.1743
 7234SOL    HW133164   2.208   1.813  11.602  0.5723 -2.0472  0.1001
 7234SOL    HW233165   2.087   1.870  11.663 -0.9340 -2.6318 -2.5364
 7235SOL     OW33166   0.419   3.039  12.369 -0.5893 -0.2098 -0.4776
 7235SOL    HW133167   0.378   2.952  12.374  0.2436 -0.5117  1.4355
 7235SOL    HW233168   0.340   3.090  12.382 -1.1306 -1.3864  0.8888
 7236SOL     OW33169   0.506   2.679   4.578 -0.4741 -0.3551 -0.1015
 7236SOL    HW133170   0.494   2.605   4.637  0.9246 -0.9887 -0.6156
 7236SOL    HW233171   0.589   2.655   4.537 -0.6879 -0.3554 -0.5425
 7237SOL     OW33172   2.754   2.532  12.917  0.1392  0.7161  0.0885
 7237SOL    HW133173   2.847   2.511  12.908 -0.2522 -1.4751  1.2517
 7237SOL    HW233174   2.714   2.470  12.857 -1.4423  2.3522 -0.5510
 7238SOL     OW33175   2.864   1.570   1.585 -0.0989 -0.5733 -0.5311
 7238SOL    HW133176   2.880   1.659   1.614 -0.3302 -0.8308  0.3804
 7238SOL    HW233177   2.797   1.595   1.522 -0.6184 -1.1028 -0.1909
 7239SOL     OW33178   0.760   0.388   5.369  0.0757 -0.6395  0.3286
 7239SOL    HW133179   0.766   0.337   5.449 -2.5353 -1.9076 -0.2886
 7239SOL    HW233180   0.704   0.343   5.306 -1.3193  2.2978 -0.5361
 7240SOL     OW33181   2.125   4.374   4.764 -0.2759  0.5975 -0.3892
 7240SOL    HW133182   2.186   4.430   4.812  0.4969  0.2066 -0.9123
 7240SOL    HW233183   2.037   4.406   4.781  0.2309  1.3103  0.8738
 7241SOL     OW33184   2.559   0.140   1.077 -0.8158  0.2502 -0.2784
 7241SOL    HW133185   2.616   0.214   1.059 -0.8376  0.1957 -0.5745
 7241SOL    HW233186   2.613   0.061   1.070 -1.2431  0.1147 -2.0596
 7242SOL     OW33187   0.024   1.031   6.104 -0.2753 -0.3803 -0.4510
 7242SOL    HW133188   0.103   1.065   6.062 -0.1187  0.8665  0.8321
 7242SOL    HW233189   0.057   0.995   6.186 -0.6006 -2.3329 -1.1920
 7243SOL     OW33190   0.717   0.455  11.693  0.2341  0.6445 -0.7188
 7243SOL    HW133191   0.780   0.493  11.754  0.3708  1.6249 -1.4866
 7243SOL    HW233192   0.691   0.374  11.738  1.8974  0.4787 -0.0730
 7244SOL     OW33193   2.877   4.562   7.286 -0.1007 -0.0427 -0.2608
 7244SOL    HW133194   2.803   4.561   7.346 -0.4192  2.0994 -0.6121
 7244SOL    HW233195   2.928   4.630   7.330 -1.8275  0.7245  0.5149
 7245SOL     OW33196   3.011   2.101  16.142  0.0915 -0.6438  0.0807
 7245SOL    HW133197   2.971   2.107  16.229 -1.6866 -1.0130 -0.6975
 7245SOL    HW233198   2.939   2.078  16.082  0.5252  0.4537 -0.8691
 7246SOL     OW33199   1.440   2.446   6.967 -0.1089 -0.0073 -0.2007
 7246SOL    HW133200   1.471   2.385   7.034 -0.8627  2.0032  1.9997
 7246SOL    HW233201   1.521   2.486   6.935 -0.7095  1.4287  0.0385
 7247SOL     OW33202   3.955   2.895   5.570 -0.3378  0.0157 -0.3958
 7247SOL    HW133203   3.917   2.974   5.531 -1.4025 -0.4629 -0.3207
 7247SOL    HW233204   3.897   2.867   5.641  2.8948 -0.9421  1.8372
 7248SOL     OW33205   1.053   0.748   4.463  0.6530 -0.2903 -0.0275
 7248SOL    HW133206   1.010   0.697   4.531  0.8515 -2.1424 -1.2768
 7248SOL    HW233207   1.080   0.829   4.506 -1.0439  1.5531 -2.4458
 7249SOL     OW33208   4.230   4.352  12.419  0.3187 -0.3091 -0.0092
 7249SOL    HW133209   4.241   4.261  12.445 -3.4281 -1.1880 -1.4721
 7249SOL    HW233210   4.241   4.390  12.506  2.8598 -1.1052  0.0083
 7250SOL     OW33211   1.228   2.351   0.246  0.0312 -0.2583  0.5517
 7250SOL    HW133212   1.246   2.270   0.293  0.6507  1.1490  2.7508
 7250SOL    HW233213   1.198   2.315   0.162  0.3426  2.4109 -0.7216
 7251SOL     OW33214   0.217   2.979   2.513  0.2923 -0.9509 -0.3330
 7251SOL    HW133215   0.145   3.039   2.532  1.0368  0.1314 -0.9739
 7251SOL    HW233216   0.203   2.976   2.419 -2.0136  2.3732 -0.0827
 7252SOL     OW33217   3.977   1.442   2.265  0.1422  0.2554  0.0685
 7252SOL    HW133218   4.000   1.415   2.176  0.2807  1.4363 -0.2435
 7252SOL    HW233219   3.949   1.529   2.238  2.1217  0.9199  0.2180
 7253SOL     OW33220   3.192   1.902   4.377  0.0368 -0.0710  0.4070
 7253SOL    HW133221   3.205   1.946   4.461  1.2491 -0.6590  0.5347
 7253SOL    HW233222   3.278   1.913   4.335 -0.8061 -2.8593 -2.0401
 7254SOL     OW33223   4.557   1.931   4.905  0.0180 -0.0253 -0.0192
 7254SOL    HW133224   4.637   1.982   4.898 -0.4573  1.0242  2.2099
 7254SOL    HW233225   4.539   1.924   4.811 -0.9112 -4.9396  0.5665
 7255SOL     OW33226   1.449   1.080  15.230 -0.0578  0.3089  0.1451
 7255SOL    HW133227   1.376   1.090  15.290  0.8020  2.5340  0.8042
 7255SOL    HW233228   1.521   1.102  15.290  0.6859 -1.3055 -0.1395
 7256SOL     OW33229   1.411   3.779   2.523  0.1337  0.1103  0.6773
 7256SOL    HW133230   1.428   3.811   2.435 -2.2435 -0.6865 -0.0504
 7256SOL    HW233231   1.442   3.690   2.510 -4.5840 -1.5331  0.7040
 7257SOL     OW33232   0.430   0.940  10.721 -0.8479  0.6456  0.0279
 7257SOL    HW133233   0.465   0.877  10.659 -1.5405 -0.5379  0.8431
 7257SOL    HW233234   0.338   0.928  10.698 -0.4695  0.1041 -1.1806
 7258SOL     OW33235   4.047   3.972  13.035  0.0698  0.3196  0.2577
 7258SOL    HW133236   4.087   4.054  13.063 -0.4794  1.0159 -0.9695
 7258SOL    HW233237   4.032   3.938  13.123 -0.9237 -0.0420 -0.0465
 7259SOL     OW33238   4.358   3.321   8.275 -0.3132 -0.2297 -0.2493
 7259SOL    HW133239   4.421   3.273   8.330 -0.4205 -0.1025 -0.0124
 7259SOL    HW233240   4.380   3.414   8.283  0.0368 -0.2327 -1.2678
 7260SOL     OW33241   3.994   2.856   7.069 -0.4828  0.6911 -0.3742
 7260SOL    HW133242   4.062   2.923   7.079  0.0913 -0.0980  0.9405
 7260SOL    HW233243   3.957   2.857   7.157 -0.0080  3.3712 -0.1794
 7261SOL     OW33244   1.350   0.696  17.686  0.2568 -0.1409  0.5588
 7261SOL    HW133245   1.260   0.676  17.660  0.2826 -0.6861  0.8937
 7261SOL    HW233246   1.363   0.642   0.052 -0.3639  3.3582  3.1057
 7262SOL     OW33247   2.595   3.032   2.290 -0.3207 -0.1104 -0.1534
 7262SOL    HW133248   2.510   2.994   2.268 -0.5056 -0.2705  0.8428
 7262SOL    HW233249   2.583   3.107   2.232  0.4873 -0.3199 -0.5933
 7263SOL     OW33250   0.803   3.937  17.300 -0.4953  0.4615  0.7362
 7263SOL    HW133251   0.778   4.006  17.362  1.6930 -1.1793  3.4163
 7263SOL    HW233252   0.720   3.918  17.256  0.1432  2.0233 -1.1727
 7264SOL     OW33253   2.256   4.223   7.015 -1.1409  0.0477  0.2060
 7264SOL    HW133254   2.304   4.306   7.018 -1.2921  0.1874 -1.2452
 7264SOL    HW233255   2.303   4.172   7.082  0.0723  0.3672 -0.4032
 7265SOL     OW33256   1.568   3.217  17.378  0.2235  0.3326  0.6804
 7265SOL    HW133257   1.562   3.139  17.323  0.5522  1.5433 -1.0500
 7265SOL    HW233258   1.569   3.177  17.465  0.9394  0.7941  0.8824
 7266SOL     OW33259   0.414   2.432   7.046  0.3200 -0.1360 -0.8410
 7266SOL    HW133260   0.472   2.466   7.114 -2.4849  2.4960  0.2261
 7266SOL    HW233261   0.439   2.340   7.038 -0.5943 -0.3800 -0.9209
 7267SOL     OW33262   3.609   1.938  11.836 -0.1786  0.2016 -0.4155
 7267SOL    HW133263   3.568   1.867  11.787  0.0290 -0.1765 -0.0466
 7267SOL    HW233264   3.693   1.894  11.850 -0.4305 -0.3098 -0.5323
 7268SOL     OW33265   1.626   4.373   6.877  0.1495  0.2370  0.5259
 7268SOL    HW133266   1.694   4.306   6.880 -0.6023 -0.4858  1.7360
 7268SOL    HW233267   1.575   4.363   6.958 -0.7374 -1.4137 -0.2292
 7269SOL     OW33268   3.610   3.193  15.339  0.1478 -0.0829 -0.3804
 7269SOL    HW133269   3.559   3.191  15.420  1.9809 -1.6273  0.7530
 7269SOL    HW233270   3.540   3.169  15.279 -0.0913 -0.1159 -0.0906
 7270SOL     OW33271   2.393   1.065   5.413 -0.7441  0.3937 -0.6742
 7270SOL    HW133272   2.431   1.131   5.356 -0.1768 -0.5902 -1.4233
 7270SOL    HW233273   2.408   0.986   5.361  0.9062  0.3237 -0.0991
 7271SOL     OW33274   0.244   4.115   5.709  0.0209 -0.5776  0.9890
 7271SOL    HW133275   0.179   4.083   5.646 -0.5941 -1.0841  1.8764
 7271SOL    HW233276   0.201   4.182   5.762  1.6498  0.6740  0.7028
 7272SOL     OW33277   3.567   1.470   1.952  0.1153 -0.0468 -0.6376
 7272SOL    HW133278   3.551   1.428   1.868 -2.1490 -0.1950 -0.1356
 7272SOL    HW233279   3.635   1.525   1.912 -0.5777  0.6393 -0.8885
 7273SOL     OW33280   3.823   0.261   5.705  0.3632 -0.3919 -0.2207
 7273SOL    HW133281   3.911   0.297   5.717  0.3102 -0.9325  1.8499
 7273SOL    HW233282   3.852   0.177   5.670  0.8552 -1.5720  2.9850
 7274SOL     OW33283   2.365   1.750  11.850 -0.1852  0.4635  0.4046
 7274SOL    HW133284   2.300   1.747  11.920  0.5999 -0.2167  1.1001
 7274SOL    HW233285   2.307   1.769  11.776  1.0113  1.7307 -0.2084
 7275SOL     OW33286   3.459   2.071   3.280  0.2122  0.0384  0.4883
 7275SOL    HW133287   3.530   2.114   3.231 -0.5697  0.8521  0.0808
 7275SOL    HW233288   3.419   2.150   3.315 -0.5104 -0.3238  0.4781
 7276SOL     OW33289   3.585   1.671   6.004 -0.3122  0.3238  0.0541
 7276SOL    HW133290   3.557   1.660   5.913  0.5980 -0.7707 -0.0952
 7276SOL    HW233291   3.591   1.581   6.036 -0.6695  0.3573  0.2193
 7277SOL     OW33292   1.590   2.529  14.175  0.0267  0.3671 -0.1533
 7277SOL    HW133293   1.619   2.515  14.085 -1.7861 -1.7911 -0.3982
 7277SOL    HW233294   1.587   2.625  14.179 -0.7963  0.2939  0.8106
 7278SOL     OW33295   4.694   4.019   1.826  0.1084 -0.6804 -0.4593
 7278SOL    HW133296   0.005   4.026   1.913 -0.6515  0.3114 -0.2054
 7278SOL    HW233297   0.035   4.048   1.766  1.5999 -3.2203  0.0219
 7279SOL     OW33298   1.121   0.867   7.483  0.4475 -0.4234 -0.0809
 7279SOL    HW133299   1.172   0.914   7.548 -0.1139 -0.0868  0.1147
 7279SOL    HW233300   1.075   0.936   7.436  0.4628 -0.7443 -0.5745
 7280SOL     OW33301   3.953   4.600  14.713 -0.4572 -0.3966 -0.0426
 7280SOL    HW133302   4.007   4.566  14.642  0.7429  2.4438 -0.4910
 7280SOL    HW233303   3.993   4.683  14.738  1.9470 -1.9425  1.1586
 7281SOL     OW33304   2.581   1.298   4.001  0.4086  0.1882  0.0964
 7281SOL    HW133305   2.648   1.351   3.958  1.3642 -0.4675  0.7896
 7281SOL    HW233306   2.501   1.346   3.979  0.9914  0.3860 -1.5662
 7282SOL     OW33307   2.270   1.886   2.893 -0.2477  0.1787 -0.2765
 7282SOL    HW133308   2.185   1.870   2.933  1.2463 -2.0477  2.0230
 7282SOL    HW233309   2.326   1.916   2.964  2.8926 -1.0904 -2.1932
 7283SOL     OW33310   0.268   1.881  13.352 -0.2937 -0.3314 -0.0397
 7283SOL    HW133311   0.196   1.921  13.401 -0.0530 -1.4397  1.2221
 7283SOL    HW233312   0.211   1.850  13.281  0.0880  0.1245 -0.5431
 7284SOL     OW33313   4.044   4.240   5.087  0.1206  0.0904 -0.4432
 7284SOL    HW133314   4.038   4.191   5.005 -0.0934 -0.8956  0.1600
 7284SOL    HW233315   3.961   4.209   5.125 -1.0157  0.7466 -2.3761
 7285SOL     OW33316   1.582   4.172   5.718  0.8490  0.6897  0.0753
 7285SOL    HW133317   1.513   4.236   5.731  1.0071  1.2630 -1.8924
 7285SOL    HW233318   1.595   4.169   5.623 -3.8112  0.0688 -0.5278
 7286SOL     OW33319   1.749   3.908  10.152 -0.0261 -0.0423  0.5345
 7286SOL    HW133320   1.785   3.944  10.070  0.3071  1.0132  1.1321
 7286SOL    HW233321   1.827   3.909  10.207  0.7562 -3.3705 -0.5517
 7287SOL     OW33322   3.683   2.847   9.095  0.2891  0.0085 -0.4123
 7287SOL    HW133323   3.763   2.804   9.062 -0.3132 -0.4564 -1.2731
 7287SOL    HW233324   3.702   2.935   9.062 -1.5477  0.3741 -0.4707
 7288SOL     OW33325   2.749   1.060  15.204 -0.1460 -0.5770  0.0307
 7288SOL    HW133326   2.729   1.138  15.257  4.7553  0.2854  0.6092
 7288SOL    HW233327   2.828   1.034  15.251 -0.1380  1.2644  1.0688
 7289SOL     OW33328   0.217   4.566  15.640  0.2310 -0.3170 -0.0860
 7289SOL    HW133329   0.158   4.501  15.602  0.1902  0.0766 -0.6934
 7289SOL    HW233330   0.229   4.622  15.563  1.8154 -0.0220  0.3681
 7290SOL     OW33331   0.548   4.316   4.703 -0.3127 -0.4387  0.0868
 7290SOL    HW133332   0.562   4.243   4.642  0.1631  0.0145 -0.3511
 7290SOL    HW233333   0.488   4.268   4.760 -0.2861  1.3979  1.6460
 7291SOL     OW33334   4.381   3.285   7.155  0.2683  0.3435 -0.4390
 7291SOL    HW133335   4.410   3.212   7.100  0.8426 -0.2741  0.7029
 7291SOL    HW233336   4.454   3.312   7.211 -0.9445  0.7807  0.9105
 7292SOL     OW33337   4.343   4.686   8.481 -0.5476 -0.1077 -0.4941
 7292SOL    HW133338   4.283   0.032   8.483 -3.2543 -2.3401  1.4141
 7292SOL    HW233339   4.403   4.720   8.548 -0.6158 -0.8452 -0.0615
 7293SOL     OW33340   3.800   1.701   0.532  0.8030  0.1223  0.0133
 7293SOL    HW133341   3.721   1.743   0.499  1.9290  2.7774  0.6083
 7293SOL    HW233342   3.845   1.672   0.452  0.1161 -2.1904  0.4834
 7294SOL     OW33343   2.263   3.797  15.452 -0.4252 -0.2336 -0.2239
 7294SOL    HW133344   2.274   3.702  15.445  0.1248 -0.2016  0.2375
 7294SOL    HW233345   2.283   3.808  15.545  2.3614  2.4915 -1.1374
 7295SOL     OW33346   1.301   4.046  14.793  0.1777 -0.4084  0.1061
 7295SOL    HW133347   1.241   4.106  14.750 -0.7090  0.1083  2.0938
 7295SOL    HW233348   1.371   4.106  14.818  0.5033 -0.9880  0.5961
 7296SOL     OW33349   1.416   0.321   3.583  0.2984 -0.3869 -0.2031
 7296SOL    HW133350   1.355   0.393   3.566 -0.9324 -0.7981  2.4045
 7296SOL    HW233351   1.473   0.360   3.649 -1.9164 -1.0171  2.1132
 7297SOL     OW33352   2.864   0.836   9.820 -0.1613 -0.1228  0.4206
 7297SOL    HW133353   2.770   0.852   9.819 -0.1175  0.0204 -0.6970
 7297SOL    HW233354   2.875   0.801   9.732 -1.5873  1.8406 -0.5512
 7298SOL     OW33355   0.135   4.519  13.868  0.4701  0.2960 -0.5491
 7298SOL    HW133356   0.196   4.503  13.796  1.8335 -0.8836  0.8663
 7298SOL    HW233357   0.134   4.430  13.902  1.0660  0.2225 -0.7155
 7299SOL     OW33358   0.649   2.029   7.196  0.3344 -0.3002 -0.0746
 7299SOL    HW133359   0.716   2.045   7.262  0.9756  0.0514 -0.8074
 7299SOL    HW233360   0.701   1.976   7.135  0.4279 -0.9337  0.5607
 7300SOL     OW33361   1.856   2.751   5.435  0.3707  0.0583  0.3248
 7300SOL    HW133362   1.913   2.724   5.363 -1.1662 -1.0262 -0.4987
 7300SOL    HW233363   1.785   2.799   5.391  0.4399 -0.6137 -0.5202
 7301SOL     OW33364   0.947   1.483   8.959 -0.2777 -0.1326 -0.5436
 7301SOL    HW133365   0.951   1.408   9.018 -0.7895  0.9712  0.8937
 7301SOL    HW233366   1.025   1.467   8.906  0.8064 -1.4125  1.4457
 7302SOL     OW33367   3.505   4.710  12.759 -0.0772  0.3282  0.1908
 7302SOL    HW133368   3.541   0.034  12.686  0.4307 -2.0607 -1.2370
 7302SOL    HW233369   3.446   0.047  12.797  0.8954  0.8175  0.8761
 7303SOL     OW33370   0.428   0.438   2.588  0.6905  0.3922  0.3681
 7303SOL    HW133371   0.449   0.358   2.637  0.2855 -1.0223 -1.7628
 7303SOL    HW233372   0.411   0.407   2.499  0.2495  0.9345  0.2645
 7304SOL     OW33373   1.372   4.273   7.981  0.0259 -0.1378 -0.8718
 7304SOL    HW133374   1.419   4.356   7.971 -0.8802  0.4625 -0.2213
 7304SOL    HW233375   1.287   4.301   7.947 -0.8727 -1.0539  0.5857
 7305SOL     OW33376   0.761   0.278   2.863 -0.3575 -0.6359  0.2811
 7305SOL    HW133377   0.848   0.240   2.856  1.0077  2.6611 -0.7877
 7305SOL    HW233378   0.775   0.344   2.932  2.0969  1.3980 -2.1836
 7306SOL     OW33379   0.699   4.298   0.879 -0.6304  1.0795 -0.0031
 7306SOL    HW133380   0.745   4.374   0.843  0.3366  0.6381  0.3209
 7306SOL    HW233381   0.613   4.330   0.905 -0.1421  0.7885  1.9193
 7307SOL     OW33382   1.302   1.221   8.892 -0.3827  0.4537 -0.1517
 7307SOL    HW133383   1.367   1.234   8.823 -0.4510 -0.4688 -0.3842
 7307SOL    HW233384   1.326   1.133   8.920  1.5742  1.7361  2.2512
 7308SOL     OW33385   0.600   0.435  16.028  0.8388  0.0250 -0.7915
 7308SOL    HW133386   0.626   0.434  16.121  2.8362  0.1549 -1.3409
 7308SOL    HW233387   0.673   0.383  15.993  0.8325 -1.4665  1.3496
 7309SOL     OW33388   4.300   0.852  16.678  0.2108  0.0836  0.0801
 7309SOL    HW133389   4.205   0.843  16.666  0.2635 -0.0841 -0.2108
 7309SOL    HW233390   4.291   0.876  16.770  0.5199 -0.0256  0.1377
 7310SOL     OW33391   2.447   1.953   8.083  0.1627 -0.2565  1.0388
 7310SOL    HW133392   2.398   2.027   8.120 -0.9220  0.5307 -1.9108
 7310SOL    HW233393   2.527   1.995   8.050 -1.7526  0.2978 -2.9726
 7311SOL     OW33394   2.205   0.457   3.953 -0.4694 -0.5603  0.2028
 7311SOL    HW133395   2.127   0.506   3.979  1.0503  1.6309  0.6191
 7311SOL    HW233396   2.191   0.422   3.866 -0.6938  0.0592 -0.0078
 7312SOL     OW33397   3.653   1.233   8.935 -0.0070  0.2332 -0.0002
 7312SOL    HW133398   3.730   1.289   8.927  0.0828 -0.4150 -3.5833
 7312SOL    HW233399   3.583   1.292   8.908 -0.9725 -1.1393 -0.4671
 7313SOL     OW33400   2.733   1.919   4.090  0.4126 -0.5174  0.5784
 7313SOL    HW133401   2.725   1.825   4.105  0.0588 -0.5195  0.3677
 7313SOL    HW233402   2.793   1.931   4.164 -0.7252 -2.6705  1.8329
 7314SOL     OW33403   3.610   2.378   0.888 -0.0951 -0.7663 -0.3609
 7314SOL    HW133404   3.681   2.398   0.827 -0.6401  0.3879 -0.6274
 7314SOL    HW233405   3.546   2.450   0.886  0.8151  0.0805  0.5463
 7315SOL     OW33406   3.750   1.108  14.980  0.7733 -0.6914 -0.1375
 7315SOL    HW133407   3.702   1.031  14.950 -1.7578  0.9735 -0.3228
 7315SOL    HW233408   3.717   1.168  14.913  1.7807 -0.5315 -0.4915
 7316SOL     OW33409   3.980   1.385   2.013  0.1788  0.1665  0.3886
 7316SOL    HW133410   3.906   1.399   1.953 -1.5233 -1.0642  2.2002
 7316SOL    HW233411   4.047   1.360   1.949 -1.1744 -0.8173 -0.6528
 7317SOL     OW33412   2.645   0.110  15.703  0.4047 -0.0471 -0.1761
 7317SOL    HW133413   2.623   0.134  15.613 -0.1894  0.2857  0.0604
 7317SOL    HW233414   2.588   0.035  15.718  0.7344 -0.4654 -1.0110
 7318SOL     OW33415   1.696   3.969   2.637 -0.5429 -0.1137 -0.1870
 7318SOL    HW133416   1.789   3.948   2.648 -0.3267  1.1451  0.3194
 7318SOL    HW233417   1.695   4.023   2.558 -2.4297  0.5219  0.2759
 7319SOL     OW33418   4.533   0.435   4.063 -0.0591 -0.2181  0.3240
 7319SOL    HW133419   4.607   0.442   4.123  0.8847 -2.4942 -0.5875
 7319SOL    HW233420   4.525   0.346   4.030 -0.6954 -0.4413  1.0801
 7320SOL     OW33421   2.904   0.805   7.885 -0.1131 -0.0382  0.1597
 7320SOL    HW133422   2.830   0.816   7.946  1.2882  3.4368  1.2357
 7320SOL    HW233423   2.903   0.710   7.870  2.2585  0.2151 -1.5195
 7321SOL     OW33424   2.883   3.043   5.009  0.1841 -0.2323  0.9260
 7321SOL    HW133425   2.827   2.968   4.990 -1.3257  0.7109  1.6141
 7321SOL    HW233426   2.851   3.071   5.095  0.4948  2.1053  0.2831
 7322SOL     OW33427   0.525   0.358   7.653 -0.2248  0.3281 -0.7593
 7322SOL    HW133428   0.527   0.435   7.595 -2.5832  0.1002 -1.1456
 7322SOL    HW233429   0.572   0.289   7.606 -1.4979 -0.9417 -0.1639
 7323SOL     OW33430   0.757   1.084  15.846 -0.0322  0.1841  0.4743
 7323SOL    HW133431   0.841   1.051  15.815  1.0824  4.0365 -0.5314
 7323SOL    HW233432   0.763   1.179  15.846  1.6529  0.0673  0.0556
 7324SOL     OW33433   3.953   3.659   5.655  0.5400 -0.6907 -0.0768
 7324SOL    HW133434   3.946   3.743   5.699 -0.2633 -0.7762 -0.0291
 7324SOL    HW233435   3.873   3.616   5.687  0.1571  1.5518  1.9193
 7325SOL     OW33436   0.722   3.242   5.878  0.7278 -0.4955 -0.2320
 7325SOL    HW133437   0.653   3.191   5.921 -1.8171  3.4944  0.4306
 7325SOL    HW233438   0.776   3.260   5.955 -0.5437  3.2890 -0.2473
 7326SOL     OW33439   1.531   2.931   1.354  0.7305  0.4386 -0.1021
 7326SOL    HW133440   1.606   2.913   1.410 -0.7754 -1.9527  1.1367
 7326SOL    HW233441   1.581   2.952   1.275  2.4791 -3.5295 -0.0473
 7327SOL     OW33442   1.016   0.142  10.369  0.1311  0.2399 -0.6786
 7327SOL    HW133443   1.000   0.053  10.337  1.1628 -0.4329  0.7207
 7327SOL    HW233444   1.019   0.127  10.463  0.6983 -0.9272 -0.8864
 7328SOL     OW33445   3.635   1.364  17.228  0.3096  0.1891 -0.4364
 7328SOL    HW133446   3.702   1.320  17.280  1.2819  0.5089 -1.4238
 7328SOL    HW233447   3.557   1.315  17.254  0.0374  1.1937  0.6300
 7329SOL     OW33448   0.280   1.339   1.844  0.4569  0.1462  0.0958
 7329SOL    HW133449   0.364   1.317   1.804 -0.3715  1.6861 -2.4865
 7329SOL    HW233450   0.305   1.376   1.929 -0.0069 -0.7001  0.6090
 7330SOL     OW33451   0.944   4.635   2.485  0.0260 -0.2966  0.3126
 7330SOL    HW133452   0.973   4.543   2.485  2.5721  0.5053  0.0999
 7330SOL    HW233453   1.007   4.675   2.545 -1.4850  1.4440  0.7329
 7331SOL     OW33454   0.421   1.543   6.834 -0.2088  0.2361  0.0926
 7331SOL    HW133455   0.469   1.461   6.839  0.3219  0.5335 -0.1221
 7331SOL    HW233456   0.368   1.531   6.755  1.8509  1.0102 -1.4036
 7332SOL     OW33457   0.719   3.186   3.828  0.6939  0.3486 -0.1297
 7332SOL    HW133458   0.814   3.179   3.820  0.6427  1.5479 -1.7956
 7332SOL    HW233459   0.691   3.234   3.750 -1.4990 -1.2046 -0.2873
 7333SOL     OW33460   2.176   3.993   3.916 -0.5106  0.7334  0.2658
 7333SOL    HW133461   2.081   3.983   3.920 -0.3507 -0.8278  0.2544
 7333SOL    HW233462   2.206   3.903   3.925 -2.1882  0.0873 -0.6037
 7334SOL     OW33463   3.820   4.509   4.052 -0.5589  0.5439 -0.5332
 7334SOL    HW133464   3.807   4.538   4.142 -0.5867  2.6380 -1.2067
 7334SOL    HW233465   3.736   4.531   4.011 -2.0502 -0.1524  2.1780
 7335SOL     OW33466   2.094   3.840   6.907  0.2324 -0.3784 -0.5086
 7335SOL    HW133467   2.164   3.842   6.972 -0.2299  1.3452 -0.0704
 7335SOL    HW233468   2.050   3.912   6.952 -1.3767 -1.6233 -0.0527
 7336SOL     OW33469   2.901   4.271   3.486  0.3431  0.0915 -0.9900
 7336SOL    HW133470   2.922   4.238   3.399 -1.9406  1.3002 -2.0088
 7336SOL    HW233471   2.985   4.293   3.527 -0.6844  0.7552  0.7680
 7337SOL     OW33472   3.756   1.855   6.723  0.2266  0.4091  0.2213
 7337SOL    HW133473   3.767   1.886   6.633 -0.3915  0.6186  0.2135
 7337SOL    HW233474   3.678   1.802   6.705 -0.4577  0.3540  3.3353
 7338SOL     OW33475   4.118   0.166  14.090 -0.1402  0.2015  0.5628
 7338SOL    HW133476   4.040   0.116  14.113 -1.3398  1.5107 -0.7442
 7338SOL    HW233477   4.189   0.102  14.095 -0.5794 -0.4893 -1.9069
 7339SOL     OW33478   3.746   3.327   2.795 -0.0278  0.2039 -0.0899
 7339SOL    HW133479   3.776   3.370   2.715 -0.0288 -0.9322 -0.7019
 7339SOL    HW233480   3.754   3.233   2.775 -1.6053  0.6540 -2.7888
 7340SOL     OW33481   2.557   3.518   6.173 -0.3170  0.1350  0.0457
 7340SOL    HW133482   2.627   3.459   6.202  0.9665  0.1536 -3.0463
 7340SOL    HW233483   2.558   3.489   6.082 -0.0142 -3.2263  1.0946
 7341SOL     OW33484   2.375   2.507   2.902 -0.5147  0.1391  0.1676
 7341SOL    HW133485   2.368   2.490   2.996 -3.3198 -3.1493 -0.6325
 7341SOL    HW233486   2.452   2.462   2.868  0.3289  1.7372  0.0039
 7342SOL     OW33487   0.654   4.045   6.956 -0.2507  0.2919  0.4968
 7342SOL    HW133488   0.577   4.071   6.906 -1.8630 -3.7552  0.8800
 7342SOL    HW233489   0.714   4.110   6.919  1.9404 -1.2317  1.4361
 7343SOL     OW33490   1.551   4.442   3.819 -0.0749 -0.3561 -0.1537
 7343SOL    HW133491   1.495   4.517   3.801 -1.1390 -1.0112  0.4285
 7343SOL    HW233492   1.496   4.363   3.814 -0.5639 -0.1670  1.9567
 7344SOL     OW33493   3.804   2.741   4.293  0.3437  0.3439 -0.1240
 7344SOL    HW133494   3.895   2.719   4.275  0.1263  0.9621 -1.9578
 7344SOL    HW233495   3.761   2.659   4.269  0.7941  0.2301 -0.5460
 7345SOL     OW33496   0.423   3.879   5.473  0.1021 -0.2766  0.9202
 7345SOL    HW133497   0.347   3.934   5.490  0.7913  1.2790 -0.9930
 7345SOL    HW233498   0.464   3.853   5.555 -0.8386  1.6647  2.0032
 7346SOL     OW33499   3.216   0.725   4.882  0.2142 -0.3931  0.3096
 7346SOL    HW133500   3.199   0.695   4.972  0.7469 -0.4138  0.4048
 7346SOL    HW233501   3.142   0.684   4.838  0.8251 -2.4840  1.2264
 7347SOL     OW33502   0.409   2.850   7.837  0.6184  0.5472  0.2075
 7347SOL    HW133503   0.441   2.800   7.762  2.6372 -0.6915  1.8850
 7347SOL    HW233504   0.486   2.904   7.858  1.4346  1.2901 -4.7340
 7348SOL     OW33505   3.047   1.533   9.742  0.4231 -0.5167  0.5774
 7348SOL    HW133506   3.062   1.566   9.831  0.7062  2.4569 -0.5765
 7348SOL    HW233507   3.011   1.612   9.703 -1.8345 -1.4008  0.9044
 7349SOL     OW33508   4.599   3.362  14.538 -0.8070  0.7326 -0.4630
 7349SOL    HW133509   4.597   3.368  14.443 -2.7306 -0.5420 -0.5092
 7349SOL    HW233510   4.638   3.275  14.535 -0.4765  1.0545 -6.0100
 7350SOL     OW33511   0.001   1.599   9.081  0.0941 -0.4378  0.4147
 7350SOL    HW133512   4.657   1.602   9.145 -1.1475 -0.1995 -0.9984
 7350SOL    HW233513   0.005   1.505   9.062 -0.7123  0.1012 -2.2846
 7351SOL     OW33514   4.344   1.621  17.208  0.8059 -0.0746 -0.3832
 7351SOL    HW133515   4.278   1.651  17.270  0.4857 -0.0249 -0.7518
 7351SOL    HW233516   4.324   1.681  17.137 -1.2975 -2.0695 -1.4986
 7352SOL     OW33517   3.135   2.234   2.227  0.7183 -0.1008 -0.4693
 7352SOL    HW133518   3.065   2.243   2.291  0.2813 -0.6564 -0.8639
 7352SOL    HW233519   3.149   2.317   2.181 -1.3411  0.6597  0.2776
 7353SOL     OW33520   0.614   4.671   5.014 -0.3189 -0.0962  0.1726
 7353SOL    HW133521   0.644   0.015   5.070  1.3180 -1.7699  1.4208
 7353SOL    HW233522   0.693   4.647   4.967 -0.2826 -0.6116  0.5017
 7354SOL     OW33523   0.701   3.863   0.692  0.3030  0.2261 -0.5812
 7354SOL    HW133524   0.745   3.837   0.611 -1.0588  1.3536 -1.6792
 7354SOL    HW233525   0.695   3.954   0.665 -4.4552  0.5496  1.4709
 7355SOL     OW33526   2.735   0.349   1.046  0.6507 -0.1409  0.2040
 7355SOL    HW133527   2.690   0.416   1.098 -0.1821 -0.4044 -0.1767
 7355SOL    HW233528   2.811   0.327   1.099  0.5660 -0.8854  0.0126
 7356SOL     OW33529   4.037   1.413   5.048 -0.3359  0.0197  0.4135
 7356SOL    HW133530   4.123   1.440   5.014 -0.7654 -0.1518 -0.8127
 7356SOL    HW233531   4.044   1.319   5.061  0.5103  0.0397  0.0810
 7357SOL     OW33532   3.935   2.649  17.662  0.1914  0.9341  0.5124
 7357SOL    HW133533   3.889   2.567  17.643 -0.2781  1.5578 -1.0063
 7357SOL    HW233534   4.025   2.629  17.688 -0.0811 -1.4201 -0.3503
 7358SOL     OW33535   4.037   0.155   7.010 -0.1713 -0.2183 -0.0664
 7358SOL    HW133536   4.076   0.224   7.064  1.8647 -0.6310 -1.0284
 7358SOL    HW233537   4.036   0.077   7.065 -2.5376 -0.7314 -0.8357
 7359SOL     OW33538   1.680   0.936   2.472  0.2016  0.2130  0.3360
 7359SOL    HW133539   1.605   0.958   2.528 -0.3305  2.1569 -1.1356
 7359SOL    HW233540   1.755   0.969   2.522 -1.6749  2.0285  2.0070
 7360SOL     OW33541   4.406   0.794  11.224 -0.0828  0.0268  0.6379
 7360SOL    HW133542   4.459   0.779  11.303 -0.0606  1.4246  0.8761
 7360SOL    HW233543   4.354   0.714  11.227 -0.0382 -0.0453 -0.4669
 7361SOL     OW33544   2.556   0.802   9.939 -0.1352  0.1599 -0.2522
 7361SOL    HW133545   2.619   0.851   9.991  0.0554  0.8543 -1.1326
 7361SOL    HW233546   2.590   0.713   9.953  2.3783  0.7663 -2.3227
 7362SOL     OW33547   3.519   4.666   2.969 -0.1848  0.3337  0.3090
 7362SOL    HW133548   3.606   4.697   2.946 -0.0309 -0.6224 -0.4038
 7362SOL    HW233549   3.513   4.601   2.899 -0.0941 -0.1170  0.7177
 7363SOL     OW33550   2.376   3.005   7.786 -0.0884  0.0915 -0.6530
 7363SOL    HW133551   2.292   2.994   7.742 -0.6421  1.3685  0.0975
 7363SOL    HW233552   2.431   2.950   7.730 -1.1209 -1.9191  0.2997
 7364SOL     OW33553   0.080   1.879   8.399 -0.0528  0.0418 -0.4592
 7364SOL    HW133554   0.155   1.836   8.357  1.1861  0.4539  1.3438
 7364SOL    HW233555   0.128   1.920   8.470 -0.3484  0.6884 -0.6353
 7365SOL     OW33556   2.982   2.241  15.843 -0.2306 -0.6989 -0.1564
 7365SOL    HW133557   3.032   2.163  15.868 -0.6131 -0.1536  2.2907
 7365SOL    HW233558   2.925   2.204  15.776  0.4221 -0.4659 -0.8476
 7366SOL     OW33559   0.421   3.961   3.999  0.2581 -0.0836  0.7261
 7366SOL    HW133560   0.341   3.908   3.995 -0.4413  0.9411  1.0078
 7366SOL    HW233561   0.383   4.041   3.963  2.6823  1.0401  0.7299
 7367SOL     OW33562   1.783   2.805   3.964 -0.2715  0.1822 -0.1093
 7367SOL    HW133563   1.689   2.821   3.955 -0.1412  1.7603  1.1885
 7367SOL    HW233564   1.805   2.815   3.872 -0.3453 -0.1053 -0.1563
 7368SOL     OW33565   2.926   4.344   5.152 -0.7697 -0.0049 -0.2921
 7368SOL    HW133566   3.002   4.392   5.119  0.0411  0.5453  2.3620
 7368SOL    HW233567   2.857   4.372   5.092 -0.2177 -0.0926 -0.9773
 7369SOL     OW33568   4.047   4.122   4.810  0.3513 -0.0644 -0.0949
 7369SOL    HW133569   4.036   4.033   4.843 -2.1023  0.5211  0.6357
 7369SOL    HW233570   4.043   4.113   4.715  2.0430  1.0519 -0.2775
 7370SOL     OW33571   1.480   3.858   3.731 -0.1244  0.4031  0.5148
 7370SOL    HW133572   1.554   3.812   3.772 -0.5587  0.4703  1.3818
 7370SOL    HW233573   1.414   3.789   3.724 -0.1624  0.7842 -2.8746
 7371SOL     OW33574   4.726   0.625   2.785  0.2598  0.3926 -0.4027
 7371SOL    HW133575   4.696   0.655   2.871  0.7232  0.5873 -0.3083
 7371SOL    HW233576   0.090   0.654   2.785  0.6772 -0.9330  2.7130
 7372SOL     OW33577   1.617   2.352   3.756 -0.2245 -0.2566  0.5606
 7372SOL    HW133578   1.562   2.274   3.749 -0.1347 -0.3198  0.5544
 7372SOL    HW233579   1.693   2.321   3.805  1.2231  3.5818  0.7642
 7373SOL     OW33580   0.184   3.687   4.163  0.6091 -0.3280 -0.5922
 7373SOL    HW133581   0.128   3.610   4.155 -2.0514  1.4626  0.8982
 7373SOL    HW233582   0.198   3.693   4.257 -1.1252  1.0475 -0.4393
 7374SOL     OW33583   1.493   0.570   3.727  1.0906 -0.5839 -0.4987
 7374SOL    HW133584   1.508   0.618   3.808 -2.6721 -2.2702  1.2236
 7374SOL    HW233585   1.400   0.589   3.714  1.4496  0.0246 -2.0815
 7375SOL     OW33586   0.114   1.338  16.914 -0.0904 -0.4042 -0.1744
 7375SOL    HW133587   0.167   1.390  16.853  0.8470 -1.6144 -0.3935
 7375SOL    HW233588   0.044   1.299  16.861 -0.1122 -0.7105  0.0807
 7376SOL     OW33589   2.535   4.020  12.144  0.3495  0.1007 -0.2886
 7376SOL    HW133590   2.584   3.954  12.194 -0.4278 -0.6384 -0.5068
 7376SOL    HW233591   2.563   4.101  12.186 -0.1853 -0.0603  0.3826
 7377SOL     OW33592   2.040   3.814   4.335  0.0188 -0.0737 -0.6075
 7377SOL    HW133593   1.958   3.863   4.335  1.8669  3.0007 -1.0349
 7377SOL    HW233594   2.088   3.872   4.276  0.2803  0.2983 -0.0267
 7378SOL     OW33595   2.378   2.711  14.664 -0.1047  0.4490 -0.8507
 7378SOL    HW133596   2.467   2.700  14.698 -0.3496 -1.7960 -0.8952
 7378SOL    HW233597   2.351   2.791  14.709 -2.6189 -0.8989  0.0126
 7379SOL     OW33598   1.843   1.950  13.814 -0.5232 -0.0194  0.2995
 7379SOL    HW133599   1.844   2.045  13.804  0.4358  0.0541  1.0301
 7379SOL    HW233600   1.928   1.918  13.784 -1.7318 -0.6711 -2.3614
 7380SOL     OW33601   0.491   2.923   3.748  0.3302  0.3704 -0.3633
 7380SOL    HW133602   0.523   2.939   3.659  1.9316 -0.2250  0.1001
 7380SOL    HW233603   0.550   2.854   3.778 -1.7839 -0.5864  1.5714
 7381SOL     OW33604   1.451   4.586   9.144 -0.0980 -0.3251 -0.5766
 7381SOL    HW133605   1.394   4.633   9.205  1.7453  2.9994 -1.4572
 7381SOL    HW233606   1.390   4.542   9.086 -1.8370  0.5717  0.5700
 7382SOL     OW33607   4.395   0.276   8.830  0.1891 -0.0512 -0.3097
 7382SOL    HW133608   4.392   0.323   8.746  1.5933 -0.9379 -0.8592
 7382SOL    HW233609   4.342   0.332   8.886  1.6561 -0.9765  2.0231
 7383SOL     OW33610   2.874   3.836   4.243  0.2601  0.3383  1.0528
 7383SOL    HW133611   2.908   3.825   4.332  2.7700 -2.6453 -0.2968
 7383SOL    HW233612   2.779   3.850   4.238  0.5959  2.2130 -0.1594
 7384SOL     OW33613   3.561   0.692   7.884  0.2620 -0.1590  0.1042
 7384SOL    HW133614   3.472   0.660   7.870 -0.2951  1.6924 -0.6107
 7384SOL    HW233615   3.561   0.703   7.980  1.6895  1.8496 -0.1261
 7385SOL     OW33616   0.321   2.798  12.435 -0.2050 -0.4807  0.2707
 7385SOL    HW133617   0.293   2.762  12.519 -0.4095  0.1313  0.4616
 7385SOL    HW233618   0.411   2.764  12.432 -1.5369 -4.1834  1.7165
 7386SOL     OW33619   0.704   0.708   5.873  0.2084  0.2698  0.3658
 7386SOL    HW133620   0.710   0.708   5.778  3.0527 -0.0257  0.5271
 7386SOL    HW233621   0.647   0.783   5.887 -1.5280 -0.8068 -0.9857
 7387SOL     OW33622   3.104   3.873   7.673 -0.3301 -0.2464 -0.7525
 7387SOL    HW133623   3.096   3.858   7.768  0.1678  1.7789 -0.3933
 7387SOL    HW233624   3.146   3.959   7.672 -0.1223 -0.3218  0.7993
 7388SOL     OW33625   0.439   1.638  11.416  0.2459 -0.2740  0.0181
 7388SOL    HW133626   0.507   1.666  11.355 -2.0651  2.3970 -1.3066
 7388SOL    HW233627   0.476   1.555  11.447  1.1006 -0.5485 -1.7374
 7389SOL     OW33628   1.677   0.756  14.610  0.5605 -0.2682 -0.3404
 7389SOL    HW133629   1.730   0.706  14.673  1.1314 -0.6146 -1.0883
 7389SOL    HW233630   1.652   0.699  14.537  0.0268  2.0532 -1.9800
 7390SOL     OW33631   4.416   1.428   8.258 -0.0508 -1.1785  0.2196
 7390SOL    HW133632   4.507   1.412   8.233 -0.3181 -0.0645 -1.4616
 7390SOL    HW233633   4.430   1.435   8.353 -1.1661 -0.1705  0.3156
 7391SOL     OW33634   0.562   2.848  11.287 -0.8715  0.2450 -0.3756
 7391SOL    HW133635   0.555   2.784  11.357 -2.6998  1.4152  0.5104
 7391SOL    HW233636   0.482   2.836  11.235 -0.8432  0.4009 -0.4559
 7392SOL     OW33637   2.785   2.427  16.832  0.1137  0.0150  0.8131
 7392SOL    HW133638   2.791   2.363  16.762 -0.8159 -1.7248  2.3093
 7392SOL    HW233639   2.790   2.508  16.781 -0.6909  0.9255  2.1793
 7393SOL     OW33640   1.454   3.045   8.475 -0.8581 -0.5615  0.8798
 7393SOL    HW133641   1.452   2.972   8.537  0.9407 -0.7642  0.6956
 7393SOL    HW233642   1.373   3.041   8.424 -0.8724  1.2009  0.7590
 7394SOL     OW33643   1.620   0.255   8.122  0.2146  0.0708 -0.5501
 7394SOL    HW133644   1.525   0.265   8.126  0.1386 -0.7314 -0.4712
 7394SOL    HW233645   1.636   0.292   8.035  1.6795  0.1938 -0.2319
 7395SOL     OW33646   2.147   3.404   3.810 -0.1413 -0.6960  0.6843
 7395SOL    HW133647   2.115   3.389   3.721  0.6321 -3.0809  0.8072
 7395SOL    HW233648   2.224   3.347   3.811  1.0349  0.8835 -2.3230
 7396SOL     OW33649   4.510   2.108  14.568 -0.3009 -0.3499 -0.4473
 7396SOL    HW133650   4.469   2.191  14.594 -0.6351 -1.2718  1.9408
 7396SOL    HW233651   4.599   2.143  14.558 -0.2728 -0.0134  0.9034
 7397SOL     OW33652   2.763   4.091   9.841 -0.6644 -0.1850  0.0083
 7397SOL    HW133653   2.730   4.080   9.752  0.5150  2.0691 -0.6990
 7397SOL    HW233654   2.714   4.169   9.863  0.2391  0.8870 -1.7482
 7398SOL     OW33655   3.706   1.255   4.976  0.3119  0.0232 -0.2341
 7398SOL    HW133656   3.685   1.194   5.047  1.5298  1.4988  1.3689
 7398SOL    HW233657   3.704   1.340   5.019  1.3451  0.2499 -0.6523
 7399SOL     OW33658   3.734   2.142   1.911  0.1968 -0.3044  0.0580
 7399SOL    HW133659   3.725   2.148   1.816  2.3811  1.5463 -0.0438
 7399SOL    HW233660   3.815   2.192   1.925 -0.2885  0.1597  1.2010
 7400SOL     OW33661   2.277   1.742  11.438 -0.2796  0.1362 -0.7483
 7400SOL    HW133662   2.258   1.671  11.377  1.5150  0.0843 -1.2496
 7400SOL    HW233663   2.321   1.802  11.377 -0.2393  0.5763 -0.2841
 7401SOL     OW33664   3.059   1.735   6.092  0.1225 -0.0795 -0.1779
 7401SOL    HW133665   3.004   1.712   6.017 -0.0299 -0.8605  0.1767
 7401SOL    HW233666   3.031   1.660   6.145  0.2816  1.0986  1.5898
 7402SOL     OW33667   4.674   2.096  16.949  0.5550 -0.3178 -0.5025
 7402SOL    HW133668   0.041   2.100  16.959  0.4303 -4.8144  2.2242
 7402SOL    HW233669   4.635   2.126  17.031 -0.1111 -1.2868 -0.4587
 7403SOL     OW33670   3.933   3.217   8.197 -0.4282 -0.0885 -0.1345
 7403SOL    HW133671   3.861   3.254   8.145 -1.8742 -0.9865  1.2049
 7403SOL    HW233672   3.890   3.140   8.236 -0.8015 -0.0289 -0.4220
 7404SOL     OW33673   2.086   1.778  12.523  0.2596  0.8191 -0.2513
 7404SOL    HW133674   2.170   1.764  12.567  0.0787 -0.2867 -0.2638
 7404SOL    HW233675   2.097   1.713  12.455 -1.4598  1.2498 -0.9311
 7405SOL     OW33676   4.548   1.565   7.569 -0.2577 -0.0523 -0.3897
 7405SOL    HW133677   4.581   1.531   7.485  0.7626 -1.4511  0.5722
 7405SOL    HW233678   4.457   1.539   7.555  0.2300 -1.3337 -1.2876
 7406SOL     OW33679   2.829   3.240   8.145 -0.0635  0.0644 -0.1688
 7406SOL    HW133680   2.874   3.223   8.228  3.5554  2.2693 -1.7000
 7406SOL    HW233681   2.873   3.171   8.095  1.6112 -0.8359  2.5192
 7407SOL     OW33682   1.725   1.619   1.210  0.0728 -0.3480  0.6687
 7407SOL    HW133683   1.642   1.653   1.176  1.0783  1.4550 -0.0041
 7407SOL    HW233684   1.761   1.693   1.259  1.8779 -0.7555 -0.0437
 7408SOL     OW33685   2.746   3.921   6.593  0.0365  0.3177 -0.1720
 7408SOL    HW133686   2.831   3.947   6.559  0.7293 -0.5569  0.9234
 7408SOL    HW233687   2.703   3.999   6.628  0.9734  1.2515 -1.1082
 7409SOL     OW33688   4.260   4.589  10.417  0.3295  0.2832 -0.2537
 7409SOL    HW133689   4.203   4.522  10.379  0.3561  0.6666 -0.9744
 7409SOL    HW233690   4.234   4.579  10.508 -0.5274  0.2805 -0.4988
 7410SOL     OW33691   1.213   2.415   2.401  0.0548  0.1149  0.2358
 7410SOL    HW133692   1.283   2.430   2.337  0.5603  1.9256  1.2176
 7410SOL    HW233693   1.244   2.334   2.441  0.8164 -0.1435 -0.8718
 7411SOL     OW33694   3.221   1.800  15.434 -0.1944 -0.0666  0.3293
 7411SOL    HW133695   3.132   1.770  15.419 -0.1266  0.6204 -1.4553
 7411SOL    HW233696   3.207   1.892  15.456  0.7947 -0.1070  1.1832
 7412SOL     OW33697   2.399   4.250   4.336 -0.0322 -0.5156  0.1066
 7412SOL    HW133698   2.320   4.292   4.301 -0.2325  1.4722  2.9405
 7412SOL    HW233699   2.420   4.182   4.272  1.6873 -0.9967  1.1678
 7413SOL     OW33700   2.542   2.391   8.071 -0.0974  0.3821  0.2100
 7413SOL    HW133701   2.633   2.384   8.099  0.4728  1.2482 -1.4317
 7413SOL    HW233702   2.537   2.487   8.076 -1.3487  0.3586 -0.6607
 7414SOL     OW33703   1.451   1.471   5.456  0.0039  0.2100  0.2527
 7414SOL    HW133704   1.412   1.426   5.531 -2.0569 -0.0674 -0.9793
 7414SOL    HW233705   1.542   1.443   5.455 -0.4837 -1.1711 -3.4629
 7415SOL     OW33706   0.596   1.738   9.788  0.5957  0.1181 -0.3923
 7415SOL    HW133707   0.584   1.826   9.823 -0.8031 -0.4198  0.4421
 7415SOL    HW233708   0.527   1.738   9.721  0.5954  0.8644 -0.3977
 7416SOL     OW33709   2.594   1.950   7.748 -0.2487 -0.0390  0.4362
 7416SOL    HW133710   2.629   1.942   7.659  0.6485  0.7681  0.7138
 7416SOL    HW233711   2.666   1.918   7.802  2.7700  0.8244 -3.0647
 7417SOL     OW33712   4.223   1.630   0.238 -0.0741  0.1739 -0.1533
 7417SOL    HW133713   4.253   1.633   0.148  0.8586 -2.1217  0.0837
 7417SOL    HW233714   4.293   1.575   0.273  1.0280  0.9904 -1.1179
 7418SOL     OW33715   3.836   0.831   1.762  0.2681  0.3241  0.2271
 7418SOL    HW133716   3.798   0.918   1.755  1.9148  0.9874 -0.6815
 7418SOL    HW233717   3.877   0.813   1.677  1.4269  0.2880  0.7844
 7419SOL     OW33718   1.221   1.564   6.868  0.7141 -0.0062  0.3836
 7419SOL    HW133719   1.200   1.477   6.902  1.7032 -0.4918 -0.2575
 7419SOL    HW233720   1.145   1.587   6.814 -0.3049 -1.0039  1.3902
 7420SOL     OW33721   0.774   2.917  17.227 -0.0960 -0.0988 -0.1526
 7420SOL    HW133722   0.789   2.911  17.321  0.1898 -0.1984 -0.2019
 7420SOL    HW233723   0.684   2.950  17.221 -0.0057  0.1234 -0.3074
 7421SOL     OW33724   2.491   3.032  10.352 -0.1386 -0.3667  0.2772
 7421SOL    HW133725   2.510   2.941  10.331  0.4458 -0.5241  1.5260
 7421SOL    HW233726   2.522   3.069  10.269  2.4316  0.1161  1.4702
 7422SOL     OW33727   0.053   2.730   4.937 -0.5489 -0.1361  0.0618
 7422SOL    HW133728   4.695   2.768   4.920  0.3451  1.9968  0.2217
 7422SOL    HW233729   0.030   2.641   4.963 -2.0943  0.8859  2.2515
 7423SOL     OW33730   1.961   2.311   0.292 -0.4677  0.0372  0.0371
 7423SOL    HW133731   1.989   2.225   0.260 -1.9420 -0.1339 -0.7890
 7423SOL    HW233732   2.039   2.338   0.340 -0.8050  0.3029  0.4378
 7424SOL     OW33733   3.797   2.969   2.609 -1.0376 -0.1450  0.1984
 7424SOL    HW133734   3.798   2.971   2.514 -0.9813  0.8634  0.2271
 7424SOL    HW233735   3.891   2.980   2.623 -0.7342 -0.0753 -1.9020
 7425SOL     OW33736   1.611   0.515   6.139  0.4177  0.0323 -0.4744
 7425SOL    HW133737   1.577   0.496   6.226  0.1279  0.2623 -0.5392
 7425SOL    HW233738   1.588   0.437   6.088  2.6578 -0.0208 -1.4333
 7426SOL     OW33739   1.229   2.327  16.686  0.1620  0.7083  0.3091
 7426SOL    HW133740   1.234   2.269  16.610 -0.4788  0.8699  0.1387
 7426SOL    HW233741   1.317   2.321  16.724  0.4331  2.6481 -0.0212
 7427SOL     OW33742   1.908   1.147   1.698  0.6817 -0.2182  0.1209
 7427SOL    HW133743   2.003   1.157   1.686  0.8163  0.8714  2.1670
 7427SOL    HW233744   1.897   1.208   1.770 -0.3376 -2.1739  1.6156
 7428SOL     OW33745   1.927   0.433   6.613  0.5413 -0.5545 -0.0609
 7428SOL    HW133746   1.949   0.481   6.693 -0.0180 -0.1702 -0.1379
 7428SOL    HW233747   1.861   0.378   6.657  0.5638 -1.1022 -0.7115
 7429SOL     OW33748   1.613   2.554  16.081  0.5014  0.5979  0.3956
 7429SOL    HW133749   1.558   2.514  16.014 -0.9225  1.7675  0.8600
 7429SOL    HW233750   1.698   2.516  16.060 -0.2121  1.9921 -5.0482
 7430SOL     OW33751   4.124   3.246   5.255  0.1582  0.6937  0.2685
 7430SOL    HW133752   4.120   3.193   5.175  3.1139 -2.1307  1.9694
 7430SOL    HW233753   4.201   3.220   5.306 -1.1600 -1.4740  1.1273
 7431SOL     OW33754   3.385   2.298   6.038  0.4262  0.5397 -0.2247
 7431SOL    HW133755   3.395   2.391   6.057 -0.6824  1.2362 -2.9646
 7431SOL    HW233756   3.330   2.312   5.961 -2.7647 -0.0588  1.9429
 7432SOL     OW33757   3.047   2.817   1.214  0.0820  0.3901 -0.1047
 7432SOL    HW133758   3.029   2.908   1.190  1.5379  0.7401  0.1505
 7432SOL    HW233759   2.986   2.784   1.148  0.1731  1.7720 -0.8810
 7433SOL     OW33760   1.295   2.317   4.097  0.8377 -0.1007  0.0046
 7433SOL    HW133761   1.240   2.343   4.023  2.8553  0.8242 -1.1894
 7433SOL    HW233762   1.375   2.363   4.072  0.5692  0.6392  0.5189
 7434SOL     OW33763   0.662   3.623  11.537  0.5110  0.3813  0.0674
 7434SOL    HW133764   0.690   3.609  11.628 -0.7209  2.3113  0.7488
 7434SOL    HW233765   0.580   3.575  11.525 -0.0082  1.2211  0.2457
 7435SOL     OW33766   3.835   2.876   3.340 -0.1390  0.2561 -0.5045
 7435SOL    HW133767   3.890   2.931   3.285  0.8343  2.7090  2.9275
 7435SOL    HW233768   3.893   2.815   3.386 -1.7251  0.3523  1.6222
 7436SOL     OW33769   3.866   2.639  16.082  0.1096 -0.4927  0.3907
 7436SOL    HW133770   3.791   2.655  16.024 -1.2781 -0.7960  2.1130
 7436SOL    HW233771   3.823   2.648  16.167  1.4936  2.3323  0.7660
 7437SOL     OW33772   4.519   0.051   8.667  0.5357 -0.2768 -0.5442
 7437SOL    HW133773   4.580   0.027   8.736  2.9526 -1.2272 -3.0399
 7437SOL    HW233774   4.466   0.120   8.708  0.6694 -1.7800  2.0920
 7438SOL     OW33775   4.030   3.505   8.798  0.0660 -0.3865 -0.0836
 7438SOL    HW133776   3.981   3.524   8.878 -0.7208 -1.3209 -0.3473
 7438SOL    HW233777   4.073   3.424   8.824  0.8684  0.1335  0.2074
 7439SOL     OW33778   2.320   1.718   4.148  0.7139  0.8660 -0.0344
 7439SOL    HW133779   2.369   1.781   4.095  0.2618  2.3848  1.3761
 7439SOL    HW233780   2.376   1.695   4.223  0.3698 -0.2983 -0.1292
 7440SOL     OW33781   3.271   4.405   4.005  0.6752  0.6779  0.1203
 7440SOL    HW133782   3.314   4.395   4.090  2.5250  2.5413 -0.5958
 7440SOL    HW233783   3.323   4.357   3.941  0.8595 -0.2528  0.9611
 7441SOL     OW33784   3.454   3.633  16.558  0.2294 -0.0059 -0.5444
 7441SOL    HW133785   3.511   3.634  16.481  0.8396 -2.1518 -0.1232
 7441SOL    HW233786   3.373   3.635  16.507  0.0857 -1.7204 -0.3739
 7442SOL     OW33787   4.721   1.189   4.422  0.0815 -0.7518 -0.0164
 7442SOL    HW133788   0.069   1.238   4.453 -0.9033  0.5569  0.2926
 7442SOL    HW233789   4.715   1.230   4.335 -0.4744  0.3576  0.5524
 7443SOL     OW33790   4.190   0.059   2.233  0.1714 -0.1114  0.0790
 7443SOL    HW133791   4.145   0.030   2.312  2.3169  1.2073  1.7813
 7443SOL    HW233792   4.164   0.148   2.211  1.1768  0.6870  2.1379
 7444SOL     OW33793   2.091   2.820   3.659  0.0621 -0.2743 -0.6427
 7444SOL    HW133794   2.088   2.836   3.565  0.4070 -1.0998 -0.7969
 7444SOL    HW233795   2.012   2.766   3.666  1.2548 -1.9692 -0.4150
 7445SOL     OW33796   0.160   2.799   7.984  0.4651  0.2328  0.2048
 7445SOL    HW133797   0.238   2.805   7.929 -0.7604  1.5774 -1.3527
 7445SOL    HW233798   0.093   2.777   7.920 -0.4798  1.6890  0.6965
 7446SOL     OW33799   0.729   2.428   7.740 -0.2989  0.2518  0.0588
 7446SOL    HW133800   0.678   2.447   7.819  0.6456 -3.2604  1.5108
 7446SOL    HW233801   0.665   2.435   7.670  0.5914 -1.5630 -0.9288
 7447SOL     OW33802   4.104   4.125   5.893 -0.0530  0.5938 -0.1209
 7447SOL    HW133803   4.156   4.179   5.834 -1.7375 -0.7363 -2.8012
 7447SOL    HW233804   4.091   4.184   5.968  0.2195  0.1553  0.2765
 7448SOL     OW33805   3.121   3.555   4.573  0.2455 -0.1339  0.4767
 7448SOL    HW133806   3.058   3.543   4.502 -0.3136 -1.1459  1.1421
 7448SOL    HW233807   3.085   3.633   4.616 -1.5447 -1.0516  0.6715
 7449SOL     OW33808   0.940   0.169   1.065 -0.0497  0.0152 -0.1397
 7449SOL    HW133809   1.010   0.199   1.007 -1.1401  0.7096 -1.0928
 7449SOL    HW233810   1.000   0.137   1.133  0.6727  0.9330 -0.3484
 7450SOL     OW33811   0.272   1.856   3.271  0.7508  0.2148 -0.1630
 7450SOL    HW133812   0.233   1.804   3.201  0.5702  0.0540  0.0603
 7450SOL    HW233813   0.334   1.917   3.231  0.2756  1.0336  0.3463
 7451SOL     OW33814   0.575   2.359   5.060 -0.4576  0.3047 -0.8351
 7451SOL    HW133815   0.485   2.339   5.086 -0.3783 -0.4106 -1.1108
 7451SOL    HW233816   0.594   2.449   5.085  2.1989 -0.6193  0.4361
 7452SOL     OW33817   1.643   3.068   1.147 -0.9256  0.4229 -0.3738
 7452SOL    HW133818   1.707   3.122   1.192  0.2490  1.7284 -3.6119
 7452SOL    HW233819   1.705   3.020   1.092 -1.4317  0.1634 -0.7331
 7453SOL     OW33820   1.092   2.949   4.561 -0.7591  0.0823 -0.3539
 7453SOL    HW133821   1.141   2.971   4.640 -1.1287 -0.3249 -0.0130
 7453SOL    HW233822   1.024   3.016   4.564  0.9017  1.7436 -0.1497
 7454SOL     OW33823   4.142   2.347   6.744  0.9087  0.0034  0.0757
 7454SOL    HW133824   4.143   2.443   6.741 -1.8689  0.0470  0.0767
 7454SOL    HW233825   4.229   2.342   6.704  0.3819 -1.4037 -0.8921
 7455SOL     OW33826   2.661   2.739   4.433 -0.6141 -0.0790  0.0390
 7455SOL    HW133827   2.694   2.782   4.354  2.1288  0.4638  1.4946
 7455SOL    HW233828   2.566   2.753   4.431 -0.4257  1.0784 -0.7520
 7456SOL     OW33829   4.075   0.750  17.162  0.3539 -0.2160  0.1579
 7456SOL    HW133830   3.987   0.786  17.167  0.6119  0.1329  2.2128
 7456SOL    HW233831   4.076   0.668  17.211  1.7958  1.4878  3.0390
 7457SOL     OW33832   3.527   1.992  14.545  0.1564 -0.1579  0.3695
 7457SOL    HW133833   3.519   1.942  14.626 -1.1871  0.5635  0.6794
 7457SOL    HW233834   3.441   1.975  14.508 -0.0888  0.0066  0.8650
 7458SOL     OW33835   4.159   2.476   1.694 -0.1349  0.5336  0.3055
 7458SOL    HW133836   4.218   2.517   1.631  3.3768 -2.9510  1.3490
 7458SOL    HW233837   4.073   2.491   1.654 -0.4332 -4.4105 -0.9406
 7459SOL     OW33838   0.617   0.177  14.043  0.3669  0.3609 -0.2070
 7459SOL    HW133839   0.602   0.180  14.137 -1.8816  1.9258 -0.6118
 7459SOL    HW233840   0.593   0.087  14.024  3.2765 -1.0988  3.0239
 7460SOL     OW33841   2.343   3.573  11.585 -0.6330 -0.0291  0.1957
 7460SOL    HW133842   2.342   3.668  11.595 -0.4180  0.0423 -0.5426
 7460SOL    HW233843   2.329   3.566  11.491 -1.0933  1.3936  0.1572
 7461SOL     OW33844   2.367   3.252   3.449  0.0330 -0.2379 -0.2696
 7461SOL    HW133845   2.349   3.327   3.393  0.8712  0.5355  0.4962
 7461SOL    HW233846   2.295   3.265   3.510 -0.4536  0.2393 -0.9563
 7462SOL     OW33847   4.038   4.716  14.338 -0.2822 -0.1705 -0.4341
 7462SOL    HW133848   4.116   0.031  14.374  1.0420  0.7497 -4.3864
 7462SOL    HW233849   4.050   4.631  14.378 -1.3293  0.9733  2.2870
 7463SOL     OW33850   2.871   0.843  12.881 -0.4088  0.2336  0.1651
 7463SOL    HW133851   2.956   0.833  12.838  0.1619  4.3490  0.3650
 7463SOL    HW233852   2.822   0.767  12.848 -2.4363  1.6740 -0.1145
 7464SOL     OW33853   4.484   2.113   9.435  0.1953 -0.5598  0.3506
 7464SOL    HW133854   4.501   2.130   9.343  1.5034 -2.9170  0.1535
 7464SOL    HW233855   4.571   2.131   9.471  0.2336 -0.3354  0.1458
 7465SOL     OW33856   1.102   0.731   5.818 -0.6584  0.4172 -0.3043
 7465SOL    HW133857   1.178   0.684   5.853 -1.9397 -3.3451 -2.6150
 7465SOL    HW233858   1.130   0.818   5.790  1.5752 -0.9767 -2.3911
 7466SOL     OW33859   1.811   3.569   7.322 -0.4649  0.0600  0.2797
 7466SOL    HW133860   1.799   3.494   7.264  2.0629 -0.7189  0.7802
 7466SOL    HW233861   1.720   3.600   7.314 -0.1049  0.5944 -1.6469
 7467SOL     OW33862   0.600   3.788  10.489 -0.2086 -0.7392 -0.1801
 7467SOL    HW133863   0.663   3.727  10.528  0.4861  0.2686  0.2479
 7467SOL    HW233864   0.545   3.720  10.449 -0.4243 -1.4809  1.3789
 7468SOL     OW33865   1.052   0.787  16.569  0.5379  0.0628 -0.5219
 7468SOL    HW133866   1.130   0.824  16.610  0.2683  2.5752 -2.2851
 7468SOL    HW233867   1.009   0.745  16.644 -0.7582 -1.1767 -1.9731
 7469SOL     OW33868   4.175   0.606   3.398  0.1751 -0.1078 -0.4732
 7469SOL    HW133869   4.095   0.646   3.363  0.5326  2.1332  1.2400
 7469SOL    HW233870   4.190   0.669   3.469  3.5990 -1.5695  0.0787
 7470SOL     OW33871   2.994   4.122   0.482  0.1066  0.5493 -0.0476
 7470SOL    HW133872   2.916   4.074   0.453  1.9581 -1.9026 -0.9848
 7470SOL    HW233873   2.959   4.171   0.556  1.6911  0.9867  0.4039
 7471SOL     OW33874   0.652   0.138   7.502  0.2366  0.0512 -0.5307
 7471SOL    HW133875   0.595   0.062   7.489 -1.0377  0.8363  0.5592
 7471SOL    HW233876   0.628   0.179   7.419  0.0194 -0.3612 -0.6728
 7472SOL     OW33877   3.697   3.477   6.433 -0.0165 -0.1855  0.4133
 7472SOL    HW133878   3.700   3.434   6.519  1.4440  1.6689  1.2843
 7472SOL    HW233879   3.790   3.492   6.419  0.1629 -0.3030  1.4430
 7473SOL     OW33880   0.438   4.448  12.976 -0.1667 -0.0562 -0.7528
 7473SOL    HW133881   0.473   4.397  12.903 -2.1716 -0.1732 -1.6212
 7473SOL    HW233882   0.415   4.375  13.033  1.9187 -1.1178 -1.2552
 7474SOL     OW33883   1.307   0.348  15.123  0.0081  0.1007  0.1146
 7474SOL    HW133884   1.214   0.371  15.117 -0.9467 -3.8403 -0.2753
 7474SOL    HW233885   1.309   0.265  15.171  0.9678  0.1205  0.1026
 7475SOL     OW33886   2.188   4.120   2.537 -0.1873 -0.3300 -0.0017
 7475SOL    HW133887   2.227   4.034   2.548 -0.5572 -0.3981  0.8008
 7475SOL    HW233888   2.108   4.098   2.490  0.6947 -2.7226 -0.3699
 7476SOL     OW33889   0.968   3.181   2.785  0.2022 -0.4003 -0.3116
 7476SOL    HW133890   0.905   3.136   2.842  0.7602 -1.5880 -0.6200
 7476SOL    HW233891   1.041   3.175   2.847  0.0031  0.1715 -0.0277
 7477SOL     OW33892   1.273   1.156  13.002 -0.1792  0.4979 -0.1950
 7477SOL    HW133893   1.232   1.167  13.088  0.9530 -1.4848  0.5981
 7477SOL    HW233894   1.240   1.234  12.957 -0.3962  1.8260  2.2942
 7478SOL     OW33895   0.356   1.748  15.180 -0.4839  0.2515  0.6724
 7478SOL    HW133896   0.381   1.659  15.205 -0.5125  0.2957  0.8605
 7478SOL    HW233897   0.419   1.764  15.110 -1.7787  2.1217 -0.0815
 7479SOL     OW33898   1.200   4.553   5.682  0.0810 -0.2652  0.4217
 7479SOL    HW133899   1.160   4.624   5.733  1.3304 -0.4943  1.7401
 7479SOL    HW233900   1.260   4.609   5.633 -1.4210  1.1082  0.1361
 7480SOL     OW33901   1.434   3.701   9.907  0.2814 -0.1246  0.0924
 7480SOL    HW133902   1.366   3.635   9.902  1.3628 -1.2235 -0.0442
 7480SOL    HW233903   1.469   3.693   9.818  0.7997  0.6456  0.2226
 7481SOL     OW33904   1.365   4.690  14.662  0.0755 -0.1302 -0.0496
 7481SOL    HW133905   1.346   0.024  14.732 -1.7221  0.4696 -1.0746
 7481SOL    HW233906   1.282   4.645  14.652  0.4974 -0.5619 -1.5604
 7482SOL     OW33907   2.220   3.916   2.833 -0.0344  0.0611  0.7209
 7482SOL    HW133908   2.155   3.850   2.857 -1.2763  0.7864 -0.6315
 7482SOL    HW233909   2.300   3.894   2.881  0.4546  0.3030  0.0200
 7483SOL     OW33910   3.482   2.816   2.178 -0.0264 -0.2860  0.0613
 7483SOL    HW133911   3.479   2.908   2.206  0.6209 -1.1228  2.9592
 7483SOL    HW233912   3.403   2.776   2.214  0.0590  1.4568  2.2477
 7484SOL     OW33913   4.626   3.008   2.012 -0.1581 -0.4332 -0.2576
 7484SOL    HW133914   4.554   3.064   1.985 -1.3668 -2.2685 -0.8625
 7484SOL    HW233915   4.686   3.074   2.046  0.9466 -0.6785 -1.7523
 7485SOL     OW33916   0.354   3.168   3.824 -0.1620  0.1036  0.3712
 7485SOL    HW133917   0.441   3.159   3.786  0.4191  1.7679  1.2912
 7485SOL    HW233918   0.311   3.084   3.806 -1.6291  1.2856 -1.6759
 7486SOL     OW33919   0.621   1.241  12.975  0.0663 -0.5430  0.1370
 7486SOL    HW133920   0.530   1.266  12.960 -0.1985 -0.4311  1.8389
 7486SOL    HW233921   0.627   1.165  12.917 -3.4227 -3.1720  3.2204
 7487SOL     OW33922   2.919   2.114   1.136 -0.1031 -0.1823 -0.5787
 7487SOL    HW133923   2.921   2.135   1.043 -1.0604 -0.6596 -0.7101
 7487SOL    HW233924   2.840   2.059   1.138 -1.2475  1.4526 -1.0472
 7488SOL     OW33925   0.003   4.401  15.586  0.1149  0.0410 -0.1116
 7488SOL    HW133926   4.713   4.320  15.635  0.2217  1.2684  1.9532
 7488SOL    HW233927   4.642   4.437  15.585  0.6400  1.3037 -0.7985
 7489SOL     OW33928   4.447   2.213   2.296  0.1755 -0.1003 -0.9635
 7489SOL    HW133929   4.506   2.220   2.371 -1.3595 -0.6754  0.2930
 7489SOL    HW233930   4.377   2.276   2.312 -0.3244 -0.3511 -2.1855
 7490SOL     OW33931   0.441   3.237  13.938 -0.1072 -0.0067  0.5230
 7490SOL    HW133932   0.505   3.168  13.959 -1.2101 -1.0165  0.5471
 7490SOL    HW233933   0.474   3.268  13.853  0.0895  0.1680  0.6651
 7491SOL     OW33934   1.458   0.820   7.589 -0.2844  0.1883 -0.0371
 7491SOL    HW133935   1.430   0.818   7.497  2.8244 -3.3380 -0.9364
 7491SOL    HW233936   1.408   0.897   7.614 -1.1531  0.7856 -3.6277
 7492SOL     OW33937   3.002   0.952   3.445 -0.1992  0.1963  0.2432
 7492SOL    HW133938   3.011   0.887   3.515 -1.8634  1.2306  1.3909
 7492SOL    HW233939   2.957   0.898   3.380  0.8500 -0.9519  0.4532
 7493SOL     OW33940   3.395   2.353   2.771 -0.0866 -0.4208 -0.2524
 7493SOL    HW133941   3.306   2.335   2.743  0.0311  1.5205 -1.8930
 7493SOL    HW233942   3.387   2.396   2.855 -2.0811 -0.2293 -0.5459
 7494SOL     OW33943   2.968   4.057   3.141  0.1172  0.5300 -0.0020
 7494SOL    HW133944   2.968   4.143   3.099  1.6111  0.4312 -0.2167
 7494SOL    HW233945   2.906   4.008   3.088  1.7618 -1.3111 -0.2466
 7495SOL     OW33946   2.171   4.697   5.342 -0.5881  0.0107 -0.2916
 7495SOL    HW133947   2.078   4.678   5.346 -0.9036  1.9403  1.3791
 7495SOL    HW233948   2.216   4.624   5.298  2.5071  1.8761 -0.2632
 7496SOL     OW33949   2.270   0.225   5.342 -0.5886  0.5804 -0.4875
 7496SOL    HW133950   2.230   0.138   5.347  3.5480 -1.1684  1.9595
 7496SOL    HW233951   2.257   0.254   5.433  0.8526 -0.1691 -0.0329
 7497SOL     OW33952   2.567   1.396  14.089  0.0194  0.0740 -0.5338
 7497SOL    HW133953   2.580   1.349  14.171  2.8959 -0.2975 -1.1992
 7497SOL    HW233954   2.473   1.395  14.073 -0.3220  1.6394  1.3488
 7498SOL     OW33955   3.614   4.708   3.902 -0.0792 -0.1646 -0.0227
 7498SOL    HW133956   3.644   0.071   3.889 -2.4131  0.4631 -0.9308
 7498SOL    HW233957   3.554   4.701   3.828  0.7200 -1.1701 -0.5839
 7499SOL     OW33958   2.630   1.695   6.741  0.0753 -0.0135  0.2803
 7499SOL    HW133959   2.661   1.614   6.701  2.5536  1.0789 -0.0254
 7499SOL    HW233960   2.638   1.672   6.833 -0.2050  0.5582  0.4487
 7500SOL     OW33961   0.175   3.959  10.837  0.2164  0.3976  1.1047
 7500SOL    HW133962   0.172   3.950  10.741 -0.5099  2.7567  0.9138
 7500SOL    HW233963   0.124   4.035  10.862  2.0000  2.1561 -0.5603
 7501SOL     OW33964   4.614   1.566  15.414  0.6086  0.5796 -0.3585
 7501SOL    HW133965   4.591   1.647  15.461 -0.7568 -0.5395  0.9027
 7501SOL    HW233966   4.631   1.602  15.327 -2.6144  0.0044 -1.2274
 7502SOL     OW33967   1.060   2.008   4.747  0.0346 -0.4994  0.5449
 7502SOL    HW133968   1.060   2.100   4.720  1.2745 -0.9839 -1.0908
 7502SOL    HW233969   1.008   1.967   4.678 -0.5898  0.5361  0.3926
 7503SOL     OW33970   3.912   4.104   8.022 -0.3007 -0.2368  0.2603
 7503SOL    HW133971   3.994   4.152   8.031 -0.3169 -0.1568 -0.0531
 7503SOL    HW233972   3.853   4.176   8.000  0.8100 -0.0132 -1.9204
 7504SOL     OW33973   4.060   4.440   7.473  0.0354 -0.1766 -0.1882
 7504SOL    HW133974   4.066   4.526   7.432 -2.2566 -0.6087 -1.4128
 7504SOL    HW233975   4.143   4.405   7.441 -0.2381 -0.0196 -1.0684
 7505SOL     OW33976   4.045   3.517   2.752 -0.4234  0.6306 -0.0547
 7505SOL    HW133977   4.098   3.584   2.795 -1.3778  2.9054 -2.4147
 7505SOL    HW233978   4.032   3.455   2.823 -2.4894  0.5843 -0.4867
 7506SOL     OW33979   1.561   2.187   6.703  0.2492 -0.0250  0.1957
 7506SOL    HW133980   1.621   2.133   6.651 -1.0103  0.1799 -1.4859
 7506SOL    HW233981   1.553   2.260   6.642 -1.7067 -0.0617  0.4090
 7507SOL     OW33982   3.073   3.030   3.654  0.2641  0.1663  0.7621
 7507SOL    HW133983   2.982   3.058   3.643  0.3932 -0.2964 -1.4255
 7507SOL    HW233984   3.080   3.026   3.750 -0.7504  2.4234  0.9395
 7508SOL     OW33985   4.136   0.255  15.914 -0.3890  0.7627  0.8192
 7508SOL    HW133986   4.050   0.258  15.956 -1.0674 -0.3957 -0.5064
 7508SOL    HW233987   4.136   0.339  15.868 -0.6817  0.6298  0.5744
 7509SOL     OW33988   3.059   4.626   6.861  0.1130  0.4808 -0.2416
 7509SOL    HW133989   2.987   4.591   6.914  0.4853  1.7495  1.0761
 7509SOL    HW233990   3.133   4.568   6.878 -3.2973 -3.5027  1.0632
 7510SOL     OW33991   1.135   3.788  16.969  0.3949 -0.1462 -0.0681
 7510SOL    HW133992   1.196   3.861  16.981 -0.2087  0.3338  0.0919
 7510SOL    HW233993   1.105   3.769  17.058  0.0804 -1.8812 -0.5528
 7511SOL     OW33994   3.161   0.286   5.165 -0.3613 -0.8487 -0.5760
 7511SOL    HW133995   3.156   0.197   5.131 -1.9221 -0.5146 -1.2178
 7511SOL    HW233996   3.251   0.286   5.198 -0.3214  1.3697 -0.6389
 7512SOL     OW33997   3.946   0.896   6.162  0.3037 -0.0266  0.3182
 7512SOL    HW133998   3.906   0.978   6.194 -1.9612 -0.7615 -0.6708
 7512SOL    HW233999   3.915   0.829   6.223 -2.2645  0.6440 -0.2738
 7513SOL     OW34000   0.935   1.922   1.904 -0.3381 -0.2832  0.4371
 7513SOL    HW134001   0.869   1.879   1.849 -1.5603  0.5134  1.2668
 7513SOL    HW234002   1.014   1.937   1.853 -0.9080  1.6430  0.1164
 7514SOL     OW34003   3.179   0.037   7.740  0.4252 -0.0004 -0.3347
 7514SOL    HW134004   3.241   4.708   7.695 -1.3174 -0.1273 -2.6113
 7514SOL    HW234005   3.215   0.032   7.828  0.3613  0.0936 -0.3025
 7515SOL     OW34006   3.284   1.072   1.043  0.0621  0.2627  0.0173
 7515SOL    HW134007   3.334   1.105   0.969 -2.8024 -0.6076 -2.3179
 7515SOL    HW234008   3.298   0.979   1.026 -1.4199  0.7712 -4.0256
 7516SOL     OW34009   2.962   0.216   2.343 -0.0784 -0.2109  0.4405
 7516SOL    HW134010   3.050   0.185   2.363 -0.9278 -1.0030  2.8961
 7516SOL    HW234011   2.949   0.154   2.272 -3.5173  1.1660 -0.1323
 7517SOL     OW34012   1.266   2.514  10.810 -0.0542  0.2406 -0.2033
 7517SOL    HW134013   1.262   2.442  10.747  1.1468  0.3580 -0.3967
 7517SOL    HW234014   1.260   2.474  10.897  1.3211  0.4921 -0.0024
 7518SOL     OW34015   2.742   1.943   9.018 -0.3797  0.3998  0.2100
 7518SOL    HW134016   2.693   1.862   9.034 -0.1799  0.1079 -0.6872
 7518SOL    HW234017   2.831   1.917   9.040 -0.2167  0.2470 -0.6297
 7519SOL     OW34018   2.289   1.375   7.336 -0.4943  0.1481 -0.1146
 7519SOL    HW134019   2.305   1.412   7.249  2.8077 -2.2174 -0.4695
 7519SOL    HW234020   2.194   1.368   7.324 -0.3387 -3.2585  0.8907
 7520SOL     OW34021   1.780   4.570   8.418  0.0400  0.5390 -0.0909
 7520SOL    HW134022   1.757   4.517   8.341  0.0771 -1.2298  1.0966
 7520SOL    HW234023   1.714   4.534   8.479  0.3695  2.8529  1.6173
 7521SOL     OW34024   3.611   1.302  16.199 -0.8234  0.1501  0.7912
 7521SOL    HW134025   3.540   1.333  16.255 -1.1934  0.8295 -0.0424
 7521SOL    HW234026   3.676   1.370  16.212  0.6683 -0.9590 -0.8465
 7522SOL     OW34027   2.927   4.438   4.757  0.1326  0.2138  0.2376
 7522SOL    HW134028   3.002   4.472   4.709 -1.3435  0.1252 -2.1370
 7522SOL    HW234029   2.860   4.505   4.745 -0.8634 -0.7059  0.6868
 7523SOL     OW34030   0.290   4.620  16.977 -0.0365 -0.3308  0.4094
 7523SOL    HW134031   0.228   4.683  17.014 -0.8035  0.6332 -2.4824
 7523SOL    HW234032   0.241   4.592  16.899 -2.3302  1.3440  1.2470
 7524SOL     OW34033   1.976   2.243   5.935 -0.2250 -0.2171  0.7291
 7524SOL    HW134034   1.991   2.206   5.848  0.7411 -2.1923  1.7361
 7524SOL    HW234035   1.886   2.225   5.963 -0.6015 -4.0077 -2.9503
 7525SOL     OW34036   3.065   3.672   0.734 -0.1602  0.0840 -0.4057
 7525SOL    HW134037   3.080   3.665   0.640 -1.4217 -0.5966 -0.5571
 7525SOL    HW234038   3.030   3.760   0.747  1.7071  0.4525  2.1725
 7526SOL     OW34039   1.956   3.581   8.077  0.1978 -0.1167  0.2758
 7526SOL    HW134040   1.887   3.522   8.104  1.4507 -1.8974 -0.4316
 7526SOL    HW234041   2.030   3.551   8.131  0.2919 -0.8237 -0.2513
 7527SOL     OW34042   4.283   0.004   5.928 -0.0918  0.1597  0.3269
 7527SOL    HW134043   4.262   0.094   5.951 -0.8284  0.0719 -0.0168
 7527SOL    HW234044   4.209   4.694   5.975  0.4478 -1.0226  0.2464
 7528SOL     OW34045   4.301   3.517   5.187  0.9967 -0.1905 -0.3350
 7528SOL    HW134046   4.231   3.518   5.121 -0.3074  3.3027  1.1018
 7528SOL    HW234047   4.244   3.540   5.260  0.6739  0.9636 -0.9423
 7529SOL     OW34048   1.746   3.492   7.820  0.1642  0.2591 -0.7140
 7529SOL    HW134049   1.660   3.527   7.798 -0.9571 -2.1700 -0.1030
 7529SOL    HW234050   1.748   3.507   7.915  2.2222 -0.3273 -0.6489
 7530SOL     OW34051   2.258   1.737   3.683 -0.1890  0.0911  0.6248
 7530SOL    HW134052   2.231   1.708   3.595  3.0920 -1.4424  0.1319
 7530SOL    HW234053   2.170   1.751   3.717 -0.3037  0.4707  0.1805
 7531SOL     OW34054   2.090   0.581   6.816 -0.0739 -1.0912  0.2007
 7531SOL    HW134055   2.126   0.616   6.735 -1.0441  0.1156  0.2934
 7531SOL    HW234056   2.164   0.558   6.872 -0.6641 -0.9966  1.0151
 7532SOL     OW34057   1.597   1.127   4.259  0.0997 -0.4700  0.3419
 7532SOL    HW134058   1.551   1.128   4.343  1.6947 -1.4420  1.2339
 7532SOL    HW234059   1.674   1.182   4.277 -1.1296  0.9987  1.1494
 7533SOL     OW34060   2.296   0.307   4.154  0.1281  1.0495 -0.2861
 7533SOL    HW134061   2.274   0.334   4.065  0.4199 -1.6843 -1.2063
 7533SOL    HW234062   2.238   0.359   4.209 -0.0654 -0.8469  1.3100
 7534SOL     OW34063   3.728   2.822   0.117  0.0225  0.5361 -0.3467
 7534SOL    HW134064   3.774   2.760   0.060  1.0309  2.4498 -1.5883
 7534SOL    HW234065   3.778   2.808   0.198 -0.8230  0.1054  0.0981
 7535SOL     OW34066   4.578   2.785   0.970 -0.2298 -0.0008 -0.4648
 7535SOL    HW134067   4.540   2.698   0.968 -0.5456  0.0891  1.1333
 7535SOL    HW234068   4.504   2.844   0.987  0.1367  0.7049 -1.3067
 7536SOL     OW34069   0.092   4.243  13.724  0.3113 -0.3415  0.0238
 7536SOL    HW134070   0.056   4.154  13.727  1.3718 -0.7618  0.1595
 7536SOL    HW234071   0.117   4.257  13.816 -0.6777  0.8913  0.1013
 7537SOL     OW34072   4.159   2.227   5.109  0.6739 -0.3287  0.5644
 7537SOL    HW134073   4.100   2.206   5.036  1.0035  1.6188 -0.2427
 7537SOL    HW234074   4.233   2.169   5.090  1.8976  1.7269 -0.9677
 7538SOL     OW34075   2.749   3.457  11.285 -0.2360 -0.8249  0.2315
 7538SOL    HW134076   2.755   3.372  11.327  1.6051 -1.3441 -1.0619
 7538SOL    HW234077   2.727   3.525  11.348 -0.6698 -1.4670  0.7667
 7539SOL     OW34078   2.107   1.057  13.699  0.1237  0.2390  0.0004
 7539SOL    HW134079   2.149   1.135  13.662  1.5712 -0.0339  1.0856
 7539SOL    HW234080   2.028   1.059  13.645  0.0314 -0.2286  0.1238
 7540SOL     OW34081   3.535   0.393   4.096  0.4051 -0.5187 -0.0672
 7540SOL    HW134082   3.515   0.304   4.125  0.9772 -0.6459 -0.0478
 7540SOL    HW234083   3.630   0.392   4.085  0.3657  0.0588 -0.4670
 7541SOL     OW34084   1.397   0.787   6.660  0.0424  0.5296  0.7542
 7541SOL    HW134085   1.466   0.723   6.677 -0.5193 -0.9094 -2.2691
 7541SOL    HW234086   1.404   0.839   6.740 -0.4300  0.2470  0.9753
 7542SOL     OW34087   2.380   3.553   9.889 -0.6913 -0.1554  0.4753
 7542SOL    HW134088   2.287   3.535   9.900 -0.2838 -1.0687  2.5434
 7542SOL    HW234089   2.397   3.618   9.958 -1.8053  0.3407  0.2770
 7543SOL     OW34090   3.990   1.061   8.802  0.3735 -0.0100  0.0628
 7543SOL    HW134091   3.983   0.966   8.794  1.2697 -0.0736  0.0907
 7543SOL    HW234092   3.956   1.079   8.890 -0.8002  0.3634 -0.4612
 7544SOL     OW34093   1.144   0.772   4.208  0.1166  0.6876  0.1891
 7544SOL    HW134094   1.128   0.861   4.176 -2.1770  0.0349 -0.5268
 7544SOL    HW234095   1.102   0.772   4.294 -0.1752  0.7604  0.0492
 7545SOL     OW34096   1.623   0.966  10.510  0.1542  0.5236 -0.1768
 7545SOL    HW134097   1.625   1.045  10.455 -0.7566  0.5737 -0.1414
 7545SOL    HW234098   1.604   1.000  10.597  1.7920  1.3023 -0.1281
 7546SOL     OW34099   0.119   1.922   3.511 -0.5406 -0.4599  0.3313
 7546SOL    HW134100   0.107   1.844   3.457 -2.3561  2.2031 -3.1522
 7546SOL    HW234101   0.197   1.963   3.475 -0.9982  1.2329  1.2290
 7547SOL     OW34102   1.092   2.115  16.253  0.6642 -0.2480 -0.0679
 7547SOL    HW134103   1.023   2.173  16.221 -0.4507 -2.4067 -1.6058
 7547SOL    HW234104   1.104   2.053  16.181 -0.9374 -1.9056  1.1022
 7548SOL     OW34105   1.490   3.142   4.099 -0.2211  0.6503  0.4142
 7548SOL    HW134106   1.524   3.085   4.168  0.8832  0.4065 -0.3363
 7548SOL    HW234107   1.436   3.206   4.145 -2.8420  0.4617 -2.3229
 7549SOL     OW34108   1.115   0.543   7.449  0.4227  0.5130  0.1832
 7549SOL    HW134109   1.112   0.638   7.441  0.2528  0.3092 -2.1799
 7549SOL    HW234110   1.063   0.518   7.372 -0.0832  0.7329  0.4526
 7550SOL     OW34111   0.720   4.358   2.626  0.5102  0.9374  0.6783
 7550SOL    HW134112   0.684   4.382   2.541 -0.2154  0.7728  0.9404
 7550SOL    HW234113   0.775   4.283   2.604 -1.3325  0.0590 -0.8365
 7551SOL     OW34114   2.898   1.112  12.955 -0.7322 -0.2505  0.3023
 7551SOL    HW134115   2.909   1.135  12.862  0.8363  2.2671  1.1125
 7551SOL    HW234116   2.883   1.017  12.961  1.6160 -0.5505  1.4261
 7552SOL     OW34117   1.213   3.346   3.447  0.3265 -0.0195  0.2584
 7552SOL    HW134118   1.236   3.400   3.523  0.7006 -0.4949  0.4844
 7552SOL    HW234119   1.260   3.263   3.455 -0.5002 -0.5193 -0.0881
 7553SOL     OW34120   4.617   3.631  11.456  0.0117 -0.0584  0.3508
 7553SOL    HW134121   4.557   3.601  11.524  1.7386 -1.1419  1.4021
 7553SOL    HW234122   4.704   3.603  11.486  0.7424  1.8016  0.0117
 7554SOL     OW34123   1.762   0.549   6.902  0.1011 -0.1664  0.4463
 7554SOL    HW134124   1.856   0.569   6.903 -0.2235  1.4618 -2.6364
 7554SOL    HW234125   1.754   0.481   6.969  1.8151 -2.1337 -1.3715
 7555SOL     OW34126   2.512   0.051   4.076  0.1981  1.0863  0.4096
 7555SOL    HW134127   2.556   0.080   3.995  0.3408  0.4634  0.2658
 7555SOL    HW234128   2.422   0.032   4.048  0.4641  3.0891 -1.7933
 7556SOL     OW34129   0.636   0.113   5.587  0.5498  0.3702  0.1352
 7556SOL    HW134130   0.670   0.026   5.609 -0.1258  0.0467 -0.0890
 7556SOL    HW234131   0.711   0.169   5.606 -0.4977  1.6812  0.4432
 7557SOL     OW34132   0.330   1.506   7.581  0.2701 -0.6360  0.1107
 7557SOL    HW134133   0.329   1.428   7.637  3.1093  0.4859  1.6836
 7557SOL    HW234134   0.254   1.558   7.607 -0.3447 -2.0412  1.1517
 7558SOL     OW34135   2.123   2.694   8.499 -0.6565 -0.1682 -0.4555
 7558SOL    HW134136   2.029   2.707   8.514 -0.6904 -2.6894  1.6428
 7558SOL    HW234137   2.109   2.684   8.405 -0.0886 -1.4084 -0.4063
 7559SOL     OW34138   1.507   0.100   6.836  0.3191  0.1884  0.0208
 7559SOL    HW134139   1.487   0.086   6.743  0.9151  0.7460 -0.1986
 7559SOL    HW234140   1.494   0.195   6.834  0.5663  0.2319  0.4594
 7560SOL     OW34141   2.937   0.679   3.119 -0.1855  0.2952 -0.3757
 7560SOL    HW134142   2.939   0.722   3.205 -1.8434  0.8306 -0.6034
 7560SOL    HW234143   2.884   0.603   3.142 -0.2137  0.0171 -1.3809
 7561SOL     OW34144   3.496   3.975   8.900  0.2868  0.6147 -0.1601
 7561SOL    HW134145   3.494   4.043   8.832  1.0398 -1.1589 -1.9828
 7561SOL    HW234146   3.572   4.001   8.951  1.3723 -0.8207 -1.0287
 7562SOL     OW34147   1.887   0.514  10.326 -0.4233  0.1338 -0.7793
 7562SOL    HW134148   1.898   0.574  10.400  1.6945  0.4063 -1.3045
 7562SOL    HW234149   1.976   0.525  10.293 -0.5488  1.0100 -0.8498
 7563SOL     OW34150   1.997   2.386   1.218  0.1000  0.1870  0.1093
 7563SOL    HW134151   2.058   2.315   1.239  0.9382  1.1960  1.0727
 7563SOL    HW234152   1.909   2.350   1.232 -0.3474  1.2295 -0.0361
 7564SOL     OW34153   1.227   1.297   4.351 -0.5552 -0.4032  0.4181
 7564SOL    HW134154   1.209   1.342   4.433  0.3601  1.2403 -0.2781
 7564SOL    HW234155   1.320   1.306   4.333 -0.8240 -0.9505 -1.2878
 7565SOL     OW34156   0.960   4.021   0.522  0.8331  0.0949 -0.7419
 7565SOL    HW134157   1.021   4.072   0.575 -1.4304  2.2414 -0.2536
 7565SOL    HW234158   0.880   4.064   0.552  0.4933 -0.7972 -0.3346
 7566SOL     OW34159   0.620   2.313   3.561 -0.3909  0.6705 -0.1544
 7566SOL    HW134160   0.597   2.369   3.635  0.3156 -0.3045  0.8075
 7566SOL    HW234161   0.543   2.256   3.561 -0.3451  0.6038  0.3302
 7567SOL     OW34162   3.796   2.244   3.366 -0.4165 -0.5119 -0.2827
 7567SOL    HW134163   3.822   2.157   3.396 -2.4690 -0.5407  1.4192
 7567SOL    HW234164   3.819   2.225   3.275  0.4432  2.3596 -0.6628
 7568SOL     OW34165   4.644   2.808   1.836  0.0520  0.3415 -0.2302
 7568SOL    HW134166   0.006   2.792   1.865 -0.3581  1.2873  1.5964
 7568SOL    HW234167   4.626   2.880   1.898  0.6206  1.0353 -0.8727
 7569SOL     OW34168   0.380   2.164  11.248  0.2662  0.2119 -0.0489
 7569SOL    HW134169   0.334   2.191  11.328  1.3779  2.8873 -0.3187
 7569SOL    HW234170   0.334   2.083  11.226 -1.0089  0.6067  1.1591
 7570SOL     OW34171   3.784   0.812   9.008 -0.4612  0.2459  0.0449
 7570SOL    HW134172   3.801   0.897   9.048  1.6732 -0.9212  1.6306
 7570SOL    HW234173   3.734   0.840   8.931  0.4767 -0.0512 -0.6813
 7571SOL     OW34174   0.069   4.282   9.751  0.1456  0.0824  0.3626
 7571SOL    HW134175   4.708   4.277   9.716  0.5322  1.2199 -0.7526
 7571SOL    HW234176   0.049   4.371   9.779 -1.5421  0.1900 -1.2061
 7572SOL     OW34177   0.720   0.472  16.277  0.1906  0.0052 -0.0960
 7572SOL    HW134178   0.684   0.556  16.303 -1.2516 -0.8020  0.4718
 7572SOL    HW234179   0.804   0.463  16.322 -0.2568 -0.8502  0.5538
 7573SOL     OW34180   4.043   4.024   9.975  0.2072  0.2889  0.2513
 7573SOL    HW134181   4.088   3.940   9.986  1.2784  0.9795  1.1252
 7573SOL    HW234182   4.057   4.033   9.881 -0.3420 -0.8190  0.0659
 7574SOL     OW34183   0.193   1.802   7.355  0.5431 -0.1082 -0.4395
 7574SOL    HW134184   0.281   1.798   7.316 -0.3174  0.7785 -2.5058
 7574SOL    HW234185   0.163   1.722   7.312  1.6163  0.0249 -1.4480
 7575SOL     OW34186   3.025   3.119   6.008  0.3627 -0.2622 -0.3374
 7575SOL    HW134187   3.005   3.208   5.977  1.3038 -0.7690 -2.3954
 7575SOL    HW234188   3.053   3.130   6.099  3.1308  1.4258 -1.3783
 7576SOL     OW34189   0.241   1.508   6.043 -0.5538 -1.0186  0.2312
 7576SOL    HW134190   0.176   1.564   6.000  0.6214 -0.4868 -0.8653
 7576SOL    HW234191   0.246   1.434   5.983 -0.3320 -0.4316 -0.4813
 7577SOL     OW34192   1.671   1.299   5.433  0.1645  0.3310 -0.2990
 7577SOL    HW134193   1.616   1.227   5.403 -1.9504  1.4705  0.8872
 7577SOL    HW234194   1.691   1.275   5.523 -0.2095 -0.4825 -0.4326
 7578SOL     OW34195   2.980   0.454   5.307 -0.2634  0.3254 -0.4229
 7578SOL    HW134196   2.995   0.431   5.399  2.0719 -0.2501 -0.9343
 7578SOL    HW234197   3.050   0.404   5.263 -1.2854 -0.2056 -1.4392
 7579SOL     OW34198   2.943   1.076   1.522 -0.3579  0.1673  0.4982
 7579SOL    HW134199   2.972   1.165   1.542  1.0212 -0.5938  1.9621
 7579SOL    HW234200   2.940   1.071   1.427  1.9841  1.3299  0.3628
 7580SOL     OW34201   3.896   4.390  17.178 -0.5853  0.1710  0.0985
 7580SOL    HW134202   3.893   4.450  17.253  1.6208 -1.6746  1.6673
 7580SOL    HW234203   3.843   4.445  17.120 -0.1456 -0.9476 -1.3822
 7581SOL     OW34204   1.001   0.035   7.001  0.2801 -0.2672  0.1995
 7581SOL    HW134205   0.957   4.724   7.076 -1.4380 -0.8748 -1.1229
 7581SOL    HW234206   1.002   0.129   7.015 -1.1451 -0.2163 -0.0429
 7582SOL     OW34207   0.439   3.775   1.235 -0.0691 -0.4544 -0.2840
 7582SOL    HW134208   0.533   3.758   1.241  0.1894  0.6204 -1.4096
 7582SOL    HW234209   0.454   3.869   1.223  0.1801 -0.7135 -1.9305
 7583SOL     OW34210   1.708   4.487   6.652  0.2563 -0.2585  0.1965
 7583SOL    HW134211   1.732   4.576   6.680 -0.9841  0.5076 -1.1534
 7583SOL    HW234212   1.659   4.449   6.726 -2.0584 -0.9797 -1.6951
 7584SOL     OW34213   2.541   1.564  16.914  0.0121 -0.0756  0.3611
 7584SOL    HW134214   2.587   1.603  16.988  0.3852  0.2620 -0.0418
 7584SOL    HW234215   2.480   1.506  16.960  0.0567 -1.1378 -0.9094
 7585SOL     OW34216   1.582   3.602   9.065 -0.2145  0.4982  0.5057
 7585SOL    HW134217   1.608   3.640   8.981  0.3155 -1.0421 -0.0358
 7585SOL    HW234218   1.592   3.508   9.047  0.4481  0.5949  0.3421
 7586SOL     OW34219   2.231   4.613   7.903  0.9315 -0.3683  0.6033
 7586SOL    HW134220   2.227   4.634   7.996  0.9261  1.1013  0.2714
 7586SOL    HW234221   2.230   4.517   7.911 -0.0328 -0.3134  1.0841
 7587SOL     OW34222   2.406   0.775   7.557 -0.5373 -0.4310  0.2054
 7587SOL    HW134223   2.423   0.820   7.640 -0.4545 -0.8792  0.4315
 7587SOL    HW234224   2.490   0.780   7.511  0.1281  0.3336  1.4962
 7588SOL     OW34225   3.842   3.243   5.266 -0.0629  0.0737  0.9278
 7588SOL    HW134226   3.846   3.181   5.194  0.8837  1.6133 -0.3249
 7588SOL    HW234227   3.936   3.258   5.278 -0.2094  0.0947  2.1122
 7589SOL     OW34228   4.250   0.327   6.579 -0.2690 -0.3219  0.1623
 7589SOL    HW134229   4.170   0.320   6.528 -1.3137 -0.3924  1.8247
 7589SOL    HW234230   4.223   0.296   6.665 -1.5674 -0.1557 -0.1921
 7590SOL     OW34231   2.088   3.152  10.700  0.5136  0.0306 -0.1905
 7590SOL    HW134232   2.005   3.130  10.742  0.9667 -0.9060  0.2069
 7590SOL    HW234233   2.121   3.072  10.661 -0.5023  0.6207 -2.2215
 7591SOL     OW34234   1.567   0.568   0.424  0.3975  0.1842  0.5064
 7591SOL    HW134235   1.499   0.599   0.484 -2.5299 -3.4640 -0.9349
 7591SOL    HW234236   1.578   0.477   0.451 -0.0146  0.1768  0.6449
 7592SOL     OW34237   1.420   2.605   4.646  0.4424  0.0353 -0.1666
 7592SOL    HW134238   1.380   2.545   4.710  1.0100 -0.2543 -0.0896
 7592SOL    HW234239   1.338   2.655   4.638  0.0998 -0.4169  0.5127
 7593SOL     OW34240   4.426   3.500   0.505  0.3409  0.0192  0.4114
 7593SOL    HW134241   4.349   3.450   0.532 -0.1223  0.8432  0.6220
 7593SOL    HW234242   4.427   3.480   0.411  3.0474 -0.8357  0.6143
 7594SOL     OW34243   2.833   1.207   6.525 -0.0611  0.8720 -0.4119
 7594SOL    HW134244   2.823   1.204   6.430 -1.5775  0.4848 -0.2400
 7594SOL    HW234245   2.744   1.210   6.558  0.6437  1.4725  1.4719
 7595SOL     OW34246   0.886   0.599   2.653 -1.2022 -0.1863 -0.1641
 7595SOL    HW134247   0.935   0.545   2.591 -0.3984  2.0415 -1.4457
 7595SOL    HW234248   0.957   0.662   2.669 -0.3932 -1.3212  0.7722
 7596SOL     OW34249   2.653   4.550   8.936 -0.8857  0.6422 -0.2933
 7596SOL    HW134250   2.697   4.525   9.017  1.4354  0.2369 -1.6750
 7596SOL    HW234251   2.570   4.593   8.960 -0.2025  1.0515  1.3227
 7597SOL     OW34252   2.480   4.049   8.194  0.0740  0.0415  0.1412
 7597SOL    HW134253   2.508   4.092   8.114 -0.6334  1.6054  0.7299
 7597SOL    HW234254   2.433   4.119   8.239  0.3024  0.5591 -0.4318
 7598SOL     OW34255   2.263   1.218   9.225 -0.3378  0.1184 -0.1864
 7598SOL    HW134256   2.220   1.134   9.237  1.1785 -0.3883  1.6118
 7598SOL    HW234257   2.328   1.220   9.296  0.7478  0.1838 -1.1769
 7599SOL     OW34258   2.531   4.194  10.947  0.1976 -0.2520 -0.2973
 7599SOL    HW134259   2.577   4.113  10.969 -1.3644 -1.0009  0.2031
 7599SOL    HW234260   2.592   4.255  10.988  0.3744  0.9138 -2.2841
 7600SOL     OW34261   0.645   0.990   2.166  0.3146 -0.3928  0.1944
 7600SOL    HW134262   0.700   0.967   2.240 -0.0845 -0.1862  0.5577
 7600SOL    HW234263   0.592   1.059   2.206 -1.1468 -0.5599 -1.4255
 7601SOL     OW34264   3.321   0.005  14.155  0.0499  0.3726  0.2311
 7601SOL    HW134265   3.410   4.718  14.125 -0.0726  1.0617 -0.4735
 7601SOL    HW234266   3.271   0.027  14.076 -0.0006  1.3132  0.5163
 7602SOL     OW34267   0.066   1.482   0.189  0.9906  0.1944  0.2439
 7602SOL    HW134268   0.021   1.549   0.136 -0.4288 -0.3266  0.7840
 7602SOL    HW234269   0.144   1.526   0.222 -0.1252  2.9385 -0.7232
 7603SOL     OW34270   1.114   4.002  13.518 -0.1347  0.4618 -0.1174
 7603SOL    HW134271   1.080   3.914  13.502 -0.7009  0.8461 -1.0563
 7603SOL    HW234272   1.201   3.993  13.479  0.6135 -1.6715  2.0397
 7604SOL     OW34273   0.702   0.542   1.611 -0.0629 -0.1606  0.0202
 7604SOL    HW134274   0.681   0.535   1.704  0.8871  2.2608  0.4226
 7604SOL    HW234275   0.686   0.451   1.587 -1.5866  0.0797  0.1324
 7605SOL     OW34276   2.870   2.212  17.019 -0.2241 -0.0169  0.1737
 7605SOL    HW134277   2.832   2.300  17.016  2.3843  1.1282  1.1556
 7605SOL    HW234278   2.802   2.156  16.981 -0.6650  0.3987  0.3459
 7606SOL     OW34279   3.826   0.605   8.420 -0.2938 -0.0217  0.0520
 7606SOL    HW134280   3.883   0.556   8.361  2.2526  1.7126  1.0930
 7606SOL    HW234281   3.870   0.577   8.501  0.4708  1.9229  0.2893
 7607SOL     OW34282   3.105   3.474   5.695  0.0284  0.2422 -0.5701
 7607SOL    HW134283   3.133   3.436   5.612  2.7499  3.6399 -1.2399
 7607SOL    HW234284   3.025   3.524   5.678  0.0081  0.6851  0.8005
 7608SOL     OW34285   1.446   2.247  16.820 -0.2027  0.3755  0.5273
 7608SOL    HW134286   1.502   2.289  16.755  0.1963  0.7333  1.0984
 7608SOL    HW234287   1.515   2.216  16.879 -0.1660  0.4910  0.5439
 7609SOL     OW34288   3.291   4.068   7.318 -0.3446  0.1245  1.1325
 7609SOL    HW134289   3.363   4.044   7.376  1.6560  0.3927 -1.2670
 7609SOL    HW234290   3.327   4.139   7.266 -2.6755 -1.4712 -2.6523
 7610SOL     OW34291   3.513   1.004   2.850 -0.0676 -0.5027 -0.4968
 7610SOL    HW134292   3.544   0.956   2.773  3.6685 -0.1067  0.7436
 7610SOL    HW234293   3.471   1.080   2.810  1.0234 -0.2197 -1.1061
 7611SOL     OW34294   0.772   3.571  13.387 -0.0525  0.2974  0.3616
 7611SOL    HW134295   0.795   3.576  13.294 -0.7164  0.2193  0.1932
 7611SOL    HW234296   0.677   3.578  13.387 -0.2611 -2.7261 -2.1655
 7612SOL     OW34297   1.336   2.557   6.559  0.8812 -0.1032 -0.1835
 7612SOL    HW134298   1.371   2.498   6.625 -0.1066  0.8092  1.1494
 7612SOL    HW234299   1.253   2.510   6.548  1.0006 -0.5997  1.0658
 7613SOL     OW34300   3.288   1.751   6.228  0.3023  0.4889  0.0944
 7613SOL    HW134301   3.304   1.658   6.240 -2.2157 -0.5610 -4.7741
 7613SOL    HW234302   3.204   1.745   6.183  1.3209 -0.9534 -1.6044
 7614SOL     OW34303   1.574   1.397   2.501  0.1788 -0.3227 -0.3117
 7614SOL    HW134304   1.506   1.462   2.519 -0.7189 -0.9513 -1.3751
 7614SOL    HW234305   1.517   1.329   2.466  1.2084 -1.9468  1.1535
 7615SOL     OW34306   2.244   1.043   7.759  0.0817  0.5207 -0.3118
 7615SOL    HW134307   2.235   1.106   7.831 -1.0131  1.2407 -1.0718
 7615SOL    HW234308   2.251   0.964   7.812  0.3462 -0.0699 -1.2300
 7616SOL     OW34309   3.820   1.342   3.424  0.1160 -0.3904  1.2820
 7616SOL    HW134310   3.797   1.418   3.370  0.8726 -1.7223 -0.9314
 7616SOL    HW234311   3.733   1.340   3.465 -0.8715  2.1906 -0.6393
 7617SOL     OW34312   3.063   0.178   9.952 -0.5695 -0.3907 -0.5451
 7617SOL    HW134313   3.049   0.094   9.996 -2.2117  1.0999  1.7320
 7617SOL    HW234314   3.050   0.243  10.021  3.4557 -0.1712  0.0068
 7618SOL     OW34315   4.607   4.035   3.658  0.5760  0.0317  0.5121
 7618SOL    HW134316   4.632   4.090   3.583 -3.3302 -1.8071 -2.1587
 7618SOL    HW234317   4.539   3.977   3.623 -0.8052  1.6170  0.5455
 7619SOL     OW34318   0.780   0.662   4.234 -0.1789 -0.0999 -0.6477
 7619SOL    HW134319   0.758   0.611   4.156  0.9999  2.0686 -2.3988
 7619SOL    HW234320   0.780   0.752   4.203  1.3634  0.5104  1.0894
 7620SOL     OW34321   2.190   1.113   2.874  0.2715  0.2272 -0.2612
 7620SOL    HW134322   2.264   1.122   2.934  1.6073 -1.4094 -1.6473
 7620SOL    HW234323   2.239   1.129   2.794  0.1066  2.5177  0.1065
 7621SOL     OW34324   1.129   3.254   7.667 -0.1415  0.2502 -0.8128
 7621SOL    HW134325   1.136   3.244   7.762  0.8581  0.5525 -0.8554
 7621SOL    HW234326   1.038   3.227   7.650 -0.0586  0.1356 -1.0622
 7622SOL     OW34327   0.218   2.310   2.106 -0.2113 -0.1962  0.3046
 7622SOL    HW134328   0.240   2.258   2.184  0.4391  2.9365  2.2118
 7622SOL    HW234329   0.167   2.381   2.145 -1.4460  0.4272 -2.4592
 7623SOL     OW34330   2.972   0.599   4.750  0.1671 -0.3908 -0.2456
 7623SOL    HW134331   2.923   0.572   4.672 -0.5080 -1.4863  0.5687
 7623SOL    HW234332   2.901   0.610   4.813  0.9813 -0.4213  0.6595
 7624SOL     OW34333   3.130   4.478   8.455 -0.1129  0.8897 -0.2137
 7624SOL    HW134334   3.093   4.406   8.506  0.3402  0.0362 -1.0879
 7624SOL    HW234335   3.198   4.441   8.398 -0.5852  0.7004 -0.6496
 7625SOL     OW34336   1.378   0.696   6.997  0.3309  0.4321  0.1222
 7625SOL    HW134337   1.445   0.761   6.977  0.7734  1.1014  3.7659
 7625SOL    HW234338   1.425   0.635   7.054 -0.6468  0.3659  0.8566
 7626SOL     OW34339   4.214   1.128   7.295  0.3944  0.1687 -0.1906
 7626SOL    HW134340   4.120   1.142   7.282  0.3342 -1.3464 -1.3633
 7626SOL    HW234341   4.224   1.112   7.389  1.4119  0.4403 -0.2588
 7627SOL     OW34342   4.078   0.804  11.768  0.4953 -0.0660  0.2533
 7627SOL    HW134343   4.130   0.842  11.697 -0.5638  2.3220  0.7602
 7627SOL    HW234344   4.056   0.878  11.825  2.2454 -0.8061  1.8975
 7628SOL     OW34345   1.266   2.848   7.316 -0.3399 -0.2330 -0.3775
 7628SOL    HW134346   1.224   2.874   7.397  0.5745 -0.6627  0.2315
 7628SOL    HW234347   1.195   2.804   7.269  0.5726 -1.7709 -0.3256
 7629SOL     OW34348   2.098   2.860   2.599  0.0062  0.0400  0.2235
 7629SOL    HW134349   2.130   2.948   2.622 -0.3167  0.0908  0.4694
 7629SOL    HW234350   2.031   2.844   2.665 -0.6020  2.1284  0.1011
 7630SOL     OW34351   0.153   0.650   7.975 -0.0154  0.0074 -0.3891
 7630SOL    HW134352   0.232   0.625   7.926  0.9755 -0.8115  1.6207
 7630SOL    HW234353   0.084   0.595   7.938 -1.0154  2.2856 -1.9194
 7631SOL     OW34354   2.329   0.303  15.843  0.9338 -0.3909  0.2725
 7631SOL    HW134355   2.366   0.216  15.859 -0.0901 -0.7819  0.4859
 7631SOL    HW234356   2.249   0.280  15.796  1.2507 -0.7133 -0.1121
 7632SOL     OW34357   0.805   3.256   8.398 -0.3821  0.2063 -0.8817
 7632SOL    HW134358   0.821   3.317   8.470 -0.1989 -1.2758  0.3418
 7632SOL    HW234359   0.744   3.200   8.445 -0.0560 -0.7343 -1.5924
 7633SOL     OW34360   2.340   1.201   8.573  0.1608  0.4213 -0.5349
 7633SOL    HW134361   2.306   1.261   8.507  0.8029  2.8928  1.3829
 7633SOL    HW234362   2.298   1.122   8.541  0.4110 -1.6023  4.1416
 7634SOL     OW34363   4.474   1.031  14.667 -0.1450 -0.3618  0.2590
 7634SOL    HW134364   4.456   0.961  14.604 -0.4556 -0.3561  0.3432
 7634SOL    HW234365   4.516   1.090  14.604  0.4771 -0.6819  0.3750
 7635SOL     OW34366   1.527   4.281  17.331  0.2301 -0.0489  0.3002
 7635SOL    HW134367   1.549   4.373  17.338 -1.6295  0.4072  0.2648
 7635SOL    HW234368   1.555   4.243  17.415  1.7398  1.6418  0.5532
 7636SOL     OW34369   2.887   0.612   4.458 -0.7276  0.1702  0.1950
 7636SOL    HW134370   2.931   0.585   4.377 -0.4382  0.4510  0.2618
 7636SOL    HW234371   2.801   0.569   4.451  0.1446 -1.7527  1.4759
 7637SOL     OW34372   1.751   0.331  16.524  0.5037 -0.3134 -0.2184
 7637SOL    HW134373   1.743   0.375  16.440  0.3996  1.3723  0.6743
 7637SOL    HW234374   1.727   0.405  16.579  1.3649 -0.0528 -0.1858
 7638SOL     OW34375   2.250   0.806   7.911 -0.2644 -0.0188  0.8735
 7638SOL    HW134376   2.239   0.830   8.003  2.5001 -0.7117  1.3987
 7638SOL    HW234377   2.168   0.758   7.902  0.4824 -1.4953  1.9340
 7639SOL     OW34378   3.021   1.446   0.599  0.2798 -0.1278 -0.6507
 7639SOL    HW134379   2.931   1.415   0.613 -0.1212 -0.1521 -3.3093
 7639SOL    HW234380   3.057   1.358   0.596  0.8046  0.1047 -1.1915
 7640SOL     OW34381   4.368   1.334   2.049 -0.6878  0.3831 -0.2603
 7640SOL    HW134382   4.399   1.280   1.977  0.3848 -0.2153  0.6490
 7640SOL    HW234383   4.338   1.409   1.998  0.0292  0.2536 -0.8693
 7641SOL     OW34384   0.828   2.656  14.240 -0.0298  0.4100  0.7767
 7641SOL    HW134385   0.908   2.605  14.236  0.6322  1.4683  0.5805
 7641SOL    HW234386   0.792   2.635  14.154 -0.0956  2.4598  0.2960
 7642SOL     OW34387   0.705   4.583  14.839 -0.7557 -0.1864  0.6533
 7642SOL    HW134388   0.651   4.546  14.769  0.2522 -0.8676  0.2173
 7642SOL    HW234389   0.792   4.547  14.821 -0.2080  0.7802  1.3319
 7643SOL     OW34390   0.864   3.363   6.668 -0.3111  0.2415  0.5950
 7643SOL    HW134391   0.790   3.389   6.722 -2.4395 -0.1123 -2.1731
 7643SOL    HW234392   0.835   3.401   6.586 -0.4877  1.0531  1.0356
 7644SOL     OW34393   4.602   4.189   5.318 -0.0345  0.1821  0.7247
 7644SOL    HW134394   4.533   4.253   5.334 -0.0349  0.2321  0.5196
 7644SOL    HW234395   4.556   4.117   5.275 -0.3290 -0.4368  2.0787
 7645SOL     OW34396   1.283   1.883   7.370 -0.0928  0.1727  0.1839
 7645SOL    HW134397   1.337   1.951   7.330 -0.9298  0.8406  0.2144
 7645SOL    HW234398   1.349   1.838   7.424  0.7467 -0.5106 -1.3845
 7646SOL     OW34399   1.262   4.712  16.721  0.0064 -0.1385  0.1980
 7646SOL    HW134400   1.247   4.681  16.632 -1.9762 -0.7656  0.7541
 7646SOL    HW234401   1.221   4.646  16.777 -0.1494  0.1068  0.3724
 7647SOL     OW34402   3.656   3.002  17.381  0.3869  0.5025 -0.9086
 7647SOL    HW134403   3.664   3.098  17.377  1.0498  0.4647 -0.5144
 7647SOL    HW234404   3.617   2.974  17.299 -1.2477  0.6633 -0.1747
 7648SOL     OW34405   4.166   3.361   7.516 -0.1779  0.1928  0.4328
 7648SOL    HW134406   4.175   3.317   7.601 -3.3408 -1.6077 -0.1659
 7648SOL    HW234407   4.115   3.439   7.536 -1.4558  0.0963 -2.4883
 7649SOL     OW34408   0.318   3.244   0.220  0.0114  0.3372 -0.3278
 7649SOL    HW134409   0.406   3.225   0.187  0.1611 -1.5341  1.1430
 7649SOL    HW234410   0.291   3.160   0.255 -1.4013  1.7632  1.9775
 7650SOL     OW34411   0.236   4.537   1.845  0.0136  0.0352  0.0739
 7650SOL    HW134412   0.199   4.479   1.779 -1.4289  2.5109 -1.2941
 7650SOL    HW234413   0.167   4.601   1.865  0.3543  1.0615 -1.9933
 7651SOL     OW34414   3.336   4.264  16.019 -0.1272 -0.5599  0.2482
 7651SOL    HW134415   3.413   4.281  16.074 -0.5681 -1.3982  1.1428
 7651SOL    HW234416   3.375   4.204  15.956  0.3042 -0.4987  0.4588
 7652SOL     OW34417   0.265   3.698   5.131 -0.6892  0.1054  0.0718
 7652SOL    HW134418   0.252   3.607   5.155  0.4087 -0.1591 -0.3273
 7652SOL    HW234419   0.177   3.730   5.113 -1.1690 -0.7322  0.9308
 7653SOL     OW34420   4.018   0.289   6.479 -0.1507 -0.5956  0.4774
 7653SOL    HW134421   3.955   0.311   6.411  1.8160 -0.4987 -1.2886
 7653SOL    HW234422   3.961   0.239   6.538  1.2970 -1.6957  0.9307
 7654SOL     OW34423   3.542   2.167   2.340  0.0778  0.5928  0.7614
 7654SOL    HW134424   3.523   2.240   2.399 -1.3723  0.5662  0.3242
 7654SOL    HW234425   3.550   2.212   2.255 -0.0982  0.9535  0.9375
 7655SOL     OW34426   3.281   1.339   1.786  0.1407  0.2260  0.0094
 7655SOL    HW134427   3.191   1.351   1.757 -0.4245 -1.5171  1.0732
 7655SOL    HW234428   3.276   1.247   1.813  2.5048  0.4960  1.4042
 7656SOL     OW34429   3.794   2.402   5.162  0.1084  0.4883  1.1168
 7656SOL    HW134430   3.870   2.347   5.182 -0.3342  0.2437  2.1107
 7656SOL    HW234431   3.788   2.471   5.228 -3.3558  0.7174  0.5596
 7657SOL     OW34432   4.541   3.388   9.467 -0.6325 -0.0348  0.2684
 7657SOL    HW134433   4.624   3.366   9.509 -0.2736  0.0789 -0.3810
 7657SOL    HW234434   4.478   3.355   9.531  0.6565  1.3420  2.2610
 7658SOL     OW34435   3.699   4.099   2.089  0.4720  0.0767  0.3761
 7658SOL    HW134436   3.778   4.072   2.135  0.4289  0.0908  0.4581
 7658SOL    HW234437   3.679   4.182   2.132  0.8415  0.9205 -1.0769
 7659SOL     OW34438   1.455   4.345   7.116 -0.6331  0.5948  0.3514
 7659SOL    HW134439   1.384   4.385   7.066 -2.0269 -1.0044  1.0456
 7659SOL    HW234440   1.483   4.425   7.161 -0.9825  2.0666 -2.0625
 7660SOL     OW34441   2.941   1.628   6.711 -0.0684  0.0715  0.1591
 7660SOL    HW134442   2.957   1.676   6.792 -0.7352  0.8677 -0.1793
 7660SOL    HW234443   2.949   1.699   6.647  0.6408  0.7008  0.9478
 7661SOL     OW34444   2.850   0.595   8.653 -0.1759  0.6613 -0.1143
 7661SOL    HW134445   2.808   0.604   8.739 -0.6670  1.9198 -0.4903
 7661SOL    HW234446   2.790   0.537   8.605 -0.4217  0.7252  0.1160
 7662SOL     OW34447   3.798   3.544   7.532 -0.5537 -0.2996  0.1345
 7662SOL    HW134448   3.763   3.466   7.576 -1.6569 -0.3604 -0.8479
 7662SOL    HW234449   3.888   3.552   7.561 -1.2244  0.5168  1.9820
 7663SOL     OW34450   2.209   1.467   9.102  0.2135  0.0066  0.2442
 7663SOL    HW134451   2.203   1.517   9.183  0.3983  0.3334  0.0562
 7663SOL    HW234452   2.225   1.377   9.132  2.6275 -0.1304 -1.5094
 7664SOL     OW34453   4.154   0.980  11.560  0.4544 -0.0386  0.0728
 7664SOL    HW134454   4.071   0.983  11.512  1.1466 -0.0829 -1.1209
 7664SOL    HW234455   4.223   0.984  11.494  1.7853  1.6669  1.5819
 7665SOL     OW34456   3.395   0.504   5.453  0.1261  0.4399 -0.1897
 7665SOL    HW134457   3.487   0.510   5.479  0.2846  1.2529 -0.9672
 7665SOL    HW234458   3.364   0.476   5.539  0.1670 -1.7086 -0.8844
 7666SOL     OW34459   2.017   3.935   8.189  0.3148  0.1311 -0.2797
 7666SOL    HW134460   2.101   3.932   8.143  1.2619  1.5867  1.3729
 7666SOL    HW234461   1.956   3.929   8.115  1.7122  0.4212 -1.4588
 7667SOL     OW34462   2.432   2.516   3.193 -0.2446  0.8269  0.4020
 7667SOL    HW134463   2.360   2.503   3.255 -0.4177  0.3205  0.0968
 7667SOL    HW234464   2.437   2.611   3.205  1.2214  0.7430  0.4582
 7668SOL     OW34465   2.819   3.984   7.934 -0.4200  0.2717  0.0726
 7668SOL    HW134466   2.911   3.957   7.931 -0.6180 -0.1752 -1.8829
 7668SOL    HW234467   2.773   3.923   7.991 -1.5993  0.0018 -1.1725
 7669SOL     OW34468   4.670   4.216  14.190 -0.3366  0.1514 -0.0688
 7669SOL    HW134469   4.587   4.235  14.146 -0.2897  1.6399  0.4704
 7669SOL    HW234470   4.681   4.136  14.138  1.9819  0.8798 -0.6815
 7670SOL     OW34471   1.636   1.833   7.852  0.0141  0.3613  0.2452
 7670SOL    HW134472   1.662   1.781   7.776 -0.1102  1.3962 -0.5012
 7670SOL    HW234473   1.543   1.844   7.835 -0.0145 -0.6385 -0.2501
 7671SOL     OW34474   1.543   1.846   4.601 -0.5160 -0.0346 -0.0080
 7671SOL    HW134475   1.634   1.850   4.631  0.8816  0.6636 -4.3895
 7671SOL    HW234476   1.524   1.940   4.607  0.4470  0.0581  1.9454
 7672SOL     OW34477   4.264   4.507   8.657  0.1749  0.4864  0.6301
 7672SOL    HW134478   4.311   4.554   8.588  1.3051 -1.3852  0.1489
 7672SOL    HW234479   4.174   4.538   8.641  0.3132 -0.0782 -1.2062
 7673SOL     OW34480   3.964   2.466   1.076 -0.4915  0.1172  0.4388
 7673SOL    HW134481   3.931   2.466   1.166  0.4214  0.3145  0.7767
 7673SOL    HW234482   3.896   2.522   1.038 -0.5500  0.3675  0.9091
 7674SOL     OW34483   2.449   1.608   5.469 -0.0666  0.0507  0.0915
 7674SOL    HW134484   2.360   1.609   5.506  0.1500 -2.6566  0.7108
 7674SOL    HW234485   2.493   1.593   5.553 -0.7383  0.8606  0.5947
 7675SOL     OW34486   1.588   2.836  12.858  0.0960  0.3846  0.4223
 7675SOL    HW134487   1.568   2.909  12.799  0.7352  0.2322  0.0199
 7675SOL    HW234488   1.665   2.863  12.908  0.5341 -0.6019  0.2621
 7676SOL     OW34489   4.117   0.044   5.051 -0.4472  0.1867 -0.3355
 7676SOL    HW134490   4.075   0.130   5.048 -0.8931 -0.0361 -0.4906
 7676SOL    HW234491   4.092   0.008   4.966  0.2558 -0.3733 -0.3097
 7677SOL     OW34492   3.187   4.170   5.570 -0.2945 -0.4450 -0.0845
 7677SOL    HW134493   3.199   4.131   5.483  2.3309 -1.2823  0.6691
 7677SOL    HW234494   3.248   4.243   5.557 -2.8643  1.7988  0.3609
 7678SOL     OW34495   3.625   2.043   7.121  0.0037 -0.9382  0.1662
 7678SOL    HW134496   3.617   2.057   7.026  3.0776 -2.4966 -0.3314
 7678SOL    HW234497   3.665   1.957   7.128 -0.2983 -0.8022  3.3086
 7679SOL     OW34498   2.319   3.531   6.321  0.5313 -0.5677  0.4615
 7679SOL    HW134499   2.409   3.549   6.296  0.4694  0.0607  0.7024
 7679SOL    HW234500   2.290   3.621   6.334  0.8139 -0.4707  0.3980
 7680SOL     OW34501   0.356   0.909   4.714 -0.1883  0.4703 -0.1068
 7680SOL    HW134502   0.381   0.854   4.641  3.2682 -0.0004  1.4352
 7680SOL    HW234503   0.385   0.855   4.788 -1.0974 -0.8751 -0.7450
 7681SOL     OW34504   0.358   3.066   7.547  0.0571 -0.4431 -0.4377
 7681SOL    HW134505   0.320   3.032   7.465 -0.3446  0.1532 -0.4999
 7681SOL    HW234506   0.296   3.014   7.599  1.7230 -1.6244  0.3632
 7682SOL     OW34507   1.974   2.093   8.626 -0.4859 -0.0284 -0.3293
 7682SOL    HW134508   2.009   2.111   8.714 -1.2655  1.0801 -0.2409
 7682SOL    HW234509   1.883   2.121   8.638  0.0998  1.7296  0.1171
 7683SOL     OW34510   3.955   2.559   1.543 -0.3013  0.4899 -0.1747
 7683SOL    HW134511   3.963   2.500   1.468  0.6613  1.7552 -1.0658
 7683SOL    HW234512   4.027   2.621   1.528 -1.2862  1.5847 -0.4045
 7684SOL     OW34513   0.839   2.065  15.988 -0.0827  0.3682  0.1168
 7684SOL    HW134514   0.860   2.151  16.024  1.3762  0.2215 -0.3633
 7684SOL    HW234515   0.770   2.088  15.925 -0.4277  0.4486  0.5243
 7685SOL     OW34516   4.520   2.479   5.423 -0.0787  0.3989  0.7026
 7685SOL    HW134517   4.459   2.544   5.388  0.9553 -0.2249 -2.3493
 7685SOL    HW234518   4.476   2.394   5.413 -0.5101  0.4214  2.4490
 7686SOL     OW34519   3.205   2.532   0.476  0.0686  0.1448 -0.0424
 7686SOL    HW134520   3.167   2.614   0.507 -0.1729  0.2238 -0.5605
 7686SOL    HW234521   3.249   2.561   0.396 -1.5306  0.1482 -0.9031
 7687SOL     OW34522   0.581   3.221   2.928  0.3657 -0.7571  0.0049
 7687SOL    HW134523   0.566   3.157   2.998 -1.0635 -1.1360 -0.6373
 7687SOL    HW234524   0.662   3.266   2.952  0.3160  0.6758 -2.5070
 7688SOL     OW34525   3.691   0.552  16.783 -0.1966 -0.2863  0.4631
 7688SOL    HW134526   3.700   0.614  16.856  0.2476 -0.2449  0.3742
 7688SOL    HW234527   3.781   0.528  16.761 -0.5257 -0.2998 -0.8808
 7689SOL     OW34528   3.759   4.177   4.971  0.4189 -0.0029 -0.1105
 7689SOL    HW134529   3.804   4.258   4.948  1.3649 -0.9358 -1.4743
 7689SOL    HW234530   3.756   4.141   4.883  2.2783 -0.6078  0.0902
 7690SOL     OW34531   4.431   4.619  11.953  0.0959 -0.2189 -0.2436
 7690SOL    HW134532   4.348   4.594  11.913 -0.8700  0.5597  1.2670
 7690SOL    HW234533   4.450   4.709  11.927 -0.1214  0.0655  0.5855
 7691SOL     OW34534   2.739   3.117  16.487  0.6641  0.8326 -0.2212
 7691SOL    HW134535   2.706   3.068  16.412  1.1496 -1.7105  1.2520
 7691SOL    HW234536   2.792   3.187  16.447  0.2706  0.6951 -0.9730
 7692SOL     OW34537   0.886   1.634   9.811  0.1708 -0.2199 -0.5015
 7692SOL    HW134538   0.900   1.548   9.850 -0.5410  0.0561  0.3374
 7692SOL    HW234539   0.794   1.632   9.785 -1.2086  1.7400  4.2335
 7693SOL     OW34540   0.415   4.517   8.807 -0.0857  0.0240 -0.2403
 7693SOL    HW134541   0.489   4.461   8.831  0.5591  1.4085  1.0566
 7693SOL    HW234542   0.451   4.604   8.825  0.4590 -0.1005 -0.7420
 7694SOL     OW34543   2.476   0.295   8.832 -0.1798 -0.5955 -0.1107
 7694SOL    HW134544   2.394   0.313   8.877 -0.1428  2.6493 -1.3520
 7694SOL    HW234545   2.505   0.386   8.831 -0.4851 -0.5044 -0.8485
 7695SOL     OW34546   1.171   4.170   6.173 -0.0910  0.0898 -0.1649
 7695SOL    HW134547   1.167   4.130   6.260  0.1860  1.0270  0.2854
 7695SOL    HW234548   1.180   4.090   6.122 -1.1651  0.7178 -1.3537
 7696SOL     OW34549   0.328   0.190   1.663 -0.2597  0.2005 -0.8350
 7696SOL    HW134550   0.312   0.138   1.585 -0.7599  0.2394 -0.7614
 7696SOL    HW234551   0.302   0.278   1.634  0.4586  1.1399  1.3747
 7697SOL     OW34552   0.472   3.153  14.874 -0.0885 -0.2308 -0.2038
 7697SOL    HW134553   0.509   3.112  14.952 -1.4142 -1.9594 -0.4615
 7697SOL    HW234554   0.400   3.094  14.849  0.1029 -1.3200  1.7843
 7698SOL     OW34555   4.220   4.620   4.594 -0.6914 -0.7420 -0.4504
 7698SOL    HW134556   4.245   4.655   4.509  1.9248  0.0847  0.6643
 7698SOL    HW234557   4.160   4.550   4.569 -2.6679  0.4768  0.9338
 7699SOL     OW34558   0.422   0.312  16.863 -0.7987  0.2698 -0.2498
 7699SOL    HW134559   0.516   0.316  16.846 -1.0739  0.8472 -1.6416
 7699SOL    HW234560   0.397   0.246  16.798 -1.4308  1.1055 -0.8562
 7700SOL     OW34561   2.321   1.732   6.927  0.0566  0.0887  0.1497
 7700SOL    HW134562   2.386   1.754   6.994 -1.3899  1.2573  1.1646
 7700SOL    HW234563   2.347   1.793   6.858  0.7846  0.5788  0.8464
 7701SOL     OW34564   2.240   4.346   7.965  0.5222 -0.1964 -0.3232
 7701SOL    HW134565   2.211   4.296   8.041  1.0811  0.3334  0.2438
 7701SOL    HW234566   2.250   4.270   7.908 -2.0689 -0.7649 -0.0279
 7702SOL     OW34567   3.788   4.696   2.917 -0.4012 -0.4651 -0.1647
 7702SOL    HW134568   3.867   4.676   2.868 -0.8750  1.5563 -1.7286
 7702SOL    HW234569   3.826   4.678   3.003  2.1515 -1.6476 -1.5497
 7703SOL     OW34570   0.630   1.698   0.223 -0.3502  0.0327  0.0807
 7703SOL    HW134571   0.553   1.726   0.173 -1.2224 -0.2729  1.2636
 7703SOL    HW234572   0.605   1.608   0.244 -0.4959  0.1145  0.2525
 7704SOL     OW34573   1.083   2.457   6.531  0.3710  0.6053  0.1582
 7704SOL    HW134574   1.086   2.509   6.611  0.9277  0.3720  0.2923
 7704SOL    HW234575   1.044   2.378   6.569  2.0630 -0.8868 -1.1829
 7705SOL     OW34576   0.492   4.706   7.833 -0.0900  0.0307 -0.4125
 7705SOL    HW134577   0.479   4.653   7.911 -2.2616 -3.1286 -2.9018
 7705SOL    HW234578   0.453   0.062   7.857 -0.0804  0.1134 -0.6785
 7706SOL     OW34579   3.594   0.888   2.631 -0.2655 -0.6482 -0.1072
 7706SOL    HW134580   3.562   0.948   2.563  0.7535  2.6939  2.3575
 7706SOL    HW234581   3.681   0.868   2.595 -0.9922  0.0991 -2.3277
 7707SOL     OW34582   2.681   0.156   8.946  0.3984  0.6487  0.2649
 7707SOL    HW134583   2.593   0.182   8.919  0.0698 -0.6949  0.0326
 7707SOL    HW234584   2.727   0.185   8.868 -0.4463  0.7527 -0.2001
 7708SOL     OW34585   1.227   1.060   9.170  0.0279 -0.0370  0.2382
 7708SOL    HW134586   1.196   0.969   9.163 -0.4071  0.0853  0.5864
 7708SOL    HW234587   1.296   1.048   9.104  1.9717  0.2082  2.2381
 7709SOL     OW34588   4.387   2.543  10.783 -0.1365 -0.3234  1.1545
 7709SOL    HW134589   4.448   2.606  10.745 -1.1226  1.0401  1.8329
 7709SOL    HW234590   4.394   2.575  10.873 -1.4241  0.7113  0.8806
 7710SOL     OW34591   0.933   0.065  16.736  0.0661  0.0006  0.0043
 7710SOL    HW134592   0.958   4.702  16.757 -0.5175  0.0464  0.8777
 7710SOL    HW234593   0.838   0.068  16.734  0.0776  0.1984 -0.1287
 7711SOL     OW34594   1.518   0.082  16.763 -0.1414  0.2136 -0.4651
 7711SOL    HW134595   1.522   0.138  16.840  1.4583  2.2731 -2.0194
 7711SOL    HW234596   1.428   0.050  16.759 -1.0681  2.5995  1.0293
 7712SOL     OW34597   2.105   3.744  15.111 -0.7602 -0.2070  0.1617
 7712SOL    HW134598   2.091   3.693  15.031 -0.7592 -0.0895  0.0866
 7712SOL    HW234599   2.024   3.735  15.161 -0.6079 -0.2768  0.3957
 7713SOL     OW34600   3.673   2.548   1.581  0.0848 -0.1092 -0.0240
 7713SOL    HW134601   3.766   2.547   1.557 -0.3173  0.4801 -1.6061
 7713SOL    HW234602   3.671   2.641   1.604  2.6328  0.1780 -0.9749
 7714SOL     OW34603   4.172   3.244   3.614  0.0192  0.1738 -0.3896
 7714SOL    HW134604   4.107   3.183   3.648  0.3883  1.5729  2.8017
 7714SOL    HW234605   4.165   3.225   3.520  0.1122 -0.2985 -0.2975
 7715SOL     OW34606   1.310   0.140  15.832 -0.0956  0.2905 -0.6030
 7715SOL    HW134607   1.401   0.115  15.848 -0.2612 -0.8854 -1.4864
 7715SOL    HW234608   1.290   0.166  15.921  0.2067 -1.2130 -0.0908
 7716SOL     OW34609   1.613   3.462   6.527  0.5493 -0.0406 -0.2237
 7716SOL    HW134610   1.691   3.502   6.565  1.1513 -0.0724 -1.4167
 7716SOL    HW234611   1.614   3.372   6.561  1.9156  0.5178  1.2124
 7717SOL     OW34612   2.531   0.264   6.787 -0.3395 -0.1291  0.3194
 7717SOL    HW134613   2.602   0.247   6.725 -1.7426 -0.2572 -1.2712
 7717SOL    HW234614   2.541   0.197   6.854 -0.0561 -1.7675 -1.3789
 7718SOL     OW34615   1.593   0.934   1.244  0.0178  0.0364 -0.0547
 7718SOL    HW134616   1.622   0.848   1.213 -1.4328 -0.2851 -0.5451
 7718SOL    HW234617   1.551   0.906   1.325 -1.7492 -1.0888 -1.3458
 7719SOL     OW34618   3.069   2.907   7.418 -0.2386 -0.3121  0.1884
 7719SOL    HW134619   3.055   3.001   7.428 -1.8632 -0.4826 -0.4002
 7719SOL    HW234620   2.981   2.871   7.410  0.2076 -1.4351  0.3740
 7720SOL     OW34621   2.186   3.238   8.461 -0.1760  0.4336 -0.4109
 7720SOL    HW134622   2.107   3.252   8.513  0.6004  2.7939  0.0993
 7720SOL    HW234623   2.245   3.227   8.535  1.4148 -0.7863 -1.8532
 7721SOL     OW34624   4.693   2.780   7.508 -0.1697  0.0256  0.2002
 7721SOL    HW134625   4.625   2.736   7.456 -0.7661 -0.2553  1.2188
 7721SOL    HW234626   4.719   2.713   7.571  0.3455  0.7488  0.7504
 7722SOL     OW34627   4.398   3.753   5.648  0.7807  0.3623 -0.5719
 7722SOL    HW134628   4.330   3.722   5.588  0.3087 -0.5215  0.4351
 7722SOL    HW234629   4.412   3.671   5.693  3.2424  0.3697 -1.3064
 7723SOL     OW34630   2.583   2.137  16.272  0.0630  0.5988 -0.3787
 7723SOL    HW134631   2.623   2.090  16.345  2.1998  0.4548 -1.6712
 7723SOL    HW234632   2.498   2.160  16.310 -0.4571  0.2322 -1.3279
 7724SOL     OW34633   0.138   4.521   5.975  0.6947  0.1738  0.4004
 7724SOL    HW134634   0.098   4.590   6.028  0.3536 -1.0698  1.7491
 7724SOL    HW234635   0.229   4.543   5.993  0.8528  1.1885 -1.5666
 7725SOL     OW34636   0.521   3.476   7.470  0.5066  0.0583 -0.3919
 7725SOL    HW134637   0.527   3.431   7.555 -0.8833 -0.4370 -0.5668
 7725SOL    HW234638   0.598   3.427   7.440  1.2780  1.9923 -1.5463
 7726SOL     OW34639   2.889   1.429   8.340 -0.4474 -0.1351 -0.0979
 7726SOL    HW134640   2.948   1.388   8.403  0.7730 -0.5982 -1.5330
 7726SOL    HW234641   2.939   1.506   8.313 -0.3694 -0.2336 -0.2382
 7727SOL     OW34642   1.984   2.823  10.935  0.5986  0.2777 -0.6111
 7727SOL    HW134643   1.990   2.911  10.971 -0.6535  0.0762  0.0910
 7727SOL    HW234644   1.967   2.853  10.845 -1.5124  1.5955  0.2340
 7728SOL     OW34645   1.709   1.019  16.636 -0.2057  0.1430  0.5309
 7728SOL    HW134646   1.757   0.944  16.670 -0.6255 -0.7965 -1.0030
 7728SOL    HW234647   1.667   1.052  16.716 -1.6460  0.4851 -0.3641
 7729SOL     OW34648   3.185   0.213   8.420  0.1737  0.4774 -0.0486
 7729SOL    HW134649   3.219   0.150   8.484  0.4775  1.9278  1.2083
 7729SOL    HW234650   3.246   0.198   8.347 -1.4361 -0.4811 -1.2095
 7730SOL     OW34651   1.930   3.837  17.545  0.9103  0.5821 -0.0990
 7730SOL    HW134652   1.870   3.766  17.569  0.8078  1.0662  1.0628
 7730SOL    HW234653   1.949   3.881  17.628  4.2908  0.7245 -0.9494
 7731SOL     OW34654   1.892   3.207   1.126 -0.0552 -0.0050  0.4149
 7731SOL    HW134655   1.946   3.213   1.205 -1.4509 -1.4858  1.4678
 7731SOL    HW234656   1.945   3.177   1.052 -2.5107  0.9746 -1.7259
 7732SOL     OW34657   2.292   3.835   7.085  0.2236 -0.1308 -0.1041
 7732SOL    HW134658   2.268   3.754   7.130  0.2492  0.2840  0.6581
 7732SOL    HW234659   2.286   3.899   7.156 -0.9194  0.7774 -1.0263
 7733SOL     OW34660   3.816   1.150   6.588  0.0565 -0.5671 -0.0140
 7733SOL    HW134661   3.846   1.215   6.652 -0.3199  0.7178 -1.1589
 7733SOL    HW234662   3.876   1.080   6.615  0.1663 -1.5811 -2.9039
 7734SOL     OW34663   4.501   4.177   7.596 -0.3553 -0.0651 -0.1124
 7734SOL    HW134664   4.440   4.156   7.666 -0.0214 -0.9402 -0.0813
 7734SOL    HW234665   4.451   4.139   7.524 -1.8949 -0.6123  1.2605
 7735SOL     OW34666   2.073   1.561   3.198 -0.5210 -0.4113 -0.1266
 7735SOL    HW134667   2.141   1.607   3.149 -0.5251 -1.3297 -0.9886
 7735SOL    HW234668   1.989   1.591   3.165 -0.6760 -1.8037 -0.9749
 7736SOL     OW34669   3.417   1.916   8.136  0.0306 -0.2087 -0.3241
 7736SOL    HW134670   3.421   1.893   8.229  0.1653  2.3110  0.2837
 7736SOL    HW234671   3.480   1.986   8.121 -0.6540  0.3140 -0.8050
 7737SOL     OW34672   4.386   1.913   6.635  0.0965  0.8583  0.2979
 7737SOL    HW134673   4.345   1.983   6.687  0.0644  0.1447  1.2183
 7737SOL    HW234674   4.476   1.944   6.628 -0.7967  3.0348 -1.5901
 7738SOL     OW34675   2.068   3.203   9.406 -0.1789 -0.2685 -0.6521
 7738SOL    HW134676   1.984   3.235   9.439 -0.4049 -1.1869 -0.3436
 7738SOL    HW234677   2.113   3.284   9.381  4.0513 -1.8393  1.9116
 7739SOL     OW34678   2.170   1.500   0.584 -0.6654  0.5735 -0.4226
 7739SOL    HW134679   2.226   1.561   0.630 -0.0332 -0.6778  0.4784
 7739SOL    HW234680   2.085   1.517   0.625 -1.6310 -0.9814 -1.7777
 7740SOL     OW34681   1.591   1.657   2.200  0.4557  0.4424  0.0698
 7740SOL    HW134682   1.526   1.661   2.269  0.4566 -1.8877  0.2069
 7740SOL    HW234683   1.570   1.735   2.147  0.0767 -0.2812 -0.8572
 7741SOL     OW34684   2.713   3.304   9.699  0.3932 -0.6026 -0.0521
 7741SOL    HW134685   2.632   3.340   9.663 -0.2549  0.3826  2.4446
 7741SOL    HW234686   2.770   3.346   9.634  0.6438 -0.8708 -0.0062
 7742SOL     OW34687   1.718   3.459  11.637 -0.1526 -0.3094 -0.4335
 7742SOL    HW134688   1.790   3.432  11.580 -1.8280 -2.6767 -1.4367
 7742SOL    HW234689   1.644   3.481  11.581 -0.5656  1.3803  0.7801
 7743SOL     OW34690   0.132   4.130   7.984  0.0890 -0.5667 -0.0116
 7743SOL    HW134691   0.071   4.183   7.932 -0.3024 -0.1802  0.8415
 7743SOL    HW234692   0.078   4.118   8.062  0.1046 -1.3105 -0.1237
 7744SOL     OW34693   4.314   0.053   6.965  0.3295 -0.1240  0.2907
 7744SOL    HW134694   4.393   0.022   6.922 -1.4377 -1.5763 -1.9255
 7744SOL    HW234695   4.351   0.106   7.036 -0.5634 -0.8044  1.2728
 7745SOL     OW34696   1.904   2.019  16.567  0.1612  0.0361 -0.5065
 7745SOL    HW134697   1.854   1.938  16.570 -0.1847  0.3442  1.6433
 7745SOL    HW234698   1.862   2.057  16.490  0.9332  1.8373 -0.0411
 7746SOL     OW34699   4.638   2.021   6.623 -0.0623  0.1473  0.2991
 7746SOL    HW134700   4.705   1.953   6.630 -0.7745 -0.7999 -2.3327
 7746SOL    HW234701   4.626   2.066   6.707 -1.1402  1.1228 -0.3820
 7747SOL     OW34702   4.350   1.196   2.486  0.3030 -0.2394 -0.4636
 7747SOL    HW134703   4.369   1.114   2.440  2.5620 -0.4998  0.9705
 7747SOL    HW234704   4.331   1.264   2.421 -1.0494 -0.7546 -0.6167
 7748SOL     OW34705   4.683   2.449   9.159  0.5055 -0.7890  0.1841
 7748SOL    HW134706   4.620   2.436   9.230  0.8594 -3.6064 -0.0257
 7748SOL    HW234707   4.652   2.377   9.105 -1.2817  1.1927 -1.4310
 7749SOL     OW34708   1.704   3.404   7.533 -0.1089  0.5632 -0.2837
 7749SOL    HW134709   1.715   3.448   7.617  0.2471 -1.8094  0.8921
 7749SOL    HW234710   1.741   3.473   7.477  2.8726 -0.6429  0.2114
 7750SOL     OW34711   1.691   0.543  11.139 -0.7767  0.2625 -0.2523
 7750SOL    HW134712   1.705   0.472  11.076 -0.8233  1.2333 -1.3442
 7750SOL    HW234713   1.734   0.618  11.098  1.4704  0.1955  2.0164
 7751SOL     OW34714   2.820   4.594   4.437  0.4481 -0.2688  0.1330
 7751SOL    HW134715   2.737   4.568   4.478  0.1930 -0.6164 -0.5908
 7751SOL    HW234716   2.879   4.560   4.504 -0.5931 -2.5746 -0.1141
 7752SOL     OW34717   2.292   3.773  10.995  0.1122  0.5124 -0.0002
 7752SOL    HW134718   2.347   3.701  11.025 -0.4416 -0.4760 -1.3753
 7752SOL    HW234719   2.332   3.846  11.042 -0.0988  1.6173 -1.5120
 7753SOL     OW34720   1.012   3.930   2.760  0.0803 -0.1878  0.5485
 7753SOL    HW134721   1.060   4.013   2.757 -1.1177  0.4757 -0.9114
 7753SOL    HW234722   0.982   3.922   2.850  1.8679 -2.7899  0.8879
 7754SOL     OW34723   1.061   0.315   3.624 -0.4894 -0.3821 -0.4789
 7754SOL    HW134724   1.131   0.359   3.576  0.1150 -2.9107 -1.9159
 7754SOL    HW234725   1.106   0.271   3.695 -1.1191 -0.4316 -0.1084
 7755SOL     OW34726   2.007   0.550   8.316 -0.1261  0.6113 -0.1149
 7755SOL    HW134727   1.938   0.484   8.308 -0.3237  0.7973  0.0350
 7755SOL    HW234728   2.001   0.565   8.411  0.3761  0.1201 -0.0099
 7756SOL     OW34729   0.136   2.514   3.426  0.6694 -0.3830  0.7634
 7756SOL    HW134730   0.149   2.450   3.355  3.4484 -1.8552  2.5944
 7756SOL    HW234731   0.213   2.487   3.477  0.6258  0.7786  1.4195
 7757SOL     OW34732   4.453   1.234   0.526  0.3123 -0.2632 -0.6616
 7757SOL    HW134733   4.446   1.149   0.483  1.9375 -1.7174  1.9703
 7757SOL    HW234734   4.376   1.240   0.583 -1.8766 -0.6793 -3.5720
 7758SOL     OW34735   2.889   3.019  10.077  0.6102 -0.3811 -0.8892
 7758SOL    HW134736   2.929   2.932  10.071  1.5126 -0.0675  0.5367
 7758SOL    HW234737   2.863   3.049   9.990 -0.0776 -0.6807 -0.7929
 7759SOL     OW34738   2.778   3.155   2.509  0.2488 -0.2263 -0.0769
 7759SOL    HW134739   2.860   3.199   2.530  0.0096 -0.4595  1.3138
 7759SOL    HW234740   2.737   3.160   2.595  2.3800 -0.0825  0.9261
 7760SOL     OW34741   0.743   2.249   9.161 -0.5868 -0.0739 -0.2807
 7760SOL    HW134742   0.752   2.331   9.210 -0.1941  0.0730 -0.5942
 7760SOL    HW234743   0.659   2.260   9.117  0.5887  0.4014 -2.3931
 7761SOL     OW34744   4.366   2.135   7.482  0.2176  0.2841  0.5389
 7761SOL    HW134745   4.442   2.100   7.436  0.0966 -1.0745  1.3578
 7761SOL    HW234746   4.299   2.108   7.420 -2.6477  0.8373  3.3723
 7762SOL     OW34747   3.278   2.239   8.653 -0.5670 -0.0713 -0.0834
 7762SOL    HW134748   3.372   2.226   8.655 -0.6008 -0.5375 -1.3099
 7762SOL    HW234749   3.255   2.172   8.716 -2.6967 -0.4125 -1.2133
 7763SOL     OW34750   1.892   3.552   2.873 -0.3570  0.3291 -0.0533
 7763SOL    HW134751   1.928   3.519   2.790  2.7592  3.2943  0.1491
 7763SOL    HW234752   1.818   3.493   2.887 -0.4824  1.1074  2.4504
 7764SOL     OW34753   1.637   2.178  12.362 -0.0389 -0.0388  0.8266
 7764SOL    HW134754   1.673   2.091  12.380 -3.5172 -1.9615 -1.3883
 7764SOL    HW234755   1.722   2.215  12.337 -1.4474  0.7640 -2.8046
 7765SOL     OW34756   2.871   2.955   4.619  0.0262 -0.1595 -0.1426
 7765SOL    HW134757   2.853   3.045   4.647  1.9314  0.7064 -1.7108
 7765SOL    HW234758   2.781   2.941   4.589 -0.9529  2.0766  1.7288
 7766SOL     OW34759   3.713   0.237  10.058 -0.0310  0.4757  0.3842
 7766SOL    HW134760   3.750   0.150  10.073 -0.5671  0.0795 -0.5645
 7766SOL    HW234761   3.771   0.291  10.111  1.2277  0.0977 -0.6031
 7767SOL     OW34762   1.799   4.374   3.158  0.3628  0.2635  0.3194
 7767SOL    HW134763   1.749   4.385   3.077  0.2704  0.7001  0.4354
 7767SOL    HW234764   1.724   4.347   3.211  1.5721 -0.5790  1.5973
 7768SOL     OW34765   4.188   1.107  10.211  0.2909  0.1278  0.3250
 7768SOL    HW134766   4.269   1.149  10.181 -0.6861  2.0952  0.4029
 7768SOL    HW234767   4.216   1.069  10.295  0.9971  0.4958  0.2528
 7769SOL     OW34768   0.600   1.423  11.555 -0.1543  0.2071 -0.0564
 7769SOL    HW134769   0.685   1.438  11.514  0.2395 -1.4750  0.1754
 7769SOL    HW234770   0.629   1.368  11.627  1.1460  0.4856 -0.3710
 7770SOL     OW34771   2.222   4.172   8.213 -0.5642 -0.4147 -0.4099
 7770SOL    HW134772   2.146   4.123   8.244 -0.4907  0.8619  1.8088
 7770SOL    HW234773   2.222   4.226   8.292  1.4842 -1.8202  0.5580
 7771SOL     OW34774   2.522   0.250   4.307  0.7321  0.0896  0.4289
 7771SOL    HW134775   2.536   0.162   4.272  1.6253  0.2829  0.2927
 7771SOL    HW234776   2.453   0.272   4.244 -0.1143  0.9171  1.6605
 7772SOL     OW34777   3.421   0.584   4.748  0.3325  0.0102  0.0606
 7772SOL    HW134778   3.394   0.507   4.798  0.0458 -0.2885 -0.5608
 7772SOL    HW234779   3.374   0.657   4.789  2.2599  1.4189 -0.2553
 7773SOL     OW34780   2.021   0.190   5.876 -0.4212  0.1734 -0.5496
 7773SOL    HW134781   2.032   0.108   5.829  0.8587 -0.4036  0.7261
 7773SOL    HW234782   1.983   0.246   5.809 -3.2322 -0.6310  0.3627
 7774SOL     OW34783   0.781   1.455   7.741  0.1931 -0.3917 -0.6346
 7774SOL    HW134784   0.687   1.473   7.748  0.7282  3.4375 -3.2678
 7774SOL    HW234785   0.814   1.521   7.800  0.0676 -0.8341 -0.0682
 7775SOL     OW34786   1.013   3.038   8.542  0.4473  0.1518 -0.1564
 7775SOL    HW134787   0.946   3.107   8.544  0.0881 -0.2004  0.0374
 7775SOL    HW234788   0.975   2.967   8.594  0.0396 -0.5608 -1.4078
 7776SOL     OW34789   2.353   3.939  17.692 -0.0150 -0.4914  0.2734
 7776SOL    HW134790   2.429   3.992   0.003  1.5859 -2.5450 -0.4169
 7776SOL    HW234791   2.380   3.886  17.617 -0.7463 -0.6789  0.1348
 7777SOL     OW34792   1.713   1.108   1.053 -0.0837 -0.0876  0.9315
 7777SOL    HW134793   1.632   1.156   1.041  0.0018  0.0536  0.9172
 7777SOL    HW234794   1.690   1.061   1.133  2.0949 -1.1834  0.9397
 7778SOL     OW34795   3.635   1.129  15.845  0.2318 -0.7056 -0.8315
 7778SOL    HW134796   3.605   1.052  15.797 -1.3646 -0.8613  0.4104
 7778SOL    HW234797   3.716   1.144  15.795  0.2579 -0.7839 -0.8127
 7779SOL     OW34798   0.928   2.555   2.774  0.4025  0.6401  0.2304
 7779SOL    HW134799   0.850   2.527   2.727  0.8088 -1.8833  1.0447
 7779SOL    HW234800   0.988   2.558   2.699  0.6242  1.7343  0.4587
 7780SOL     OW34801   3.901   2.056   4.409  0.3314 -0.6871 -0.1570
 7780SOL    HW134802   3.819   2.103   4.422  1.6258  1.9688 -1.5953
 7780SOL    HW234803   3.945   2.101   4.337 -2.8866  1.8397 -0.5235
 7781SOL     OW34804   2.947   0.350   1.213 -0.0902 -0.7393  0.5130
 7781SOL    HW134805   3.037   0.378   1.227 -0.9047  0.2492  3.6004
 7781SOL    HW234806   2.903   0.435   1.206 -1.9488 -1.6367  1.3041
 7782SOL     OW34807   1.211   3.093   2.909 -0.3401  0.1970 -0.0802
 7782SOL    HW134808   1.191   3.121   2.998 -0.2429  0.8508 -0.2604
 7782SOL    HW234809   1.305   3.080   2.920 -0.5333 -0.5887  0.5576
 7783SOL     OW34810   1.298   3.517  11.712  0.4436 -0.4774  0.5247
 7783SOL    HW134811   1.308   3.550  11.623 -2.4070  0.3067  0.4744
 7783SOL    HW234812   1.327   3.427  11.700  1.5662 -0.0629  0.2009
 7784SOL     OW34813   2.241   1.179  10.617  0.2504  0.3496 -1.1142
 7784SOL    HW134814   2.333   1.200  10.599  0.8122 -0.2214  1.1451
 7784SOL    HW234815   2.228   1.202  10.709 -3.9492 -1.8731 -1.1733
 7785SOL     OW34816   2.071   2.353   9.117  0.6140  0.2089 -0.9680
 7785SOL    HW134817   2.047   2.275   9.166 -3.0757  3.0411  1.6864
 7785SOL    HW234818   2.167   2.348   9.119  0.3686 -1.2160  4.5382
 7786SOL     OW34819   4.168   0.128   8.176  1.1515  0.0555 -0.8966
 7786SOL    HW134820   4.179   0.216   8.142  0.4915  1.5375  2.6655
 7786SOL    HW234821   4.259   0.105   8.195  0.5689 -1.4227  0.1896
 7787SOL     OW34822   0.263   1.481   9.381  0.2900  0.0805 -0.5013
 7787SOL    HW134823   0.315   1.550   9.341  1.2011  0.4182  1.2810
 7787SOL    HW234824   0.227   1.518   9.463 -0.6735 -1.4720 -0.2176
 7788SOL     OW34825   1.594   3.696   2.794  0.0035 -0.3558 -0.0826
 7788SOL    HW134826   1.651   3.627   2.762  0.3722  0.1883 -0.5804
 7788SOL    HW234827   1.594   3.767   2.731  2.1989  0.3350  0.7038
 7789SOL     OW34828   3.399   1.284   6.413 -0.4799  0.4217  0.0686
 7789SOL    HW134829   3.490   1.299   6.441  0.6381 -1.0705 -2.7594
 7789SOL    HW234830   3.350   1.295   6.495 -0.2625 -0.5174  0.3300
 7790SOL     OW34831   3.802   1.401  17.611 -0.1276  0.3030  0.0584
 7790SOL    HW134832   3.767   1.484  17.643  0.2228 -0.3758  2.2023
 7790SOL    HW234833   3.894   1.415  17.636  0.5461 -2.4025 -0.8767
 7791SOL     OW34834   3.354   1.720  15.202 -0.0078 -0.4785 -0.5681
 7791SOL    HW134835   3.327   1.724  15.294  0.6104  0.1809 -0.4146
 7791SOL    HW234836   3.355   1.814  15.185 -3.2751 -0.2452  0.4510
 7792SOL     OW34837   0.057   1.767  13.171 -0.2688  0.5956  0.3957
 7792SOL    HW134838   4.727   1.802  13.240  1.0867  1.2068  1.2260
 7792SOL    HW234839   0.031   1.677  13.189  0.2935  0.3386 -0.0674
 7793SOL     OW34840   0.664   0.240  12.924 -0.3279 -0.2735  0.6276
 7793SOL    HW134841   0.717   0.257  12.847  0.2537 -1.7363  0.7189
 7793SOL    HW234842   0.698   0.308  12.983  1.5186 -0.3867 -0.3204
 7794SOL     OW34843   0.984   3.908  15.648  0.1001 -0.3647  0.3833
 7794SOL    HW134844   0.926   3.853  15.595  0.1072  1.8310 -1.9438
 7794SOL    HW234845   0.971   3.869  15.734 -1.2937 -0.7236  0.0125
 7795SOL     OW34846   2.837   2.477  15.853  0.7277  0.1125  0.3474
 7795SOL    HW134847   2.798   2.456  15.768 -2.4680  0.3905  1.7513
 7795SOL    HW234848   2.865   2.387  15.867 -2.2559 -0.8130  0.3730
 7796SOL     OW34849   4.646   0.740   3.038  0.0083  0.3351  0.3242
 7796SOL    HW134850   4.678   0.777   3.120  4.2869 -0.4487 -0.9951
 7796SOL    HW234851   4.602   0.816   3.001  0.6336  0.3987 -0.2855
 7797SOL     OW34852   2.886   0.087   7.135  0.2723 -0.3722  0.1881
 7797SOL    HW134853   2.865   4.724   7.112  1.6318 -1.0764  1.7633
 7797SOL    HW234854   2.969   0.095   7.087 -0.0794  0.6561 -0.2601
 7798SOL     OW34855   2.964   1.970   8.089 -0.1936 -0.0682  0.2080
 7798SOL    HW134856   3.050   1.945   8.122 -0.1732 -1.1018 -0.6106
 7798SOL    HW234857   3.000   2.039   8.032 -2.2315  1.8694  1.2602
 7799SOL     OW34858   2.428   1.594   2.364  0.0101 -0.2915 -0.1187
 7799SOL    HW134859   2.472   1.662   2.415  0.2352 -0.1036 -0.5617
 7799SOL    HW234860   2.486   1.522   2.387 -1.4295 -1.0418  1.1349
 7800SOL     OW34861   3.362   4.549  14.987 -0.5258  0.3946  0.3025
 7800SOL    HW134862   3.443   4.600  14.976  0.5830 -1.3207  0.4382
 7800SOL    HW234863   3.335   4.567  15.077  1.3966  0.6661  0.8435
 7801SOL     OW34864   1.077   3.572   7.620 -0.1500 -0.4032 -0.4461
 7801SOL    HW134865   0.988   3.581   7.587 -0.1131 -0.1311 -0.4740
 7801SOL    HW234866   1.053   3.549   7.710  0.5992 -0.0025 -0.1445
 7802SOL     OW34867   1.121   3.536   2.517  0.2777 -0.4175 -0.2497
 7802SOL    HW134868   1.111   3.551   2.610  2.5445 -1.8795  0.2402
 7802SOL    HW234869   1.077   3.453   2.501  0.5864 -0.8632  1.2305
 7803SOL     OW34870   2.869   3.189   4.786 -0.6444  0.6456 -0.3894
 7803SOL    HW134871   2.826   3.266   4.824  1.0887  1.5033 -0.1952
 7803SOL    HW234872   2.876   3.124   4.857 -0.7917 -1.6412 -2.4544
 7804SOL     OW34873   3.008   1.421   3.512 -0.0497  0.7399 -0.0783
 7804SOL    HW134874   3.007   1.507   3.470  1.5779  0.6386 -0.3284
 7804SOL    HW234875   2.924   1.378   3.493  0.6827 -0.6479 -0.2223
 7805SOL     OW34876   0.780   4.382  12.602 -0.1081  0.1713  0.0101
 7805SOL    HW134877   0.859   4.437  12.597 -0.4292  0.5051 -1.4410
 7805SOL    HW234878   0.814   4.293  12.609 -0.9762 -0.1883 -0.3769
 7806SOL     OW34879   2.222   0.955   8.509 -0.0060  0.0331 -0.4062
 7806SOL    HW134880   2.258   0.929   8.594 -0.7369 -0.6410 -0.3008
 7806SOL    HW234881   2.236   0.874   8.459 -0.2151 -0.6297  0.5993
 7807SOL     OW34882   3.208   3.406   1.793  0.1104 -0.1953  0.1130
 7807SOL    HW134883   3.238   3.428   1.881  0.5336 -2.2547  0.4850
 7807SOL    HW234884   3.290   3.392   1.746 -0.1315 -0.3778 -0.2601
 7808SOL     OW34885   4.577   2.081   5.878  0.0314 -0.7713 -0.4332
 7808SOL    HW134886   4.588   1.986   5.871 -0.7591 -0.8745 -0.3846
 7808SOL    HW234887   4.511   2.101   5.811  1.4122 -0.0036 -1.5507
 7809SOL     OW34888   0.732   4.098   5.792 -0.1843 -0.5836  0.3365
 7809SOL    HW134889   0.675   4.040   5.741 -0.0590 -0.7479  0.3806
 7809SOL    HW234890   0.816   4.102   5.748  0.1508 -2.9820  0.7518
 7810SOL     OW34891   1.314   4.590   3.762 -0.1222 -0.7871 -0.3070
 7810SOL    HW134892   1.329   4.570   3.669 -2.9836  0.8898 -1.1395
 7810SOL    HW234893   1.258   4.515   3.781  2.8226 -3.1968 -1.2460
 7811SOL     OW34894   4.532   0.149   4.370 -0.0893 -0.0861  0.3778
 7811SOL    HW134895   4.571   0.213   4.430 -0.7028 -0.7000  1.4294
 7811SOL    HW234896   4.577   0.173   4.290  1.5217 -1.4397  0.8921
 7812SOL     OW34897   3.348   1.334   7.765  0.1034  0.7302 -0.3533
 7812SOL    HW134898   3.387   1.404   7.713  0.0987  0.5835 -0.5553
 7812SOL    HW234899   3.257   1.336   7.733  0.3183  2.2091 -0.8561
 7813SOL     OW34900   2.385   2.505   5.316 -0.0374  0.0664 -0.2209
 7813SOL    HW134901   2.430   2.589   5.307  0.4725  0.0092  1.7807
 7813SOL    HW234902   2.346   2.495   5.229 -1.4809  0.8753  0.3394
 7814SOL     OW34903   4.238   3.141   1.014 -0.3287 -0.1043  0.3210
 7814SOL    HW134904   4.165   3.186   1.056 -0.4556 -0.7747  0.8162
 7814SOL    HW234905   4.247   3.198   0.938 -2.1991 -0.7079 -0.3532
 7815SOL     OW34906   0.041   2.675   6.706  1.1036 -0.5599  0.1881
 7815SOL    HW134907   4.710   2.736   6.661 -1.2650 -1.5000  1.9804
 7815SOL    HW234908   0.078   2.741   6.765  1.4969  0.1571 -0.8551
 7816SOL     OW34909   1.534   2.572  13.642 -0.9996 -0.0221 -0.5370
 7816SOL    HW134910   1.445   2.594  13.669  0.3652  1.9246  2.3210
 7816SOL    HW234911   1.575   2.657  13.659 -2.9466  0.5656  1.1457
 7817SOL     OW34912   3.867   4.269   6.955 -0.0071 -0.2549  0.4143
 7817SOL    HW134913   3.914   4.213   6.893  1.6098  1.8232 -0.2363
 7817SOL    HW234914   3.783   4.224   6.944  0.9892 -2.1456  0.3878
 7818SOL     OW34915   0.435   1.750   5.994 -0.3373  0.2183 -0.1258
 7818SOL    HW134916   0.437   1.724   5.902  0.7064 -1.1065  0.2657
 7818SOL    HW234917   0.413   1.663   6.027 -0.1761  0.9938  2.0546
 7819SOL     OW34918   3.844   1.709  16.499 -0.5248 -0.1325 -0.5192
 7819SOL    HW134919   3.920   1.657  16.525  0.8193  2.7127  1.1915
 7819SOL    HW234920   3.881   1.770  16.435 -0.5274  1.3780  0.8991
 7820SOL     OW34921   1.790   3.960   5.396  0.2161 -0.4414  0.1232
 7820SOL    HW134922   1.738   3.895   5.445  0.4004  0.4579  1.4930
 7820SOL    HW234923   1.798   4.026   5.465 -0.9257 -0.1963  0.0265
 7821SOL     OW34924   2.750   3.193  12.387  0.3929  0.1692 -0.2836
 7821SOL    HW134925   2.815   3.261  12.403  0.5495  0.3698 -1.8321
 7821SOL    HW234926   2.751   3.153  12.474 -2.2566  0.6487 -0.0084
 7822SOL     OW34927   1.640   3.919   7.348  0.0211 -0.3261  0.2411
 7822SOL    HW134928   1.663   3.889   7.436 -1.0896 -0.5933  0.4373
 7822SOL    HW234929   1.640   4.014   7.364 -0.2241 -0.0685 -1.2539
 7823SOL     OW34930   2.701   4.543   2.655 -0.2865 -0.2136 -0.5550
 7823SOL    HW134931   2.686   4.494   2.574 -2.3248 -1.6739  0.7032
 7823SOL    HW234932   2.794   4.567   2.656 -0.7561  1.5837  0.1034
 7824SOL     OW34933   1.888   2.119  17.499  0.2362 -0.1161 -0.4692
 7824SOL    HW134934   1.879   2.212  17.517  0.3882  0.1370 -1.6911
 7824SOL    HW234935   1.800   2.083  17.491  1.2649 -1.3297 -6.8046
 7825SOL     OW34936   0.520   3.336  16.068 -0.2740  0.0056  0.3905
 7825SOL    HW134937   0.495   3.401  16.002  0.5744  2.8943  2.9152
 7825SOL    HW234938   0.529   3.259  16.011 -0.1442 -0.3495  0.8925
 7826SOL     OW34939   1.725   2.467  13.956  0.2116 -0.0085 -0.2167
 7826SOL    HW134940   1.663   2.412  13.908 -1.0783  1.2976 -0.0662
 7826SOL    HW234941   1.799   2.409  13.941  1.5555  1.1890  1.8487
 7827SOL     OW34942   0.254   1.901  13.012  0.5087  0.1260  0.1209
 7827SOL    HW134943   0.328   1.842  13.027  0.9483  0.2133 -1.7339
 7827SOL    HW234944   0.192   1.869  13.078  0.3024 -2.9076 -1.5410
 7828SOL     OW34945   0.457   0.835   5.981 -0.2066  0.2200 -0.4222
 7828SOL    HW134946   0.426   0.779   5.910  1.3613 -0.7273 -0.3506
 7828SOL    HW234947   0.460   0.774   6.054  2.0180 -0.3003 -0.9518
 7829SOL     OW34948   0.837   4.647   6.322 -0.4751  0.3573 -0.4522
 7829SOL    HW134949   0.811   4.660   6.413 -2.3021 -0.2641 -0.8747
 7829SOL    HW234950   0.916   4.593   6.329 -0.1483  1.0151  0.8269
 7830SOL     OW34951   4.697   3.949   7.757  0.2534 -0.0582 -0.2573
 7830SOL    HW134952   4.643   3.872   7.739  0.0577  0.2833 -1.1233
 7830SOL    HW234953   0.023   3.924   7.833  0.4950  1.3576  0.0447
 7831SOL     OW34954   4.354   0.483   1.696 -0.4637 -0.2203  0.0430
 7831SOL    HW134955   4.313   0.411   1.648  0.2367  0.3309 -1.3472
 7831SOL    HW234956   4.390   0.438   1.774  0.4167  0.5262  0.0642
 7832SOL     OW34957   1.619   2.681  17.468 -0.2587  0.9291  0.0344
 7832SOL    HW134958   1.559   2.730  17.412 -0.2718 -0.8686 -1.5296
 7832SOL    HW234959   1.568   2.600  17.477  0.1757  0.8183  1.4842
 7833SOL     OW34960   4.278   0.596   6.514 -0.3980  0.1276  0.2448
 7833SOL    HW134961   4.258   0.503   6.530 -2.1610  0.5335  0.4016
 7833SOL    HW234962   4.369   0.593   6.545 -0.2509 -1.2180 -0.3329
 7834SOL     OW34963   4.311   1.360   6.747 -0.4939  0.0381 -0.3974
 7834SOL    HW134964   4.309   1.436   6.805 -0.6379 -0.7590  0.6649
 7834SOL    HW234965   4.313   1.397   6.659 -1.1607  3.0745  0.8749
 7835SOL     OW34966   4.639   2.470   5.020 -0.4203  0.6889  0.1259
 7835SOL    HW134967   4.632   2.549   5.074 -0.4406  0.1853  0.8586
 7835SOL    HW234968   4.548   2.439   5.018  0.1529 -0.9495 -0.7007
 7836SOL     OW34969   1.379   3.244   7.967 -0.2410 -0.3574  0.1061
 7836SOL    HW134970   1.421   3.199   7.894 -0.3790  0.9005 -0.7430
 7836SOL    HW234971   1.285   3.248   7.952 -0.0732 -0.0177 -0.8110
 7837SOL     OW34972   3.621   1.709   7.025 -0.2956 -0.1981 -0.5641
 7837SOL    HW134973   3.558   1.682   6.958 -1.7033  0.8890  0.3281
 7837SOL    HW234974   3.690   1.643   7.016 -1.0132 -0.9683 -0.3558
 7838SOL     OW34975   0.514   3.755   8.756  0.0445  0.1413  0.0885
 7838SOL    HW134976   0.569   3.700   8.701  1.9394  1.8342  0.2644
 7838SOL    HW234977   0.445   3.689   8.756 -0.8436  1.0664 -2.8510
 7839SOL     OW34978   2.285   4.078   9.676  0.4643 -0.8292  0.2269
 7839SOL    HW134979   2.204   4.052   9.719 -0.9076  4.3397  0.7820
 7839SOL    HW234980   2.270   4.167   9.642 -1.2485 -1.4865 -0.7510
 7840SOL     OW34981   4.185   0.477  17.495 -0.4656 -0.1461  0.2713
 7840SOL    HW134982   4.130   0.519  17.429 -0.4125  1.0722  1.0010
 7840SOL    HW234983   4.119   0.438  17.553 -0.4671  0.6351  0.7959
 7841SOL     OW34984   2.977   1.040   1.787  0.2480  0.0567 -0.3210
 7841SOL    HW134985   2.972   1.132   1.814 -2.9140  0.0095 -0.6542
 7841SOL    HW234986   2.978   1.053   1.692  3.3655  0.8515 -0.1576
 7842SOL     OW34987   2.236   3.206   0.597 -0.5723  0.2644  0.3667
 7842SOL    HW134988   2.218   3.123   0.554  4.5546 -0.2125 -0.8571
 7842SOL    HW234989   2.305   3.231   0.535  0.9917 -0.8447  1.6751
 7843SOL     OW34990   2.688   4.380   4.941  0.1316 -0.4687 -0.3297
 7843SOL    HW134991   2.639   4.341   4.868 -0.0324 -2.9604  1.1414
 7843SOL    HW234992   2.739   4.434   4.881 -1.8467 -1.8579 -3.2922
 7844SOL     OW34993   3.094   3.951   6.863 -0.4330  0.2443  0.1670
 7844SOL    HW134994   3.070   4.036   6.828 -0.0663  1.3578  2.6090
 7844SOL    HW234995   3.031   3.934   6.933  1.7693 -0.8976  1.8526
 7845SOL     OW34996   3.611   0.285   7.211  0.8715 -0.2927 -0.1056
 7845SOL    HW134997   3.628   0.329   7.295  1.1879 -2.9782  1.2270
 7845SOL    HW234998   3.689   0.309   7.160  2.1450  1.5019  2.6738
 7846SOL     OW34999   4.563   3.868   3.310 -0.4606 -0.0350  0.3140
 7846SOL    HW135000   4.556   3.787   3.360 -1.7767 -0.2300 -0.1722
 7846SOL    HW235001   4.658   3.878   3.315 -0.2626 -1.2237 -0.7884
 7847SOL     OW35002   4.457   0.195   7.183  0.1620  0.6421 -0.0655
 7847SOL    HW135003   4.499   0.280   7.167  1.2310  0.3559  1.2792
 7847SOL    HW235004   4.494   0.162   7.264 -0.1264  1.5438  0.4368
 7848SOL     OW35005   2.952   3.275  10.551  0.2242  0.0424 -0.0690
 7848SOL    HW135006   3.007   3.313  10.619  1.3627 -0.6547 -0.6139
 7848SOL    HW235007   2.937   3.359  10.508 -0.3896  0.2995  0.6437
 7849SOL     OW35008   1.572   2.366   0.580  0.3089  0.1230 -0.0424
 7849SOL    HW135009   1.531   2.366   0.666  0.0490 -1.8839 -0.1832
 7849SOL    HW235010   1.666   2.358   0.597  0.7819  0.2129 -2.6290
 7850SOL     OW35011   4.375   3.218  11.201 -0.3350 -0.0498 -0.4501
 7850SOL    HW135012   4.287   3.188  11.180  0.9532 -3.0190 -1.5269
 7850SOL    HW235013   4.371   3.210  11.297 -0.4992 -0.9088 -0.5275
 7851SOL     OW35014   1.132   4.012   9.723 -0.1170  0.7436  0.1767
 7851SOL    HW135015   1.121   3.923   9.756 -0.2480  0.0233 -1.7937
 7851SOL    HW235016   1.047   4.037   9.685 -0.8615 -1.0337  0.6907
 7852SOL     OW35017   0.309   0.649  10.657 -0.0713 -0.4961 -0.2600
 7852SOL    HW135018   0.375   0.701  10.610 -1.0121  0.1662 -0.8368
 7852SOL    HW235019   0.228   0.668  10.610 -1.0314 -1.8631  0.8471
 7853SOL     OW35020   0.959   2.976   5.219 -0.1864  0.0845  0.1875
 7853SOL    HW135021   0.947   2.886   5.252  0.2702 -0.2662 -0.6130
 7853SOL    HW235022   0.932   2.976   5.127  0.4681  0.0064 -0.0081
 7854SOL     OW35023   1.351   4.016   4.390  0.1514  0.9087  0.0606
 7854SOL    HW135024   1.271   3.975   4.359  0.1851  0.3520  0.7198
 7854SOL    HW235025   1.417   3.968   4.341  1.8549  2.7032  0.5685
 7855SOL     OW35026   1.833   4.470   7.416 -0.4002  0.4984 -0.3562
 7855SOL    HW135027   1.898   4.459   7.347 -0.3133 -2.4069  0.1938
 7855SOL    HW235028   1.844   4.388   7.463  0.5674  1.2654  0.7406
 7856SOL     OW35029   2.099   3.726   4.860  0.3434 -1.1932 -0.3496
 7856SOL    HW135030   2.042   3.802   4.867  1.5102 -0.2769 -0.6645
 7856SOL    HW235031   2.181   3.769   4.835 -0.8708  1.7639  0.7224
 7857SOL     OW35032   2.862   3.947  12.597 -0.3313  0.6951 -0.7182
 7857SOL    HW135033   2.942   3.993  12.622  0.3042 -1.5951  1.4435
 7857SOL    HW235034   2.798   4.017  12.585 -1.6623 -0.5774 -0.9615
 7858SOL     OW35035   3.671   0.714  11.165 -0.4874 -0.7142 -0.1592
 7858SOL    HW135036   3.675   0.621  11.143 -2.7271 -1.2410  1.6307
 7858SOL    HW235037   3.708   0.723  11.254 -0.7074  0.5650 -0.1879
 7859SOL     OW35038   1.907   3.717   2.128 -0.1150 -0.3030 -0.2346
 7859SOL    HW135039   1.868   3.801   2.153  0.6981  0.1277 -0.4148
 7859SOL    HW235040   1.967   3.748   2.060  0.5840  2.2326  1.5113
 7860SOL     OW35041   0.906   1.505   4.652 -0.0429  0.3625 -0.5425
 7860SOL    HW135042   0.871   1.417   4.637 -0.2248  0.5604 -1.2545
 7860SOL    HW235043   0.882   1.556   4.575  1.5218  0.4968 -0.9465
 7861SOL     OW35044   0.123   0.897   8.068 -0.4337 -0.2317 -0.0764
 7861SOL    HW135045   0.127   0.806   8.039 -0.0917 -0.3358  0.2849
 7861SOL    HW235046   0.073   0.889   8.149  2.9477 -1.8194  1.8317
 7862SOL     OW35047   2.541   0.519   4.651 -0.1658  0.5558  0.0220
 7862SOL    HW135048   2.566   0.492   4.563  1.7082 -0.5048  0.8736
 7862SOL    HW235049   2.517   0.610   4.633  2.9388  1.1586 -1.0896
 7863SOL     OW35050   2.354   0.521   5.754 -0.1853 -0.0122 -0.0040
 7863SOL    HW135051   2.321   0.592   5.699  2.3173  1.3402  0.2122
 7863SOL    HW235052   2.340   0.557   5.841  0.3424  0.0317  0.0652
 7864SOL     OW35053   3.246   2.843   3.296 -0.6174 -0.9312  0.0966
 7864SOL    HW135054   3.297   2.764   3.277 -0.6808 -0.6838 -1.0852
 7864SOL    HW235055   3.170   2.820   3.349 -0.7413  1.0868  0.7917
 7865SOL     OW35056   2.224   2.970   6.002  0.3033  0.9645 -0.3145
 7865SOL    HW135057   2.161   2.906   6.037  3.1135 -1.6329 -0.0337
 7865SOL    HW235058   2.299   2.955   6.060  0.0385 -1.3057 -0.5579
 7866SOL     OW35059   2.177   3.342   6.866 -0.1048 -0.2456  0.2295
 7866SOL    HW135060   2.141   3.417   6.819 -1.4088 -0.4734  0.8518
 7866SOL    HW235061   2.262   3.371   6.897 -0.1524 -0.9906  1.0739
 7867SOL     OW35062   3.476   3.467  11.063 -0.4755 -0.0833  0.3222
 7867SOL    HW135063   3.441   3.460  11.152  0.0347  2.3350  0.6982
 7867SOL    HW235064   3.547   3.531  11.066 -0.7279  0.2957 -1.5430
 7868SOL     OW35065   0.922   3.613  11.947  0.1145 -0.7794  0.0148
 7868SOL    HW135066   0.991   3.555  11.912  1.5026  0.0621  1.3447
 7868SOL    HW235067   0.930   3.695  11.897  1.8084 -0.3550  0.9596
 7869SOL     OW35068   2.302   1.309  16.683  0.1065  1.0005 -0.1231
 7869SOL    HW135069   2.251   1.273  16.609  2.9794  1.2324 -2.2281
 7869SOL    HW235070   2.266   1.268  16.762  1.9122 -1.1824 -0.4177
 7870SOL     OW35071   4.465   2.592   6.383 -0.1328  0.2004 -0.0819
 7870SOL    HW135072   4.497   2.641   6.307 -2.1977  0.2550 -0.9084
 7870SOL    HW235073   4.532   2.527   6.404  0.0734  0.8981  1.3852
 7871SOL     OW35074   4.480   1.414  17.081 -0.3764 -0.0756  0.7060
 7871SOL    HW135075   4.443   1.492  17.122  0.4385  1.4604 -1.4458
 7871SOL    HW235076   4.572   1.425  17.103 -0.4315  3.8858 -1.1271
 7872SOL     OW35077   2.553   3.697   6.912 -0.1999  0.1940  0.0629
 7872SOL    HW135078   2.638   3.714   6.872 -0.1682  0.4722  0.2482
 7872SOL    HW235079   2.518   3.786   6.902 -0.1653  0.0281 -1.4245
 7873SOL     OW35080   1.669   2.831   2.533  0.3075  0.3115 -0.2226
 7873SOL    HW135081   1.703   2.920   2.525 -1.6999  0.9674 -1.4403
 7873SOL    HW235082   1.576   2.838   2.510 -0.3369 -0.6271  2.0095
 7874SOL     OW35083   3.087   3.082   3.906 -0.2132  0.1253 -0.1952
 7874SOL    HW135084   3.140   3.079   3.986 -0.2511  0.1381 -0.1694
 7874SOL    HW235085   3.106   3.167   3.867  0.2477  0.3456  0.5134
 7875SOL     OW35086   1.346   0.256   6.119  0.2125 -0.1599  0.0944
 7875SOL    HW135087   1.358   0.275   6.026 -0.7000 -2.6370 -0.5332
 7875SOL    HW235088   1.385   0.170   6.126  1.0712  0.3031  0.9781
 7876SOL     OW35089   1.302   0.986  13.647 -0.3218 -0.1422  0.1752
 7876SOL    HW135090   1.265   1.054  13.703 -0.0947  0.6847 -0.6749
 7876SOL    HW235091   1.396   0.980  13.664 -0.2827  4.9486  1.6514
 7877SOL     OW35092   4.633   4.062  15.904 -0.3105  0.3296 -0.1673
 7877SOL    HW135093   4.632   4.098  15.816 -1.1377 -3.1772 -1.5607
 7877SOL    HW235094   4.571   4.127  15.940  0.4731  0.8331  0.2775
 7878SOL     OW35095   2.202   1.875   5.492 -0.2773 -0.0669 -0.0520
 7878SOL    HW135096   2.274   1.917   5.446  1.8254 -1.0629  2.3380
 7878SOL    HW235097   2.192   1.894   5.585 -0.6273  2.8674 -0.6851
 7879SOL     OW35098   1.687   3.112  15.894 -0.2245 -0.1180 -0.3075
 7879SOL    HW135099   1.665   3.032  15.846 -2.7257  1.4019 -1.6406
 7879SOL    HW235100   1.645   3.181  15.843 -0.0855  0.0718 -0.1631
 7880SOL     OW35101   0.507   1.505   6.253  0.3872  0.4760 -0.0301
 7880SOL    HW135102   0.426   1.473   6.293 -0.5923  1.3942 -1.2805
 7880SOL    HW235103   0.509   1.463   6.167 -1.0205 -1.3375  0.8404
 7881SOL     OW35104   0.374   2.355   1.869  0.4113 -0.5123 -0.4289
 7881SOL    HW135105   0.401   2.447   1.878  0.6100 -0.6856  0.8360
 7881SOL    HW235106   0.313   2.361   1.943  1.4824  3.2257  0.1630
 7882SOL     OW35107   3.997   3.056   3.775  0.3296 -0.2580 -0.1923
 7882SOL    HW135108   3.992   3.047   3.870  0.4853  1.1481 -0.0489
 7882SOL    HW235109   3.905   3.053   3.749  0.9280 -0.5995 -2.3069
 7883SOL     OW35110   4.052   0.589  15.307 -0.1355 -0.1034  0.2280
 7883SOL    HW135111   4.059   0.685  15.304 -0.6817 -0.0947 -0.8244
 7883SOL    HW235112   3.965   0.566  15.276  0.3213  0.4289 -1.4365
 7884SOL     OW35113   1.403   0.564   5.082 -0.5464  0.0161  0.2242
 7884SOL    HW135114   1.474   0.598   5.137 -0.5711 -3.6445  2.5608
 7884SOL    HW235115   1.346   0.640   5.085 -0.4731  0.0696  0.2661
 7885SOL     OW35116   4.635   2.906  16.652  0.2154 -0.2335 -1.3579
 7885SOL    HW135117   4.590   2.849  16.589  2.5944 -2.7189 -0.7517
 7885SOL    HW235118   4.719   2.863  16.661 -0.8976 -2.0237  0.3088
 7886SOL     OW35119   3.354   3.435   2.012 -0.3240  0.4326 -0.3665
 7886SOL    HW135120   3.426   3.388   1.970 -0.8034 -1.6558  1.1743
 7886SOL    HW235121   3.339   3.373   2.084 -1.2538  1.9122  0.7019
 7887SOL     OW35122   3.558   1.635   4.727 -0.5067 -0.6220  0.1330
 7887SOL    HW135123   3.537   1.548   4.693  0.6768 -0.6011 -0.6458
 7887SOL    HW235124   3.529   1.619   4.817  1.1967 -3.4106  0.1962
 7888SOL     OW35125   0.256   2.556   4.089 -0.4066 -0.3879  0.0998
 7888SOL    HW135126   0.257   2.516   4.002  0.3847 -0.9378  0.3536
 7888SOL    HW235127   0.216   2.641   4.070  0.2827  0.0882  0.7947
 7889SOL     OW35128   1.285   0.791   7.886 -0.3796 -0.4698  0.4574
 7889SOL    HW135129   1.325   0.811   7.801 -0.8341  0.0773  0.3705
 7889SOL    HW235130   1.223   0.863   7.897 -0.7403 -0.4409 -1.6756
 7890SOL     OW35131   3.709   0.499   3.381  0.0290  0.2293 -0.0172
 7890SOL    HW135132   3.776   0.459   3.437 -0.3313 -2.3997 -1.4456
 7890SOL    HW235133   3.661   0.545   3.449 -1.9179  0.9951 -1.9385
 7891SOL     OW35134   3.748   4.067  12.090 -0.0238  0.3353 -0.1931
 7891SOL    HW135135   3.699   3.985  12.088 -1.1880  1.0614 -1.4013
 7891SOL    HW235136   3.680   4.133  12.095  0.7225  1.0964 -0.0408
 7892SOL     OW35137   4.723   4.218   3.404 -0.4645 -0.7647 -0.4159
 7892SOL    HW135138   0.089   4.219   3.388 -0.4655  0.1801 -0.3647
 7892SOL    HW235139   4.681   4.224   3.318  2.4866 -0.3663 -1.8241
 7893SOL     OW35140   2.596   3.644   3.067 -0.4193  0.1925  0.3356
 7893SOL    HW135141   2.572   3.618   3.156 -2.3983 -1.7094 -0.7477
 7893SOL    HW235142   2.596   3.555   3.029 -0.5352 -0.3940  1.7220
 7894SOL     OW35143   2.411   0.593   5.376 -0.4399 -0.0971  0.2143
 7894SOL    HW135144   2.405   0.514   5.321 -2.7029  0.8544 -0.9128
 7894SOL    HW235145   2.480   0.557   5.431  0.0797  0.0984 -0.3116
 7895SOL     OW35146   4.609   0.313   2.883  0.2137 -0.0764  0.6249
 7895SOL    HW135147   4.528   0.352   2.916 -0.6441 -1.7054  0.4847
 7895SOL    HW235148   4.663   0.379   2.927  2.9006 -1.7586 -0.1687
 7896SOL     OW35149   1.506   4.291   6.374  0.2285 -0.5994 -0.0376
 7896SOL    HW135150   1.504   4.205   6.417  0.2769 -0.3529  0.4568
 7896SOL    HW235151   1.595   4.319   6.395 -0.8088  1.3946  1.6841
 7897SOL     OW35152   3.246   4.508  14.349  0.4629 -0.2495 -0.2259
 7897SOL    HW135153   3.275   4.596  14.328 -2.1345  1.3001  2.5676
 7897SOL    HW235154   3.155   4.530  14.372  2.0212  3.1866  2.6680
 7898SOL     OW35155   4.237   0.113   6.267  0.3967  0.0624 -0.0310
 7898SOL    HW135156   4.290   0.175   6.317  1.0087 -1.1083  0.7792
 7898SOL    HW235157   4.271   0.028   6.294  2.7439  1.5844  1.8371
 7899SOL     OW35158   0.100   3.961   8.824  0.1538  0.3511  0.3003
 7899SOL    HW135159   0.119   3.969   8.918 -3.1021  1.6141  0.8506
 7899SOL    HW235160   0.026   4.020   8.816  0.2792  0.4766  0.0734
 7900SOL     OW35161   0.483   2.348   0.241  0.4862  0.5100 -0.1834
 7900SOL    HW135162   0.573   2.374   0.222  0.3340  1.2819  0.1485
 7900SOL    HW235163   0.434   2.407   0.184 -1.8720 -1.3498 -0.0922
 7901SOL     OW35164   4.511   1.528   3.450  0.0416  0.7525 -0.4362
 7901SOL    HW135165   4.460   1.554   3.373  0.7639  0.3549 -1.0569
 7901SOL    HW235166   4.445   1.522   3.519 -1.4625  0.5940 -1.8723
 7902SOL     OW35167   0.157   1.244   2.632  0.2959  0.0236  0.0102
 7902SOL    HW135168   0.112   1.245   2.547 -0.3734 -0.0773  0.3585
 7902SOL    HW235169   0.216   1.169   2.623 -0.2556 -0.4159  0.0033
 7903SOL     OW35170   1.098   1.763   2.102  0.0462 -1.0128 -0.5189
 7903SOL    HW135171   1.105   1.682   2.052 -1.7669 -0.8318 -1.0757
 7903SOL    HW235172   1.024   1.811   2.063  1.1824  1.5015  0.4491
 7904SOL     OW35173   4.430   3.168   6.681 -0.6105  0.2597 -0.0931
 7904SOL    HW135174   4.454   3.254   6.713 -0.7447  0.0643  0.5280
 7904SOL    HW235175   4.449   3.174   6.587  0.2696 -2.5918 -0.1165
 7905SOL     OW35176   2.158   2.747   1.928 -0.3251  0.3878  0.5615
 7905SOL    HW135177   2.178   2.835   1.958  1.7094 -0.0683  0.6074
 7905SOL    HW235178   2.187   2.692   2.000  1.4051 -1.8467 -1.8077
 7906SOL     OW35179   4.722   2.306   4.339 -0.1890  0.4038  0.5304
 7906SOL    HW135180   0.029   2.264   4.260 -0.7751  0.7719  0.0838
 7906SOL    HW235181   4.637   2.325   4.301  0.0839 -1.2992 -0.9377
 7907SOL     OW35182   0.131   1.406   1.604  0.5910 -0.2099  0.6170
 7907SOL    HW135183   0.137   1.390   1.698 -3.6795 -1.5840  0.6588
 7907SOL    HW235184   0.044   1.375   1.578  1.0241 -2.4541  1.9046
 7908SOL     OW35185   3.914   4.687   1.263  0.1173 -0.0994 -0.2652
 7908SOL    HW135186   3.823   4.680   1.234  0.1501  2.7298 -1.1455
 7908SOL    HW235187   3.957   4.661   1.182 -1.9175 -0.9341 -1.0681
 7909SOL     OW35188   3.072   1.550   7.347  0.3896 -0.2557  0.4437
 7909SOL    HW135189   3.152   1.501   7.330 -0.2731 -1.4954  0.8763
 7909SOL    HW235190   3.102   1.638   7.324 -1.7239  0.2125 -0.5461
 7910SOL     OW35191   1.656   4.313   2.216  0.3689  0.5297  0.4226
 7910SOL    HW135192   1.571   4.356   2.226  0.5869  1.7339 -3.0813
 7910SOL    HW235193   1.629   4.273   2.134  1.7399  0.8539 -0.1828
 7911SOL     OW35194   3.592   3.712   6.644 -0.3663 -0.4583 -0.1573
 7911SOL    HW135195   3.686   3.698   6.656 -0.2370 -0.2727 -0.9439
 7911SOL    HW235196   3.606   3.751   6.558  1.2593 -0.5602  0.0658
 7912SOL     OW35197   0.006   3.325  16.677 -0.4576  0.1492 -0.3229
 7912SOL    HW135198   0.029   3.405  16.631 -1.3185 -0.8852 -2.5353
 7912SOL    HW235199   0.034   3.257  16.616 -0.2880 -0.5301  0.5169
 7913SOL     OW35200   4.114   3.401   3.916 -0.3172  0.3217  0.2027
 7913SOL    HW135201   4.086   3.310   3.918  1.0239 -0.0458  1.8825
 7913SOL    HW235202   4.051   3.434   3.852  0.7162  1.6612 -0.0998
 7914SOL     OW35203   0.531   1.621   7.717  0.1305 -0.0739 -0.5197
 7914SOL    HW135204   0.484   1.575   7.647 -2.2218  0.9177  0.4001
 7914SOL    HW235205   0.458   1.629   7.778  0.5449 -0.7369  0.0626
 7915SOL     OW35206   4.118   1.426   3.990 -0.4450 -0.0998 -0.0270
 7915SOL    HW135207   4.031   1.400   3.961 -0.5018 -0.6283  0.6080
 7915SOL    HW235208   4.166   1.375   3.925 -2.2707 -3.0682  0.9407
 7916SOL     OW35209   3.996   1.395  15.167 -0.2699  0.0059  0.2099
 7916SOL    HW135210   4.054   1.471  15.178  0.4572 -0.4311 -0.6485
 7916SOL    HW235211   4.041   1.336  15.108  0.5628  0.4604  0.3921
 7917SOL     OW35212   1.125   3.622  16.476 -0.8902 -0.0484  0.7179
 7917SOL    HW135213   1.179   3.670  16.539  0.1141  0.1909 -0.3262
 7917SOL    HW235214   1.177   3.543  16.461 -2.0774 -0.8948  1.0388
 7918SOL     OW35215   3.824   1.161   8.570  0.0522 -0.4056  0.9506
 7918SOL    HW135216   3.880   1.176   8.646  0.4868 -1.6899  0.8664
 7918SOL    HW235217   3.885   1.180   8.499 -1.5986 -1.5697 -0.7671
 7919SOL     OW35218   0.845   4.213   3.549 -0.0675  0.0009  0.4667
 7919SOL    HW135219   0.830   4.308   3.557 -1.4998 -0.2373  0.6095
 7919SOL    HW235220   0.815   4.184   3.635 -1.7304 -1.4290 -0.6026
 7920SOL     OW35221   2.790   3.457  14.128 -0.7871  1.1308 -0.1077
 7920SOL    HW135222   2.828   3.517  14.193 -0.8946  0.3861  0.6471
 7920SOL    HW235223   2.825   3.370  14.148 -0.4764  0.9837 -1.3253
 7921SOL     OW35224   3.476   4.118  14.131  0.0040  0.4098  0.2928
 7921SOL    HW135225   3.570   4.101  14.121  0.3602  2.6677 -0.3212
 7921SOL    HW235226   3.478   4.187  14.198  1.1308  1.4360 -0.8058
 7922SOL     OW35227   2.889   4.378   2.149  0.0429 -0.0537 -0.0033
 7922SOL    HW135228   2.931   4.384   2.235 -1.0902  3.1213  0.3229
 7922SOL    HW235229   2.870   4.471   2.136 -1.1265 -0.2254  0.5126
 7923SOL     OW35230   3.803   0.033  14.441  0.1927 -0.4228  0.0973
 7923SOL    HW135231   3.799   0.127  14.424  1.2841 -0.2756  0.6266
 7923SOL    HW235232   3.895   0.026  14.418  0.0448 -0.3350 -0.5009
 7924SOL     OW35233   2.244   2.297   8.348 -0.3414 -0.7335 -0.3937
 7924SOL    HW135234   2.148   2.293   8.341 -0.5028  0.1230  1.0920
 7924SOL    HW235235   2.274   2.266   8.263 -0.7997 -0.1504 -0.7725
 7925SOL     OW35236   1.987   0.305   1.392 -0.3027 -0.9129  0.8330
 7925SOL    HW135237   2.074   0.264   1.389  0.1990  0.2002  0.2706
 7925SOL    HW235238   1.960   0.296   1.483  1.6216 -2.0358  1.2916
 7926SOL     OW35239   2.183   4.171  12.892 -0.3891 -0.2032 -0.1640
 7926SOL    HW135240   2.241   4.121  12.836 -0.2469  1.3377 -1.4184
 7926SOL    HW235241   2.111   4.113  12.916 -0.8610  0.8183  0.8950
 7927SOL     OW35242   2.833   3.703  10.736  0.0482  0.1199 -0.0733
 7927SOL    HW135243   2.868   3.710  10.825  0.2888  0.6391 -0.2082
 7927SOL    HW235244   2.903   3.749  10.688  0.6826 -1.8708 -1.0519
 7928SOL     OW35245   3.648   0.286   8.687  0.5096 -0.5128  0.3116
 7928SOL    HW135246   3.655   0.381   8.699 -1.3221 -0.7047  2.8309
 7928SOL    HW235247   3.680   0.283   8.597 -1.7956 -1.7061 -0.4642
 7929SOL     OW35248   1.389   1.263   5.658 -0.2294  0.1235 -0.1125
 7929SOL    HW135249   1.481   1.239   5.669 -1.4302 -3.3330  2.2100
 7929SOL    HW235250   1.361   1.283   5.747  1.0930  0.0168  0.3188
 7930SOL     OW35251   0.560   0.508   8.381  0.6676 -0.2320  0.1947
 7930SOL    HW135252   0.578   0.420   8.349 -0.7094 -0.6341  0.5397
 7930SOL    HW235253   0.489   0.483   8.440  0.6962 -1.2554 -0.2077
 7931SOL     OW35254   1.094   3.099   1.879  0.9706 -0.0179  0.2975
 7931SOL    HW135255   1.068   3.025   1.935  0.4220 -0.7937 -0.9904
 7931SOL    HW235256   1.008   3.142   1.873  0.2675 -1.0519  3.0246
 7932SOL     OW35257   4.137   4.376  12.075 -0.7817 -0.1081  0.5275
 7932SOL    HW135258   4.189   4.323  12.016  2.5549  1.9258  1.6485
 7932SOL    HW235259   4.096   4.303  12.122  0.4091 -0.5129  0.9522
 7933SOL     OW35260   1.837   1.900   0.385  0.1681  0.2451  0.0789
 7933SOL    HW135261   1.832   1.984   0.430  1.2869  1.8333 -2.7107
 7933SOL    HW235262   1.802   1.921   0.298  0.2487 -2.2321 -0.5627
 7934SOL     OW35263   1.159   3.460  14.126 -0.0473 -0.2486 -0.0437
 7934SOL    HW135264   1.085   3.471  14.066 -1.2834  2.9033  2.0285
 7934SOL    HW235265   1.168   3.366  14.111  0.6611  0.0104 -1.2510
 7935SOL     OW35266   4.703   1.208  12.943 -0.5792 -0.5103 -0.4083
 7935SOL    HW135267   0.012   1.296  12.950 -1.0279 -0.3197 -0.4580
 7935SOL    HW235268   4.620   1.242  12.910  0.6209  2.6179 -0.2353
 7936SOL     OW35269   0.517   0.836  13.351  0.8731 -0.5041  0.6218
 7936SOL    HW135270   0.493   0.767  13.412 -0.5371 -1.0127 -0.4960
 7936SOL    HW235271   0.526   0.914  13.407  1.1708 -0.2908  0.2798
 7937SOL     OW35272   3.770   3.506   2.128 -0.0368 -0.8190  0.2099
 7937SOL    HW135273   3.862   3.529   2.121 -0.3801 -0.1843 -2.2775
 7937SOL    HW235274   3.723   3.576   2.172 -0.2934 -0.4028 -0.7287
 7938SOL     OW35275   2.808   1.275   4.439 -0.5724  0.2305  0.4936
 7938SOL    HW135276   2.833   1.220   4.514  0.5347 -1.8429 -1.3675
 7938SOL    HW235277   2.733   1.230   4.401 -1.6530  1.4626  1.2133
 7939SOL     OW35278   4.210   4.560   6.620 -0.2676 -0.4474 -0.0086
 7939SOL    HW135279   4.145   4.622   6.652  0.0078 -0.7638  1.1514
 7939SOL    HW235280   4.242   4.524   6.703  0.9669  0.8569  0.0671
 7940SOL     OW35281   3.026   2.548   8.216 -0.3633 -0.1641 -0.1380
 7940SOL    HW135282   3.085   2.478   8.245 -0.9693  0.0818  1.7044
 7940SOL    HW235283   2.956   2.549   8.280  0.8272  0.1029  1.1725
 7941SOL     OW35284   3.826   4.658   5.914 -1.0220 -0.1907  0.2826
 7941SOL    HW135285   3.909   4.660   5.866 -0.8362  0.9476  0.6668
 7941SOL    HW235286   3.767   4.630   5.844 -1.8666  1.5838  0.2947
 7942SOL     OW35287   1.250   3.056   2.609  0.4362  0.6745 -0.1433
 7942SOL    HW135288   1.243   3.119   2.538 -1.0258  0.4443 -0.2155
 7942SOL    HW235289   1.238   3.115   2.683 -1.1629 -0.3949  0.4570
 7943SOL     OW35290   0.981   0.111  16.057 -0.6549 -0.1470 -0.7532
 7943SOL    HW135291   0.968   0.067  16.141  0.7067  0.1711 -0.3693
 7943SOL    HW235292   1.072   0.139  16.063 -0.1718 -1.9297  0.0311
 7944SOL     OW35293   4.666   2.641   3.317 -0.0009  0.0143 -0.5146
 7944SOL    HW135294   4.605   2.568   3.330 -0.4090  0.3093 -0.7943
 7944SOL    HW235295   0.013   2.611   3.370  1.6669 -0.9210 -3.4121
 7945SOL     OW35296   1.235   1.102   8.361 -0.1272  0.3596  0.0737
 7945SOL    HW135297   1.318   1.055   8.371 -0.3543 -0.1459 -0.3949
 7945SOL    HW235298   1.263   1.177   8.412  1.1315 -0.8194  1.1246
 7946SOL     OW35299   1.176   0.243  16.751  0.4466  0.1327  0.0993
 7946SOL    HW135300   1.088   0.215  16.776  1.0087 -1.0250  0.7951
 7946SOL    HW235301   1.213   0.156  16.731  2.5901  1.4683 -1.7652
 7947SOL     OW35302   1.619   0.696   3.506  0.2867  0.0200  0.9061
 7947SOL    HW135303   1.700   0.647   3.525  0.6583  0.6943  1.0718
 7947SOL    HW235304   1.573   0.674   3.587  0.3996  1.8346  1.4590
 7948SOL     OW35305   1.203   4.230   6.615 -0.4652 -0.4957 -0.2079
 7948SOL    HW135306   1.249   4.166   6.560 -2.2206  0.5537 -2.8879
 7948SOL    HW235307   1.131   4.255   6.558 -0.7332 -2.5188 -0.7362
 7949SOL     OW35308   3.051   1.500   1.829  0.3945  0.1871  0.4889
 7949SOL    HW135309   3.007   1.550   1.760 -1.9735  0.6662  2.3143
 7949SOL    HW235310   3.055   1.569   1.895 -0.6553 -1.6022  2.4438
 7950SOL     OW35311   4.410   3.350   2.116 -0.0074 -0.5734  0.0572
 7950SOL    HW135312   4.434   3.301   2.037 -2.5020 -0.3869 -0.8109
 7950SOL    HW235313   4.418   3.439   2.082 -2.4528  0.1570  1.4138
 7951SOL     OW35314   1.686   1.498   1.507  0.0424  0.5343 -0.3434
 7951SOL    HW135315   1.640   1.575   1.476 -1.8953 -1.3695 -2.1476
 7951SOL    HW235316   1.619   1.440   1.544 -0.8731  1.1050 -1.1179
 7952SOL     OW35317   3.622   4.053   8.390 -0.2718  0.3262  0.1614
 7952SOL    HW135318   3.622   4.010   8.304  0.5687  0.2335  0.2085
 7952SOL    HW235319   3.530   4.081   8.397 -0.5824 -1.5812  3.5515
 7953SOL     OW35320   0.759   2.811   3.180  0.1356 -0.0629 -0.3583
 7953SOL    HW135321   0.837   2.768   3.145 -0.4932 -0.8047 -0.8327
 7953SOL    HW235322   0.692   2.743   3.187 -0.9807  1.1611  1.0444
 7954SOL     OW35323   1.581   4.180   0.991 -0.8438  0.1552  1.3938
 7954SOL    HW135324   1.546   4.269   0.993  1.5845  1.1276  0.0216
 7954SOL    HW235325   1.671   4.185   0.961 -0.6574 -0.7240  1.8050
 7955SOL     OW35326   1.680   4.137   2.425 -0.2005  0.1873  0.1425
 7955SOL    HW135327   1.594   4.162   2.459 -0.1928  1.3851 -0.7240
 7955SOL    HW235328   1.690   4.197   2.351  0.0260 -0.5229 -0.4016
 7956SOL     OW35329   1.946   0.219   8.607 -0.9532  0.7178 -0.0234
 7956SOL    HW135330   1.998   0.224   8.687 -1.2531  0.5735  0.1777
 7956SOL    HW235331   2.005   0.267   8.549  0.3672 -0.9218 -0.0608
 7957SOL     OW35332   2.504   0.974   0.786 -0.4725  0.0534  0.0610
 7957SOL    HW135333   2.436   0.913   0.814 -1.4451  1.9358  1.8193
 7957SOL    HW235334   2.581   0.944   0.835 -1.4536  1.9854  2.7846
 7958SOL     OW35335   0.739   1.536   1.805  0.3046  0.8801 -0.0482
 7958SOL    HW135336   0.796   1.546   1.881  1.3461  1.3832 -0.8956
 7958SOL    HW235337   0.794   1.482   1.748 -0.2493  0.5283 -0.2485
 7959SOL     OW35338   0.012   3.089   0.704  0.5071 -0.5835  0.4516
 7959SOL    HW135339   0.081   3.152   0.724 -0.9494  1.7261 -1.7352
 7959SOL    HW235340   4.672   3.142   0.747 -1.8848 -0.9884 -2.8171
 7960SOL     OW35341   2.430   3.896  16.888 -0.5402 -1.2158  0.0369
 7960SOL    HW135342   2.440   3.959  16.816  2.4910 -1.6755  0.0848
 7960SOL    HW235343   2.377   3.950  16.947  0.3703 -1.3741  0.9951
 7961SOL     OW35344   3.163   3.950   1.819 -0.1197 -0.0450 -0.8759
 7961SOL    HW135345   3.199   3.863   1.831 -1.1633 -0.1822  1.2515
 7961SOL    HW235346   3.103   3.965   1.892  2.2302 -0.9353  1.2402
 7962SOL     OW35347   2.931   2.725   9.940  0.2530 -0.0999  0.1209
 7962SOL    HW135348   3.014   2.729   9.987 -0.2483 -1.7661  1.1555
 7962SOL    HW235349   2.905   2.633   9.935 -0.1104  0.0017  0.1621
 7963SOL     OW35350   1.152   4.570   9.524 -0.3803 -0.4598 -0.0440
 7963SOL    HW135351   1.218   4.550   9.589  0.4581  0.3227 -0.6536
 7963SOL    HW235352   1.124   4.483   9.494 -2.0889  0.7967 -2.1647
 7964SOL     OW35353   0.878   3.838   9.482  0.6940  0.0518 -0.3318
 7964SOL    HW135354   0.902   3.756   9.526 -0.1689 -0.5702 -1.0309
 7964SOL    HW235355   0.867   3.798   9.395 -2.2922  0.3182 -0.0739
 7965SOL     OW35356   1.129   1.064   4.141 -0.1602 -0.0402 -0.4650
 7965SOL    HW135357   1.097   1.111   4.064  0.8476 -0.1017 -0.9297
 7965SOL    HW235358   1.223   1.075   4.124  0.0495 -0.5194  0.3506
 7966SOL     OW35359   2.279   3.397  13.031 -0.2385 -0.5560 -0.2127
 7966SOL    HW135360   2.223   3.408  12.954  0.3581  1.9504 -0.2964
 7966SOL    HW235361   2.316   3.312  13.008  0.9007 -0.6511  1.9891
 7967SOL     OW35362   4.620   0.522   8.171 -0.2802 -0.5008  0.7745
 7967SOL    HW135363   4.700   0.469   8.162  0.2289  0.8778 -2.5918
 7967SOL    HW235364   4.659   0.605   8.198  1.3623 -1.1578  0.4526
 7968SOL     OW35365   4.398   1.398   5.034 -0.4837 -0.2027  0.4171
 7968SOL    HW135366   4.341   1.431   4.964  2.0202 -0.0491 -1.5475
 7968SOL    HW235367   4.453   1.475   5.046  1.0874 -1.0466 -1.4152
 7969SOL     OW35368   2.729   1.306   9.147  0.5383 -0.1315 -0.1379
 7969SOL    HW135369   2.750   1.360   9.070  0.9842  1.7401  1.2833
 7969SOL    HW235370   2.663   1.256   9.100  1.2995 -1.2511 -0.0054
 7970SOL     OW35371   4.393   1.200  10.466  0.4813 -0.2605 -0.0719
 7970SOL    HW135372   4.468   1.249  10.433  0.3195  0.4639  0.6299
 7970SOL    HW235373   4.406   1.188  10.560  0.0646 -4.3126 -0.5370
 7971SOL     OW35374   2.646   0.128   8.264 -0.2611 -0.8091 -0.3599
 7971SOL    HW135375   2.628   0.222   8.263  2.4461 -0.2752  0.8911
 7971SOL    HW235376   2.611   0.101   8.349  0.4416 -3.3721 -0.8667
 7972SOL     OW35377   2.583   1.353  11.024 -0.4205  0.0454  0.0499
 7972SOL    HW135378   2.635   1.432  11.036 -0.0496 -0.3864  1.2515
 7972SOL    HW235379   2.658   1.296  11.040 -0.1040  0.9823  1.8490
 7973SOL     OW35380   2.592   4.387   4.034 -0.2951  0.3368 -0.0702
 7973SOL    HW135381   2.573   4.450   4.103  2.5858  0.8597  0.2376
 7973SOL    HW235382   2.517   4.327   4.034  1.5534 -1.9686 -1.0043
 7974SOL     OW35383   0.822   3.796   5.147 -0.0110 -0.1834 -0.3514
 7974SOL    HW135384   0.810   3.854   5.071  0.2826 -0.3149 -0.4968
 7974SOL    HW235385   0.788   3.720   5.100  1.5739 -0.0205 -1.7460
 7975SOL     OW35386   0.601   1.639   8.302  0.0869  0.0285 -0.2887
 7975SOL    HW135387   0.695   1.629   8.319 -0.0594 -0.5863  0.1476
 7975SOL    HW235388   0.604   1.637   8.206  1.3917 -0.3359 -0.2416
 7976SOL     OW35389   3.717   2.755   4.614  0.3116  0.1455 -0.0735
 7976SOL    HW135390   3.711   2.680   4.674 -0.9478  0.8748  0.7075
 7976SOL    HW235391   3.767   2.709   4.546 -2.8938  0.1143 -2.3757
 7977SOL     OW35392   3.876   2.388   1.342 -0.2823 -0.4519 -0.2248
 7977SOL    HW135393   3.793   2.380   1.295 -0.0415  0.2502 -0.7690
 7977SOL    HW235394   3.897   2.296   1.357 -0.8016 -0.4113  0.7447
 7978SOL     OW35395   4.706   2.000   5.189 -0.0874  0.5458 -0.8028
 7978SOL    HW135396   0.018   1.988   5.103  0.6021 -0.3777 -0.3631
 7978SOL    HW235397   0.046   1.960   5.243  0.0229  0.6971 -0.8322
 7979SOL     OW35398   1.423   3.403  17.252 -0.0045 -0.5412 -0.0817
 7979SOL    HW135399   1.482   3.353  17.308  1.7818 -1.3624 -2.7187
 7979SOL    HW235400   1.351   3.343  17.268  0.1860 -1.6924 -3.6326
 7980SOL     OW35401   0.864   1.042   8.035 -0.0175  0.5796  0.1234
 7980SOL    HW135402   0.777   1.033   8.073 -0.4594  2.5766 -0.4180
 7980SOL    HW235403   0.879   1.135   8.053 -0.0362  0.4544  0.7975
 7981SOL     OW35404   0.279   4.568   8.505  0.4389  0.4166  0.3223
 7981SOL    HW135405   0.312   4.514   8.577  0.0281  0.8003  0.7931
 7981SOL    HW235406   0.319   4.654   8.522 -2.3798  1.3923  1.9784
 7982SOL     OW35407   3.725   2.103   1.578 -0.5692  0.4797  0.0708
 7982SOL    HW135408   3.685   2.189   1.567 -3.7897 -0.8941  0.8976
 7982SOL    HW235409   3.656   2.037   1.567 -0.4306  0.2455  0.5984
 7983SOL     OW35410   0.501   1.867   8.880  0.2804  0.2613 -0.0779
 7983SOL    HW135411   0.576   1.892   8.826  1.1340  2.2854  2.0577
 7983SOL    HW235412   0.533   1.856   8.969  1.1725 -0.2460 -0.4594
 7984SOL     OW35413   1.477   2.477   7.756 -0.7357  0.4802  0.0645
 7984SOL    HW135414   1.471   2.416   7.682 -0.2774 -0.3937  0.7530
 7984SOL    HW235415   1.488   2.560   7.711  1.1187 -0.0654 -0.5073
 7985SOL     OW35416   1.573   1.982  15.131  0.2508 -0.5366  0.5140
 7985SOL    HW135417   1.585   2.049  15.198  1.9918 -1.1438  0.8032
 7985SOL    HW235418   1.518   2.036  15.073  2.3296 -0.2640 -1.1823
 7986SOL     OW35419   3.871   0.981   5.913 -0.3379  0.1488 -0.1260
 7986SOL    HW135420   3.897   0.946   5.998  1.2838 -0.5010 -0.8933
 7986SOL    HW235421   3.780   0.998   5.938  0.3256  2.1329  0.8803
 7987SOL     OW35422   0.806   2.850  15.038  0.3633 -0.0498  0.0770
 7987SOL    HW135423   0.798   2.858  14.943  2.7286  2.3649  0.0945
 7987SOL    HW235424   0.769   2.761  15.045 -1.0085  0.7211  2.6491
 7988SOL     OW35425   3.357   2.113   7.820  0.1605 -0.0352  0.4694
 7988SOL    HW135426   3.347   2.091   7.728  0.0513 -0.3468  0.5524
 7988SOL    HW235427   3.269   2.100   7.857 -0.8498  0.1138 -1.9008
 7989SOL     OW35428   3.892   4.159   5.699  0.0411  0.0635  0.0212
 7989SOL    HW135429   3.947   4.134   5.773 -1.0243  0.7191  1.0348
 7989SOL    HW235430   3.953   4.163   5.625  1.3279  0.1167  1.0807
 7990SOL     OW35431   0.904   2.693   4.684  0.1008  0.2921 -0.1797
 7990SOL    HW135432   0.841   2.673   4.753 -1.1971 -0.9055 -1.7190
 7990SOL    HW235433   0.846   2.742   4.626  0.6291  3.0199  1.5947
 7991SOL     OW35434   1.601   2.217   5.702 -0.6850 -0.9596 -0.1319
 7991SOL    HW135435   1.518   2.242   5.662 -0.0668 -0.0570 -0.8444
 7991SOL    HW235436   1.661   2.208   5.628  1.0096  0.0193  1.1456
 7992SOL     OW35437   0.296   3.817   9.775  0.0559 -0.2329  0.2439
 7992SOL    HW135438   0.271   3.899   9.733 -0.1446 -0.0600  0.6939
 7992SOL    HW235439   0.294   3.852   9.864  1.4021 -0.3692  0.3153
 7993SOL     OW35440   3.634   1.896   3.856  0.3815  0.2648  0.4286
 7993SOL    HW135441   3.564   1.879   3.794  0.9474 -1.9153  0.4047
 7993SOL    HW235442   3.589   1.886   3.939 -0.7124  0.2089 -0.1720
 7994SOL     OW35443   4.376   3.252  10.099  0.2477  0.3611 -0.4849
 7994SOL    HW135444   4.413   3.341  10.102 -2.3116  1.3825  0.5430
 7994SOL    HW235445   4.380   3.224  10.190 -0.2947  0.5377 -0.4077
 7995SOL     OW35446   2.066   1.532  12.411  0.3060  0.0472 -0.0095
 7995SOL    HW135447   1.996   1.518  12.347 -0.3652  0.2308  0.6839
 7995SOL    HW235448   2.062   1.445  12.452  0.6713 -0.5688 -1.2918
 7996SOL     OW35449   0.336   2.971   6.690 -0.4123  0.5186 -0.2663
 7996SOL    HW135450   0.361   2.976   6.598  1.2939  0.0690  0.1681
 7996SOL    HW235451   0.241   2.980   6.686 -0.7809 -1.8218  3.0793
 7997SOL     OW35452   2.306   2.558   3.936 -0.7625 -0.5231  0.0534
 7997SOL    HW135453   2.240   2.490   3.922 -0.8708 -0.8084  1.8471
 7997SOL    HW235454   2.362   2.548   3.860 -0.9702 -0.5466 -0.0953
 7998SOL     OW35455   0.947   0.427  16.427 -0.4820 -0.2808 -0.0038
 7998SOL    HW135456   0.945   0.333  16.447  1.4031 -0.3793 -0.2424
 7998SOL    HW235457   0.914   0.463  16.509  1.2933 -1.5127  1.2618
 7999SOL     OW35458   1.518   3.575  10.168 -0.3584  0.2702 -0.2753
 7999SOL    HW135459   1.514   3.633  10.091  1.2659  1.2592  0.3947
 7999SOL    HW235460   1.610   3.587  10.192 -0.9392  1.3810  1.4051
 8000SOL     OW35461   1.002   0.254  11.061  0.3102 -0.0726  0.2693
 8000SOL    HW135462   0.987   0.348  11.065  0.1623 -0.0397 -1.1184
 8000SOL    HW235463   1.076   0.254  11.001  0.3607  1.1812  0.3288
 8001SOL     OW35464   0.026   1.618   2.200 -0.3077 -0.0355 -0.2535
 8001SOL    HW135465   4.659   1.630   2.193 -0.2518  0.6317  0.1206
 8001SOL    HW235466   0.063   1.698   2.239 -0.7984  0.5694 -1.0253
 8002SOL     OW35467   2.666   2.659   6.478 -0.1946  0.1978 -0.3755
 8002SOL    HW135468   2.636   2.608   6.554  0.4761 -1.5220 -1.2758
 8002SOL    HW235469   2.645   2.749   6.504 -0.7242 -0.2619  0.7960
 8003SOL     OW35470   4.302   1.238   1.273 -0.4230  0.5164  0.0169
 8003SOL    HW135471   4.272   1.149   1.296  0.1470  0.2444 -0.3062
 8003SOL    HW235472   4.360   1.228   1.198 -0.3551  0.2610  0.1011
 8004SOL     OW35473   4.149   0.321   0.535  0.2786  0.4598 -0.2315
 8004SOL    HW135474   4.093   0.293   0.462 -0.0996 -2.5629  1.2284
 8004SOL    HW235475   4.130   0.249   0.595  0.3903 -1.6144 -2.6833
 8005SOL     OW35476   0.193   3.098   3.405  0.1019  0.2492  0.5198
 8005SOL    HW135477   0.283   3.119   3.430 -0.2225  1.4424  0.6912
 8005SOL    HW235478   0.150   3.115   3.489  0.0028  0.5095  0.4140
 8006SOL     OW35479   0.388   4.221   3.842 -0.0575  0.7061 -0.1186
 8006SOL    HW135480   0.409   4.266   3.760  0.7260  1.1714  0.3329
 8006SOL    HW235481   0.408   4.284   3.911  1.9648  0.0717 -0.1254
 8007SOL     OW35482   4.296   3.857   4.169  0.4875  0.7418  0.2677
 8007SOL    HW135483   4.268   3.808   4.091  0.0154  2.8672 -0.9100
 8007SOL    HW235484   4.378   3.811   4.186  0.3744  0.8763  1.1727
 8008SOL     OW35485   2.172   2.183  14.091 -0.7904 -0.2155  0.0359
 8008SOL    HW135486   2.193   2.091  14.102  1.2003  0.4378  1.6106
 8008SOL    HW235487   2.251   2.226  14.056 -0.6695 -2.8881 -2.9480
 8009SOL     OW35488   3.258   4.175   8.990 -0.0910  0.2852 -0.9617
 8009SOL    HW135489   3.279   4.164   8.898  1.6153 -4.2067 -0.0357
 8009SOL    HW235490   3.210   4.095   9.011  1.0094  0.2851  1.6104
 8010SOL     OW35491   2.430   4.122   6.575 -0.4658  0.1782  0.0478
 8010SOL    HW135492   2.402   4.193   6.516 -0.1655 -0.3214 -0.6954
 8010SOL    HW235493   2.430   4.049   6.513  0.0079  0.0304  0.2221
 8011SOL     OW35494   3.602   0.745   6.154  0.3178  0.2565  0.3449
 8011SOL    HW135495   3.618   0.833   6.188 -0.1480  0.8500 -0.9792
 8011SOL    HW235496   3.510   0.741   6.128  0.5908 -0.2977 -0.5345
 8012SOL     OW35497   1.520   2.903   5.658 -0.1884 -0.2525 -0.8088
 8012SOL    HW135498   1.568   2.823   5.681  1.9358  0.5063 -2.5862
 8012SOL    HW235499   1.533   2.951   5.740 -1.0484  0.7611 -1.2736
 8013SOL     OW35500   0.703   3.943   8.394  0.3311 -0.2869 -0.0181
 8013SOL    HW135501   0.673   3.979   8.477  1.5588  2.3846 -0.7246
 8013SOL    HW235502   0.630   3.971   8.338  2.7341  1.0346 -2.5277
 8014SOL     OW35503   3.844   2.148   5.665  0.0394  0.0261 -0.3308
 8014SOL    HW135504   3.793   2.095   5.726 -0.9022  1.0506 -0.2229
 8014SOL    HW235505   3.843   2.092   5.587 -0.6258  1.0309 -1.0490
 8015SOL     OW35506   4.251   3.600   3.246  0.3884  0.0167  0.3621
 8015SOL    HW135507   4.260   3.675   3.304 -0.4976  0.7077 -0.4128
 8015SOL    HW235508   4.157   3.585   3.253  0.4331 -0.9223 -1.0077
 8016SOL     OW35509   1.744   4.482   0.411 -0.0896  0.1052  0.2637
 8016SOL    HW135510   1.744   4.459   0.504  4.8053  0.0600  0.2634
 8016SOL    HW235511   1.825   4.434   0.390 -0.0068  0.1236  0.5298
 8017SOL     OW35512   3.466   2.191   8.175 -0.1186 -0.1870 -0.4415
 8017SOL    HW135513   3.529   2.243   8.225 -1.5349  0.3235  0.8138
 8017SOL    HW235514   3.387   2.180   8.227 -0.0219  0.9633 -0.0614
 8018SOL     OW35515   0.086   0.550   0.917 -0.1411 -0.3587  0.2684
 8018SOL    HW135516   0.146   0.550   0.843  0.0017 -0.8823  0.3873
 8018SOL    HW235517   0.095   0.639   0.952 -0.3540  0.4956 -1.8587
 8019SOL     OW35518   3.534   4.038   7.467  0.3448  0.2527 -0.3508
 8019SOL    HW135519   3.619   3.998   7.448  0.2099 -1.2130  2.1674
 8019SOL    HW235520   3.566   4.112   7.518 -0.4422  1.5385 -1.7140
 8020SOL     OW35521   0.069   2.742  11.153  0.3642  0.8494 -0.1760
 8020SOL    HW135522   0.021   2.716  11.232 -0.1980  0.0524 -0.7920
 8020SOL    HW235523   0.038   2.669  11.100 -1.1019  0.6970  0.8867
 8021SOL     OW35524   2.103   0.786   7.619 -0.5995 -0.9944  0.2241
 8021SOL    HW135525   2.198   0.773   7.614 -0.4314  0.4359 -0.1646
 8021SOL    HW235526   2.084   0.733   7.697  0.6745 -1.0899  0.4737
 8022SOL     OW35527   0.435   4.135  11.214 -0.1624 -0.3208  0.5781
 8022SOL    HW135528   0.437   4.222  11.173 -0.0366 -0.5492  0.0932
 8022SOL    HW235529   0.528   4.125  11.231  0.2231  0.4857 -1.0052
 8023SOL     OW35530   0.350   2.781  11.138 -0.2571  0.0902 -0.1719
 8023SOL    HW135531   0.382   2.696  11.108 -1.6588 -0.3409 -0.4443
 8023SOL    HW235532   0.254   2.777  11.130 -0.2280  0.3560 -0.6396
 8024SOL     OW35533   4.639   1.077   3.491 -0.1070 -0.0725  0.0001
 8024SOL    HW135534   0.001   1.044   3.483 -0.5214 -1.3942  0.6844
 8024SOL    HW235535   4.617   1.054   3.582 -3.3878 -0.5984 -0.9326
 8025SOL     OW35536   2.895   3.883   0.727  0.0674  0.0558 -0.2743
 8025SOL    HW135537   2.943   3.954   0.770  0.4684  0.2972 -1.1248
 8025SOL    HW235538   2.860   3.931   0.652  1.3146 -1.4923 -1.8474
 8026SOL     OW35539   4.237   3.563  13.426  0.0267  0.4505 -0.2378
 8026SOL    HW135540   4.209   3.493  13.485  1.4948 -2.0486 -2.5380
 8026SOL    HW235541   4.331   3.547  13.413  0.4165 -0.1673  3.3456
 8027SOL     OW35542   4.262   4.118   3.147  0.5944  0.4188  0.0719
 8027SOL    HW135543   4.210   4.190   3.184  1.3856  1.5101 -0.9074
 8027SOL    HW235544   4.346   4.165   3.139  0.5416  1.1220  3.4324
 8028SOL     OW35545   0.098   2.883  15.063 -0.0976 -0.2928 -0.0585
 8028SOL    HW135546   0.135   2.802  15.099  0.0916 -0.7297 -1.2278
 8028SOL    HW235547   0.008   2.852  15.053  0.6813 -2.4837 -0.3443
 8029SOL     OW35548   2.850   2.335   2.657  0.4254 -0.0858 -0.2340
 8029SOL    HW135549   2.888   2.355   2.572  1.1975 -0.4443  0.0145
 8029SOL    HW235550   2.841   2.239   2.657  1.8299 -0.2286  0.0021
 8030SOL     OW35551   0.916   2.251  12.127  0.1025  0.0283  0.0741
 8030SOL    HW135552   0.941   2.341  12.105  0.7644  0.1353  1.2447
 8030SOL    HW235553   0.975   2.236  12.201  0.6073  3.6726  0.4288
 8031SOL     OW35554   3.924   3.212  16.120 -0.8626  0.4407 -0.4508
 8031SOL    HW135555   3.957   3.218  16.031  0.0982  0.4509 -0.1005
 8031SOL    HW235556   3.863   3.139  16.124  0.9510 -1.0769 -0.4360
 8032SOL     OW35557   4.647   1.228  16.564 -0.0327  0.2475  0.1615
 8032SOL    HW135558   4.621   1.253  16.653 -0.3739 -1.5158  0.5583
 8032SOL    HW235559   0.000   1.276  16.547 -0.3126  0.6672  0.0102
 8033SOL     OW35560   3.930   0.151  17.293  0.1732 -0.2152  0.3747
 8033SOL    HW135561   3.892   0.063  17.304  2.2448 -1.3863 -1.7104
 8033SOL    HW235562   3.994   0.137  17.223 -0.3410 -0.5513 -0.0254
 8034SOL     OW35563   0.920   2.939   3.530 -0.7148  0.0339  0.1356
 8034SOL    HW135564   0.983   2.999   3.571 -1.2862  1.5028 -1.0907
 8034SOL    HW235565   0.871   3.002   3.476 -0.1511  0.9503  0.6843
 8035SOL     OW35566   1.174   2.487   7.047  0.6982 -0.2073  0.4719
 8035SOL    HW135567   1.265   2.496   7.019 -0.0049  1.9557 -1.1468
 8035SOL    HW235568   1.181   2.420   7.115 -1.8523 -1.1512 -0.1714
 8036SOL     OW35569   2.795   4.612   3.225 -0.3900 -0.3982 -0.0731
 8036SOL    HW135570   2.856   4.675   3.188  1.5821 -0.8490  2.3713
 8036SOL    HW235571   2.780   4.645   3.313 -0.2543 -0.1135 -0.1587
 8037SOL     OW35572   3.532   1.650   7.274  0.4037 -0.5631 -0.2694
 8037SOL    HW135573   3.585   1.668   7.196  1.9509 -1.4909  0.5550
 8037SOL    HW235574   3.573   1.707   7.339  1.6407  0.4020 -1.9166
 8038SOL     OW35575   1.506   3.652   7.001 -0.6411  0.4151 -0.0061
 8038SOL    HW135576   1.452   3.731   6.997 -3.2257 -1.4594 -1.4295
 8038SOL    HW235577   1.591   3.680   6.965 -1.4383  1.9800 -0.6675
 8039SOL     OW35578   0.586   2.888   4.343  0.7882 -0.1950  0.5043
 8039SOL    HW135579   0.592   2.829   4.268 -0.2876  0.1422  0.1512
 8039SOL    HW235580   0.627   2.968   4.310 -1.3591  0.1505 -1.3775
 8040SOL     OW35581   1.813   2.390   8.992 -0.9676  0.1790  0.3885
 8040SOL    HW135582   1.808   2.466   8.933 -1.7893 -2.0989 -2.5066
 8040SOL    HW235583   1.901   2.398   9.028 -0.8096 -1.8807  0.4701
 8041SOL     OW35584   3.355   1.541   2.467 -0.1085 -0.3684  0.1317
 8041SOL    HW135585   3.319   1.465   2.420 -2.8356 -0.2693  2.0811
 8041SOL    HW235586   3.309   1.606   2.415  1.5948  1.3230  0.7625
 8042SOL     OW35587   0.708   0.672   5.595  0.2438 -0.1198 -0.4253
 8042SOL    HW135588   0.755   0.693   5.514  0.2165 -0.2771 -0.4805
 8042SOL    HW235589   0.627   0.630   5.567  0.3133 -0.4099 -0.1842
 8043SOL     OW35590   4.163   4.600  11.886  0.3855  0.2643  0.1285
 8043SOL    HW135591   4.149   4.538  11.957  0.1162 -0.1706 -0.3083
 8043SOL    HW235592   4.072   4.624  11.866  0.1011  1.9492  3.4299
 8044SOL     OW35593   1.790   0.572   4.605 -0.5897  0.0999 -0.1187
 8044SOL    HW135594   1.751   0.659   4.594  2.2256  1.4757  0.9073
 8044SOL    HW235595   1.862   0.595   4.664  0.0507  0.4107 -1.0327
 8045SOL     OW35596   3.335   1.182   2.375  0.6221  0.1784  0.4086
 8045SOL    HW135597   3.353   1.145   2.288  1.1210  0.4306  0.4051
 8045SOL    HW235598   3.407   1.146   2.426 -1.6128 -3.8506  0.7580
 8046SOL     OW35599   1.132   0.496   3.896 -0.4594  0.1960 -0.7045
 8046SOL    HW135600   1.141   0.454   3.810  0.3395  0.2177 -0.6336
 8046SOL    HW235601   1.159   0.584   3.868 -0.5699  0.8178  1.1748
 8047SOL     OW35602   2.954   3.529  16.157 -0.2466  0.2261 -0.3521
 8047SOL    HW135603   3.037   3.482  16.152 -1.4526 -1.9620  0.0797
 8047SOL    HW235604   2.984   3.618  16.178  0.2718 -0.3505  1.3767
 8048SOL     OW35605   1.499   4.021   4.615  0.7241  0.3272 -0.1197
 8048SOL    HW135606   1.539   3.934   4.612 -0.1181 -0.0446 -0.5445
 8048SOL    HW235607   1.433   4.014   4.546  1.0239  1.8029 -0.5473
 8049SOL     OW35608   1.846   0.929   7.628 -0.2971 -0.4966  0.1115
 8049SOL    HW135609   1.934   0.907   7.599 -0.3784 -0.5198 -0.1223
 8049SOL    HW235610   1.855   0.949   7.721  1.9024  0.5858 -0.3302
 8050SOL     OW35611   0.353   4.389  12.551  0.1508  0.8355  0.1039
 8050SOL    HW135612   0.334   4.341  12.631 -1.3638  1.9762  0.4309
 8050SOL    HW235613   0.433   4.438  12.572  0.2490  0.5334  0.4315
 8051SOL     OW35614   3.054   2.178   7.941  0.2019  0.2112 -0.0094
 8051SOL    HW135615   2.970   2.224   7.938 -0.6092 -1.3150 -1.1577
 8051SOL    HW235616   3.117   2.244   7.912 -1.4654  2.5580  1.7658
 8052SOL     OW35617   1.716   3.154   5.743 -0.1088 -0.3037 -0.2048
 8052SOL    HW135618   1.690   3.232   5.791 -2.2960  0.1935 -2.1616
 8052SOL    HW235619   1.794   3.124   5.789  0.0025  0.1697 -0.0821
 8053SOL     OW35620   0.464   0.938   1.891 -0.2749  0.2036  0.3393
 8053SOL    HW135621   0.550   0.978   1.896 -0.1053 -0.1978  0.6475
 8053SOL    HW235622   0.486   0.874   1.823 -2.2146  0.7625 -0.8243
 8054SOL     OW35623   3.159   0.930   3.021  0.2159 -0.6089 -0.4076
 8054SOL    HW135624   3.233   0.980   3.058 -0.4554 -0.2923  0.4969
 8054SOL    HW235625   3.198   0.852   2.982 -1.2164 -0.3709 -2.2965
 8055SOL     OW35626   0.225   0.223   4.540 -0.6288 -0.1092 -0.6818
 8055SOL    HW135627   0.262   0.186   4.459 -2.3146 -0.4110 -1.3214
 8055SOL    HW235628   0.247   0.316   4.535 -1.7062  0.1867  0.0945
 8056SOL     OW35629   0.623   3.660   3.696 -0.0679 -0.3047 -0.7993
 8056SOL    HW135630   0.654   3.579   3.656 -0.2770 -1.4979  1.4151
 8056SOL    HW235631   0.605   3.707   3.615  0.8106  0.3581 -0.6191
 8057SOL     OW35632   3.472   2.023   6.869  0.2538  0.2139  0.0955
 8057SOL    HW135633   3.484   1.932   6.841  0.5273  0.4750 -0.6277
 8057SOL    HW235634   3.469   2.070   6.786  1.0740 -0.7839 -0.5064
 8058SOL     OW35635   2.111   1.000   9.296 -0.2146 -0.2224 -0.1186
 8058SOL    HW135636   2.114   0.941   9.221 -0.4212 -1.1121  0.5749
 8058SOL    HW235637   2.167   0.952   9.357  0.2870 -0.2846 -0.6256
 8059SOL     OW35638   2.521   1.775   7.136 -0.5717  0.4754  0.4062
 8059SOL    HW135639   2.598   1.725   7.108  2.3421  2.5858  4.7732
 8059SOL    HW235640   2.488   1.726   7.210 -0.6755  0.0189  0.0578
 8060SOL     OW35641   1.769   2.368   1.034 -0.3995  0.9526  0.4163
 8060SOL    HW135642   1.750   2.444   1.090  2.5340  2.1128 -0.2096
 8060SOL    HW235643   1.764   2.301   1.102  1.5782  0.3112 -0.0728
 8061SOL     OW35644   0.211   2.156  17.349  0.0068  0.6327 -0.3754
 8061SOL    HW135645   0.290   2.150  17.295  0.2401 -0.0802  0.0460
 8061SOL    HW235646   0.152   2.192  17.282  0.5438  3.5912  0.7352
 8062SOL     OW35647   0.501   4.226  11.557 -0.0213  0.2765 -0.0067
 8062SOL    HW135648   0.560   4.298  11.532 -0.0395 -0.1373 -1.2723
 8062SOL    HW235649   0.526   4.157  11.495 -1.3156 -0.5529  0.4018
 8063SOL     OW35650   1.516   1.731   3.574 -0.4353 -0.1636 -0.0311
 8063SOL    HW135651   1.502   1.661   3.510  1.8608 -0.3319 -0.3259
 8063SOL    HW235652   1.604   1.756   3.548 -0.5488  0.8198  0.5429
 8064SOL     OW35653   2.328   3.145   9.417 -0.8018  0.0742  0.4069
 8064SOL    HW135654   2.346   3.238   9.417  1.2149 -0.3177  2.7236
 8064SOL    HW235655   2.232   3.143   9.420 -0.8224  0.7486 -0.1315
 8065SOL     OW35656   3.269   2.824  17.234  0.2521  0.3035  0.7306
 8065SOL    HW135657   3.235   2.836  17.146 -1.1768  0.3643  1.2936
 8065SOL    HW235658   3.267   2.912  17.272 -0.1140  1.0843 -1.1555
 8066SOL     OW35659   4.300   0.614   2.776 -0.4537 -0.2429  0.2326
 8066SOL    HW135660   4.293   0.548   2.846 -0.4065  0.9752  1.3854
 8066SOL    HW235661   4.365   0.571   2.721 -0.2282  0.1704  0.1806
 8067SOL     OW35662   3.630   0.038   2.118 -0.3210 -0.0675  0.1542
 8067SOL    HW135663   3.546   0.001   2.145 -1.3477  1.0982 -1.4415
 8067SOL    HW235664   3.688   4.696   2.086  0.3238 -0.8519  3.0732
 8068SOL     OW35665   0.248   4.287   5.444  0.3204 -0.2176 -0.9080
 8068SOL    HW135666   0.188   4.214   5.431 -0.2253  0.1398 -0.3951
 8068SOL    HW235667   0.190   4.349   5.489 -0.1521 -2.3630  1.4002
 8069SOL     OW35668   3.340   1.356   3.241 -0.4888  0.2697 -0.5603
 8069SOL    HW135669   3.259   1.331   3.196  0.2617  0.3883 -1.9839
 8069SOL    HW235670   3.318   1.430   3.297 -1.1511  2.5324 -3.7985
 8070SOL     OW35671   3.667   1.588   5.696  0.3674 -0.3299  0.0457
 8070SOL    HW135672   3.648   1.630   5.612  0.7755 -1.3372 -0.5443
 8070SOL    HW235673   3.697   1.502   5.666  1.2243  0.1119 -0.3509
 8071SOL     OW35674   0.386   2.398   2.999 -0.1316  0.1386  0.7572
 8071SOL    HW135675   0.451   2.469   3.000 -0.5448  0.5095  1.2401
 8071SOL    HW235676   0.313   2.438   2.951 -0.6402 -0.7073  0.8326
 8072SOL     OW35677   4.464   4.327   9.010 -0.0260 -0.5421 -0.0436
 8072SOL    HW135678   4.386   4.289   9.052 -0.9348 -0.8824 -2.0342
 8072SOL    HW235679   4.480   4.406   9.061  0.2835 -1.0363  0.6250
 8073SOL     OW35680   4.288   3.440   2.614 -0.1632 -0.1223  0.2604
 8073SOL    HW135681   4.242   3.446   2.698  2.1185  1.2909  1.4061
 8073SOL    HW235682   4.313   3.348   2.616  0.5628  0.0709  0.1059
 8074SOL     OW35683   0.429   1.738   9.235  0.2891 -0.0733 -0.0280
 8074SOL    HW135684   0.477   1.821   9.243  0.9074 -0.4831  0.4988
 8074SOL    HW235685   0.377   1.757   9.157  1.4499  1.6274 -0.3627
 8075SOL     OW35686   4.029   1.169   3.610 -0.0617 -0.3962  0.3180
 8075SOL    HW135687   4.091   1.199   3.676  0.8430  0.2400 -0.8021
 8075SOL    HW235688   4.066   1.085   3.584  0.5823  0.2128 -0.7467
 8076SOL     OW35689   1.947   3.940   4.926 -0.4359  0.0940  0.2299
 8076SOL    HW135690   1.913   3.994   4.854  0.5026 -1.4737 -1.4111
 8076SOL    HW235691   1.888   3.966   4.996 -0.0841  4.1615 -1.0192
 8077SOL     OW35692   2.099   1.575  15.441 -0.2055  0.2256 -0.2257
 8077SOL    HW135693   2.015   1.529  15.438 -0.8517  1.3503  0.9610
 8077SOL    HW235694   2.148   1.513  15.495  2.1440  0.7133 -1.7823
 8078SOL     OW35695   2.994   2.428   8.629 -0.4727  0.0434  0.0825
 8078SOL    HW135696   3.034   2.430   8.716  1.9211 -1.8899 -0.9551
 8078SOL    HW235697   2.911   2.389   8.657  0.3406 -0.4353  1.7953
 8079SOL     OW35698   3.960   2.167   7.592 -0.5441  0.2991 -0.1425
 8079SOL    HW135699   4.030   2.120   7.636 -0.6804  0.5097  0.3102
 8079SOL    HW235700   3.884   2.110   7.607  0.1301 -0.6080 -0.1955
 8080SOL     OW35701   2.389   1.449   5.268 -0.4702 -0.0004 -0.2921
 8080SOL    HW135702   2.404   1.509   5.340 -0.6225 -0.1542 -0.1309
 8080SOL    HW235703   2.295   1.470   5.262 -0.2812  1.0738  0.5790
 8081SOL     OW35704   2.577   0.702   2.147  0.0937  0.3397 -0.4146
 8081SOL    HW135705   2.553   0.775   2.089  0.2253 -1.9442 -3.3602
 8081SOL    HW235706   2.664   0.731   2.173 -0.0143  0.8876 -0.6454
 8082SOL     OW35707   1.403   3.004  14.702 -0.8529 -0.2434  0.0519
 8082SOL    HW135708   1.454   3.041  14.630  0.9216 -0.5150  1.1769
 8082SOL    HW235709   1.322   2.996  14.652 -1.2365  0.9386  0.4714
 8083SOL     OW35710   0.538   3.692   6.053 -0.3824  0.2191 -0.0631
 8083SOL    HW135711   0.552   3.649   5.969  1.3421  1.2164 -0.2766
 8083SOL    HW235712   0.476   3.629   6.091  0.2516 -0.7077 -0.5687
 8084SOL     OW35713   1.798   1.565  11.287  0.5191 -0.2593  0.2051
 8084SOL    HW135714   1.879   1.584  11.333  0.5346  3.1038 -1.2173
 8084SOL    HW235715   1.741   1.615  11.346 -0.1694 -1.5920  0.6852
 8085SOL     OW35716   1.146   0.858   9.404 -0.7375 -0.3568  0.1076
 8085SOL    HW135717   1.180   0.777   9.442 -0.7323 -0.8713 -0.9629
 8085SOL    HW235718   1.151   0.831   9.312 -1.4992 -1.5944  0.4164
 8086SOL     OW35719   2.743   2.044   6.508  0.8577 -0.5847  0.2411
 8086SOL    HW135720   2.733   2.046   6.603  0.5964  0.1349  0.1980
 8086SOL    HW235721   2.768   2.131   6.479  0.2022 -0.1576  0.9552
 8087SOL     OW35722   1.530   4.188   8.191  0.2010 -0.2756  0.5305
 8087SOL    HW135723   1.500   4.240   8.265  0.6040 -0.2100  0.6451
 8087SOL    HW235724   1.460   4.203   8.127 -0.0655  0.7877  1.0776
 8088SOL     OW35725   2.210   2.843  13.423  0.0704  0.2566  0.3509
 8088SOL    HW135726   2.250   2.915  13.472  0.1891 -1.1508  2.3507
 8088SOL    HW235727   2.119   2.868  13.437 -0.3505 -0.4424 -1.1520
 8089SOL     OW35728   2.377   3.180   5.470 -0.3717 -0.5028 -0.1325
 8089SOL    HW135729   2.330   3.248   5.517 -0.2015  0.5106 -1.4236
 8089SOL    HW235730   2.352   3.202   5.380 -1.2128 -0.6406  0.0746
 8090SOL     OW35731   1.412   0.594  13.644 -0.5751 -0.2415  0.3680
 8090SOL    HW135732   1.370   0.509  13.632 -1.4135 -0.0992  2.3342
 8090SOL    HW235733   1.338   0.643  13.607 -1.1599 -0.5935  1.0654
 8091SOL     OW35734   0.932   2.881   7.985 -0.0233 -0.4482  0.1920
 8091SOL    HW135735   0.921   2.889   8.080  2.5237 -0.9375  0.5269
 8091SOL    HW235736   1.022   2.851   7.976  1.1183  3.1853 -0.3467
 8092SOL     OW35737   4.725   0.152   5.836 -0.2524  0.3782 -0.0795
 8092SOL    HW135738   4.728   0.200   5.919 -1.6412 -1.0070  0.7578
 8092SOL    HW235739   0.091   0.130   5.835 -0.5198 -0.5558 -3.2329
 8093SOL     OW35740   3.114   0.513   1.982 -0.0988 -0.0069  0.4640
 8093SOL    HW135741   3.153   0.429   1.960  1.3885  0.1934  2.3431
 8093SOL    HW235742   3.182   0.574   1.953 -3.6617  3.1544 -1.3560
 8094SOL     OW35743   0.920   1.522   2.058 -0.8143  0.2355 -0.2555
 8094SOL    HW135744   0.927   1.443   2.111  1.3528  0.2572 -0.5141
 8094SOL    HW235745   0.977   1.489   1.989  0.7095 -0.1044  1.1800
 8095SOL     OW35746   0.240   2.125   6.932  0.2752 -0.2720 -0.4817
 8095SOL    HW135747   0.205   2.061   6.993  1.6113 -1.4561 -0.9494
 8095SOL    HW235748   0.162   2.143   6.880  2.1775  2.3093 -2.4663
 8096SOL     OW35749   0.242   0.247   4.058 -0.6091  0.0745 -0.3106
 8096SOL    HW135750   0.330   0.281   4.072 -0.4821  0.6929 -2.6273
 8096SOL    HW235751   0.234   0.230   3.964 -0.9921 -1.9887  0.0914
 8097SOL     OW35752   0.435   0.903   5.383 -0.4190  0.2384 -0.3144
 8097SOL    HW135753   0.509   0.877   5.328 -1.2641 -1.4936 -0.6378
 8097SOL    HW235754   0.397   0.819   5.408 -1.0138  0.4867 -0.3848
 8098SOL     OW35755   3.823   0.762  14.995 -0.1127  0.4719 -0.3769
 8098SOL    HW135756   3.815   0.800  14.908  1.2166 -0.5411 -0.9404
 8098SOL    HW235757   3.730   0.738  15.000 -0.2524  1.0704 -0.1304
 8099SOL     OW35758   0.639   2.227   8.898 -0.4648 -0.4882 -0.4834
 8099SOL    HW135759   0.684   2.153   8.857  1.3840  0.9192 -0.9562
 8099SOL    HW235760   0.694   2.294   8.859  0.3860  0.3651  2.1361
 8100SOL     OW35761   3.653   0.579   5.028  0.1647  0.0023  0.7497
 8100SOL    HW135762   3.622   0.635   4.957  1.3182 -2.3411 -1.6170
 8100SOL    HW235763   3.573   0.576   5.081  0.7348  0.5468  1.6380
 8101SOL     OW35764   3.289   2.014   5.992  0.0888  0.0644 -0.0397
 8101SOL    HW135765   3.267   2.079   6.058  0.7021  1.5500 -1.2753
 8101SOL    HW235766   3.214   1.958   6.008 -0.8002  1.4865  0.7593
 8102SOL     OW35767   4.176   1.656   8.772  0.3751 -0.7389 -0.3527
 8102SOL    HW135768   4.183   1.626   8.862  3.9629 -0.1513 -0.4414
 8102SOL    HW235769   4.083   1.641   8.752  0.4207  1.8866 -2.4911
 8103SOL     OW35770   2.930   3.125   5.332  0.2475  0.0348  0.2863
 8103SOL    HW135771   2.955   3.037   5.303  0.9465 -0.3024  1.8531
 8103SOL    HW235772   3.004   3.144   5.389  0.3239  0.0421  0.1840
 8104SOL     OW35773   1.775   2.606   4.151 -0.3759  0.9421  0.1926
 8104SOL    HW135774   1.831   2.542   4.107 -1.1549  0.6140 -0.3144
 8104SOL    HW235775   1.792   2.686   4.102 -1.5597  1.0196 -0.0894
 8105SOL     OW35776   2.034   2.622   5.289  0.3300 -0.1251  0.0349
 8105SOL    HW135777   2.045   2.579   5.204  0.4464 -1.2694  0.6284
 8105SOL    HW235778   2.027   2.544   5.344 -1.5784 -1.1441 -1.6475
 8106SOL     OW35779   0.915   1.584   1.166  0.3367  0.1446 -0.0350
 8106SOL    HW135780   0.839   1.544   1.122  0.0982 -0.2256  0.7135
 8106SOL    HW235781   0.874   1.604   1.250 -0.1436 -1.1442  0.0371
 8107SOL     OW35782   2.602   2.725   2.576 -0.4911 -0.1406  0.1106
 8107SOL    HW135783   2.553   2.797   2.536 -1.6207 -0.4253  1.0117
 8107SOL    HW235784   2.686   2.764   2.599 -1.6178 -0.2999  4.5677
 8108SOL     OW35785   1.676   3.858  15.226 -0.3362  0.5110 -0.4396
 8108SOL    HW135786   1.679   3.925  15.294  2.5283  1.4181 -1.4459
 8108SOL    HW235787   1.751   3.799  15.240 -0.2371  0.6778 -0.2750
 8109SOL     OW35788   0.415   0.876   4.400 -0.7316 -0.2327 -0.2907
 8109SOL    HW135789   0.418   0.781   4.409  0.2239  0.1232  3.1081
 8109SOL    HW235790   0.320   0.891   4.392 -0.5541 -0.3686 -2.5358
 8110SOL     OW35791   3.128   4.395   7.274  0.4557  0.4741 -0.8371
 8110SOL    HW135792   3.150   4.432   7.189 -2.4288 -0.5826 -2.0723
 8110SOL    HW235793   3.039   4.430   7.287  0.5869  1.6149 -3.1235
 8111SOL     OW35794   0.763   3.978  13.756  0.5093 -0.3299 -0.1616
 8111SOL    HW135795   0.817   3.901  13.770 -0.1435 -1.0430 -1.5655
 8111SOL    HW235796   0.829   4.046  13.747 -0.6463  0.8414  0.1189
 8112SOL     OW35797   0.019   4.251   9.182 -0.3339  0.0598 -0.2240
 8112SOL    HW135798   0.092   4.312   9.192  0.0618 -0.1998 -1.5484
 8112SOL    HW235799   4.672   4.297   9.218 -0.5337 -0.0438 -0.5037
 8113SOL     OW35800   2.904   2.276   5.373 -0.7371  0.1422 -0.2946
 8113SOL    HW135801   2.919   2.291   5.279 -0.1852 -0.1871 -0.2589
 8113SOL    HW235802   2.984   2.230   5.401 -1.7643 -1.7457 -0.5045
 8114SOL     OW35803   1.270   0.546   8.385 -0.1427  0.0704  0.1001
 8114SOL    HW135804   1.315   0.462   8.391  0.9277  0.5332 -1.5448
 8114SOL    HW235805   1.307   0.600   8.455 -0.3514 -0.4890  0.6394
 8115SOL     OW35806   4.528   0.832   9.463 -0.5596 -0.0826  0.2955
 8115SOL    HW135807   4.614   0.858   9.429 -0.5525 -1.9926 -1.1656
 8115SOL    HW235808   4.502   0.757   9.409  0.3679  0.6235 -1.1281
 8116SOL     OW35809   3.539   4.313   3.227  0.8145 -0.4898 -0.5455
 8116SOL    HW135810   3.563   4.379   3.291  1.7391  1.2560 -2.7080
 8116SOL    HW235811   3.588   4.335   3.148 -0.0322  0.6866 -0.7405
 8117SOL     OW35812   3.485   3.349   2.870  0.0081  0.0812  0.7525
 8117SOL    HW135813   3.500   3.259   2.899  3.2521  1.1142  2.2930
 8117SOL    HW235814   3.572   3.365   2.833 -1.0362  1.2674 -1.1577
 8118SOL     OW35815   1.606   4.011   0.342 -0.2200  0.3536 -0.4207
 8118SOL    HW135816   1.699   4.032   0.349 -0.1969 -0.4608  1.6548
 8118SOL    HW235817   1.592   3.960   0.421  1.2119  0.3262 -0.1917
 8119SOL     OW35818   1.767   3.949   9.885 -0.7856 -0.2766  0.2253
 8119SOL    HW135819   1.712   3.982   9.815 -2.5610 -0.6587  1.4440
 8119SOL    HW235820   1.750   3.855   9.876 -1.2451 -0.1226 -0.4489
 8120SOL     OW35821   0.901   1.076  14.889  0.5133  0.6311  0.5937
 8120SOL    HW135822   0.859   1.074  14.803  2.8165 -1.5319 -0.4719
 8120SOL    HW235823   0.990   1.045  14.873  0.6434  0.6683  1.2419
 8121SOL     OW35824   2.347   0.339   1.598  0.0131  0.5143 -0.1316
 8121SOL    HW135825   2.341   0.287   1.678 -0.8046  1.5863  0.5038
 8121SOL    HW235826   2.440   0.359   1.610  0.0131 -0.9413  2.3562
 8122SOL     OW35827   2.646   2.010   3.825 -0.1919  0.1823  0.5737
 8122SOL    HW135828   2.624   1.939   3.765  0.7281  2.4721 -2.4601
 8122SOL    HW235829   2.709   1.964   3.879  1.5041  0.8833 -0.8226
 8123SOL     OW35830   1.727   3.510  10.905  0.2862  0.4640 -0.3533
 8123SOL    HW135831   1.757   3.517  10.995 -0.3166 -1.5723  0.0125
 8123SOL    HW235832   1.777   3.439  10.865  3.2675  2.4003 -0.0512
 8124SOL     OW35833   3.512   3.499  16.777 -0.0588  0.0644  0.1350
 8124SOL    HW135834   3.541   3.566  16.838  3.5775  1.3443 -2.9430
 8124SOL    HW235835   3.486   3.540  16.694 -0.7761  1.1894  0.9182
 8125SOL     OW35836   3.332   3.635   7.730  0.0515  0.1915  0.7859
 8125SOL    HW135837   3.286   3.657   7.811 -1.8676  1.4114 -0.5968
 8125SOL    HW235838   3.399   3.703   7.726  0.6168 -0.5328 -2.3777
 8126SOL     OW35839   0.571   4.030   8.049 -0.5205 -0.3890 -0.4522
 8126SOL    HW135840   0.514   4.104   8.026  1.1100  0.9747 -0.1012
 8126SOL    HW235841   0.508   3.958   8.045  0.0155 -0.9452  1.3474
 8127SOL     OW35842   2.859   0.206   4.201  0.4292  0.3097  0.2765
 8127SOL    HW135843   2.788   0.220   4.139 -0.7018 -1.1237  1.2496
 8127SOL    HW235844   2.814   0.165   4.275 -0.7594 -1.4424 -1.4235
 8128SOL     OW35845   2.722   1.290  12.446  0.2306 -0.8451 -0.1421
 8128SOL    HW135846   2.674   1.327  12.520  1.0339  0.9927 -0.5479
 8128SOL    HW235847   2.655   1.237  12.403  0.6310  0.1273 -1.9495
 8129SOL     OW35848   1.994   0.856   0.545 -0.4861  0.2066  0.1299
 8129SOL    HW135849   2.080   0.897   0.547  0.8888 -2.6766 -0.0568
 8129SOL    HW235850   1.945   0.935   0.565  0.2549  0.9699 -1.1016
 8130SOL     OW35851   2.578   2.325  10.294 -0.6080 -0.3603  0.1605
 8130SOL    HW135852   2.488   2.355  10.310 -0.8705  0.3967 -2.5957
 8130SOL    HW235853   2.563   2.235  10.264 -0.9352 -0.8520  1.7930
 8131SOL     OW35854   3.049   2.777  12.528 -0.1101  0.0341  0.4657
 8131SOL    HW135855   3.111   2.708  12.549  0.6799  0.6515  0.2009
 8131SOL    HW235856   3.097   2.809  12.451  0.2876 -0.1267  0.6492
 8132SOL     OW35857   3.369   4.402  11.659  0.1466 -0.3690  0.3520
 8132SOL    HW135858   3.316   4.428  11.734  1.5791 -0.2500  1.3178
 8132SOL    HW235859   3.398   4.314  11.682  4.0561  0.6536 -0.6958
 8133SOL     OW35860   3.425   2.745   7.048 -0.1630 -0.0898 -0.5282
 8133SOL    HW135861   3.352   2.775   7.102  0.0952 -1.0648  0.3789
 8133SOL    HW235862   3.499   2.754   7.108  0.9633 -1.6809 -1.6863
 8134SOL     OW35863   4.535   1.572   3.872  0.4782 -0.1896  0.6508
 8134SOL    HW135864   4.485   1.648   3.844  1.4913  0.0322 -0.5728
 8134SOL    HW235865   4.623   1.609   3.874  0.8039 -0.8442 -1.2119
 8135SOL     OW35866   3.344   1.884   7.470  0.8307 -0.4054  0.2611
 8135SOL    HW135867   3.357   1.972   7.506  0.0954 -0.4498  0.6281
 8135SOL    HW235868   3.434   1.853   7.463  0.7655 -0.4289 -0.5683
 8136SOL     OW35869   1.715   0.441   1.886  0.1826 -0.7713  0.3654
 8136SOL    HW135870   1.726   0.535   1.873 -0.0884 -1.4597 -4.7257
 8136SOL    HW235871   1.639   0.423   1.831  1.4674  0.9862 -1.9970
 8137SOL     OW35872   1.402   4.158   0.478 -0.3211  0.1104 -0.4807
 8137SOL    HW135873   1.464   4.116   0.418  0.5252  0.6610  0.0189
 8137SOL    HW235874   1.428   4.249   0.487  1.8719 -0.2824 -2.6045
 8138SOL     OW35875   0.530   1.229   5.052  0.7032  0.1434 -0.2264
 8138SOL    HW135876   0.508   1.234   5.145  1.1020  3.3998 -0.3009
 8138SOL    HW235877   0.446   1.245   5.008 -0.0208 -0.9188  0.7672
 8139SOL     OW35878   3.009   0.602  16.667  0.5081  0.1539 -0.4315
 8139SOL    HW135879   2.968   0.658  16.733  4.6424 -0.3974  2.6659
 8139SOL    HW235880   2.946   0.585  16.597  0.5918 -1.4060 -0.1258
 8140SOL     OW35881   0.175   3.029  14.024 -0.5501 -0.4387 -0.2213
 8140SOL    HW135882   0.163   2.952  13.968 -0.3312 -0.3295 -0.4219
 8140SOL    HW235883   0.204   3.087  13.953  0.5535 -0.3114  0.3368
 8141SOL     OW35884   2.850   0.597   5.670 -0.5747 -0.1618 -0.5643
 8141SOL    HW135885   2.876   0.517   5.626  2.8014  0.6029  0.0236
 8141SOL    HW235886   2.756   0.582   5.663 -0.4281 -1.6210  0.5269
 8142SOL     OW35887   1.161   3.923  16.065 -0.2616 -0.0404 -0.2854
 8142SOL    HW135888   1.161   3.885  15.977 -1.3071  0.2040 -0.3870
 8142SOL    HW235889   1.231   3.879  16.113  0.2904 -1.2316 -2.1918
 8143SOL     OW35890   4.038   0.627  14.718  0.4114  0.6120 -0.6047
 8143SOL    HW135891   3.964   0.583  14.759  2.2605 -2.2299 -0.3490
 8143SOL    HW235892   4.066   0.694  14.780 -0.3952 -0.4432  0.8995
 8144SOL     OW35893   0.455   1.504   9.107 -0.0672 -0.2791 -0.0915
 8144SOL    HW135894   0.492   1.529   9.022  0.4218  0.9530  0.4871
 8144SOL    HW235895   0.457   1.589   9.151 -0.9670 -0.7481  0.8558
 8145SOL     OW35896   4.682   4.274   6.443 -0.2342  0.5301  0.2811
 8145SOL    HW135897   4.622   4.321   6.385 -2.1025 -0.8905  1.0576
 8145SOL    HW235898   4.724   4.352   6.479  0.4148  0.7226 -0.8771
 8146SOL     OW35899   4.616   2.296   8.546 -0.4569  0.2036 -0.4047
 8146SOL    HW135900   4.570   2.300   8.462 -0.6407  0.3762 -0.2943
 8146SOL    HW235901   4.611   2.205   8.575 -3.0439  0.3815 -0.2474
 8147SOL     OW35902   1.561   3.387   0.960  1.1656  0.1457 -0.3601
 8147SOL    HW135903   1.518   3.472   0.962  1.2508  0.1600  0.6296
 8147SOL    HW235904   1.653   3.412   0.949  1.4942 -0.1724  1.7159
 8148SOL     OW35905   2.791   2.582   5.663  0.1680  0.5108 -0.0366
 8148SOL    HW135906   2.738   2.588   5.743  1.7914  1.4538  0.9585
 8148SOL    HW235907   2.879   2.576   5.701  1.2064  1.2155 -2.3959
 8149SOL     OW35908   2.430   2.083  12.025  0.6312 -0.1117 -0.5062
 8149SOL    HW135909   2.446   2.094  11.931  1.4798 -0.3322 -0.3946
 8149SOL    HW235910   2.504   2.028  12.051  1.0418  0.6386 -0.0708
 8150SOL     OW35911   4.427   1.356   5.305  0.9697  0.0035  0.0600
 8150SOL    HW135912   4.429   1.324   5.214  1.9728  2.2315 -0.7041
 8150SOL    HW235913   4.369   1.430   5.291  3.7431  2.1726 -0.0326
 8151SOL     OW35914   3.724   1.338   7.267 -0.4189  0.0060  0.1480
 8151SOL    HW135915   3.712   1.327   7.173  1.0215  0.3534 -0.0769
 8151SOL    HW235916   3.761   1.426   7.275  1.3985 -0.5308 -2.3184
 8152SOL     OW35917   3.004   2.831   6.064  0.5121  0.2777  0.5439
 8152SOL    HW135918   3.084   2.791   6.030  0.6814 -0.9858  2.4217
 8152SOL    HW235919   3.029   2.923   6.060  0.7374  0.1773 -0.3274
 8153SOL     OW35920   3.348   2.598   9.849  0.2747  0.1392  0.4204
 8153SOL    HW135921   3.423   2.547   9.818  1.2111  1.3106  0.7689
 8153SOL    HW235922   3.352   2.584   9.943  1.1474  1.0059  0.5131
 8154SOL     OW35923   2.266   3.335   9.115  0.4947  0.1387  0.3810
 8154SOL    HW135924   2.252   3.394   9.041  0.1102 -2.0407 -1.2708
 8154SOL    HW235925   2.288   3.248   9.081 -0.5525  0.1281 -0.2595
 8155SOL     OW35926   1.272   3.732   7.590  0.2016 -0.1067  0.1624
 8155SOL    HW135927   1.196   3.676   7.605 -0.8956  1.2810 -0.2385
 8155SOL    HW235928   1.243   3.790   7.519 -3.5064  0.5625  2.2387
 8156SOL     OW35929   4.202   1.240   8.728  0.3508 -0.2203 -0.6207
 8156SOL    HW135930   4.149   1.160   8.726  1.1304 -0.7766  1.4709
 8156SOL    HW235931   4.188   1.263   8.819  3.1253 -0.3677 -0.1563
 8157SOL     OW35932   0.133   2.387   3.822  0.1896 -0.7297 -0.0719
 8157SOL    HW135933   0.162   2.336   3.746 -1.6905  1.6214 -2.4038
 8157SOL    HW235934   0.175   2.469   3.795 -0.7889 -0.4114 -0.6423
 8158SOL     OW35935   1.741   4.020   3.066  0.0474 -1.0498  0.5621
 8158SOL    HW135936   1.708   4.062   2.987 -1.2436 -1.2967  0.9668
 8158SOL    HW235937   1.786   3.951   3.018  1.2246  1.8124 -2.4326
 8159SOL     OW35938   2.295   1.433   9.972  0.1661  0.5259  0.7960
 8159SOL    HW135939   2.360   1.475   9.915  1.1675  0.4051  1.8472
 8159SOL    HW235940   2.218   1.453   9.919  1.0769 -0.6829 -0.9803
 8160SOL     OW35941   0.371   3.019   6.402  0.2677 -0.4541  0.5596
 8160SOL    HW135942   0.325   3.061   6.330 -2.9415 -2.8718  1.2189
 8160SOL    HW235943   0.452   3.071   6.404 -0.6744  1.1565 -2.5583
 8161SOL     OW35944   1.782   2.080  13.028  0.5028 -0.3309  0.2701
 8161SOL    HW135945   1.804   2.166  13.065  2.5069 -1.5481  1.8524
 8161SOL    HW235946   1.870   2.049  13.046  0.9786 -0.0914 -1.5832
 8162SOL     OW35947   3.298   2.417  13.113 -0.1021 -0.1792 -0.1331
 8162SOL    HW135948   3.386   2.416  13.150  0.0192 -0.3745 -0.4225
 8162SOL    HW235949   3.247   2.364  13.173  0.6856  0.9767  1.5536
 8163SOL     OW35950   2.351   2.602   4.212 -0.5013  0.3282  0.1970
 8163SOL    HW135951   2.387   2.635   4.129 -0.4814 -0.3799 -0.0841
 8163SOL    HW235952   2.348   2.508   4.194  0.7810  0.1231  1.0954
 8164SOL     OW35953   0.830   1.559   4.386 -0.0559  0.0576 -0.2585
 8164SOL    HW135954   0.851   1.479   4.337  1.5237 -0.4496  1.2380
 8164SOL    HW235955   0.750   1.589   4.342  0.0424  0.9154  0.1568
 8165SOL     OW35956   3.266   0.081   2.746 -0.3824  0.4551  0.1828
 8165SOL    HW135957   3.239   0.037   2.826 -0.4031  1.6459  0.8271
 8165SOL    HW235958   3.199   0.150   2.743  0.0694  0.8020 -1.8983
 8166SOL     OW35959   3.020   2.560   2.522 -0.4242 -0.5157  0.0873
 8166SOL    HW135960   2.986   2.530   2.437 -1.3309 -2.5900  1.1984
 8166SOL    HW235961   3.014   2.656   2.525 -0.1188 -0.4161 -2.6433
 8167SOL     OW35962   3.510   2.980   8.402 -0.2393 -0.1477  0.2063
 8167SOL    HW135963   3.548   3.017   8.482 -0.1618  1.4931 -0.6087
 8167SOL    HW235964   3.442   2.926   8.443 -0.1668 -0.2968  0.1317
 8168SOL     OW35965   3.544   2.259  14.554  0.3677  0.2113 -0.1908
 8168SOL    HW135966   3.551   2.166  14.536 -2.2142  0.1924 -0.9711
 8168SOL    HW235967   3.561   2.285  14.463  0.1031 -1.0953 -0.6077
 8169SOL     OW35968   1.633   0.689   1.353  0.2862 -0.3184  0.4897
 8169SOL    HW135969   1.658   0.636   1.428  3.0059 -0.1002 -0.2464
 8169SOL    HW235970   1.696   0.664   1.285  2.2595  1.2827  1.7397
 8170SOL     OW35971   3.908   3.252   4.169  0.2298  0.3960 -0.1117
 8170SOL    HW135972   3.832   3.228   4.222 -1.6629  0.1891 -2.9276
 8170SOL    HW235973   3.866   3.240   4.084  1.7338  0.6327 -0.8893
 8171SOL     OW35974   1.459   4.380   0.331  0.3051  0.8226  0.0477
 8171SOL    HW135975   1.396   4.450   0.346 -1.4524 -0.9540  0.8737
 8171SOL    HW235976   1.537   4.435   0.336  1.2987 -0.7402  1.5549
 8172SOL     OW35977   3.992   2.970   7.581 -0.7125 -0.4013 -0.3008
 8172SOL    HW135978   4.072   2.995   7.626 -1.1853 -0.8222  0.7616
 8172SOL    HW235979   3.970   2.888   7.625 -1.5789  0.5996  1.1360
 8173SOL     OW35980   3.726   0.293   7.973  0.3932 -0.6564  0.1497
 8173SOL    HW135981   3.635   0.286   7.944  0.3522  0.1751  0.0866
 8173SOL    HW235982   3.779   0.266   7.897  0.5512 -0.7779  0.3020
 8174SOL     OW35983   1.707   2.820   8.984 -0.1070 -0.7189 -0.1063
 8174SOL    HW135984   1.781   2.842   9.041 -1.5698 -0.0642  1.5203
 8174SOL    HW235985   1.746   2.741   8.946  0.8886 -0.6960  0.8702
 8175SOL     OW35986   4.351   0.977   8.626  0.1016  0.6066  1.0897
 8175SOL    HW135987   4.439   1.010   8.612  0.4069 -0.5528  0.2898
 8175SOL    HW235988   4.303   1.036   8.567 -0.8857  0.0070  1.2996
 8176SOL     OW35989   4.487   3.112  13.746 -0.3574 -0.5358  0.4714
 8176SOL    HW135990   4.482   3.122  13.651  0.2626 -1.8687  0.3016
 8176SOL    HW235991   4.481   3.016  13.748 -0.5814 -0.5261  0.3818
 8177SOL     OW35992   4.016   0.968   4.035 -0.6270  0.1693 -0.2521
 8177SOL    HW135993   3.920   0.967   4.027 -0.6547  0.9258 -0.0798
 8177SOL    HW235994   4.030   0.890   3.981  2.0222  1.4472 -1.4193
 8178SOL     OW35995   1.685   2.594  15.516 -0.2400  0.4069 -0.1569
 8178SOL    HW135996   1.715   2.585  15.426  1.5279  0.1395  0.4738
 8178SOL    HW235997   1.730   2.520  15.555  0.4933  0.3414 -1.1331
 8179SOL     OW35998   3.913   1.137   2.897 -0.5990 -0.1635  0.5181
 8179SOL    HW135999   3.917   1.051   2.939 -1.1185 -0.5830 -0.2891
 8179SOL    HW236000   3.956   1.183   2.969  0.2116 -0.8565  0.4726
 8180SOL     OW36001   3.622   0.418  15.417  0.2982  0.3820 -0.1306
 8180SOL    HW136002   3.584   0.490  15.368  0.7148  0.7485  0.0860
 8180SOL    HW236003   3.686   0.469  15.467  1.8565 -1.4619 -0.2208
 8181SOL     OW36004   3.408   2.205  11.172 -0.0347  0.6184  0.1043
 8181SOL    HW136005   3.381   2.294  11.147 -0.0794  0.7955  0.7671
 8181SOL    HW236006   3.488   2.192  11.122  0.0674  1.0555  0.1583
 8182SOL     OW36007   3.967   1.938  14.180  0.1974 -0.0550  0.4925
 8182SOL    HW136008   3.909   1.993  14.232 -1.1801  0.1092 -1.1978
 8182SOL    HW236009   4.006   2.010  14.130 -0.3334 -0.5405 -0.6388
 8183SOL     OW36010   3.408   1.396  14.773 -0.3968 -0.3522 -0.3829
 8183SOL    HW136011   3.403   1.435  14.860  0.6650 -1.2156  0.0735
 8183SOL    HW236012   3.341   1.327  14.776 -0.0938 -0.6318 -0.0651
 8184SOL     OW36013   0.123   4.364   2.219 -0.0710 -0.5174 -0.5878
 8184SOL    HW136014   0.139   4.280   2.175  1.6265  1.0768 -2.9710
 8184SOL    HW236015   0.032   4.382   2.195 -0.6331  0.3265  2.1430
 8185SOL     OW36016   3.500   2.001  16.944 -0.2546  0.2786 -0.2084
 8185SOL    HW136017   3.479   2.064  16.876 -1.3540  1.7979  1.5580
 8185SOL    HW236018   3.440   1.930  16.921 -0.6667  0.1466  1.2353
 8186SOL     OW36019   3.532   4.407  15.309 -0.1721  0.0166 -0.1300
 8186SOL    HW136020   3.588   4.467  15.260  0.6262  0.0760  0.8692
 8186SOL    HW236021   3.445   4.440  15.287  0.2703  2.4013  1.7483
 8187SOL     OW36022   0.121   3.623   7.568 -0.1818 -0.0786 -0.0173
 8187SOL    HW136023   0.148   3.692   7.508  1.1084 -0.9855 -0.4905
 8187SOL    HW236024   0.038   3.661   7.597 -0.6319  0.2192 -1.6881
 8188SOL     OW36025   3.787   4.412   6.570 -0.2111  0.7812 -0.4209
 8188SOL    HW136026   3.696   4.386   6.553  0.4885 -0.5799 -2.1014
 8188SOL    HW236027   3.789   4.439   6.662  1.3498 -1.7115  0.2776
 8189SOL     OW36028   1.421   4.459   7.701  0.1546  0.3151  0.2777
 8189SOL    HW136029   1.450   4.504   7.781  1.2152  1.4675 -0.7620
 8189SOL    HW236030   1.489   4.496   7.645  0.4236  1.2527  1.2242
 8190SOL     OW36031   4.116   1.735  14.253  0.1836 -0.0682 -0.4510
 8190SOL    HW136032   4.064   1.660  14.224  0.5352 -0.2030 -0.7296
 8190SOL    HW236033   4.055   1.804  14.226 -0.1537  0.2973  1.2265
 8191SOL     OW36034   4.099   2.676   1.186 -0.1032 -0.0728 -0.5520
 8191SOL    HW136035   4.062   2.595   1.151 -1.4605  0.4057 -0.2315
 8191SOL    HW236036   4.027   2.719   1.231 -0.0154 -0.9138  0.3798
 8192SOL     OW36037   2.043   4.534   6.195 -0.4404  0.1009  0.0767
 8192SOL    HW136038   2.072   4.623   6.177  1.1147 -0.8638 -2.2329
 8192SOL    HW236039   2.066   4.510   6.105  1.3436 -0.9617  0.8176
 8193SOL     OW36040   4.304   3.445  14.987  0.1643  0.4033 -0.4118
 8193SOL    HW136041   4.253   3.509  14.938 -1.3575 -0.2053  0.4069
 8193SOL    HW236042   4.350   3.392  14.922  1.7616 -0.9282  1.7888
 8194SOL     OW36043   2.016   4.092   7.032 -1.5571 -0.1197  0.2969
 8194SOL    HW136044   2.093   4.149   7.024 -1.4642 -0.5325 -1.7179
 8194SOL    HW236045   2.002   4.088   7.127 -1.6746 -0.7880  0.2479
 8195SOL     OW36046   3.958   2.071   2.194  0.3935 -0.1764  0.3114
 8195SOL    HW136047   4.028   2.035   2.249  1.9055  1.3686 -0.6182
 8195SOL    HW236048   4.005   2.120   2.127  1.7515 -1.2756  0.4698
 8196SOL     OW36049   2.785   3.885   3.065 -0.0388 -0.7442  0.1791
 8196SOL    HW136050   2.767   3.864   2.974  2.8967 -0.6345 -0.4084
 8196SOL    HW236051   2.733   3.808   3.092 -0.1174 -0.9738 -0.6483
 8197SOL     OW36052   4.427   3.303  14.798 -0.3602  0.0724 -0.0904
 8197SOL    HW136053   4.422   3.212  14.827 -0.6411 -0.1437 -0.8045
 8197SOL    HW236054   4.490   3.296  14.726 -0.0969 -1.1712  0.2617
 8198SOL     OW36055   1.021   0.925   2.884  0.0436 -0.6366 -0.2607
 8198SOL    HW136056   0.933   0.911   2.848  0.8111  0.6368 -2.6440
 8198SOL    HW236057   1.010   0.862   2.955  0.6604  1.9407  2.1004
 8199SOL     OW36058   4.399   4.496  17.524 -0.6396  0.3564  0.5965
 8199SOL    HW136059   4.452   4.417  17.537  0.1479  0.9309  0.9532
 8199SOL    HW236060   4.444   4.555  17.585  0.0980  0.7527 -0.3373
 8200SOL     OW36061   1.538   3.491  12.917  0.4547 -0.4951  0.1723
 8200SOL    HW136062   1.567   3.405  12.885 -0.3422  0.1022 -2.1457
 8200SOL    HW236063   1.612   3.531  12.962 -0.4425 -0.5170  1.6718
 8201SOL     OW36064   2.679   2.754   9.318  0.5702 -0.1296  0.7067
 8201SOL    HW136065   2.710   2.665   9.301  1.6607  0.3130  0.3794
 8201SOL    HW236066   2.720   2.781   9.400  3.9699 -0.3303 -0.9185
 8202SOL     OW36067   2.096   3.677   3.903 -0.6781  0.1308  0.5770
 8202SOL    HW136068   2.102   3.582   3.897  0.2839  0.2786 -0.7883
 8202SOL    HW236069   2.055   3.695   3.818 -2.0480  1.0988  1.4358
 8203SOL     OW36070   2.647   4.265  13.484 -0.8732 -0.3140 -0.6526
 8203SOL    HW136071   2.586   4.315  13.431 -1.3454 -0.1854  0.0135
 8203SOL    HW236072   2.707   4.227  13.420  1.8285 -0.9975  2.2754
 8204SOL     OW36073   0.718   1.922   2.239 -0.3987  0.0300  0.0120
 8204SOL    HW136074   0.726   1.831   2.213  2.8322  0.6372 -1.0707
 8204SOL    HW236075   0.682   1.958   2.158  1.5292 -1.9219 -1.6811
 8205SOL     OW36076   2.901   2.411  12.515  0.4030 -0.3762  0.4548
 8205SOL    HW136077   2.977   2.466  12.499 -1.2858  2.8623  3.6163
 8205SOL    HW236078   2.936   2.358  12.587  0.0248 -2.4236 -0.8611
 8206SOL     OW36079   1.191   3.224  11.723 -0.0051  0.9535 -0.0738
 8206SOL    HW136080   1.185   3.129  11.729 -0.2953  0.9027 -1.0952
 8206SOL    HW236081   1.144   3.233  11.640  0.9717 -1.5459 -0.8893
 8207SOL     OW36082   3.688   4.589  14.625  0.0316  0.3472 -0.0079
 8207SOL    HW136083   3.689   4.652  14.553  1.0273 -0.3495 -0.6078
 8207SOL    HW236084   3.774   4.583  14.666  0.3217  2.3883 -0.2938
 8208SOL     OW36085   2.484   1.698   4.373 -0.6283 -0.2430  0.2238
 8208SOL    HW136086   2.487   1.768   4.439  0.1991  1.2373 -1.3994
 8208SOL    HW236087   2.552   1.638   4.402 -0.9161 -0.7232 -0.1017
 8209SOL     OW36088   2.488   3.229  10.889  0.4981  0.8587  0.4577
 8209SOL    HW136089   2.583   3.238  10.884  0.4983  0.1480 -0.8343
 8209SOL    HW236090   2.458   3.279  10.813  0.6345 -1.1050 -0.8921
 8210SOL     OW36091   3.551   3.635   7.477 -0.5517 -0.1466 -0.6689
 8210SOL    HW136092   3.638   3.611   7.507 -0.7658 -1.6474 -1.2266
 8210SOL    HW236093   3.507   3.664   7.557  3.1343 -2.6608  2.2951
 8211SOL     OW36094   0.808   2.187   7.755 -0.3607 -0.0031 -0.0424
 8211SOL    HW136095   0.781   2.279   7.756 -2.5379 -0.6623  0.6490
 8211SOL    HW236096   0.726   2.142   7.772  0.0799 -0.5531  0.6382
 8212SOL     OW36097   2.978   1.165   7.989 -0.2131 -0.1250 -0.5310
 8212SOL    HW136098   3.067   1.146   8.020  0.2140  0.6329 -1.2946
 8212SOL    HW236099   2.928   1.120   8.057 -1.0522  0.6061 -0.6655
 8213SOL     OW36100   2.639   3.824  12.334  0.6382 -0.3852 -0.6449
 8213SOL    HW136101   2.720   3.775  12.321  0.3545 -1.1646  0.4739
 8213SOL    HW236102   2.577   3.751  12.337  2.3194 -1.8029 -0.6456
 8214SOL     OW36103   1.866   1.044  10.375 -0.2519 -0.0558 -0.1443
 8214SOL    HW136104   1.833   0.993  10.301 -2.3797  0.4638  0.4448
 8214SOL    HW236105   1.794   1.107  10.378  1.4907  1.9417  0.3372
 8215SOL     OW36106   4.057   3.772   9.275  0.4208  0.0718 -0.7265
 8215SOL    HW136107   3.991   3.811   9.218  0.5089  1.3210  0.0337
 8215SOL    HW236108   4.096   3.708   9.215 -0.8235 -1.8660  0.5131
 8216SOL     OW36109   3.386   1.044   2.144 -0.4431  0.2095 -0.2021
 8216SOL    HW136110   3.381   0.950   2.159 -0.1233  0.2490  0.1547
 8216SOL    HW236111   3.480   1.056   2.132 -0.0350 -1.0807  1.7732
 8217SOL     OW36112   4.333   2.459  10.546  0.0099  0.0179 -0.3028
 8217SOL    HW136113   4.388   2.389  10.512  0.7301  0.9980 -1.1728
 8217SOL    HW236114   4.375   2.480  10.629 -0.6378  0.6644 -0.1317
 8218SOL     OW36115   3.052   4.579   8.126 -0.3098 -0.0158  0.3059
 8218SOL    HW136116   2.960   4.574   8.151 -0.7938 -3.2959 -2.1534
 8218SOL    HW236117   3.054   4.636   8.049  0.7736 -0.6613 -0.1377
 8219SOL     OW36118   4.319   1.105   7.874  0.1431 -0.0455  0.1753
 8219SOL    HW136119   4.370   1.073   7.949 -2.3788 -1.3211  1.3373
 8219SOL    HW236120   4.249   1.040   7.871  0.2907 -0.2079  0.2206
 8220SOL     OW36121   4.060   4.717   7.624 -0.1796  0.6039  0.2120
 8220SOL    HW136122   4.118   4.655   7.669 -0.6815 -1.3198 -1.8258
 8220SOL    HW236123   3.977   4.671   7.613 -0.0442  0.5543 -0.5976
 8221SOL     OW36124   4.297   0.170   3.387  0.6479  0.4066  0.1897
 8221SOL    HW136125   4.260   0.128   3.465  0.9739 -0.4969 -0.1390
 8221SOL    HW236126   4.386   0.140   3.403 -0.0729 -0.1142  3.2638
 8222SOL     OW36127   4.663   0.108  13.576 -0.7261  0.0101  0.1006
 8222SOL    HW136128   4.687   0.200  13.584  0.8969 -0.4469  0.3786
 8222SOL    HW236129   4.568   0.115  13.565 -0.8386  1.2818  1.8254
 8223SOL     OW36130   1.689   0.769   3.978 -0.0699 -0.5250 -0.0154
 8223SOL    HW136131   1.685   0.778   4.073 -2.5780  2.9195 -0.4505
 8223SOL    HW236132   1.703   0.675   3.968  2.2597  0.0434 -1.8877
 8224SOL     OW36133   2.661   1.678   5.778  0.2428 -0.0617  0.2338
 8224SOL    HW136134   2.642   1.663   5.871 -0.0358  2.7341  0.6310
 8224SOL    HW236135   2.589   1.739   5.761  0.2917 -0.4159 -1.2640
 8225SOL     OW36136   2.127   4.075   7.829  0.8473 -0.1569  0.3499
 8225SOL    HW136137   2.128   4.074   7.733  2.4736  1.1720  0.3519
 8225SOL    HW236138   2.121   3.980   7.841  0.8514 -0.0099  1.4690
 8226SOL     OW36139   3.630   0.924   6.351 -0.0391  0.4324 -0.7566
 8226SOL    HW136140   3.684   1.002   6.365  0.7350 -0.2454  0.0385
 8226SOL    HW236141   3.568   0.918   6.423 -1.2705 -0.6916 -1.9013
 8227SOL     OW36142   2.981   0.496   6.161 -0.1542 -0.0083 -0.5973
 8227SOL    HW136143   2.896   0.483   6.204  0.8651 -2.5696  0.6211
 8227SOL    HW236144   2.966   0.441   6.084  0.8584 -0.2010 -0.6526
 8228SOL     OW36145   3.339   3.435  15.320 -0.0454  0.9500 -0.3805
 8228SOL    HW136146   3.422   3.472  15.350  2.0493 -3.9784 -0.2212
 8228SOL    HW236147   3.373   3.378  15.251  0.5794  0.6735  0.1557
 8229SOL     OW36148   4.039   1.906  16.745 -0.1165 -0.6100 -0.1381
 8229SOL    HW136149   4.018   1.999  16.755  0.1877 -0.6894  1.2028
 8229SOL    HW236150   3.958   1.864  16.773  0.0324 -2.1732 -2.0136
 8230SOL     OW36151   3.260   1.076   3.515 -0.0405 -0.3178  0.9136
 8230SOL    HW136152   3.179   1.030   3.494 -1.4148  3.3483 -2.0177
 8230SOL    HW236153   3.322   1.014   3.477  0.9531  0.6233  0.9908
 8231SOL     OW36154   3.678   2.028   5.842  0.4278  0.1238  0.5679
 8231SOL    HW136155   3.738   2.036   5.916 -0.0029 -1.7435  1.1047
 8231SOL    HW236156   3.643   1.941   5.862  0.9622 -0.2729 -0.2600
 8232SOL     OW36157   3.032   1.446  17.259 -0.4632 -0.6191 -0.1837
 8232SOL    HW136158   3.101   1.385  17.285  0.8241  1.0073  0.2415
 8232SOL    HW236159   2.986   1.478  17.337  2.6516 -0.1688  1.4731
 8233SOL     OW36160   3.867   0.304   3.496 -0.2183 -0.0626  0.1734
 8233SOL    HW136161   3.818   0.225   3.518 -1.0041  0.0086 -1.3955
 8233SOL    HW236162   3.862   0.359   3.574  0.3095 -0.9888  0.8673
 8234SOL     OW36163   2.955   4.695   6.628  0.4396 -0.1142  0.3723
 8234SOL    HW136164   2.997   4.637   6.564  0.4846 -0.1151  0.4029
 8234SOL    HW236165   3.008   4.672   6.704  0.1666 -2.0372 -0.0169
 8235SOL     OW36166   0.380   1.379   4.043  0.0514 -0.1846 -0.1762
 8235SOL    HW136167   0.387   1.474   4.047 -0.8481 -0.0882 -0.7939
 8235SOL    HW236168   0.286   1.372   4.028  0.2866  0.1424 -1.8082
 8236SOL     OW36169   4.508   4.272  11.737 -0.4850  0.0487 -0.5078
 8236SOL    HW136170   4.496   4.220  11.657  1.1644 -1.3770  0.1647
 8236SOL    HW236171   4.422   4.291  11.774 -1.1386 -1.0533 -1.4586
 8237SOL     OW36172   2.456   3.925  15.934 -0.2138 -0.5834 -0.8838
 8237SOL    HW136173   2.449   3.880  16.018  2.1980  1.5521  0.4457
 8237SOL    HW236174   2.474   4.018  15.950  1.1264 -0.5915 -2.3640
 8238SOL     OW36175   2.884   0.836   9.106 -0.1983 -0.5057  0.5903
 8238SOL    HW136176   2.792   0.812   9.097 -0.5806  0.8030  1.0622
 8238SOL    HW236177   2.924   0.749   9.108 -0.0409 -0.5358 -3.1493
 8239SOL     OW36178   2.334   2.337   9.162 -0.7256 -0.7393  0.2314
 8239SOL    HW136179   2.386   2.359   9.240 -1.5361  1.4045  0.1895
 8239SOL    HW236180   2.385   2.259   9.141  0.9542  0.1985  0.7807
 8240SOL     OW36181   2.382   2.375  14.037  0.2210 -0.0725 -0.3626
 8240SOL    HW136182   2.333   2.429  13.976 -1.8583 -0.0419  1.3336
 8240SOL    HW236183   2.410   2.447  14.093  0.8665  0.0645 -0.8589
 8241SOL     OW36184   0.553   3.409   1.392  0.0837 -0.2356  0.5114
 8241SOL    HW136185   0.600   3.337   1.349 -0.5849 -0.9913  1.0365
 8241SOL    HW236186   0.570   3.377   1.481 -0.8314  0.8131  1.0532
 8242SOL     OW36187   1.356   4.612  15.417  0.6129 -0.4996 -0.0570
 8242SOL    HW136188   1.328   4.656  15.497 -0.4052  0.7284 -1.0976
 8242SOL    HW236189   1.330   4.671  15.346  1.8221 -0.2471 -0.2943
 8243SOL     OW36190   0.206   2.387   9.213  0.0374  0.1316  0.2587
 8243SOL    HW136191   0.260   2.465   9.201 -1.4316  1.1907  0.5736
 8243SOL    HW236192   0.130   2.404   9.158 -0.4046  2.1507  1.4721
 8244SOL     OW36193   2.891   1.330   5.437 -0.1969  0.1593  0.0620
 8244SOL    HW136194   2.836   1.388   5.385 -1.8616 -0.8738  0.6722
 8244SOL    HW236195   2.856   1.354   5.523 -0.4049 -0.1401  0.0568
 8245SOL     OW36196   3.162   2.999   2.098 -0.2606  0.1376 -0.1210
 8245SOL    HW136197   3.120   2.924   2.139  0.8717 -0.7250 -0.5671
 8245SOL    HW236198   3.091   3.025   2.038 -0.6374 -0.4536  0.0706
 8246SOL     OW36199   4.058   0.095   0.323 -0.1402 -0.2401  0.5180
 8246SOL    HW136200   3.986   0.051   0.277  0.2265 -0.0351 -0.2630
 8246SOL    HW236201   4.085   0.020   0.376  0.5885 -0.7528 -0.5685
 8247SOL     OW36202   1.195   0.772   9.751 -0.5383  0.5625  0.1105
 8247SOL    HW136203   1.153   0.708   9.693 -1.6563  2.3005 -0.9832
 8247SOL    HW236204   1.161   0.856   9.721 -1.2083  1.0452  2.2640
 8248SOL     OW36205   2.592   1.649   6.033  0.1296 -0.5009 -0.2944
 8248SOL    HW136206   2.524   1.674   6.095  0.3041  0.3406 -0.4359
 8248SOL    HW236207   2.611   1.558   6.054  0.1254 -1.1373 -3.0066
 8249SOL     OW36208   3.590   1.260   9.271 -0.2525 -0.2234  0.2363
 8249SOL    HW136209   3.679   1.291   9.287 -0.8431 -0.0949  3.4160
 8249SOL    HW236210   3.591   1.183   9.327  0.1981  0.7379  1.5598
 8250SOL     OW36211   2.118   3.831  12.516 -0.5526 -0.2232 -0.1998
 8250SOL    HW136212   2.140   3.859  12.427 -0.2748 -1.0230 -0.3767
 8250SOL    HW236213   2.111   3.738  12.493  0.0060 -0.8060  1.9571
 8251SOL     OW36214   3.303   0.708   7.014 -0.0186 -0.0933  0.1255
 8251SOL    HW136215   3.378   0.672   7.061 -0.2587  0.0204  0.5916
 8251SOL    HW236216   3.341   0.738   6.931  1.4220 -1.8384  0.1709
 8252SOL     OW36217   3.331   0.736  14.032  0.8350 -0.7568 -0.6536
 8252SOL    HW136218   3.300   0.745  14.122  1.2398  0.2273 -0.6128
 8252SOL    HW236219   3.255   0.691  13.997 -0.7479 -0.4969  2.4343
 8253SOL     OW36220   1.047   1.353   6.187  0.1880  0.6271  0.3676
 8253SOL    HW136221   1.090   1.271   6.162 -0.2546  0.1796  1.0402
 8253SOL    HW236222   0.956   1.330   6.170  0.0035  0.9767  0.8639
 8254SOL     OW36223   3.723   3.570   5.789 -0.0512 -0.8842 -0.1148
 8254SOL    HW136224   3.733   3.640   5.854 -0.1471 -0.7593 -0.2327
 8254SOL    HW236225   3.767   3.503   5.840  0.5137  0.5094  1.2308
 8255SOL     OW36226   4.525   0.245   6.642 -0.7514 -0.7017 -0.2606
 8255SOL    HW136227   4.507   0.301   6.718 -1.6486 -2.0261  0.4934
 8255SOL    HW236228   4.436   0.245   6.609 -0.9304  0.1659  0.2329
 8256SOL     OW36229   2.973   3.268  17.275  0.4167 -0.3576 -0.0735
 8256SOL    HW136230   2.991   3.175  17.290  1.9753 -0.0842 -0.2537
 8256SOL    HW236231   2.903   3.281  17.338  0.9033 -2.0625  0.8441
 8257SOL     OW36232   2.974   1.181   8.737  0.2052 -0.0643 -0.3800
 8257SOL    HW136233   3.019   1.209   8.817  0.2673 -1.6356  0.1322
 8257SOL    HW236234   2.944   1.093   8.757  2.2185 -0.8437 -0.7810
 8258SOL     OW36235   0.370   1.476  14.260 -0.2407 -0.3010  0.4944
 8258SOL    HW136236   0.359   1.428  14.342  0.6904 -1.9758 -0.3433
 8258SOL    HW236237   0.279   1.506  14.257 -0.1963 -0.2662 -0.6885
 8259SOL     OW36238   1.704   2.370  13.558  0.7007  0.2718  0.2882
 8259SOL    HW136239   1.650   2.444  13.585  0.2179  0.7925 -2.0839
 8259SOL    HW236240   1.713   2.315  13.636 -2.4655  0.7644  0.9956
 8260SOL     OW36241   3.626   2.716   3.320 -0.7561  0.1973 -0.1487
 8260SOL    HW136242   3.708   2.732   3.274 -0.2000  0.9497  1.0972
 8260SOL    HW236243   3.629   2.790   3.381 -1.3772  0.7665 -0.8128
 8261SOL     OW36244   1.828   3.736   0.291  0.2990 -0.0904 -0.1873
 8261SOL    HW136245   1.815   3.830   0.285  0.2789 -0.0179  0.9933
 8261SOL    HW236246   1.795   3.710   0.205  1.0124 -0.1248 -0.4529
 8262SOL     OW36247   2.482   3.206  14.773 -0.8745  0.6007 -0.2289
 8262SOL    HW136248   2.552   3.153  14.811  0.1319  2.9067  1.0910
 8262SOL    HW236249   2.529   3.289  14.767 -3.4936  2.1529  0.5903
 8263SOL     OW36250   0.507   1.483   7.136  0.2578 -0.2395  0.5902
 8263SOL    HW136251   0.512   1.579   7.136  3.2244 -0.4117  0.9440
 8263SOL    HW236252   0.460   1.465   7.055  2.6241 -1.0375 -0.6006
 8264SOL     OW36253   3.659   3.183   7.379  0.3674 -0.0280 -0.4911
 8264SOL    HW136254   3.706   3.225   7.306  1.4793  0.8328  0.7259
 8264SOL    HW236255   3.572   3.222   7.383  0.6416  0.4565  0.5664
 8265SOL     OW36256   1.097   4.717   4.152  0.1666 -0.0894  0.1572
 8265SOL    HW136257   1.033   4.719   4.082 -0.7911 -1.7244  1.0062
 8265SOL    HW236258   1.135   4.635   4.120 -2.5020 -1.0091 -0.6696
 8266SOL     OW36259   0.265   1.366   9.874  0.1027  0.1074 -0.2687
 8266SOL    HW136260   0.321   1.398   9.803  0.7601 -0.7134 -0.1232
 8266SOL    HW236261   0.317   1.405   9.944 -2.1346  0.9439  0.9057
 8267SOL     OW36262   4.421   1.349   1.779  0.1098  0.2470  0.4012
 8267SOL    HW136263   4.370   1.273   1.749 -2.1291  0.6916  3.0737
 8267SOL    HW236264   4.475   1.363   1.701  0.0342  2.1162  0.6951
 8268SOL     OW36265   3.789   0.635  15.233 -0.3541 -0.4336 -0.2996
 8268SOL    HW136266   3.825   0.667  15.150 -0.4829  0.9940  0.1847
 8268SOL    HW236267   3.733   0.565  15.202 -1.5811  1.0676 -1.4915
 8269SOL     OW36268   3.003   3.174   7.452  0.6088 -0.0798  0.4596
 8269SOL    HW136269   2.935   3.192   7.517 -0.9748 -1.8838 -0.6985
 8269SOL    HW236270   2.966   3.227   7.381  0.0563 -0.2449  0.6232
 8270SOL     OW36271   2.944   2.256   5.924  0.0754  0.5276 -0.1221
 8270SOL    HW136272   2.934   2.331   5.982 -0.6106  1.8860 -2.0125
 8270SOL    HW236273   2.870   2.262   5.865 -0.9042 -1.2711  0.9177
 8271SOL     OW36274   2.759   0.158   6.605  0.3460  0.4505 -0.0356
 8271SOL    HW136275   2.836   0.102   6.601  0.4773  0.6492 -0.3312
 8271SOL    HW236276   2.800   0.226   6.659  0.9407  0.2393 -0.2244
 8272SOL     OW36277   2.589   2.960  16.320 -0.4522  0.2587 -0.0643
 8272SOL    HW136278   2.658   2.961  16.253  0.8360 -1.5627  1.2278
 8272SOL    HW236279   2.513   2.993  16.271 -1.7007  0.1034  1.7736
 8273SOL     OW36280   2.463   1.620   7.339 -0.8153  0.4678  0.2638
 8273SOL    HW136281   2.376   1.630   7.378 -0.7661  0.5272  0.3608
 8273SOL    HW236282   2.522   1.593   7.410  1.3458  0.9201 -1.3661
 8274SOL     OW36283   2.620   3.448   9.128  0.1069  0.5650 -0.7105
 8274SOL    HW136284   2.584   3.498   9.201 -1.2976  0.0211 -1.0334
 8274SOL    HW236285   2.700   3.499   9.118 -0.3320  1.2930 -0.5118
 8275SOL     OW36286   0.229   1.661  16.793 -0.0890  0.5596 -0.0877
 8275SOL    HW136287   0.260   1.657  16.883 -1.7996  1.1494  0.5207
 8275SOL    HW236288   0.288   1.610  16.738 -0.7542  1.4572 -1.6409
 8276SOL     OW36289   4.444   1.441  10.636 -0.3030 -0.4583  0.5255
 8276SOL    HW136290   4.389   1.465  10.710 -1.6337 -2.2049  0.1230
 8276SOL    HW236291   4.451   1.348  10.657 -1.5446 -0.3327  1.4911
 8277SOL     OW36292   3.058   2.292  10.561  0.1484  0.0509  0.1539
 8277SOL    HW136293   3.046   2.347  10.484 -1.6399  0.0779  0.4634
 8277SOL    HW236294   3.149   2.300  10.590  0.2383 -1.2002  0.2307
 8278SOL     OW36295   4.649   1.564   4.441 -0.4085  0.2458 -0.3819
 8278SOL    HW136296   4.561   1.574   4.478  0.3923 -0.2971  1.7039
 8278SOL    HW236297   4.673   1.656   4.428  0.1243  0.5421  2.6704
 8279SOL     OW36298   2.990   1.866  17.559  0.2041  0.0773 -0.1683
 8279SOL    HW136299   3.010   1.798  17.623  0.5880 -0.7197 -1.1311
 8279SOL    HW236300   3.045   1.839  17.485 -1.8017 -1.7207 -1.0172
 8280SOL     OW36301   0.021   0.582   5.472  0.2978 -0.3045 -0.1282
 8280SOL    HW136302   0.014   0.520   5.544  2.5799 -1.6786 -1.0665
 8280SOL    HW236303   0.004   0.520   5.401  0.2716  1.5171 -1.7136
 8281SOL     OW36304   2.479   0.321   2.532 -0.2992  0.0101  0.2058
 8281SOL    HW136305   2.383   0.321   2.536 -0.3072  3.8806  0.3981
 8281SOL    HW236306   2.499   0.241   2.580 -2.0680 -0.1842  0.6360
 8282SOL     OW36307   3.559   3.586   4.795  0.1889 -0.0039  0.3956
 8282SOL    HW136308   3.610   3.548   4.867 -1.6129 -0.6571  1.3119
 8282SOL    HW236309   3.478   3.535   4.799  0.1259 -0.0527 -1.3324
 8283SOL     OW36310   3.113   3.598   7.090  0.0942  0.5115 -0.5827
 8283SOL    HW136311   3.030   3.631   7.122 -2.1227 -2.6303 -3.1579
 8283SOL    HW236312   3.171   3.646   7.149 -2.1102  0.9969  1.1482
 8284SOL     OW36313   4.677   3.037  16.261 -0.7511  0.2084  0.0394
 8284SOL    HW136314   4.724   2.959  16.232 -0.1401  0.0743  1.3969
 8284SOL    HW236315   4.604   3.027  16.200 -0.4297 -0.9712 -0.1535
 8285SOL     OW36316   4.380   1.538  15.041  0.1134 -0.4919  0.1857
 8285SOL    HW136317   4.337   1.559  15.124 -0.3041 -0.8592  0.0661
 8285SOL    HW236318   4.354   1.446  15.029 -1.9780  0.2343 -0.8377
 8286SOL     OW36319   0.551   0.437   2.194  0.2895 -0.2313  0.0091
 8286SOL    HW136320   0.627   0.378   2.194  1.2760  1.0247 -0.1530
 8286SOL    HW236321   0.590   0.516   2.156 -0.6729  0.8754  1.3272
 8287SOL     OW36322   0.792   3.687   8.293  0.1478  0.0159  0.5591
 8287SOL    HW136323   0.748   3.769   8.317  0.2784 -0.0069  0.8840
 8287SOL    HW236324   0.727   3.628   8.331 -0.1898  1.4252  2.2285
 8288SOL     OW36325   3.498   3.871   4.821  0.3306  0.1758 -0.1362
 8288SOL    HW136326   3.519   3.780   4.800  2.2572  0.1448  1.9330
 8288SOL    HW236327   3.404   3.861   4.834  0.3007  0.9215  0.2206
 8289SOL     OW36328   1.346   0.085   3.442  0.2583 -0.1478 -0.3740
 8289SOL    HW136329   1.331   0.007   3.496  2.6846 -1.5831 -1.7886
 8289SOL    HW236330   1.363   0.160   3.500  1.6854 -1.1864  0.5567
 8290SOL     OW36331   3.951   0.502  16.689 -0.6475 -0.5012 -0.2645
 8290SOL    HW136332   4.033   0.531  16.650 -0.8295 -0.4687 -0.6249
 8290SOL    HW236333   3.918   0.435  16.628 -0.7712  2.0725 -3.0132
 8291SOL     OW36334   2.879   3.681   7.207  0.0616  0.0308  0.0444
 8291SOL    HW136335   2.813   3.617   7.179 -0.8314 -0.4156  3.1671
 8291SOL    HW236336   2.859   3.688   7.301  0.0138  1.7091 -0.0832
 8292SOL     OW36337   2.129   1.887  13.818  0.6800  0.3390  0.4143
 8292SOL    HW136338   2.152   1.848  13.902 -0.2452  0.3681  0.6751
 8292SOL    HW236339   2.183   1.965  13.831  0.7516 -0.0407  2.3359
 8293SOL     OW36340   1.662   2.876   5.338 -0.4631  0.1848 -0.2452
 8293SOL    HW136341   1.576   2.835   5.333 -0.1447 -0.2384 -2.6953
 8293SOL    HW236342   1.631   2.965   5.356  0.4502  0.3789  0.3843
 8294SOL     OW36343   0.781   0.007   3.244  0.1305  0.7899 -0.2868
 8294SOL    HW136344   0.856   4.687   3.210 -0.4934 -0.7787  0.4950
 8294SOL    HW236345   0.814   0.096   3.241 -0.5322  1.0515  0.1584
 8295SOL     OW36346   1.330   4.510   2.784  0.1113  0.5210  0.1457
 8295SOL    HW136347   1.391   4.461   2.839 -1.0701 -0.6179  0.4427
 8295SOL    HW236348   1.325   4.593   2.832 -0.3940  1.2024 -1.0789
 8296SOL     OW36349   3.626   3.419   4.425  0.8914 -0.2775 -0.0240
 8296SOL    HW136350   3.685   3.477   4.473 -0.3217  0.6327  0.3765
 8296SOL    HW236351   3.621   3.461   4.339 -0.6422  0.4440  0.4197
 8297SOL     OW36352   1.852   3.606   6.572 -0.4922 -0.0869  0.4981
 8297SOL    HW136353   1.913   3.625   6.642 -0.3999 -0.1552  0.4358
 8297SOL    HW236354   1.898   3.558   6.503 -0.5917 -0.0756  0.4236
 8298SOL     OW36355   1.621   3.035  15.356 -0.3840 -0.0598  0.5249
 8298SOL    HW136356   1.544   3.064  15.405 -0.5853 -1.4075  0.9961
 8298SOL    HW236357   1.603   3.055  15.264  0.1229 -0.1434  0.4066
 8299SOL     OW36358   4.230   0.591  14.246 -0.5601  0.2251 -0.1230
 8299SOL    HW136359   4.293   0.521  14.263  0.3335  1.1260  0.3007
 8299SOL    HW236360   4.185   0.598  14.330  0.2503  0.0086  0.3278
 8300SOL     OW36361   2.335   4.346  15.731  0.0117 -0.5649  0.1037
 8300SOL    HW136362   2.427   4.349  15.760  0.5321 -1.9367 -1.3934
 8300SOL    HW236363   2.326   4.392  15.648  1.5148  0.8013  0.6923
 8301SOL     OW36364   2.929   2.005  15.606  0.8179  0.0282  0.0524
 8301SOL    HW136365   3.003   2.046  15.561  1.1822 -1.2859 -0.5674
 8301SOL    HW236366   2.871   2.082  15.605  0.2577 -0.3806  0.9871
 8302SOL     OW36367   2.542   2.560   3.475 -0.1679  0.8476 -0.3269
 8302SOL    HW136368   2.596   2.599   3.407  1.3042  0.3023  0.5156
 8302SOL    HW236369   2.479   2.512   3.422  1.2800 -2.5761  1.0575
 8303SOL     OW36370   3.619   0.981   5.997  0.2369 -0.2173  0.0468
 8303SOL    HW136371   3.558   0.960   5.927  0.9356 -0.6860 -0.4123
 8303SOL    HW236372   3.565   1.021   6.066  0.7401  0.6586 -0.0581
 8304SOL     OW36373   2.062   1.231   8.235  0.2221  0.6769  0.9842
 8304SOL    HW136374   2.156   1.229   8.216  0.1046 -1.8692  0.6003
 8304SOL    HW236375   2.041   1.324   8.244 -3.3658 -0.1369  0.9493
 8305SOL     OW36376   4.450   2.433  14.906 -0.3546 -0.5299  0.1450
 8305SOL    HW136377   4.532   2.384  14.895 -0.6631 -1.1983  0.8125
 8305SOL    HW236378   4.412   2.414  14.820  2.4096  1.4022 -1.5181
 8306SOL     OW36379   4.083   2.092   8.902 -0.6298 -0.6005  0.3962
 8306SOL    HW136380   4.040   2.110   8.985  0.5234 -0.7745  1.0188
 8306SOL    HW236381   4.064   2.168   8.848 -2.1384 -1.8934 -0.9108
 8307SOL     OW36382   1.790   3.390   3.637  0.6418 -0.2724 -0.6515
 8307SOL    HW136383   1.721   3.379   3.703  1.3898 -0.5037  0.0879
 8307SOL    HW236384   1.731   3.411   3.565 -0.0078  0.3411  0.0559
 8308SOL     OW36385   1.053   2.350   1.979  0.3682 -0.5296  0.5247
 8308SOL    HW136386   1.141   2.314   1.967 -0.1174 -0.6157 -2.7943
 8308SOL    HW236387   1.078   2.443   1.975 -2.9418  0.3586  0.4934
 8309SOL     OW36388   3.134   3.835   8.708  0.1214 -0.2808 -0.1092
 8309SOL    HW136389   3.172   3.752   8.680  0.6498 -0.8285  2.1771
 8309SOL    HW236390   3.199   3.902   8.685 -1.4217  0.7440 -1.4446
 8310SOL     OW36391   2.864   3.165   8.735 -0.8404  0.5796  0.3712
 8310SOL    HW136392   2.933   3.104   8.708 -0.6283 -0.3627  3.0073
 8310SOL    HW236393   2.846   3.109   8.811 -1.7192  1.4999  0.8339
 8311SOL     OW36394   2.817   3.502   2.714 -0.3102 -0.0777 -0.4318
 8311SOL    HW136395   2.734   3.480   2.756 -0.7407  1.6278 -0.3781
 8311SOL    HW236396   2.860   3.541   2.791 -1.3140  2.0285 -0.9340
 8312SOL     OW36397   2.226   1.740  14.040  0.3540 -0.4671  0.0248
 8312SOL    HW136398   2.250   1.648  14.038  2.8656  0.1491  1.0609
 8312SOL    HW236399   2.221   1.758  14.134 -2.9784 -0.1767 -0.2265
 8313SOL     OW36400   3.171   1.605  11.582  0.4042  0.3351  0.6080
 8313SOL    HW136401   3.239   1.665  11.611  1.4074  0.0884 -1.2117
 8313SOL    HW236402   3.098   1.666  11.574 -0.0191 -0.3153 -0.5407
 8314SOL     OW36403   2.986   1.424   4.292  0.2914 -0.2408 -0.1528
 8314SOL    HW136404   3.009   1.497   4.349 -1.4406 -0.7614  1.2314
 8314SOL    HW236405   2.909   1.385   4.334 -1.7968  4.3244  0.2501
 8315SOL     OW36406   2.533   1.158   4.656 -0.1315  0.4116  0.2476
 8315SOL    HW136407   2.448   1.198   4.638  1.0072  1.8227 -1.8769
 8315SOL    HW236408   2.511   1.090   4.592 -0.8007  0.2817  0.6118
 8316SOL     OW36409   1.230   0.167   3.785  0.3529 -0.1559 -0.2034
 8316SOL    HW136410   1.224   0.090   3.841 -1.5154 -0.4181 -0.7576
 8316SOL    HW236411   1.325   0.176   3.786  0.3417  0.0023 -0.5961
 8317SOL     OW36412   0.770   4.493   3.561  0.5907  0.5191  0.1842
 8317SOL    HW136413   0.696   4.547   3.590  0.5223  0.2220  0.5714
 8317SOL    HW236414   0.845   4.551   3.575  0.6630  1.0408 -2.3938
 8318SOL     OW36415   2.431   3.935   6.335  0.4042 -0.6036 -0.3006
 8318SOL    HW136416   2.345   3.976   6.346  1.1665  1.0439 -0.3941
 8318SOL    HW236417   2.451   3.935   6.242 -2.1954 -1.2973 -0.8423
 8319SOL     OW36418   1.562   1.401   4.424 -1.1068  0.2034  0.0091
 8319SOL    HW136419   1.653   1.409   4.396 -0.2710 -3.5623  1.6466
 8319SOL    HW236420   1.543   1.494   4.440 -2.1478  0.0092 -0.1221
 8320SOL     OW36421   3.091   0.033   4.366 -0.4198 -0.0257  0.4232
 8320SOL    HW136422   3.065   0.117   4.402  0.4965  0.0893  0.8224
 8320SOL    HW236423   3.017   4.701   4.377  0.6310 -1.3684  0.3415
 8321SOL     OW36424   3.525   1.481  10.795 -0.3923 -0.1732  0.4273
 8321SOL    HW136425   3.539   1.458  10.887  1.2919 -2.5508 -0.4232
 8321SOL    HW236426   3.559   1.398  10.762 -0.7463  0.2210 -0.9253
 8322SOL     OW36427   4.073   3.030   0.554  0.4660 -0.5162 -0.5413
 8322SOL    HW136428   4.110   2.942   0.561 -0.2038 -0.8354 -0.9944
 8322SOL    HW236429   4.018   3.017   0.476  1.2071  0.8315 -1.2953
 8323SOL     OW36430   3.546   1.955  11.281 -0.0819 -0.1591 -0.1229
 8323SOL    HW136431   3.543   1.861  11.300 -0.0371 -0.1512 -0.0765
 8323SOL    HW236432   3.461   1.974  11.243 -0.0504  2.4187  1.0474
 8324SOL     OW36433   3.742   4.124   1.738  0.4066  0.7729 -0.2957
 8324SOL    HW136434   3.702   4.154   1.657 -0.2356  2.2756  0.5788
 8324SOL    HW236435   3.763   4.206   1.782 -0.3477  0.0624  1.3826
 8325SOL     OW36436   3.197   2.255   5.457 -0.1334  0.0178 -0.1668
 8325SOL    HW136437   3.162   2.210   5.534 -0.0395  0.3081  0.0447
 8325SOL    HW236438   3.167   2.346   5.467  0.7797  0.2039  0.8720
 8326SOL     OW36439   0.703   2.138   5.142  0.2895  0.0086 -0.0871
 8326SOL    HW136440   0.700   2.097   5.055 -0.9871  1.1065 -0.5689
 8326SOL    HW236441   0.644   2.211   5.122 -1.6401 -1.3029  0.9215
 8327SOL     OW36442   1.433   1.681   7.514 -0.2005 -0.3691 -0.1516
 8327SOL    HW136443   1.424   1.656   7.606  0.3715  0.3308  0.0918
 8327SOL    HW236444   1.526   1.663   7.502 -0.1816 -0.8502  0.7460
 8328SOL     OW36445   1.907   4.090  15.208  0.0786 -0.0421  0.3596
 8328SOL    HW136446   1.844   4.072  15.278 -0.8325  0.7633 -0.2728
 8328SOL    HW236447   1.985   4.066  15.259 -0.6239 -0.2460  1.3484
 8329SOL     OW36448   0.082   2.234  11.716  0.9349  0.5149 -0.5221
 8329SOL    HW136449   0.120   2.312  11.756  0.1098  1.2084 -1.0894
 8329SOL    HW236450   0.113   2.164  11.773  1.6377  1.6753  0.5266
 8330SOL     OW36451   1.091   3.600  15.784 -0.6408 -0.4867  0.1059
 8330SOL    HW136452   1.045   3.545  15.721 -2.2910  3.1553 -1.8546
 8330SOL    HW236453   1.156   3.544  15.826 -1.2382 -0.9989  0.3329
 8331SOL     OW36454   3.974   3.623  14.043 -0.1986  0.6905  0.4290
 8331SOL    HW136455   3.880   3.630  14.023 -0.5802 -1.6863  1.3887
 8331SOL    HW236456   3.972   3.537  14.084  0.1073  1.0916  1.2814
 8332SOL     OW36457   0.695   0.269  11.904 -0.0664  0.2061 -0.1529
 8332SOL    HW136458   0.780   0.311  11.893  0.7065 -1.3810 -0.1922
 8332SOL    HW236459   0.711   0.220  11.984  3.8307  0.4382 -0.7890
 8333SOL     OW36460   1.314   4.242   5.172  0.1052  0.3784 -0.1086
 8333SOL    HW136461   1.261   4.264   5.095  0.5191  0.6486 -0.3127
 8333SOL    HW236462   1.252   4.259   5.243  0.0560  2.8343 -0.7449
 8334SOL     OW36463   0.975   1.762   8.177 -0.6322 -0.0672  0.3680
 8334SOL    HW136464   1.032   1.811   8.119  0.9423 -0.7962  1.2881
 8334SOL    HW236465   0.897   1.816   8.186  1.1156  2.3609  0.9783
 8335SOL     OW36466   0.757   2.883   7.318  0.4201  0.0016  0.2467
 8335SOL    HW136467   0.797   2.927   7.243 -2.3856  1.9679 -0.0813
 8335SOL    HW236468   0.719   2.806   7.277  0.7906  0.2030 -0.4628
 8336SOL     OW36469   1.322   0.572   2.113 -0.3086  0.6807 -0.1284
 8336SOL    HW136470   1.333   0.536   2.201 -0.5211 -2.5720 -1.4218
 8336SOL    HW236471   1.304   0.495   2.058  0.2116  0.1853  0.3966
 8337SOL     OW36472   4.587   3.328   2.711 -0.1534 -0.2914  0.0056
 8337SOL    HW136473   4.677   3.360   2.704 -0.6539  0.5384 -2.5164
 8337SOL    HW236474   4.551   3.411   2.743 -1.0321 -1.2687  1.5303
 8338SOL     OW36475   0.508   1.518  13.992 -0.1764 -0.4190  0.1951
 8338SOL    HW136476   0.562   1.596  13.987  0.6259 -1.1343 -2.1588
 8338SOL    HW236477   0.481   1.527  14.084  3.5579 -1.0702  1.3839
 8339SOL     OW36478   2.992   3.947   6.406 -0.0815 -0.1203  1.0204
 8339SOL    HW136479   3.026   4.036   6.409  0.8990 -0.4715  0.3749
 8339SOL    HW236480   3.072   3.897   6.388  0.1368  0.2664  0.9172
 8340SOL     OW36481   1.553   4.196   7.764  0.1115 -0.4870  0.0272
 8340SOL    HW136482   1.511   4.279   7.742 -0.4604 -1.6522 -3.1812
 8340SOL    HW236483   1.506   4.169   7.843 -0.5461  3.3299  0.9152
 8341SOL     OW36484   0.260   3.050  17.084 -0.2898 -0.4336  0.0144
 8341SOL    HW136485   0.223   3.084  17.003  1.4604  2.8262  0.5511
 8341SOL    HW236486   0.239   3.131  17.132 -0.7742  0.5168 -1.8302
 8342SOL     OW36487   3.882   0.687  13.854  0.6364  0.0393 -0.2118
 8342SOL    HW136488   3.967   0.728  13.873  0.7848 -0.1936 -0.3806
 8342SOL    HW236489   3.826   0.742  13.909 -0.0227 -1.2489  0.3917
 8343SOL     OW36490   0.833   2.340   4.094  0.1032  0.1104 -0.2064
 8343SOL    HW136491   0.918   2.297   4.103  0.5339  0.5868 -2.0279
 8343SOL    HW236492   0.859   2.429   4.119  0.8634 -1.0225  3.0560
 8344SOL     OW36493   0.972   4.672   3.896  0.1008 -0.5276  0.1832
 8344SOL    HW136494   0.916   0.014   3.861  0.4284 -0.6457 -0.5682
 8344SOL    HW236495   1.012   4.643   3.814 -2.2548 -2.0263 -0.4634
 8345SOL     OW36496   1.359   3.554   4.960  0.6052 -0.3758  0.4688
 8345SOL    HW136497   1.436   3.542   5.015 -0.0295 -1.6332  1.0883
 8345SOL    HW236498   1.286   3.568   5.021 -2.0191 -0.8827 -2.5571
 8346SOL     OW36499   3.088   2.461   2.759  0.6246 -0.0735  0.2057
 8346SOL    HW136500   3.012   2.410   2.730 -0.5737  0.6932  2.0095
 8346SOL    HW236501   3.110   2.494   2.673  0.9961  0.6244  0.5700
 8347SOL     OW36502   1.563   2.456  11.281  0.0581  0.2189 -0.3453
 8347SOL    HW136503   1.632   2.421  11.338 -0.8670 -2.3747 -0.8185
 8347SOL    HW236504   1.591   2.410  11.202 -2.1767 -0.5913 -0.6705
 8348SOL     OW36505   2.518   0.855   5.730 -0.2584 -0.5313  0.1977
 8348SOL    HW136506   2.588   0.808   5.773 -0.6889 -1.5683 -0.2378
 8348SOL    HW236507   2.554   0.935   5.691 -2.2439 -0.1207 -0.8347
 8349SOL     OW36508   2.838   0.372  14.783  0.2146  0.0536 -0.9505
 8349SOL    HW136509   2.816   0.281  14.764 -0.1742  0.0425 -0.4284
 8349SOL    HW236510   2.755   0.407  14.814  0.1657 -0.7920 -0.1377
 8350SOL     OW36511   3.101   2.306   0.808 -0.2365  0.3867  0.0788
 8350SOL    HW136512   3.157   2.266   0.875  0.1284  1.3905  0.3708
 8350SOL    HW236513   3.146   2.256   0.740 -0.6569 -1.9795  1.5006
 8351SOL     OW36514   2.905   2.155   8.472 -0.1947 -0.0467 -0.3178
 8351SOL    HW136515   2.973   2.177   8.408 -1.5967  1.4369 -1.2889
 8351SOL    HW236516   2.956   2.092   8.524  0.5082 -0.0248 -0.9743
 8352SOL     OW36517   4.673   0.443  17.602 -0.3020 -0.2724 -0.0380
 8352SOL    HW136518   4.717   0.507  17.546 -2.1087  2.7940  2.0569
 8352SOL    HW236519   4.580   0.463  17.591  0.0983  0.1846 -2.5867
 8353SOL     OW36520   2.232   2.264   2.291 -0.1870 -0.3870  0.2477
 8353SOL    HW136521   2.216   2.264   2.385  2.3341  0.2853  0.6777
 8353SOL    HW236522   2.204   2.178   2.260  0.4046 -0.0755 -1.1640
 8354SOL     OW36523   0.041   3.201   4.043 -0.4483  0.1487 -0.3351
 8354SOL    HW136524   0.023   3.210   3.950  0.6985  0.4760 -0.5191
 8354SOL    HW236525   0.008   3.112   4.054  0.4768 -0.1159  0.3400
 8355SOL     OW36526   4.516   3.793   3.021  0.4851  0.4523  0.3000
 8355SOL    HW136527   4.458   3.803   3.096 -0.6394  1.7540 -0.7407
 8355SOL    HW236528   4.592   3.843   3.050 -0.0546  0.4435  1.6917
 8356SOL     OW36529   3.596   4.274  17.678 -0.0790 -0.0239 -0.4951
 8356SOL    HW136530   3.678   4.283  17.629  0.7975  2.0460  1.3376
 8356SOL    HW236531   3.527   4.244  17.620 -0.4713 -0.6783  0.3035
 8357SOL     OW36532   1.350   2.318   5.619  0.2010  0.1561  0.3895
 8357SOL    HW136533   1.278   2.295   5.560  0.0866 -0.7207  0.8646
 8357SOL    HW236534   1.307   2.324   5.703 -0.5741  1.7066 -0.1339
 8358SOL     OW36535   0.206   1.420   2.098 -0.1279 -0.1895  0.1228
 8358SOL    HW136536   0.148   1.494   2.083 -0.5814 -0.6168 -0.2101
 8358SOL    HW236537   0.246   1.437   2.184  0.8456 -1.6990 -0.0292
 8359SOL     OW36538   1.968   2.195   8.383  0.4330 -0.7523  0.1799
 8359SOL    HW136539   1.968   2.157   8.471 -2.8573 -0.5320  0.2646
 8359SOL    HW236540   1.903   2.145   8.333 -0.1919 -2.0614  2.3209
 8360SOL     OW36541   3.032   4.090   4.496  0.0400  0.0223  0.1188
 8360SOL    HW136542   3.019   4.122   4.585  0.9558  0.7171  0.0043
 8360SOL    HW236543   2.950   4.117   4.454  1.4932 -1.3370 -3.5450
 8361SOL     OW36544   0.278   4.447   6.325  0.2115  0.2965  0.1458
 8361SOL    HW136545   0.298   4.434   6.418 -0.6897  0.7243  0.4078
 8361SOL    HW236546   0.210   4.513   6.341 -2.0051 -2.6215  2.8405
 8362SOL     OW36547   1.591   2.842  13.426  0.2102 -0.3106 -0.2365
 8362SOL    HW136548   1.623   2.776  13.365  0.0797  0.2021 -0.8618
 8362SOL    HW236549   1.613   2.801  13.509  0.7394  0.2841 -0.0867
 8363SOL     OW36550   3.057   0.404  12.482 -0.1403  0.7267  0.7163
 8363SOL    HW136551   3.093   0.438  12.401 -1.6059  0.5269 -0.0124
 8363SOL    HW236552   3.101   0.457  12.548  3.1224 -0.5601 -0.4017
 8364SOL     OW36553   2.392   1.742  17.417  0.0965 -0.2355  0.0220
 8364SOL    HW136554   2.487   1.743  17.429  0.3187 -0.4290 -1.7108
 8364SOL    HW236555   2.374   1.832  17.444  1.1747 -0.4058  1.2864
 8365SOL     OW36556   1.841   4.700   3.599 -0.7271 -0.7047 -0.8635
 8365SOL    HW136557   1.829   0.026   3.521 -1.7509 -2.3676 -1.8404
 8365SOL    HW236558   1.907   4.634   3.583  1.6294  1.2334  0.7833
 8366SOL     OW36559   0.681   0.079  17.333 -0.0812 -0.0297 -0.2005
 8366SOL    HW136560   0.721   0.012  17.388  0.0415  0.7659  0.6680
 8366SOL    HW236561   0.754   0.141  17.331 -0.5750  0.5621  0.2196
 8367SOL     OW36562   3.168   3.420   6.871 -0.2349 -0.6948 -0.1274
 8367SOL    HW136563   3.168   3.466   6.955  0.1803  0.7752 -0.9353
 8367SOL    HW236564   3.245   3.464   6.835  0.8732 -3.5607 -1.1631
 8368SOL     OW36565   4.197   0.279   5.373 -0.8785  0.2935  0.2363
 8368SOL    HW136566   4.135   0.208   5.354 -0.1176  0.5716 -3.2809
 8368SOL    HW236567   4.208   0.267   5.467 -1.4621 -1.0631  0.1313
 8369SOL     OW36568   1.837   1.652   6.479  0.8062 -0.2454 -0.3417
 8369SOL    HW136569   1.762   1.711   6.483  0.6859 -0.5735  2.2860
 8369SOL    HW236570   1.892   1.723   6.446  0.4992  0.0454 -0.2322
 8370SOL     OW36571   3.090   4.131  12.658 -0.4593 -0.2212 -0.4032
 8370SOL    HW136572   3.183   4.117  12.640  0.0979  2.7304  0.1186
 8370SOL    HW236573   3.101   4.129  12.753  1.8232  2.8193 -0.5938
 8371SOL     OW36574   3.846   4.727   4.917  0.4435 -0.4852 -0.0871
 8371SOL    HW136575   3.913   0.057   4.881 -1.4198  2.4137  1.1341
 8371SOL    HW236576   3.774   0.050   4.879  1.5224 -0.2382 -1.7831
 8372SOL     OW36577   0.811   4.101   8.150  0.3428  0.4383  0.5478
 8372SOL    HW136578   0.823   4.006   8.145 -1.3422  0.2730 -0.2472
 8372SOL    HW236579   0.719   4.106   8.125  0.5102 -1.6001 -0.5162
 8373SOL     OW36580   3.025   0.470   8.877  0.1946 -0.2969  0.2404
 8373SOL    HW136581   3.079   0.548   8.893  1.2616 -1.0175  0.1967
 8373SOL    HW236582   3.044   0.467   8.783 -2.6365 -0.8465 -0.2997
 8374SOL     OW36583   3.854   3.842   5.840  0.1742  0.3396  0.0528
 8374SOL    HW136584   3.872   3.923   5.887 -1.0534  0.0794  0.9692
 8374SOL    HW236585   3.778   3.880   5.795  0.0093  0.5644  0.5293
 8375SOL     OW36586   3.108   1.927  13.936 -0.4289  0.5079  0.4932
 8375SOL    HW136587   3.035   1.906  13.878 -1.0087 -0.7152  1.6550
 8375SOL    HW236588   3.166   1.945  13.862 -2.2316  0.4793 -0.9033
 8376SOL     OW36589   4.523   3.419   4.784 -0.3477  0.3023 -0.0553
 8376SOL    HW136590   4.522   3.344   4.843 -1.2205  1.1931  1.0663
 8376SOL    HW236591   4.617   3.426   4.770 -0.0647 -0.8889  1.2708
 8377SOL     OW36592   4.237   3.860   7.041  0.1597 -0.2703 -0.0319
 8377SOL    HW136593   4.306   3.909   7.085 -1.1892  1.7854 -0.2191
 8377SOL    HW236594   4.160   3.889   7.090  1.2583 -1.7037  2.5228
 8378SOL     OW36595   2.942   3.224  11.223  0.4125  0.2324 -0.0060
 8378SOL    HW136596   2.929   3.273  11.304 -1.0570 -1.1931  0.6279
 8378SOL    HW236597   2.862   3.172  11.212  0.2934  0.6924 -1.2966
 8379SOL     OW36598   2.451   2.521   6.893 -0.1609  0.1055  0.0404
 8379SOL    HW136599   2.486   2.606   6.919 -0.9260  0.5027 -0.2205
 8379SOL    HW236600   2.490   2.470   6.964 -0.8299  0.0420  0.3665
 8380SOL     OW36601   1.106   2.572   2.583  0.2663 -0.2900 -0.5392
 8380SOL    HW136602   1.137   2.511   2.516  1.6006  0.9476 -1.0279
 8380SOL    HW236603   1.117   2.657   2.541  1.1394 -1.7747 -3.3235
 8381SOL     OW36604   1.064   2.482  13.071 -0.0072 -0.0367  0.4271
 8381SOL    HW136605   1.159   2.468  13.078  0.0060  0.2147  0.7685
 8381SOL    HW236606   1.056   2.573  13.101  0.8148  0.1280  0.1566
 8382SOL     OW36607   3.110   0.712  11.594  0.3673 -0.1124  0.4930
 8382SOL    HW136608   3.112   0.771  11.670 -1.1497  2.2236 -1.2930
 8382SOL    HW236609   3.143   0.630  11.630 -0.2025 -0.6298 -0.1686
 8383SOL     OW36610   0.739   3.494  15.797 -0.3322 -0.1672  0.2331
 8383SOL    HW136611   0.785   3.438  15.735 -0.7592  0.4077 -0.5988
 8383SOL    HW236612   0.812   3.531  15.847 -0.3988  0.1613  0.0862
 8384SOL     OW36613   1.807   1.319   4.230 -0.2737 -0.2854  0.0286
 8384SOL    HW136614   1.833   1.367   4.152  1.6136 -0.4184  0.5697
 8384SOL    HW236615   1.815   1.391   4.293  2.6481  1.3796 -2.2266
 8385SOL     OW36616   2.932   1.139   0.218 -0.4391 -0.5447  0.3817
 8385SOL    HW136617   3.000   1.143   0.151 -2.4789 -0.9587 -1.7042
 8385SOL    HW236618   2.880   1.216   0.193 -0.9380 -0.8034  0.6165
 8386SOL     OW36619   2.683   0.620   8.868 -0.1781  0.0409 -0.0862
 8386SOL    HW136620   2.600   0.586   8.901 -0.4584  0.3136 -0.5055
 8386SOL    HW236621   2.718   0.662   8.946 -0.3657 -1.3551  0.7459
 8387SOL     OW36622   3.069   2.068   6.882  0.6248  0.2443  0.0456
 8387SOL    HW136623   3.005   2.001   6.904  0.2808  1.2249  2.0252
 8387SOL    HW236624   3.140   2.058   6.945  0.2154  0.2949  0.5182
 8388SOL     OW36625   0.439   3.760   6.568 -0.5605 -0.5244  0.4850
 8388SOL    HW136626   0.526   3.767   6.606  0.3918 -1.1429 -1.6042
 8388SOL    HW236627   0.428   3.665   6.565  2.6904 -0.8734  0.0309
 8389SOL     OW36628   4.027   3.993   3.608 -0.2929 -0.3081  0.4268
 8389SOL    HW136629   4.016   3.984   3.513  2.2994 -2.1318  0.2978
 8389SOL    HW236630   4.076   4.074   3.623  0.4847 -0.7775  0.4149
 8390SOL     OW36631   1.716   4.634   4.518  0.0460 -0.2224 -0.0171
 8390SOL    HW136632   1.715   4.697   4.446 -0.9300  1.1655  1.2096
 8390SOL    HW236633   1.622   4.618   4.530  0.3196 -2.5577 -1.0832
 8391SOL     OW36634   3.668   4.178   7.934 -0.1334 -0.3700 -0.2673
 8391SOL    HW136635   3.598   4.131   7.888  1.0057 -2.8839  0.5962
 8391SOL    HW236636   3.622   4.232   7.998  1.4689 -0.9239  1.3456
 8392SOL     OW36637   3.155   4.154   6.280  0.2304  0.3300  0.6469
 8392SOL    HW136638   3.177   4.214   6.209  1.7281 -1.8267 -0.7258
 8392SOL    HW236639   3.217   4.084   6.262  1.7564  2.2508 -1.5499
 8393SOL     OW36640   4.292   1.004   4.971  0.3680 -0.7596  0.0404
 8393SOL    HW136641   4.302   0.910   4.991 -0.6486 -0.3762  2.3722
 8393SOL    HW236642   4.325   1.012   4.882  1.6463  0.0346  0.5786
 8394SOL     OW36643   3.030   2.225   7.280  0.2983  0.5887  0.4015
 8394SOL    HW136644   3.060   2.282   7.351 -0.5134  2.2231 -0.5626
 8394SOL    HW236645   3.094   2.244   7.211  0.1855  0.9143  0.3854
 8395SOL     OW36646   3.368   0.435   5.708  0.2898 -0.4906 -0.0168
 8395SOL    HW136647   3.308   0.361   5.694  1.4423 -1.1856 -1.3865
 8395SOL    HW236648   3.358   0.461   5.799 -3.8672  3.9636 -1.7498
 8396SOL     OW36649   4.578   3.329   3.245  0.5240  0.2726  0.7446
 8396SOL    HW136650   4.602   3.321   3.153 -0.3847 -1.3618  0.6402
 8396SOL    HW236651   4.631   3.252   3.268 -0.9564 -1.5022 -1.7859
 8397SOL     OW36652   0.776   0.921   4.129  0.4591  0.1849  0.4899
 8397SOL    HW136653   0.849   0.979   4.108  1.0493 -0.5467  0.5326
 8397SOL    HW236654   0.717   0.918   4.053 -0.6486  2.3786  1.2695
 8398SOL     OW36655   4.558   3.415  14.252  0.4810  0.3821  0.8976
 8398SOL    HW136656   4.535   3.501  14.285 -1.8167  0.5877 -1.2206
 8398SOL    HW236657   4.604   3.435  14.170 -0.2909 -2.0881 -0.1441
 8399SOL     OW36658   3.237   1.259   5.626 -0.4244 -0.2477  0.5654
 8399SOL    HW136659   3.163   1.237   5.683 -0.3321  1.2391  1.2662
 8399SOL    HW236660   3.191   1.320   5.568 -1.3098  0.0680  1.5980
 8400SOL     OW36661   1.809   3.880   7.105 -0.5078  0.3465  1.2879
 8400SOL    HW136662   1.884   3.934   7.129  0.3301  0.0543 -0.6217
 8400SOL    HW236663   1.746   3.892   7.176 -0.0935 -0.8559  1.8439
 8401SOL     OW36664   3.100   0.278   9.206 -0.0708  0.3497 -0.4927
 8401SOL    HW136665   3.028   0.254   9.265  0.2486  1.4141  0.3297
 8401SOL    HW236666   3.122   0.192   9.170  0.8785  0.3957 -0.0084
 8402SOL     OW36667   3.765   0.127   5.249 -0.4032 -0.0361 -0.0875
 8402SOL    HW136668   3.688   0.172   5.283  0.3454  0.2337  1.2810
 8402SOL    HW236669   3.748   0.137   5.156 -1.8515  0.1371  0.1993
 8403SOL     OW36670   1.203   2.417   8.023 -0.8182 -0.3444  0.0995
 8403SOL    HW136671   1.227   2.349   8.086  1.7953  1.3714  0.9726
 8403SOL    HW236672   1.275   2.480   8.025 -0.0574 -1.2965  2.0970
 8404SOL     OW36673   3.168   1.216   9.395  0.1144 -0.2721  0.2420
 8404SOL    HW136674   3.193   1.261   9.314  1.0579 -0.7398  0.2769
 8404SOL    HW236675   3.075   1.237   9.387  0.1657  0.5011  1.6330
 8405SOL     OW36676   3.663   2.266   2.867 -0.1157  0.6093 -0.3736
 8405SOL    HW136677   3.731   2.320   2.826 -0.0472  0.3600 -0.5929
 8405SOL    HW236678   3.614   2.241   2.789  1.5039  0.1181 -1.2271
 8406SOL     OW36679   2.072   3.117  11.307 -0.0189 -0.5229 -0.4878
 8406SOL    HW136680   2.042   3.144  11.393  1.1865  0.7213 -0.4641
 8406SOL    HW236681   2.149   3.062  11.321  0.7081  0.8815  0.9135
 8407SOL     OW36682   0.155   2.100  11.465 -0.1652  0.4274  0.5780
 8407SOL    HW136683   0.199   2.024  11.502  0.8345  1.9296  2.4941
 8407SOL    HW236684   0.137   2.151  11.544  0.1556  1.0819  0.2376
 8408SOL     OW36685   1.462   0.911  14.425  0.0876 -0.6382 -0.5296
 8408SOL    HW136686   1.475   0.947  14.337 -0.7432 -0.8682 -0.7434
 8408SOL    HW236687   1.526   0.841  14.423 -0.7929 -1.5173  1.9351
 8409SOL     OW36688   0.529   0.577  11.068  0.2142 -0.3139 -0.8523
 8409SOL    HW136689   0.488   0.553  10.984 -0.0826 -1.5914 -0.3518
 8409SOL    HW236690   0.468   0.533  11.128 -1.1554  0.5560 -1.6061
 8410SOL     OW36691   2.043   3.419   6.344  0.3812  0.0711 -0.3302
 8410SOL    HW136692   2.053   3.331   6.309  0.3241 -0.0673  0.0037
 8410SOL    HW236693   2.130   3.452   6.368  0.3013  1.5454 -2.0611
 8411SOL     OW36694   1.548   1.660  16.532 -0.0988  0.3388 -0.6067
 8411SOL    HW136695   1.488   1.601  16.577  1.2092  1.0227  2.0084
 8411SOL    HW236696   1.627   1.606  16.527  0.3944  0.7869  2.3847
 8412SOL     OW36697   1.968   0.464   1.739 -0.1516 -0.1775  0.2185
 8412SOL    HW136698   1.919   0.544   1.720  0.6862  0.2212 -0.2527
 8412SOL    HW236699   1.902   0.429   1.799  1.9460 -0.7474  2.2230
 8413SOL     OW36700   0.749   3.461   4.705  0.5871  0.3920  0.4156
 8413SOL    HW136701   0.676   3.439   4.762  0.3030 -1.7517 -0.7694
 8413SOL    HW236702   0.742   3.387   4.645  0.1891  2.1353 -1.7288
 8414SOL     OW36703   1.092   3.146   9.409  0.1810 -0.1460  0.0589
 8414SOL    HW136704   1.089   3.056   9.379  1.8348 -1.0300  2.4808
 8414SOL    HW236705   1.043   3.183   9.336 -2.9639  1.6818  3.0538
 8415SOL     OW36706   3.212   1.376   9.198 -0.4892  0.1514 -0.3299
 8415SOL    HW136707   3.294   1.404   9.156 -0.1715  1.4239  1.1505
 8415SOL    HW236708   3.172   1.462   9.185 -0.2848  0.1283 -1.1625
 8416SOL     OW36709   1.388   1.681   8.700  0.4050  0.1377  0.4958
 8416SOL    HW136710   1.452   1.642   8.760 -0.4030 -2.2507 -0.1917
 8416SOL    HW236711   1.330   1.726   8.762 -0.4053 -1.1104  0.6505
 8417SOL     OW36712   3.868   3.206   7.183  0.5047  0.9039 -0.4259
 8417SOL    HW136713   3.956   3.236   7.206 -0.4058  2.2476  1.3133
 8417SOL    HW236714   3.849   3.263   7.109 -0.4269 -0.8584 -1.5363
 8418SOL     OW36715   3.721   4.307   4.555  0.0765 -0.5238 -0.1966
 8418SOL    HW136716   3.707   4.234   4.615  2.2216 -1.3868 -0.7666
 8418SOL    HW236717   3.629   4.331   4.542  0.2137  0.9447  1.4961
 8419SOL     OW36718   2.502   3.487   8.440  0.3222 -0.2059  0.1109
 8419SOL    HW136719   2.565   3.432   8.487  0.3959  0.2634  0.5554
 8419SOL    HW236720   2.444   3.524   8.505  0.1020 -1.8838  0.8791
 8420SOL     OW36721   0.804   2.280   0.441 -0.3881 -0.1080  0.0450
 8420SOL    HW136722   0.862   2.345   0.481  2.4469 -1.1202 -2.3622
 8420SOL    HW236723   0.790   2.321   0.356  2.1373 -0.0324 -0.3533
 8421SOL     OW36724   2.101   4.678  10.888 -0.3505  0.0802 -0.0597
 8421SOL    HW136725   2.192   4.669  10.918 -1.1941 -1.9476  1.8667
 8421SOL    HW236726   2.115   4.650  10.797  4.5696 -0.5051  0.8715
 8422SOL     OW36727   0.257   4.622   5.595 -0.4003  0.1049 -0.0286
 8422SOL    HW136728   0.168   4.645   5.567 -1.0256 -1.6098  0.5469
 8422SOL    HW236729   0.236   4.557   5.662 -1.4583  1.2707  0.7587
 8423SOL     OW36730   1.220   1.633  15.909  0.4759 -0.2911  0.0583
 8423SOL    HW136731   1.261   1.677  15.834 -0.3373  1.2303  0.5048
 8423SOL    HW236732   1.140   1.596  15.873  1.3818 -1.7049 -0.5300
 8424SOL     OW36733   3.322   2.197  10.616 -0.4495 -0.1256 -0.5142
 8424SOL    HW136734   3.333   2.268  10.679 -1.5760 -1.3649  1.0638
 8424SOL    HW236735   3.316   2.125  10.678 -0.9015 -0.8867 -1.4549
 8425SOL     OW36736   3.984   0.025   5.662  0.1059  0.5943  0.2625
 8425SOL    HW136737   4.002   4.661   5.684 -0.8299  0.8631  2.1473
 8425SOL    HW236738   3.963   0.007   5.570 -0.4666  1.5577  0.2030
 8426SOL     OW36739   3.354   3.116   6.259  0.6025 -0.2239 -0.0920
 8426SOL    HW136740   3.369   3.187   6.322  3.3980 -0.2537 -0.7286
 8426SOL    HW236741   3.411   3.151   6.191 -0.6293  2.4282  0.2474
 8427SOL     OW36742   0.506   1.188   3.295  0.0174 -0.2004 -0.1363
 8427SOL    HW136743   0.525   1.279   3.316 -0.6705  0.0966 -0.8216
 8427SOL    HW236744   0.479   1.195   3.204  2.8410 -1.9077 -1.1272
 8428SOL     OW36745   3.096   4.175  10.530 -0.2739  0.1795  0.4563
 8428SOL    HW136746   3.116   4.091  10.571  0.2241 -0.6847 -1.5846
 8428SOL    HW236747   3.111   4.235  10.603 -0.2986 -0.9678  1.4017
 8429SOL     OW36748   4.260   0.957   3.868  0.2689  0.4101  0.0476
 8429SOL    HW136749   4.334   0.983   3.922 -1.0455  2.4206  0.8653
 8429SOL    HW236750   4.230   1.037   3.824 -0.1407 -0.2928 -0.9446
 8430SOL     OW36751   4.297   1.582   1.253 -0.0617 -0.5222 -0.7447
 8430SOL    HW136752   4.236   1.554   1.321 -2.5716 -1.7319 -3.5092
 8430SOL    HW236753   4.308   1.674   1.277  1.2297 -0.8715  0.0027
 8431SOL     OW36754   3.843   1.151   1.824 -0.0318  0.1088  0.0983
 8431SOL    HW136755   3.841   1.118   1.734  1.5222  2.6109 -0.8507
 8431SOL    HW236756   3.919   1.208   1.813  1.1079 -1.5655 -0.7635
 8432SOL     OW36757   1.887   2.262   7.211  0.0780  0.1869  0.8476
 8432SOL    HW136758   1.893   2.274   7.306 -0.6831 -0.9409  1.0440
 8432SOL    HW236759   1.824   2.330   7.189 -0.1042 -0.5091 -0.7635
 8433SOL     OW36760   0.070   0.935   8.416  0.2200 -0.1842 -0.4383
 8433SOL    HW136761   0.127   0.918   8.491 -0.6052 -0.4041  0.1458
 8433SOL    HW236762   0.056   1.027   8.440 -0.9704 -1.2729  3.0024
 8434SOL     OW36763   0.772   2.582  13.968  0.0612  0.2698 -0.5801
 8434SOL    HW136764   0.705   2.567  13.901  0.5319  0.1823 -1.0366
 8434SOL    HW236765   0.821   2.653  13.928 -0.2704  0.0925 -1.2994
 8435SOL     OW36766   3.941   1.206   5.327 -0.1440  0.2709  0.0446
 8435SOL    HW136767   3.989   1.176   5.249  0.8817 -1.3589  1.3104
 8435SOL    HW236768   3.975   1.295   5.328 -1.7737  0.8959  0.3445
 8436SOL     OW36769   1.284   4.303   4.676 -0.1132  0.2435  0.2314
 8436SOL    HW136770   1.202   4.285   4.631  0.0446 -0.5021  0.2285
 8436SOL    HW236771   1.318   4.217   4.701  1.3194  0.7587  0.0787
 8437SOL     OW36772   0.843   2.930  13.492  0.4066  0.4750 -0.3809
 8437SOL    HW136773   0.930   2.921  13.531  0.6740 -0.8786 -1.2687
 8437SOL    HW236774   0.796   2.925  13.575  2.0739  1.1230  0.5873
 8438SOL     OW36775   2.309   0.725   7.002 -0.5234 -0.3539  0.4079
 8438SOL    HW136776   2.228   0.766   6.973  0.0221 -0.1323 -0.7622
 8438SOL    HW236777   2.306   0.739   7.097 -1.1195  1.6810  0.0838
 8439SOL     OW36778   1.170   3.910   2.216  0.0958  0.4081 -0.3655
 8439SOL    HW136779   1.075   3.913   2.209  0.1619  0.5365 -1.1931
 8439SOL    HW236780   1.188   3.959   2.296  2.1671  0.3981 -0.8138
 8440SOL     OW36781   1.885   1.097   9.578 -0.8668 -0.3689 -0.1910
 8440SOL    HW136782   1.832   1.052   9.643 -1.4669 -0.6074 -0.8512
 8440SOL    HW236783   1.900   1.181   9.621 -0.0923 -1.4150  1.5499
 8441SOL     OW36784   2.739   1.973  14.533 -1.0276 -0.4504 -0.3211
 8441SOL    HW136785   2.715   1.907  14.469 -1.7966 -0.7258  0.2506
 8441SOL    HW236786   2.807   2.025  14.490 -1.0598 -0.7917 -0.7822
 8442SOL     OW36787   1.580   3.248   5.971  0.5912  0.0589  0.1019
 8442SOL    HW136788   1.653   3.209   6.018  0.2481 -0.7219 -0.0207
 8442SOL    HW236789   1.548   3.170   5.927  0.7097  0.2199 -0.2721
 8443SOL     OW36790   1.255   1.635   1.681 -0.0262 -0.4143 -0.4613
 8443SOL    HW136791   1.333   1.675   1.643  0.6729  0.0919  1.4984
 8443SOL    HW236792   1.256   1.542   1.659 -0.3042 -0.5127 -0.0658
 8444SOL     OW36793   4.281   1.830  16.624  0.1890 -0.4873 -0.1502
 8444SOL    HW136794   4.275   1.805  16.532 -2.9021  1.6228 -0.5219
 8444SOL    HW236795   4.201   1.875  16.650  0.7391 -0.6809  1.9014
 8445SOL     OW36796   0.455   0.834   4.993 -0.0353 -0.5765 -0.4390
 8445SOL    HW136797   0.407   0.914   5.013 -1.7806 -2.0022  1.0723
 8445SOL    HW236798   0.506   0.820   5.073 -1.2570  1.8316  0.7694
 8446SOL     OW36799   1.662   1.349   3.292 -0.0990 -0.1867  0.3223
 8446SOL    HW136800   1.626   1.334   3.205 -0.8491 -2.3698  0.9932
 8446SOL    HW236801   1.754   1.328   3.280 -0.2058 -0.7365  0.4793
 8447SOL     OW36802   3.757   3.975   3.386  0.9772 -0.4462  0.1546
 8447SOL    HW136803   3.753   4.048   3.447 -1.8106  0.9495 -1.7146
 8447SOL    HW236804   3.827   4.004   3.328  0.5136  0.0496 -0.1574
 8448SOL     OW36805   2.937   1.997   3.882 -0.0072 -0.6572 -0.6123
 8448SOL    HW136806   2.925   2.008   3.977 -2.2444  0.5792 -1.0342
 8448SOL    HW236807   3.009   1.935   3.878 -0.7539 -1.6356  1.0292
 8449SOL     OW36808   4.234   4.225  16.527  0.7831 -0.1135 -0.2338
 8449SOL    HW136809   4.186   4.302  16.558  1.0480  0.3922 -1.0911
 8449SOL    HW236810   4.206   4.178  16.606  0.4066 -3.2461 -2.2621
 8450SOL     OW36811   4.515   2.667   7.321 -0.2352 -0.5671  0.2059
 8450SOL    HW136812   4.579   2.603   7.289  1.9225  0.5553  2.3501
 8450SOL    HW236813   4.516   2.734   7.253 -0.0087  1.4659  2.2223
 8451SOL     OW36814   3.957   4.015   6.838 -0.4394 -0.2765  0.6619
 8451SOL    HW136815   3.911   3.946   6.887  0.5185 -1.3180  0.1074
 8451SOL    HW236816   4.036   3.973   6.803 -0.4789  0.3197 -0.1404
 8452SOL     OW36817   2.341   3.293  10.644  0.1540 -0.2599  0.4412
 8452SOL    HW136818   2.296   3.262  10.566  0.4380 -0.3516  0.3116
 8452SOL    HW236819   2.359   3.385  10.625  1.1751 -0.2365  1.4803
 8453SOL     OW36820   3.240   2.116  11.744  0.1537  0.0823  0.2321
 8453SOL    HW136821   3.269   2.204  11.770 -1.5861  0.7303 -0.0302
 8453SOL    HW236822   3.145   2.125  11.741  0.1057  0.1429  1.6076
 8454SOL     OW36823   3.197   0.551   3.758  0.4106 -0.4973 -0.2016
 8454SOL    HW136824   3.269   0.500   3.721 -0.4231 -2.7282  1.2193
 8454SOL    HW236825   3.157   0.489   3.820  0.7071 -1.3613 -0.8684
 8455SOL     OW36826   0.458   3.112   8.027 -0.0503 -0.2502 -0.0367
 8455SOL    HW136827   0.381   3.163   8.005  0.2203  0.8161  1.5317
 8455SOL    HW236828   0.482   3.143   8.114 -1.2436  1.0631 -0.1852
 8456SOL     OW36829   0.975   1.398  10.844  0.0884 -0.8828 -0.2758
 8456SOL    HW136830   1.052   1.428  10.893  0.2152 -2.4736  0.5084
 8456SOL    HW236831   0.977   1.482  10.799  1.8664 -0.2466  0.9524
 8457SOL     OW36832   4.005   1.156  16.982  0.0237 -0.1361  0.7098
 8457SOL    HW136833   3.995   1.089  16.915  0.9553  1.2335 -0.8030
 8457SOL    HW236834   3.917   1.160  17.020  0.9320  1.8536  2.5362
 8458SOL     OW36835   0.098   2.738   3.102 -0.2377 -0.1641  0.8621
 8458SOL    HW136836   0.177   2.749   3.154  0.0822  0.7252  0.1907
 8458SOL    HW236837   0.041   2.687   3.160 -1.8482  0.1449 -0.4310
 8459SOL     OW36838   2.411   4.469  10.070 -0.1748 -0.6684 -0.0699
 8459SOL    HW136839   2.365   4.543  10.111  0.9398 -0.8433  1.5164
 8459SOL    HW236840   2.501   4.486  10.095  0.3696 -0.4711 -2.1903
 8460SOL     OW36841   4.214   3.660   2.487 -0.5017 -0.2936 -0.4764
 8460SOL    HW136842   4.120   3.649   2.501 -0.3734 -1.8355 -0.7897
 8460SOL    HW236843   4.254   3.595   2.545 -0.9200 -0.6991 -0.6348
 8461SOL     OW36844   2.801   0.543   3.560  0.4210  0.1405 -0.0652
 8461SOL    HW136845   2.844   0.623   3.589  0.5673  0.0424 -0.0151
 8461SOL    HW236846   2.853   0.470   3.594  1.7282  0.9031 -0.4362
 8462SOL     OW36847   4.676   0.060   7.881 -0.1906  0.6145 -0.2539
 8462SOL    HW136848   4.595   0.104   7.907 -0.6874  0.8669 -2.2650
 8462SOL    HW236849   4.716   0.035   7.964  0.1545 -0.5892 -0.7800
 8463SOL     OW36850   4.324   0.121   4.694 -0.4717 -0.3299 -0.2347
 8463SOL    HW136851   4.304   0.083   4.779  2.1061  2.1705  1.4736
 8463SOL    HW236852   4.291   0.061   4.627 -1.4706  0.4706 -0.4592
 8464SOL     OW36853   0.612   2.487   7.225 -0.0183 -0.3805 -0.2777
 8464SOL    HW136854   0.564   2.557   7.271 -0.5369 -0.5622 -0.5379
 8464SOL    HW236855   0.687   2.492   7.284  1.8384 -1.4479 -2.5686
 8465SOL     OW36856   0.024   4.552  13.528 -0.7097 -0.8670 -0.2929
 8465SOL    HW136857   4.667   4.510  13.513 -0.9945 -1.2818  2.4230
 8465SOL    HW236858   4.721   4.640  13.551  0.9194 -0.6494  0.9958
 8466SOL     OW36859   3.640   0.545   8.761  0.1745 -0.2484  0.0752
 8466SOL    HW136860   3.604   0.612   8.703  2.0526  1.1423  0.5312
 8466SOL    HW236861   3.577   0.567   8.830  1.9841 -1.1581  1.9995
 8467SOL     OW36862   3.670   3.815  15.071 -0.1317  0.6883 -0.0014
 8467SOL    HW136863   3.593   3.859  15.106 -0.1199 -0.7893  1.8873
 8467SOL    HW236864   3.690   3.753  15.141 -0.8122  1.9518  1.2967
 8468SOL     OW36865   4.534   1.300   3.822  0.4071  0.2961  0.0153
 8468SOL    HW136866   4.519   1.308   3.916 -0.5756  1.8921 -0.2913
 8468SOL    HW236867   4.532   1.390   3.790 -0.7032 -0.3865 -1.8202
 8469SOL     OW36868   3.579   1.805   5.049 -0.2047 -0.2127  1.1559
 8469SOL    HW136869   3.520   1.880   5.046 -0.7004 -0.5602  2.3618
 8469SOL    HW236870   3.664   1.843   5.026 -0.1184 -0.8531  0.4265
 8470SOL     OW36871   3.344   0.333   2.493 -0.4159  0.1083  0.0527
 8470SOL    HW136872   3.311   0.259   2.443  0.0240 -1.0389  1.4713
 8470SOL    HW236873   3.402   0.365   2.424 -1.3732  0.2963 -0.6598
 8471SOL     OW36874   2.481   2.955   8.035  0.3833  0.7451 -0.5248
 8471SOL    HW136875   2.423   2.998   8.098 -0.8726 -0.4302 -0.8565
 8471SOL    HW236876   2.443   2.986   7.953 -0.4777  1.7293  0.2547
 8472SOL     OW36877   3.902   4.359   6.013  0.0663  0.3422 -0.4315
 8472SOL    HW136878   3.984   4.362   6.062  0.0013  0.6701 -0.3464
 8472SOL    HW236879   3.847   4.427   6.052  0.9793  0.4352  0.6999
 8473SOL     OW36880   2.482   3.576   2.738 -0.2732  0.0414  0.3714
 8473SOL    HW136881   2.432   3.507   2.782 -1.0452  0.7295  0.5886
 8473SOL    HW236882   2.467   3.648   2.800 -0.2710 -0.3505  0.8232
 8474SOL     OW36883   1.222   3.893  15.474  0.9518 -0.5305  0.1480
 8474SOL    HW136884   1.292   3.867  15.415 -1.0385 -0.5002 -2.1784
 8474SOL    HW236885   1.156   3.834  15.439  1.9846 -0.1340 -2.4773
 8475SOL     OW36886   3.629   0.498   3.756 -1.2369 -0.5119 -0.1983
 8475SOL    HW136887   3.618   0.578   3.807 -1.5860 -1.5758  1.3798
 8475SOL    HW236888   3.716   0.509   3.717  0.2190 -0.6583  2.9863
 8476SOL     OW36889   2.350   2.513  10.386  0.0516 -0.1854 -0.4112
 8476SOL    HW136890   2.256   2.499  10.376 -0.1806  1.2114 -0.2076
 8476SOL    HW236891   2.343   2.607  10.403 -0.8055 -0.3094 -0.0687
 8477SOL     OW36892   0.512   4.172  12.070 -0.1552 -0.4502  0.3535
 8477SOL    HW136893   0.473   4.095  12.029 -1.1629 -0.7275  1.8324
 8477SOL    HW236894   0.446   4.211  12.127  0.4260  1.6619 -0.4103
 8478SOL     OW36895   1.057   2.503   4.448 -0.0619 -0.0458  0.1857
 8478SOL    HW136896   1.016   2.570   4.392  0.0113  0.3402  0.5924
 8478SOL    HW236897   1.113   2.553   4.507  0.0433 -0.0718  0.1075
 8479SOL     OW36898   0.028   0.469   3.065  0.2703  0.0194  0.2482
 8479SOL    HW136899   0.101   0.514   3.107 -0.4720  0.6925  0.8243
 8479SOL    HW236900   4.692   0.539   3.048  0.1137  0.3609  2.1413
 8480SOL     OW36901   3.813   3.659   7.965 -0.9643 -0.3069  0.2056
 8480SOL    HW136902   3.903   3.658   7.998 -0.8681  1.6477  0.0125
 8480SOL    HW236903   3.791   3.566   7.958 -2.0683  0.0394 -0.9753
 8481SOL     OW36904   0.235   2.963  12.809  0.7486  0.0153 -0.2140
 8481SOL    HW136905   0.277   2.878  12.813 -1.8573 -1.1873  1.4228
 8481SOL    HW236906   0.264   3.004  12.891  0.6704  0.9032 -0.6274
 8482SOL     OW36907   2.986   0.864  17.664  0.0986  0.2291  0.1731
 8482SOL    HW136908   2.965   0.951  17.629 -0.2086  0.9493  2.1211
 8482SOL    HW236909   2.933   0.872   0.032  0.6591 -0.5612  0.6167
 8483SOL     OW36910   1.171   3.017   1.248 -0.4905 -0.0365 -0.0857
 8483SOL    HW136911   1.246   3.075   1.237  1.3445 -2.5092 -0.6428
 8483SOL    HW236912   1.108   3.074   1.294  0.0838  0.4473  0.1014
 8484SOL     OW36913   4.362   1.841   1.326  0.2094 -0.0624 -0.5917
 8484SOL    HW136914   4.303   1.910   1.357  0.1246 -0.4909  0.1888
 8484SOL    HW236915   4.431   1.838   1.393 -1.2782  0.3285  0.9789
 8485SOL     OW36916   3.310   3.285   7.722  0.3492  0.1800  0.9719
 8485SOL    HW136917   3.252   3.359   7.701  2.5240  2.8955  4.5279
 8485SOL    HW236918   3.255   3.241   7.787 -1.7761  0.0011 -0.9217
 8486SOL     OW36919   3.666   2.955   4.427  0.0676  0.0612  0.2658
 8486SOL    HW136920   3.674   2.900   4.505 -1.7775  1.3340  1.3510
 8486SOL    HW236921   3.706   2.886   4.374 -0.5154  0.7044 -1.0089
 8487SOL     OW36922   1.835   1.885   4.413 -0.1845 -0.2373 -0.3355
 8487SOL    HW136923   1.920   1.891   4.369  1.2459 -0.4172  2.3760
 8487SOL    HW236924   1.790   1.965   4.385 -0.3408 -0.3025 -0.2655
 8488SOL     OW36925   3.490   4.534   8.088  0.2810  0.0259 -0.2785
 8488SOL    HW136926   3.528   4.454   8.124  0.5294 -0.3477 -1.3810
 8488SOL    HW236927   3.564   4.594   8.085  1.1580 -0.9991  1.0042
 8489SOL     OW36928   2.224   3.376   5.642  0.2135  0.2636  0.5801
 8489SOL    HW136929   2.176   3.419   5.572 -1.4830 -2.2669  0.1912
 8489SOL    HW236930   2.276   3.451   5.671  0.4527 -0.0482  0.9618
 8490SOL     OW36931   1.799   1.760   8.677 -0.0805 -0.2801 -0.7431
 8490SOL    HW136932   1.744   1.820   8.725  0.8905 -0.5942  0.7713
 8490SOL    HW236933   1.815   1.688   8.739  2.4453  0.2861 -0.7471
 8491SOL     OW36934   4.236   1.703   2.829 -0.3389 -0.0219  0.5988
 8491SOL    HW136935   4.299   1.682   2.898 -1.3677  1.3993  1.9678
 8491SOL    HW236936   4.159   1.654   2.857 -0.3389  0.7115  1.8864
 8492SOL     OW36937   2.989   2.647   1.702  0.0945  0.1874  0.1589
 8492SOL    HW136938   2.897   2.621   1.691  0.0298  0.9668 -1.1038
 8492SOL    HW236939   3.003   2.692   1.619  0.5250  1.2098  0.7876
 8493SOL     OW36940   2.896   4.376  12.698 -0.1049 -0.3791 -0.1042
 8493SOL    HW136941   2.802   4.356  12.689 -0.0673 -0.1274 -1.0766
 8493SOL    HW236942   2.938   4.297  12.733  0.9394  0.3142  0.1897
 8494SOL     OW36943   1.911   0.883  14.102  0.7284 -0.2268 -0.2002
 8494SOL    HW136944   1.924   0.788  14.109  1.8305 -0.0569  0.0071
 8494SOL    HW236945   1.968   0.922  14.168 -0.2150  0.4410  0.2193
 8495SOL     OW36946   2.061   2.276   3.094 -0.0144  0.0867 -0.0573
 8495SOL    HW136947   2.063   2.269   2.998  2.7500 -0.8295  0.0779
 8495SOL    HW236948   2.120   2.205   3.119  0.0558  0.8090  1.7899
 8496SOL     OW36949   4.354   0.319   7.446 -0.3117  0.2180 -0.4915
 8496SOL    HW136950   4.385   0.242   7.399  1.3903  1.4224 -1.3148
 8496SOL    HW236951   4.315   0.293   7.530  0.9425 -1.0923 -0.3146
 8497SOL     OW36952   2.722   4.627   5.673 -0.5882 -0.0160  0.0698
 8497SOL    HW136953   2.697   4.627   5.765 -1.5082 -1.3190 -0.1820
 8497SOL    HW236954   2.748   4.537   5.652 -0.1947  0.5428 -1.8016
 8498SOL     OW36955   4.561   3.175   8.065  0.6160 -0.2902 -0.0457
 8498SOL    HW136956   4.634   3.139   8.015  0.2692  1.6755 -2.0134
 8498SOL    HW236957   4.607   3.169   8.148  1.1911  0.7133 -0.2788
 8499SOL     OW36958   2.727   4.426  17.523 -0.0161  0.2447 -0.5713
 8499SOL    HW136959   2.799   4.367  17.504  0.9173  1.3820 -0.5262
 8499SOL    HW236960   2.735   4.480  17.445  1.0565  0.0190 -0.6050
 8500SOL     OW36961   1.257   3.408  15.875  0.5126  0.2994  0.3424
 8500SOL    HW136962   1.216   3.344  15.933  0.9275 -1.1382 -0.9706
 8500SOL    HW236963   1.316   3.363  15.814  1.9485 -2.5787  3.8863
 8501SOL     OW36964   1.519   2.498   4.424  0.2423  0.3215 -0.0677
 8501SOL    HW136965   1.572   2.459   4.493 -0.4057 -0.3184  0.0614
 8501SOL    HW236966   1.466   2.545   4.488  0.1830  1.0919 -0.6783
 8502SOL     OW36967   0.841   3.618   7.762  0.1409  0.1775  0.4853
 8502SOL    HW136968   0.897   3.598   7.837 -2.0097 -2.3256  1.4435
 8502SOL    HW236969   0.763   3.646   7.811 -0.1935  2.2360 -1.1841
 8503SOL     OW36970   4.327   2.643   0.922  0.5134 -0.7018  0.1410
 8503SOL    HW136971   4.372   2.620   0.841  1.3541  0.2249  0.3357
 8503SOL    HW236972   4.311   2.560   0.966  2.1936 -0.6158  0.9039
 8504SOL     OW36973   2.616   2.933   6.527 -0.0934  0.0891 -0.1335
 8504SOL    HW136974   2.682   2.952   6.460  1.3227 -0.7889  1.0221
 8504SOL    HW236975   2.634   2.999   6.595  0.8289 -1.2443  0.9365
 8505SOL     OW36976   2.853   1.872   3.235  0.1731 -0.1300 -0.1126
 8505SOL    HW136977   2.931   1.924   3.254  0.7572 -1.2180  0.4575
 8505SOL    HW236978   2.827   1.913   3.152  2.1371  0.5130 -0.4154
 8506SOL     OW36979   2.965   3.492   7.959  0.2259  0.3952 -0.5153
 8506SOL    HW136980   2.878   3.460   7.934 -0.1061  1.1320 -0.3168
 8506SOL    HW236981   2.942   3.564   8.018  1.4260 -1.4700  2.1948
 8507SOL     OW36982   0.804   4.467   5.240  0.4285 -0.4108  0.0367
 8507SOL    HW136983   0.818   4.396   5.177  1.0563 -1.5842  1.4812
 8507SOL    HW236984   0.728   4.514   5.206  0.3780 -0.3748  0.1986
 8508SOL     OW36985   0.220   3.225  12.394 -0.1804 -0.2558 -0.0139
 8508SOL    HW136986   0.154   3.242  12.462  1.9179 -0.3433  2.0430
 8508SOL    HW236987   0.171   3.226  12.312 -1.3153  3.0256  0.7057
 8509SOL     OW36988   0.861   0.112  14.577  0.2049 -0.4311  0.5516
 8509SOL    HW136989   0.839   0.097  14.485  0.1548 -3.6631  1.0791
 8509SOL    HW236990   0.941   0.163  14.565 -1.6296  2.4888  0.8054
 8510SOL     OW36991   0.036   2.370   2.325 -0.2307  0.5236  0.9773
 8510SOL    HW136992   4.686   2.391   2.274 -0.3109 -3.6362 -0.6280
 8510SOL    HW236993   4.727   2.319   2.398 -1.1633 -0.2529 -0.0393
 8511SOL     OW36994   3.429   2.093   5.780 -0.1817 -0.1858  0.3668
 8511SOL    HW136995   3.374   2.087   5.858  0.9877 -0.1802  1.1791
 8511SOL    HW236996   3.517   2.092   5.817 -0.3720  0.0230  0.8272
 8512SOL     OW36997   4.592   3.346  11.113  0.0145  0.4559  0.1537
 8512SOL    HW136998   4.602   3.439  11.134  0.3177  0.4928 -0.1569
 8512SOL    HW236999   4.509   3.330  11.157  0.9583  1.0206  2.1157
 8513SOL     OW37000   1.973   3.179   5.095 -0.2652  0.9483  0.3768
 8513SOL    HW137001   1.908   3.108   5.089  0.1583  0.5522  0.5049
 8513SOL    HW237002   2.021   3.172   5.013  0.7508  0.9567  0.9766
 8514SOL     OW37003   2.076   1.029   1.917  0.3646 -0.3742 -0.8362
 8514SOL    HW137004   2.065   0.998   1.827  0.1084 -1.7549 -0.3225
 8514SOL    HW237005   2.140   1.099   1.905 -0.7814  0.8517  0.1740
 8515SOL     OW37006   2.913   0.195  15.081  0.3699 -0.1325  0.1793
 8515SOL    HW137007   2.970   0.218  15.155  1.8988  1.0327 -1.3850
 8515SOL    HW237008   2.968   0.236  15.015  0.4511 -0.8851 -0.2168
 8516SOL     OW37009   3.010   1.121   7.244  0.5487  0.1299  0.0135
 8516SOL    HW137010   3.094   1.164   7.229  1.3209 -0.8622  1.4872
 8516SOL    HW237011   3.031   1.030   7.265  0.2086 -0.1535 -0.8770
 8517SOL     OW37012   4.366   3.795   3.826 -0.1870 -0.4368  0.6374
 8517SOL    HW137013   4.385   3.845   3.747  2.0588  0.7829  1.9323
 8517SOL    HW237014   4.409   3.710   3.816 -0.6696 -0.6529  0.4225
 8518SOL     OW37015   3.553   2.880   2.653  0.1772  0.1556 -0.2042
 8518SOL    HW137016   3.630   2.936   2.658  1.3439 -1.4458 -0.1736
 8518SOL    HW237017   3.497   2.956   2.635  0.7466  1.2602  2.7210
 8519SOL     OW37018   3.844   1.397   1.626  0.9856  0.3702 -0.4166
 8519SOL    HW137019   3.830   1.386   1.532  0.8807  1.0533 -0.4810
 8519SOL    HW237020   3.761   1.435   1.656  0.3828  0.7602 -2.5777
 8520SOL     OW37021   4.047   1.554   3.156  0.6617  0.3059  0.3648
 8520SOL    HW137022   4.036   1.473   3.106 -1.2383  2.0899 -2.0813
 8520SOL    HW237023   3.975   1.537   3.216 -0.1289 -0.8932 -0.9448
 8521SOL     OW37024   1.715   2.802  17.680 -0.6134  0.4114 -0.0066
 8521SOL    HW137025   1.681   2.766  17.598  1.5510  2.5946 -1.8681
 8521SOL    HW237026   1.802   2.764  17.671  0.0383  2.2693 -1.5662
 8522SOL     OW37027   4.169   4.660  17.331 -0.3741 -0.4751  0.3617
 8522SOL    HW137028   4.076   4.679  17.321 -0.3746 -0.7817 -0.1943
 8522SOL    HW237029   4.211   4.686  17.249  2.4679 -1.4232  1.5144
 8523SOL     OW37030   2.213   0.164   1.398 -0.0122 -0.0742  0.0496
 8523SOL    HW137031   2.274   0.201   1.461  0.1938 -1.4371  0.6340
 8523SOL    HW237032   2.256   0.186   1.315 -0.3930 -3.1500 -0.9625
 8524SOL     OW37033   3.774   4.509   4.351  0.4358  0.3309 -0.3233
 8524SOL    HW137034   3.769   4.430   4.404 -2.0024 -0.6820 -2.0598
 8524SOL    HW237035   3.786   4.579   4.416  0.7410 -0.8174  0.8577
 8525SOL     OW37036   1.747   1.754   4.160 -0.0823 -0.3723  0.4145
 8525SOL    HW137037   1.752   1.726   4.251  1.2929 -0.8205  0.2090
 8525SOL    HW237038   1.718   1.845   4.163  1.0358  0.0342 -1.2469
 8526SOL     OW37039   1.401   3.167  16.021  0.0428  0.0122  0.1677
 8526SOL    HW137040   1.439   3.080  16.008  0.7123  0.3805 -0.3526
 8526SOL    HW237041   1.466   3.222  15.976 -0.8359  0.4531 -0.5626
 8527SOL     OW37042   2.209   0.878   3.458 -0.8170 -0.2879 -0.6424
 8527SOL    HW137043   2.241   0.867   3.369  0.0061 -2.5145 -0.0635
 8527SOL    HW237044   2.148   0.951   3.444 -0.9049 -0.5128 -1.4528
 8528SOL     OW37045   3.521   2.108   0.458 -0.2761 -0.2669  0.0079
 8528SOL    HW137046   3.429   2.083   0.444 -0.4587  0.7587 -0.6551
 8528SOL    HW237047   3.523   2.189   0.406 -0.1676  0.3362  0.9392
 8529SOL     OW37048   1.964   0.625   6.418  0.1618  0.1853  0.1854
 8529SOL    HW137049   1.947   0.576   6.338  1.5468 -1.6904  1.0445
 8529SOL    HW237050   1.935   0.557   6.480 -1.5859  1.1336  0.3987
 8530SOL     OW37051   3.577   1.914   4.132  0.1160  0.3857  0.5829
 8530SOL    HW137052   3.488   1.921   4.097 -0.3987 -1.3794  1.5492
 8530SOL    HW237053   3.551   1.874   4.215 -0.1189  0.7671  0.6920
 8531SOL     OW37054   4.209   2.921  10.301 -0.5176 -0.1628  0.5090
 8531SOL    HW137055   4.186   2.872  10.223  0.6247  0.0343  0.0520
 8531SOL    HW237056   4.125   2.965  10.315 -0.8068 -0.5790  0.0822
 8532SOL     OW37057   0.180   3.366   7.619  0.1006  0.0868 -0.1304
 8532SOL    HW137058   0.109   3.322   7.573  0.2813  0.5496 -0.8666
 8532SOL    HW237059   0.177   3.452   7.578 -0.7549 -0.2679 -0.8015
 8533SOL     OW37060   0.009   1.021   7.022  0.0194  0.1610 -0.2690
 8533SOL    HW137061   4.727   1.062   7.108  0.7473  1.5238 -0.8368
 8533SOL    HW237062   0.053   0.942   7.052 -1.6484 -0.4358  0.6123
 8534SOL     OW37063   1.407   3.155   6.865  0.1850 -0.1560 -0.1664
 8534SOL    HW137064   1.472   3.189   6.926 -0.7348  0.3577  0.5338
 8534SOL    HW237065   1.341   3.120   6.925 -1.3550  0.9123 -1.2191
 8535SOL     OW37066   1.862   2.893   6.325  0.3158 -0.0866  0.4301
 8535SOL    HW137067   1.785   2.940   6.293  3.0706  3.1708 -1.4116
 8535SOL    HW237068   1.883   2.940   6.405 -1.6798 -0.4106  1.1304
 8536SOL     OW37069   2.603   0.023   0.798  0.5912  0.0182 -0.1990
 8536SOL    HW137070   2.511   0.036   0.820 -0.2607 -2.4863 -2.3656
 8536SOL    HW237071   2.628   4.686   0.864  0.8548  1.3588  1.0186
 8537SOL     OW37072   2.170   1.338  15.604  0.2715  0.1492  0.1259
 8537SOL    HW137073   2.085   1.377  15.583  0.0499 -1.2766 -1.5581
 8537SOL    HW237074   2.149   1.254  15.644 -1.5677 -0.1184 -1.4191
 8538SOL     OW37075   3.259   4.294   6.963 -0.1888 -0.0584  0.1616
 8538SOL    HW137076   3.310   4.360   7.010 -2.1481  2.6344 -1.4805
 8538SOL    HW237077   3.316   4.217   6.957  1.3539  0.9283  2.2642
 8539SOL     OW37078   3.638   1.178  10.175 -0.3465  0.3459 -0.0113
 8539SOL    HW137079   3.548   1.144  10.170 -0.2412 -0.2854  2.5541
 8539SOL    HW237080   3.642   1.230  10.095  0.1641  1.0806  0.4971
 8540SOL     OW37081   3.064   2.563   4.981 -0.2648 -0.6072 -0.6475
 8540SOL    HW137082   3.032   2.609   5.059 -0.2093  0.5486 -1.3093
 8540SOL    HW237083   3.039   2.625   4.912  1.3690 -0.6656 -1.2758
 8541SOL     OW37084   1.074   4.662  14.634 -0.1843  0.3076 -0.2949
 8541SOL    HW137085   0.978   4.659  14.637 -0.1336 -0.6278  0.3607
 8541SOL    HW237086   1.084   0.009  14.575  0.4192  0.0227 -0.5516
 8542SOL     OW37087   3.695   0.442  16.087 -0.3954 -0.1543 -0.0552
 8542SOL    HW137088   3.681   0.503  16.159 -2.1090  0.6989 -1.1088
 8542SOL    HW237089   3.621   0.460  16.028 -0.9062 -0.5034  0.4685
 8543SOL     OW37090   2.191   2.604   0.806  0.5892 -0.4637 -0.2803
 8543SOL    HW137091   2.253   2.625   0.737  1.2361  3.0076  1.3626
 8543SOL    HW237092   2.229   2.642   0.885 -1.5959  0.4028  0.3657
 8544SOL     OW37093   3.780   2.775   5.217  0.2364  0.3851 -0.1958
 8544SOL    HW137094   3.706   2.736   5.170 -0.5068  0.2814  1.0704
 8544SOL    HW237095   3.743   2.809   5.298 -2.3483 -0.2134 -1.1328
 8545SOL     OW37096   3.883   4.643   7.308  0.3289 -0.0170 -0.0953
 8545SOL    HW137097   3.967   4.620   7.267 -0.5966 -0.0300 -1.9676
 8545SOL    HW237098   3.824   4.599   7.247  0.2967  0.9478 -0.7470
 8546SOL     OW37099   0.192   3.384   6.156 -0.0765 -0.4856 -0.0276
 8546SOL    HW137100   0.198   3.419   6.245  1.7778  2.5595 -1.3629
 8546SOL    HW237101   0.240   3.442   6.097  0.9141  0.4480  1.6818
 8547SOL     OW37102   1.330   0.002   9.342  0.5754  0.3452 -0.1516
 8547SOL    HW137103   1.265   4.677   9.389  1.6511 -0.8667  0.0058
 8547SOL    HW237104   1.384   0.034   9.413  3.0660  1.1658 -2.3981
 8548SOL     OW37105   0.967   1.794   3.068  0.1204  0.1663 -0.3653
 8548SOL    HW137106   0.919   1.873   3.094 -0.1791 -0.1398  0.0290
 8548SOL    HW237107   1.029   1.797   3.140 -0.1842  0.2935 -0.1103
 8549SOL     OW37108   1.378   0.067  13.630 -0.0248  0.0075  0.1719
 8549SOL    HW137109   1.359   0.154  13.666 -1.1595 -0.9040  1.8109
 8549SOL    HW237110   1.312   0.053  13.563 -1.4683 -0.2576  1.6415
 8550SOL     OW37111   1.571   1.828   8.512  0.0317 -0.1670  0.0499
 8550SOL    HW137112   1.514   1.773   8.565  2.2515 -0.8208  1.7802
 8550SOL    HW237113   1.659   1.812   8.546 -0.9569 -1.6645  1.9152
 8551SOL     OW37114   3.558   0.481  11.917  0.4437 -0.3027  1.1195
 8551SOL    HW137115   3.517   0.404  11.956 -2.9524  0.8164 -0.2572
 8551SOL    HW237116   3.612   0.516  11.988 -0.8285  1.4038  1.2524
 8552SOL     OW37117   3.034   0.513  17.047  0.4322 -0.2086 -0.4959
 8552SOL    HW137118   3.028   0.504  17.142  0.6946  0.7632 -0.3928
 8552SOL    HW237119   2.974   0.443  17.021  1.0222  0.1424 -2.7786
 8553SOL     OW37120   3.107   2.659   1.454 -0.5622 -0.0290  0.0857
 8553SOL    HW137121   3.038   2.701   1.402 -0.6766 -0.3046  0.0136
 8553SOL    HW237122   3.133   2.582   1.402 -0.1080  0.6266 -0.6565
 8554SOL     OW37123   3.620   3.309   3.686 -0.1218 -0.1341 -0.1142
 8554SOL    HW137124   3.550   3.368   3.714  0.5797  0.4614  0.3646
 8554SOL    HW237125   3.636   3.338   3.596  2.9000  0.3500  0.5678
 8555SOL     OW37126   1.377   3.950   2.757  0.4345  0.5163  0.8683
 8555SOL    HW137127   1.380   3.937   2.662  1.3657 -0.7672  1.0794
 8555SOL    HW237128   1.384   3.857   2.781 -0.0025  0.3842  0.4945
 8556SOL     OW37129   4.140   2.745   2.591 -0.6751  0.1085  0.3261
 8556SOL    HW137130   4.181   2.824   2.627 -0.3659 -0.0451  0.3114
 8556SOL    HW237131   4.185   2.736   2.507 -0.5247  1.4172  0.2701
 8557SOL     OW37132   2.916   0.016   2.680 -0.0221  0.6903 -0.0244
 8557SOL    HW137133   2.869   0.097   2.701 -1.0220  0.7917 -2.5220
 8557SOL    HW237134   2.980   0.001   2.749 -0.5560 -0.9196  0.1217
 8558SOL     OW37135   0.836   0.007  14.328 -0.0085 -0.2502  0.2873
 8558SOL    HW137136   0.745   0.037  14.331 -0.1958 -0.5557 -2.1270
 8558SOL    HW237137   0.815   4.641  14.321 -0.8837  0.1125 -2.2355
 8559SOL     OW37138   3.999   1.115  14.859 -0.4500 -0.4127  0.1428
 8559SOL    HW137139   4.051   1.190  14.887 -0.6037  0.3049 -1.4991
 8559SOL    HW237140   3.922   1.117  14.917 -0.3747  0.2770  0.2191
 8560SOL     OW37141   3.778   0.629  15.520  0.0218 -0.8694 -0.0890
 8560SOL    HW137142   3.852   0.657  15.573 -1.0682 -0.2088  1.0778
 8560SOL    HW237143   3.802   0.652  15.430  1.6478 -0.2656  0.5020
 8561SOL     OW37144   2.346   2.913  10.658  0.4764 -0.3051 -0.1095
 8561SOL    HW137145   2.324   2.875  10.744 -0.0159 -1.4497 -0.7496
 8561SOL    HW237146   2.423   2.964  10.682  0.2334 -0.5519  1.2031
 8562SOL     OW37147   3.901   1.303  17.373  0.5862  0.3512  0.4490
 8562SOL    HW137148   3.875   1.319  17.463  0.7219  2.1308  0.1926
 8562SOL    HW237149   3.986   1.264  17.395  0.2066 -0.1798  0.9410
 8563SOL     OW37150   4.588   4.713  14.075 -0.4237  0.0151  0.2832
 8563SOL    HW137151   4.571   4.713  13.981 -2.0527  0.9501  0.5856
 8563SOL    HW237152   4.679   0.013  14.076 -0.5038  0.2256  1.4837
 8564SOL     OW37153   2.913   1.858  15.374  0.1536  0.1525  0.6058
 8564SOL    HW137154   2.953   1.938  15.338 -0.0986 -0.3462 -0.8115
 8564SOL    HW237155   2.892   1.892  15.461  0.4794  0.4433  0.5699
 8565SOL     OW37156   1.386   3.136   1.119  0.0895 -0.3700  0.3184
 8565SOL    HW137157   1.373   3.157   1.027  0.8516  2.0222  0.7446
 8565SOL    HW237158   1.473   3.096   1.113 -0.3863 -1.3039 -0.4091
 8566SOL     OW37159   1.067   1.709   4.428 -0.4225 -0.0522  0.6129
 8566SOL    HW137160   1.117   1.709   4.346 -2.1908  0.9162 -0.4699
 8566SOL    HW237161   0.988   1.663   4.400  1.8267 -1.7416 -2.9366
 8567SOL     OW37162   3.050   0.017   3.265  0.1183 -0.3247 -0.1082
 8567SOL    HW137163   3.130   0.070   3.256 -1.5232  2.0969 -0.3084
 8567SOL    HW237164   3.001   0.070   3.327 -0.4240 -1.9130  0.8215
 8568SOL     OW37165   1.056   0.068   6.531 -0.3163 -0.1891 -0.7737
 8568SOL    HW137166   1.078   0.049   6.623 -0.2847  0.5351 -0.6288
 8568SOL    HW237167   1.049   4.706   6.500  0.7216 -1.6026  3.0301
 8569SOL     OW37168   4.641   4.536   7.783 -0.5291 -0.2529 -0.0449
 8569SOL    HW137169   4.649   4.631   7.781 -0.9425 -0.2176 -0.1056
 8569SOL    HW237170   4.716   4.506   7.834 -0.2206  0.6172  0.0186
 8570SOL     OW37171   0.040   1.843   4.401 -0.1724 -0.3289 -0.9067
 8570SOL    HW137172   0.129   1.842   4.364  0.8297  0.0581  1.4978
 8570SOL    HW237173   4.714   1.858   4.323 -0.4402  1.3321 -0.4120
 8571SOL     OW37174   1.886   0.735  10.490 -0.1089  0.7498 -0.0457
 8571SOL    HW137175   1.812   0.766  10.541 -0.8667 -0.0234 -0.6806
 8571SOL    HW237176   1.959   0.768  10.543  1.7667 -0.7239 -1.6792
 8572SOL     OW37177   1.927   0.673  13.234 -0.2722  0.4003  0.1075
 8572SOL    HW137178   1.905   0.756  13.277  0.6862  2.0626 -2.5515
 8572SOL    HW237179   1.900   0.605  13.295  0.1784  0.1231  0.0018
 8573SOL     OW37180   3.407   0.819   1.051  0.2390 -0.0051 -0.3315
 8573SOL    HW137181   3.389   0.767   0.973 -0.1825 -0.7504  0.2499
 8573SOL    HW237182   3.418   0.753   1.120  1.0496  2.3488  1.7771
 8574SOL     OW37183   1.685   2.154  11.903  0.3332 -0.1008 -0.4601
 8574SOL    HW137184   1.683   2.061  11.879  1.0611  0.0663 -1.2020
 8574SOL    HW237185   1.638   2.151  11.986  0.6078  1.8180 -0.2335
 8575SOL     OW37186   3.787   3.890   7.823 -0.4322 -0.3098 -0.1374
 8575SOL    HW137187   3.769   3.949   7.896  0.8338  1.6427 -1.3852
 8575SOL    HW237188   3.806   3.811   7.873  1.1943 -0.0257 -0.3225
 8576SOL     OW37189   2.155   4.593  10.646  0.2851  0.2885  0.4275
 8576SOL    HW137190   2.129   4.566  10.559  0.5610 -1.6348  0.9486
 8576SOL    HW237191   2.249   4.574  10.650  0.3076  0.0970 -1.3020
 8577SOL     OW37192   0.676   1.700   7.504 -0.3975  0.2896 -0.3983
 8577SOL    HW137193   0.710   1.782   7.540 -0.0027  0.1416 -0.4333
 8577SOL    HW237194   0.632   1.677   7.586  0.3613 -1.5045 -0.4889
 8578SOL     OW37195   2.463   1.500   9.766  0.4557  0.5907  0.3478
 8578SOL    HW137196   2.557   1.510   9.785  0.5069  0.9215 -0.0859
 8578SOL    HW237197   2.464   1.537   9.678 -0.1470  0.4517  0.2815
 8579SOL     OW37198   1.376   1.020   9.532  0.1803 -1.0066  0.6674
 8579SOL    HW137199   1.309   0.987   9.472 -1.1901  0.6442  1.2766
 8579SOL    HW237200   1.333   1.021   9.618  0.1914  1.8187  0.6559
 8580SOL     OW37201   0.183   1.203   8.492 -0.0540 -0.2996  0.3385
 8580SOL    HW137202   0.166   1.255   8.414  3.0968 -0.1937 -0.2587
 8580SOL    HW237203   0.271   1.181   8.461  0.0355 -0.1517  0.4878
 8581SOL     OW37204   3.981   2.802   8.668  0.3109 -0.3857 -0.3174
 8581SOL    HW137205   4.011   2.849   8.590 -1.9173  2.1229  0.3371
 8581SOL    HW237206   4.053   2.791   8.730 -0.1764 -3.4544 -0.3205
 8582SOL     OW37207   4.493   1.749  15.574  0.5456  0.1913  0.1424
 8582SOL    HW137208   4.419   1.788  15.529  0.4519  1.7723  1.6738
 8582SOL    HW237209   4.451   1.734  15.658 -1.5284  2.9910 -0.4339
 8583SOL     OW37210   0.422   2.782   1.150 -0.6318  0.3397 -0.4830
 8583SOL    HW137211   0.396   2.804   1.061  0.0878 -1.8819 -1.2451
 8583SOL    HW237212   0.432   2.688   1.134  0.1389  0.2166  0.6588
 8584SOL     OW37213   2.280   2.767   1.065  0.7662  0.4861  0.2064
 8584SOL    HW137214   2.287   2.822   0.987  1.5387  0.4680  0.2600
 8584SOL    HW237215   2.369   2.776   1.098  0.6566  1.1814  0.3013
 8585SOL     OW37216   4.696   0.729   1.144  0.7154  0.1626 -0.0826
 8585SOL    HW137217   0.060   0.752   1.161  1.2768 -2.2505  0.1186
 8585SOL    HW237218   4.655   0.815   1.146  0.8385  0.2304 -0.4851
 8586SOL     OW37219   0.770   2.739   9.128 -0.0328  0.2330 -0.1747
 8586SOL    HW137220   0.759   2.771   9.038  2.3221 -0.7513 -0.8128
 8586SOL    HW237221   0.807   2.656   9.100 -0.2909  0.0200  0.1279
 8587SOL     OW37222   4.552   1.613   6.537 -0.0555 -0.4569  0.5609
 8587SOL    HW137223   4.555   1.675   6.463 -1.4013 -1.3321 -0.2319
 8587SOL    HW237224   4.460   1.590   6.549  0.2418 -1.4565  0.8643
 8588SOL     OW37225   4.486   0.073   3.614  0.2764  0.3495  0.3456
 8588SOL    HW137226   4.505   0.050   3.523  1.8964 -2.3190  1.3627
 8588SOL    HW237227   4.444   4.722   3.650  2.3509 -0.1214  1.7679
 8589SOL     OW37228   2.171   3.513   8.890 -0.2008  0.0428 -0.0815
 8589SOL    HW137229   2.098   3.499   8.950  1.6446 -2.9128  1.4626
 8589SOL    HW237230   2.189   3.601   8.923  1.2178  0.3474 -1.6613
 8590SOL     OW37231   2.560   0.474   6.951 -0.3694  0.3196  0.1975
 8590SOL    HW137232   2.548   0.405   6.885  2.9631  1.4606 -1.6310
 8590SOL    HW237233   2.641   0.440   6.990  0.2730  2.1206  0.4340
 8591SOL     OW37234   3.081   3.391  10.763  0.6723  0.0549 -0.7962
 8591SOL    HW137235   3.083   3.485  10.778  0.0185  0.3374 -2.5346
 8591SOL    HW237236   3.149   3.356  10.821 -0.1834  0.3331  0.3794
 8592SOL     OW37237   0.129   3.513   3.368  0.4462  0.4853 -0.4851
 8592SOL    HW137238   0.180   3.595   3.376 -0.7525  1.3248 -1.5600
 8592SOL    HW237239   0.198   3.454   3.338  0.1143  1.0715 -2.4057
 8593SOL     OW37240   0.417   3.349   2.715 -0.1944 -0.3210  0.5124
 8593SOL    HW137241   0.484   3.369   2.780  0.6387 -1.2280 -0.0672
 8593SOL    HW237242   0.457   3.268   2.684 -1.1135  0.1957 -2.0387
 8594SOL     OW37243   0.678   1.518   3.992 -0.3938 -0.0029 -0.0363
 8594SOL    HW137244   0.616   1.502   3.920  1.5139  0.2860 -1.7408
 8594SOL    HW237245   0.747   1.570   3.952 -0.2851 -0.2051 -0.1100
 8595SOL     OW37246   0.873   0.448   4.883 -0.6555  0.2983  0.8245
 8595SOL    HW137247   0.794   0.442   4.936 -4.0562  1.2599 -4.1836
 8595SOL    HW237248   0.920   0.366   4.901 -0.0166  0.1305 -1.6224
 8596SOL     OW37249   4.263   1.269   3.816  0.1187  0.1860 -0.9706
 8596SOL    HW137250   4.358   1.261   3.826 -0.0119 -1.4604 -1.1301
 8596SOL    HW237251   4.262   1.341   3.753  0.2055  1.2418  0.2238
 8597SOL     OW37252   3.813   3.853   3.686  0.6513  0.4751 -0.5562
 8597SOL    HW137253   3.822   3.774   3.632  0.8759 -1.0526  1.7129
 8597SOL    HW237254   3.867   3.917   3.640  3.5024 -0.3382  1.5854
 8598SOL     OW37255   2.481   3.645   4.922 -0.5672 -0.4264 -0.1483
 8598SOL    HW137256   2.574   3.622   4.914 -0.4253  0.0902 -0.0016
 8598SOL    HW237257   2.451   3.630   4.833  0.9275  0.3099 -0.7755
 8599SOL     OW37258   0.452   0.836   1.577 -0.1036 -0.1300 -0.1095
 8599SOL    HW137259   0.453   0.757   1.630 -1.0731  0.1456  0.3252
 8599SOL    HW237260   0.362   0.822   1.548 -0.8149  0.1814  1.8780
 8600SOL     OW37261   3.829   3.467  17.527  0.4039 -0.0237  0.0402
 8600SOL    HW137262   3.876   3.390  17.494  2.1116  0.8372  0.4998
 8600SOL    HW237263   3.890   3.540  17.517  1.1271 -0.7493 -0.8941
 8601SOL     OW37264   0.626   0.288   3.386  0.1589  0.1135 -0.0757
 8601SOL    HW137265   0.548   0.236   3.370 -0.8462  2.0091 -1.3232
 8601SOL    HW237266   0.644   0.344   3.311  0.5118  0.9751  0.6415
 8602SOL     OW37267   4.104   2.441   2.761 -0.0349 -0.9964 -0.4059
 8602SOL    HW137268   4.179   2.477   2.713 -0.2410  0.4918  0.3917
 8602SOL    HW237269   4.132   2.351   2.743 -1.1525 -1.2742 -0.7750
 8603SOL     OW37270   1.253   2.222  15.964 -0.0542 -0.3652  0.2331
 8603SOL    HW137271   1.205   2.304  15.952 -1.3039 -1.2181 -0.6469
 8603SOL    HW237272   1.304   2.241  15.885 -0.4136 -0.5398 -0.0429
 8604SOL     OW37273   2.775   1.770   0.958 -0.3062  1.2186  0.4335
 8604SOL    HW137274   2.817   1.777   0.873  0.9629 -0.9613  0.8705
 8604SOL    HW237275   2.685   1.799   0.942 -0.1350  1.5561  0.0900
 8605SOL     OW37276   2.528   2.122   9.011  0.4086 -0.3036 -0.0968
 8605SOL    HW137277   2.610   2.072   9.011 -0.0316 -1.0272 -0.8332
 8605SOL    HW237278   2.476   2.072   9.074  0.6804 -2.5829 -1.6821
 8606SOL     OW37279   0.260   1.148  15.810 -0.2944  0.2915  0.0569
 8606SOL    HW137280   0.320   1.191  15.870 -0.8491  0.4186  0.5137
 8606SOL    HW237281   0.190   1.212  15.801  0.8779  1.4601 -0.8355
 8607SOL     OW37282   1.338   0.009   2.926 -0.3871  0.3435  0.3802
 8607SOL    HW137283   1.367   4.682   2.999  1.5549  0.4350 -0.3237
 8607SOL    HW237284   1.313   0.089   2.973 -0.0998  0.8504 -0.3314
 8608SOL     OW37285   3.625   4.297  16.456  0.2617 -0.0614 -0.1955
 8608SOL    HW137286   3.666   4.213  16.434 -0.0674  0.2082 -1.8613
 8608SOL    HW237287   3.695   4.329  16.512  0.6993  2.3089 -2.1135
 8609SOL     OW37288   3.167   1.224  12.227 -0.4973 -0.3577 -0.5605
 8609SOL    HW137289   3.124   1.280  12.292 -3.0303 -3.3677  0.3641
 8609SOL    HW237290   3.256   1.216  12.262  0.0981  1.0644 -1.7408
 8610SOL     OW37291   4.293   0.795  16.971 -0.3346  0.8374  0.2406
 8610SOL    HW137292   4.286   0.719  16.913 -1.0611  0.4348  0.8591
 8610SOL    HW237293   4.206   0.799  17.010 -0.3887  2.5913 -0.0449
 8611SOL     OW37294   0.480   4.542   8.042  0.3459  0.6356  0.0729
 8611SOL    HW137295   0.448   4.592   8.117  1.5222  2.0819 -0.3932
 8611SOL    HW237296   0.444   4.458   8.071 -0.4291  0.2177 -2.0808
 8612SOL     OW37297   1.231   2.141  16.486  0.2860 -0.1326 -0.5503
 8612SOL    HW137298   1.295   2.154  16.415  1.6688 -0.1673  0.6801
 8612SOL    HW237299   1.159   2.111  16.431  0.5219 -1.2783 -0.2387
 8613SOL     OW37300   0.938   0.460   2.199  0.1125 -0.0032 -0.1169
 8613SOL    HW137301   1.023   0.432   2.233 -2.1784 -1.9990  3.9614
 8613SOL    HW237302   0.935   0.547   2.237 -0.3031 -0.1274  0.1347
 8614SOL     OW37303   2.839   3.149   7.765 -0.3746  0.0423 -0.0027
 8614SOL    HW137304   2.748   3.171   7.750 -0.5559 -1.5844 -1.3304
 8614SOL    HW237305   2.828   3.069   7.818 -1.2518 -2.0818 -3.4104
 8615SOL     OW37306   0.831   0.861   3.756  0.0421  0.3359 -0.1375
 8615SOL    HW137307   0.877   0.944   3.740  1.2178 -0.4641 -0.9426
 8615SOL    HW237308   0.764   0.861   3.688 -0.6443 -2.1515  0.5405
 8616SOL     OW37309   3.228   0.732   2.669 -0.3914  0.4015  0.4179
 8616SOL    HW137310   3.138   0.723   2.637 -0.2908  1.0149 -0.0438
 8616SOL    HW237311   3.268   0.801   2.615  0.0063  0.0845  0.3083
 8617SOL     OW37312   2.605   4.039   4.532  0.2434  0.5232 -0.3073
 8617SOL    HW137313   2.668   4.081   4.473  0.0047  1.9613  0.4461
 8617SOL    HW237314   2.673   4.006   4.591  0.5690 -0.1999 -1.0836
 8618SOL     OW37315   3.012   1.938   5.864 -0.2156 -0.5649 -0.5759
 8618SOL    HW137316   2.932   1.918   5.911  0.8315 -1.0057  1.0101
 8618SOL    HW237317   2.994   1.898   5.779 -1.1380  0.2971 -0.7893
 8619SOL     OW37318   1.148   1.491   8.578 -0.2624  0.3341  0.1414
 8619SOL    HW137319   1.066   1.452   8.608 -1.0807  1.1876 -0.9832
 8619SOL    HW237320   1.199   1.412   8.560  1.3620  1.9767 -2.3321
 8620SOL     OW37321   3.857   1.578   4.911  0.1272 -0.2020  0.6643
 8620SOL    HW137322   3.906   1.504   4.945  1.2900  0.9255  1.4055
 8620SOL    HW237323   3.795   1.596   4.982  0.7376  0.6289  0.9719
 8621SOL     OW37324   0.764   2.392   1.823  0.3987  0.1332 -0.6352
 8621SOL    HW137325   0.733   2.356   1.906  0.0433  1.3309 -0.2432
 8621SOL    HW237326   0.843   2.339   1.817  1.2684  1.2529  1.0472
 8622SOL     OW37327   0.086   3.511  16.500 -0.4518 -0.0154  0.4909
 8622SOL    HW137328   0.153   3.579  16.497 -1.4525  0.8444 -1.8654
 8622SOL    HW237329   0.036   3.548  16.427 -0.8937 -0.6722  0.4554
 8623SOL     OW37330   1.167   0.748  13.566  0.1873 -0.5462 -0.3773
 8623SOL    HW137331   1.082   0.706  13.555 -0.4271  0.6235 -0.0660
 8623SOL    HW237332   1.148   0.812  13.633  1.2475 -0.6794  0.0557
 8624SOL     OW37333   3.792   2.905  16.644  0.4236 -0.1415  0.6343
 8624SOL    HW137334   3.715   2.932  16.594  2.5518 -0.0819 -2.6224
 8624SOL    HW237335   3.746   2.857  16.713 -1.9187  1.4734  0.1714
 8625SOL     OW37336   4.339   2.801   2.347  0.3497  0.3768 -0.2799
 8625SOL    HW137337   4.364   2.714   2.379  2.4430 -0.3514 -3.8465
 8625SOL    HW237338   4.425   2.843   2.354  1.2447 -1.2862 -1.0121
 8626SOL     OW37339   3.678   0.438   1.773  0.1626  0.2448  0.0860
 8626SOL    HW137340   3.714   0.504   1.833 -0.4539  0.3695  0.3193
 8626SOL    HW237341   3.731   0.361   1.796 -1.7839 -1.1726 -0.2093
 8627SOL     OW37342   1.856   0.614  14.816 -0.1582 -0.0201  0.3101
 8627SOL    HW137343   1.893   0.674  14.881  2.4141 -1.3029  0.0352
 8627SOL    HW237344   1.921   0.543  14.813  0.9603  0.9349  1.6667
 8628SOL     OW37345   0.249   2.302   7.769  0.2093 -0.1351  0.0935
 8628SOL    HW137346   0.165   2.263   7.745  1.1078 -1.3781 -1.0447
 8628SOL    HW237347   0.221   2.379   7.818 -0.0534  1.0086 -1.8436
 8629SOL     OW37348   3.843   4.450   4.921 -0.0655 -0.3237  0.2256
 8629SOL    HW137349   3.900   4.406   4.857  1.8336 -0.4960  2.0370
 8629SOL    HW237350   3.861   4.544   4.915  1.1647 -0.6087 -0.6746
 8630SOL     OW37351   0.926   2.167   4.453  0.3708 -0.6012  1.0159
 8630SOL    HW137352   0.982   2.206   4.520 -1.2242  1.7143  1.0137
 8630SOL    HW237353   0.857   2.231   4.435 -1.1758 -2.7267 -0.6703
 8631SOL     OW37354   2.506   3.724  14.408  0.1329  0.3036  0.4450
 8631SOL    HW137355   2.569   3.794  14.425  0.9851 -0.7115  1.4960
 8631SOL    HW237356   2.515   3.685  14.495 -1.7490 -0.9633  0.0965
 8632SOL     OW37357   3.714   2.638  12.351 -0.0734  0.2151  0.2663
 8632SOL    HW137358   3.728   2.547  12.325 -2.2186  0.7339 -2.6533
 8632SOL    HW237359   3.689   2.683  12.271  0.6420 -1.1688 -0.7286
 8633SOL     OW37360   2.482   3.387   8.881  0.2423  0.4267  0.2403
 8633SOL    HW137361   2.439   3.452   8.826 -0.4811  0.9071  1.3892
 8633SOL    HW237362   2.504   3.429   8.965  0.7071  0.5092  0.0803
 8634SOL     OW37363   2.732   0.819   1.915 -0.1141  0.5523 -0.5033
 8634SOL    HW137364   2.721   0.801   1.821 -0.1811  1.4552 -0.6706
 8634SOL    HW237365   2.759   0.733   1.947 -1.7206  0.0594 -0.4854
 8635SOL     OW37366   3.859   3.029   5.076  0.1830  0.0072 -0.7182
 8635SOL    HW137367   3.868   3.027   4.981 -0.4456  3.9017 -0.8854
 8635SOL    HW237368   3.786   2.967   5.082 -0.0624  0.4848  1.4546
 8636SOL     OW37369   0.660   0.066  16.733 -0.2380  0.5368 -0.8444
 8636SOL    HW137370   0.635   4.714  16.779 -0.2454  1.1744  0.2668
 8636SOL    HW237371   0.584   0.095  16.682 -1.1756 -0.3257  0.0557
 8637SOL     OW37372   3.557   3.624  15.394  0.4227  0.1607  0.0343
 8637SOL    HW137373   3.642   3.603  15.355  0.3487 -1.8320  0.9610
 8637SOL    HW237374   3.537   3.708  15.353 -1.4131 -0.7675 -0.9560
 8638SOL     OW37375   4.461   1.589   1.598  0.1876 -0.3595  0.3707
 8638SOL    HW137376   4.499   1.559   1.516  0.9801 -0.8984  0.9259
 8638SOL    HW237377   4.371   1.583   1.568  0.3703 -0.7643 -0.1002
 8639SOL     OW37378   0.690   4.318   7.159  0.3554  0.2594  0.1497
 8639SOL    HW137379   0.703   4.232   7.199 -1.5632  0.8533  2.0655
 8639SOL    HW237380   0.598   4.336   7.177  0.5204 -0.4262  1.7114
 8640SOL     OW37381   0.997   1.964   3.844 -0.3705  0.0489  0.1935
 8640SOL    HW137382   0.996   2.009   3.928 -0.0478  0.6715 -0.1369
 8640SOL    HW237383   0.921   2.004   3.802 -0.3645  0.7799  0.8772
 8641SOL     OW37384   1.668   3.002   7.964 -0.2691 -0.2830 -0.3187
 8641SOL    HW137385   1.619   2.978   8.043  0.2278 -0.6412 -0.1229
 8641SOL    HW237386   1.609   2.966   7.897  0.8709  2.4414 -2.7533
 8642SOL     OW37387   4.093   1.239   5.989 -0.3570  0.3645  0.3393
 8642SOL    HW137388   4.125   1.265   5.902 -1.8001  1.2675  0.0843
 8642SOL    HW237389   4.170   1.187   6.012  0.1437  0.4748 -1.0467
 8643SOL     OW37390   4.063   4.062  12.730 -0.0018 -0.2062  0.0900
 8643SOL    HW137391   4.117   4.093  12.803  1.7006  0.2622 -1.3679
 8643SOL    HW237392   3.978   4.048  12.772 -0.2923 -0.6225 -0.6317
 8644SOL     OW37393   3.204   2.664   6.524 -0.3212 -0.2796 -0.6007
 8644SOL    HW137394   3.272   2.708   6.473  0.0881 -0.8903 -0.5783
 8644SOL    HW237395   3.212   2.577   6.487 -1.7113 -0.7561  0.2293
 8645SOL     OW37396   3.684   2.910  13.930  0.7227 -0.2310 -0.0574
 8645SOL    HW137397   3.755   2.959  13.971 -0.5773  0.3426  1.4820
 8645SOL    HW237398   3.635   2.883  14.008 -2.4936  1.0869 -1.6298
 8646SOL     OW37399   3.979   4.328  16.008 -0.3229 -0.2859  0.3559
 8646SOL    HW137400   3.904   4.381  16.037 -1.9817 -1.8365 -1.0477
 8646SOL    HW237401   3.990   4.273  16.085  1.3552 -0.1958  0.1782
 8647SOL     OW37402   1.667   0.393   4.757  0.0266 -0.6674  0.0775
 8647SOL    HW137403   1.720   0.431   4.687  1.9469  1.4225  2.6919
 8647SOL    HW237404   1.627   0.473   4.790 -0.6099 -1.0967  0.3462
 8648SOL     OW37405   4.220   1.816   2.226  0.1182  0.0132  0.2546
 8648SOL    HW137406   4.299   1.775   2.188  0.5278 -0.4825  1.6565
 8648SOL    HW237407   4.153   1.755   2.194  0.5846 -0.3198 -0.1019
 8649SOL     OW37408   1.437   4.468   2.204  0.1611  0.2424  0.3713
 8649SOL    HW137409   1.344   4.450   2.216  0.3668  0.2305  1.8780
 8649SOL    HW237410   1.439   4.522   2.124 -2.3819  3.3095  2.3470
 8650SOL     OW37411   1.653   0.109   5.010 -0.6851  0.1880  0.9318
 8650SOL    HW137412   1.594   0.107   4.935  0.4592  1.9613 -0.0324
 8650SOL    HW237413   1.631   0.193   5.050 -2.9399 -0.0443  0.1345
 8651SOL     OW37414   1.001   3.393   7.320  0.3558  0.0930  0.2662
 8651SOL    HW137415   1.006   3.434   7.406  1.2809 -1.1822  0.8293
 8651SOL    HW237416   1.045   3.464   7.273 -0.9570 -0.2436 -1.4941
 8652SOL     OW37417   0.864   3.711   4.678  0.6204  0.0165 -0.4846
 8652SOL    HW137418   0.822   3.627   4.658  1.3192 -0.4755  0.0610
 8652SOL    HW237419   0.916   3.681   4.753 -1.3981 -0.8162  0.5740
 8653SOL     OW37420   2.424   2.700   8.049  0.0299  0.6352  0.3273
 8653SOL    HW137421   2.474   2.780   8.066  0.5233  0.4838 -0.4383
 8653SOL    HW237422   2.350   2.714   8.109  0.1947 -0.9090  0.9055
 8654SOL     OW37423   4.590   2.742  14.982 -0.3750 -0.2452  0.2896
 8654SOL    HW137424   4.521   2.779  14.928  1.7834 -0.0223 -2.2866
 8654SOL    HW237425   4.552   2.656  14.999  0.6628 -0.7215  0.2187
 8655SOL     OW37426   0.111   4.612   4.749 -0.1559 -0.3391  0.1826
 8655SOL    HW137427   0.134   4.522   4.773 -2.6547 -0.5235  1.8425
 8655SOL    HW237428   0.199   4.650   4.747 -0.3931  0.1552 -0.8822
 8656SOL     OW37429   3.432   1.304   2.649  0.1689 -0.4792  0.2887
 8656SOL    HW137430   3.430   1.326   2.742  3.3183  0.8979  0.0352
 8656SOL    HW237431   3.399   1.387   2.614  1.2282  0.3141  1.1365
 8657SOL     OW37432   4.577   0.846  11.020 -0.0986  0.6202  0.1333
 8657SOL    HW137433   4.519   0.802  10.958 -0.2193 -1.1218  1.4901
 8657SOL    HW237434   4.528   0.834  11.102  1.6755  0.9119  1.2475
 8658SOL     OW37435   2.233   1.163   1.391  0.0647  0.2729 -0.3321
 8658SOL    HW137436   2.313   1.216   1.378  0.2551 -0.2462 -1.2582
 8658SOL    HW237437   2.242   1.094   1.326 -0.3709 -0.1662  0.0740
 8659SOL     OW37438   3.132   2.185   6.114 -0.0963 -0.3897  0.6398
 8659SOL    HW137439   3.144   2.278   6.134 -3.0558  0.3246 -0.9363
 8659SOL    HW237440   3.075   2.191   6.038 -1.1839 -3.2004  1.2339
 8660SOL     OW37441   0.596   2.393   1.364  0.0751 -0.2870 -0.4509
 8660SOL    HW137442   0.629   2.480   1.342  2.1466 -1.6521 -2.7657
 8660SOL    HW237443   0.585   2.408   1.458 -0.8629 -0.6566 -0.5051
 8661SOL     OW37444   2.741   3.844   5.653 -0.1114  0.1007  0.7264
 8661SOL    HW137445   2.702   3.882   5.731 -3.6527 -2.2976  0.1375
 8661SOL    HW237446   2.815   3.901   5.632  0.3052 -0.2660  1.1910
 8662SOL     OW37447   4.382   4.239   2.088 -0.0865 -0.1358 -0.4473
 8662SOL    HW137448   4.428   4.266   2.008  0.8375 -0.4290 -0.0151
 8662SOL    HW237449   4.408   4.147   2.085 -2.1886 -0.7689  0.8832
 8663SOL     OW37450   0.696   3.991   6.043 -0.4017 -0.3130  0.2731
 8663SOL    HW137451   0.700   4.046   5.965 -1.0960  0.7067  0.9590
 8663SOL    HW237452   0.694   3.905   6.000 -1.6152  0.9258 -2.1166
 8664SOL     OW37453   1.295   3.843  15.007 -0.3245 -0.0936  0.6184
 8664SOL    HW137454   1.218   3.787  14.996 -1.7227  1.4819  2.2244
 8664SOL    HW237455   1.268   3.915  14.950 -0.2079  0.7074  1.5721
 8665SOL     OW37456   0.041   4.546   8.952 -0.1662  0.2261  0.0784
 8665SOL    HW137457   0.118   4.603   8.950  0.9602 -1.2960 -0.4470
 8665SOL    HW237458   0.090   4.464   8.951 -1.0670 -0.3014 -0.2608
 8666SOL     OW37459   2.779   1.022  11.669 -0.0429  0.1384  0.5953
 8666SOL    HW137460   2.812   1.090  11.610 -0.7940 -0.1400 -0.1408
 8666SOL    HW237461   2.692   1.015  11.630 -0.1033 -0.2970  0.8148
 8667SOL     OW37462   1.841   2.504   3.586 -0.3752 -0.6729  0.0803
 8667SOL    HW137463   1.777   2.449   3.633  0.9247 -2.6198 -0.4266
 8667SOL    HW237464   1.833   2.472   3.496 -2.1595  2.6662 -0.9247
 8668SOL     OW37465   3.980   3.461  16.954  0.0453 -0.1895 -1.1887
 8668SOL    HW137466   4.070   3.436  16.934  0.2567  1.5675 -2.4731
 8668SOL    HW237467   3.968   3.440  17.047  0.0679  2.3852 -0.5835
 8669SOL     OW37468   2.992   1.503  11.274  0.2675 -0.2565  0.6482
 8669SOL    HW137469   3.037   1.588  11.270 -0.3855  0.1819  2.6518
 8669SOL    HW237470   2.971   1.494  11.367 -0.4163 -1.7469  0.3523
 8670SOL     OW37471   1.239   4.171   6.893 -0.1995  0.0666  0.6142
 8670SOL    HW137472   1.212   4.206   6.809  1.7779 -0.6411 -0.3162
 8670SOL    HW237473   1.316   4.227   6.905 -0.1222  0.9223 -3.9686
 8671SOL     OW37474   2.627   0.650   0.757  0.2664  0.2369 -0.3919
 8671SOL    HW137475   2.645   0.712   0.828  0.4190 -0.0893 -0.1431
 8671SOL    HW237476   2.698   0.676   0.699  1.0482  1.0605  0.9233
 8672SOL     OW37477   1.177   4.213   0.247  0.1131  0.2125 -0.1824
 8672SOL    HW137478   1.272   4.225   0.257 -0.0883  1.8647 -0.3170
 8672SOL    HW237479   1.151   4.227   0.338  2.1461  3.0002 -0.0172
 8673SOL     OW37480   3.180   2.540  12.613 -0.5038 -0.1150 -0.4077
 8673SOL    HW137481   3.201   2.447  12.622 -0.9140 -0.2659 -1.0050
 8673SOL    HW237482   3.187   2.576  12.702  0.8295  1.2987 -1.1054
 8674SOL     OW37483   2.662   0.976   7.337 -0.2956 -0.1695  0.4597
 8674SOL    HW137484   2.581   1.026   7.330  0.7110  1.3519 -0.4386
 8674SOL    HW237485   2.707   1.012   7.414  0.1177 -1.4778  0.8204
 8675SOL     OW37486   2.974   2.433   3.686  0.3887  0.1588  0.5130
 8675SOL    HW137487   2.956   2.456   3.777 -0.8528  0.0765  0.2908
 8675SOL    HW237488   2.946   2.342   3.673 -0.4912  0.2969  1.4958
 8676SOL     OW37489   0.485   4.609   5.432 -0.3379  0.5923  0.0950
 8676SOL    HW137490   0.536   4.591   5.511 -0.8994  1.6798  0.7074
 8676SOL    HW237491   0.404   4.626   5.479 -0.3211 -1.2004  0.7644
 8677SOL     OW37492   3.473   4.432   8.934  0.1431  0.4177 -0.0152
 8677SOL    HW137493   3.566   4.443   8.951 -0.4837 -0.2419  3.7929
 8677SOL    HW237494   3.483   4.390   8.849  2.2028 -0.5360  0.6999
 8678SOL     OW37495   2.721   4.713   8.025 -0.3431  0.0827 -0.1422
 8678SOL    HW137496   2.675   0.034   8.094 -0.2011  0.8351 -0.5886
 8678SOL    HW237497   2.802   0.036   8.019 -0.8087  1.0378  1.4439
 8679SOL     OW37498   4.722   0.805   4.845  0.2185  0.1830  0.0406
 8679SOL    HW137499   4.715   0.711   4.826 -0.2697 -0.0524  1.3523
 8679SOL    HW237500   4.681   0.849   4.771  0.9635  1.1331  0.2053
 8680SOL     OW37501   0.277   0.589  15.887  0.0434  0.6833  0.2590
 8680SOL    HW137502   0.259   0.496  15.879  1.1477  0.6010 -1.2772
 8680SOL    HW237503   0.262   0.605  15.980  0.4906 -1.6118  0.7141
 8681SOL     OW37504   1.803   0.727   1.114  0.4135 -0.7058 -0.2520
 8681SOL    HW137505   1.850   0.650   1.084  3.4249 -0.1466  3.1541
 8681SOL    HW237506   1.877   0.785   1.128  0.9060 -1.2694 -0.5574
 8682SOL     OW37507   3.633   3.255   1.988 -0.3265 -0.4423 -0.0866
 8682SOL    HW137508   3.668   3.338   2.021 -0.1394  0.0593 -1.5609
 8682SOL    HW237509   3.716   3.209   1.977 -0.4074 -0.6046 -0.0161
 8683SOL     OW37510   3.885   0.606  11.660  0.1575 -0.2609  1.1199
 8683SOL    HW137511   3.883   0.542  11.731 -1.3768 -2.6652 -1.1217
 8683SOL    HW237512   3.956   0.662  11.692 -0.6300 -0.0508  2.5326
 8684SOL     OW37513   1.071   4.548  11.014 -0.4021  0.0411 -0.6373
 8684SOL    HW137514   1.023   4.500  11.082 -1.2208  0.5119 -0.8863
 8684SOL    HW237515   1.108   4.471  10.970  2.2192 -0.3760  2.3452
 8685SOL     OW37516   2.369   3.871   5.048  0.5859 -0.2173 -0.0255
 8685SOL    HW137517   2.406   3.789   5.018 -1.3359 -0.8784 -0.5928
 8685SOL    HW237518   2.359   3.914   4.963  0.0469  0.5343  0.4082
 8686SOL     OW37519   3.172   2.783   9.742 -0.1517 -0.4589 -0.1236
 8686SOL    HW137520   3.244   2.738   9.786 -1.4460 -1.2002  1.2295
 8686SOL    HW237521   3.126   2.806   9.823  1.8080 -0.1268  0.8949
 8687SOL     OW37522   1.680   1.224  10.394 -0.1851 -0.4280  0.7942
 8687SOL    HW137523   1.628   1.292  10.352  0.7907  0.3679  0.8890
 8687SOL    HW237524   1.696   1.264  10.479 -0.7591  0.7799  0.3488
 8688SOL     OW37525   4.469   3.224  13.473  0.1729  0.1782 -0.4065
 8688SOL    HW137526   4.459   3.197  13.382  3.0692 -2.0713 -0.0442
 8688SOL    HW237527   4.380   3.256  13.491  0.1534  0.2965 -0.7095
 8689SOL     OW37528   0.970   2.273   6.677  0.2518 -0.0259  0.4143
 8689SOL    HW137529   0.986   2.204   6.742  0.3373  0.8599  1.3296
 8689SOL    HW237530   0.969   2.223   6.595 -1.1264 -0.2401  0.5707
 8690SOL     OW37531   0.237   0.614   7.128 -0.0436 -0.7715 -0.6956
 8690SOL    HW137532   0.165   0.649   7.180  1.5169  1.4274 -0.0136
 8690SOL    HW237533   0.244   0.688   7.068 -1.0635  0.2702  0.4741
 8691SOL     OW37534   4.601   0.630   3.886 -0.0131 -0.1234  0.5303
 8691SOL    HW137535   4.570   0.562   3.945  0.1880  0.9438  1.8676
 8691SOL    HW237536   4.695   0.613   3.893 -0.2130 -1.1194  0.7936
 8692SOL     OW37537   2.634   0.102   3.045  0.1597 -0.4468  0.1978
 8692SOL    HW137538   2.653   0.145   3.129  2.2335 -0.4667 -0.2589
 8692SOL    HW237539   2.721   0.092   3.006  0.2407  1.1324 -0.0456
 8693SOL     OW37540   1.861   1.111  15.590 -0.3795  0.3951  0.2636
 8693SOL    HW137541   1.846   1.094  15.683 -2.3428 -0.4885 -0.2088
 8693SOL    HW237542   1.948   1.078  15.570 -0.0465  2.1279 -1.1400
 8694SOL     OW37543   1.673   0.834   4.637  0.1755  0.3308  0.5731
 8694SOL    HW137544   1.759   0.874   4.624 -0.4283  1.3158 -0.3746
 8694SOL    HW237545   1.653   0.874   4.721 -0.9052  1.8100 -0.3776
 8695SOL     OW37546   3.866   1.879   5.020  0.3085  0.1107  0.1224
 8695SOL    HW137547   3.944   1.826   5.033 -0.2211 -1.4614 -3.1557
 8695SOL    HW237548   3.865   1.899   4.927 -0.0547  0.5306  0.2140
 8696SOL     OW37549   1.446   1.670  13.968 -0.1267 -0.1222  0.4024
 8696SOL    HW137550   1.470   1.710  14.052  0.8040  0.9861 -0.3835
 8696SOL    HW237551   1.419   1.747  13.917 -1.2624 -0.8102 -0.0437
 8697SOL     OW37552   3.352   0.065   5.229  0.3845  0.0825  0.7503
 8697SOL    HW137553   3.390   0.021   5.154 -0.1991  0.6910  0.0940
 8697SOL    HW237554   3.341   4.719   5.289  0.7299 -1.2477 -0.8168
 8698SOL     OW37555   4.410   0.094  12.683  0.1087 -0.4592  0.2995
 8698SOL    HW137556   4.327   0.062  12.648  0.2312 -0.5047  0.0490
 8698SOL    HW237557   4.381   0.078  12.773 -0.7251  1.8187  0.4423
 8699SOL     OW37558   3.747   4.510   8.935 -0.7598 -0.6086 -0.3241
 8699SOL    HW137559   3.804   4.474   8.867  0.2100  1.1105 -0.4248
 8699SOL    HW237560   3.756   4.602   8.912 -1.4895 -1.3133 -3.3997
 8700SOL     OW37561   1.379   1.711   5.590  0.4608  0.0758  0.1514
 8700SOL    HW137562   1.410   1.660   5.516  0.6556  4.8352 -3.0635
 8700SOL    HW237563   1.419   1.797   5.576 -2.0307  1.0517 -0.9842
 8701SOL     OW37564   2.174   1.300   6.148  0.0520  0.5076  0.3526
 8701SOL    HW137565   2.222   1.377   6.179  1.7356  0.2888 -1.7289
 8701SOL    HW237566   2.102   1.352   6.114 -0.6793 -1.3231 -0.8874
 8702SOL     OW37567   2.104   3.719  13.180 -0.2801  0.0380  0.1701
 8702SOL    HW137568   2.030   3.662  13.205  0.1234 -0.2383  0.7402
 8702SOL    HW237569   2.177   3.669  13.217 -0.6533 -0.3110  0.4358
 8703SOL     OW37570   2.842   4.187   8.221 -0.3315 -0.6650  0.2774
 8703SOL    HW137571   2.771   4.230   8.173 -0.7338 -0.6157  0.9160
 8703SOL    HW237572   2.793   4.109   8.248 -1.1719 -0.8364 -1.7585
 8704SOL     OW37573   2.657   3.462   4.600  0.0923  0.5555 -0.3049
 8704SOL    HW137574   2.690   3.439   4.514  0.4189 -0.8505  0.1964
 8704SOL    HW237575   2.611   3.381   4.622 -0.3278  0.4797 -1.4844
 8705SOL     OW37576   4.441   4.552   7.096 -0.0515  0.4636  0.3382
 8705SOL    HW137577   4.442   4.592   7.183 -3.2928  0.4033  0.4287
 8705SOL    HW237578   4.511   4.599   7.051 -0.5937 -0.8708 -1.8698
 8706SOL     OW37579   0.573   0.253   8.272  0.6739 -0.0045  0.2848
 8706SOL    HW137580   0.576   0.173   8.324 -1.0812 -0.9726 -1.0957
 8706SOL    HW237581   0.664   0.279   8.257  1.4108 -1.7136  1.8376
 8707SOL     OW37582   2.424   3.016   3.990  0.2525  0.3999 -0.0373
 8707SOL    HW137583   2.477   2.936   3.983 -0.9173 -0.3769  0.0144
 8707SOL    HW237584   2.337   2.977   3.988  1.4756 -2.3081 -1.2825
 8708SOL     OW37585   0.725   1.798   1.754  0.2417 -0.0749  0.7637
 8708SOL    HW137586   0.692   1.804   1.664 -0.6789  0.2353  1.1189
 8708SOL    HW237587   0.712   1.704   1.764 -1.3445  0.2391  1.6706
 8709SOL     OW37588   4.480   1.679   2.097 -0.2120 -0.4115 -0.2751
 8709SOL    HW137589   4.547   1.734   2.056 -2.4905  3.1434  0.7766
 8709SOL    HW237590   4.466   1.607   2.035 -2.0389 -2.1098  2.1037
 8710SOL     OW37591   2.059   3.957  14.319 -0.1482 -0.0894  0.9018
 8710SOL    HW137592   2.118   3.889  14.350  1.5045 -0.7902 -3.7963
 8710SOL    HW237593   2.127   4.018  14.288 -0.1478 -0.1026  0.8769
 8711SOL     OW37594   0.091   1.646   7.629 -0.2630 -0.4281 -0.5183
 8711SOL    HW137595   0.000   1.631   7.601 -0.6153  0.6618  0.0508
 8711SOL    HW237596   0.113   1.738   7.619 -0.7116  0.0008  2.4713
 8712SOL     OW37597   4.407   3.971   6.345  0.5920 -0.2754 -0.0387
 8712SOL    HW137598   4.500   3.991   6.334  0.0861  0.7966 -2.3291
 8712SOL    HW237599   4.363   4.046   6.384 -2.0218 -1.5235 -0.5614
 8713SOL     OW37600   2.199   0.621  15.246  0.1638 -0.1627  0.2585
 8713SOL    HW137601   2.265   0.579  15.301 -1.3206 -0.1493  2.0432
 8713SOL    HW237602   2.128   0.565  15.216  0.0926 -0.0332  0.1836
 8714SOL     OW37603   0.049   1.666   5.938  0.6263 -0.2859 -0.3602
 8714SOL    HW137604   4.699   1.675   5.883  0.1872  1.4966  0.5395
 8714SOL    HW237605   0.089   1.751   5.917 -0.0636 -0.5127 -2.6056
 8715SOL     OW37606   4.029   1.722   2.061  0.5812  0.3535  0.5316
 8715SOL    HW137607   4.063   1.799   2.017 -0.4985  0.4537 -0.1422
 8715SOL    HW237608   4.054   1.655   1.997 -1.6592 -0.0548  0.0750
 8716SOL     OW37609   0.368   2.885   8.343 -0.1355  0.2772  0.3396
 8716SOL    HW137610   0.459   2.872   8.367 -0.1014 -0.0852  0.0177
 8716SOL    HW237611   0.384   2.836   8.262  1.6066  2.3889 -0.5899
 8717SOL     OW37612   0.593   0.713   7.874 -0.5470  0.2669  0.6231
 8717SOL    HW137613   0.627   0.795   7.911  1.1784 -1.1663  2.2163
 8717SOL    HW237614   0.655   0.688   7.805 -0.9663  1.6720 -0.2755
 8718SOL     OW37615   2.033   0.813   0.879  0.2406 -0.0674 -0.4822
 8718SOL    HW137616   1.943   0.841   0.860  0.2622  0.2979 -0.0650
 8718SOL    HW237617   2.026   0.718   0.890 -2.1127  0.2081  0.5532
 8719SOL     OW37618   4.573   2.206   7.138 -0.4330 -0.0200 -0.3843
 8719SOL    HW137619   4.493   2.181   7.092 -1.7830  2.1109  0.7906
 8719SOL    HW237620   4.585   2.135   7.200  1.2065  0.0794 -0.5646
 8720SOL     OW37621   0.098   4.284  15.357 -0.2031 -0.6466 -1.0888
 8720SOL    HW137622   0.085   4.195  15.390 -0.8339 -0.6771 -1.4076
 8720SOL    HW237623   0.062   4.335  15.429 -0.3678 -1.0714 -0.8699
 8721SOL     OW37624   1.907   4.126   4.749  0.0807 -0.2609 -0.0410
 8721SOL    HW137625   1.964   4.198   4.775 -0.3781 -0.2062  0.8253
 8721SOL    HW237626   1.942   4.094   4.666 -0.0173 -1.0647  0.2234
 8722SOL     OW37627   3.794   1.058   1.578 -0.0801 -0.4881 -0.8466
 8722SOL    HW137628   3.856   1.018   1.517  0.4061 -2.2630  0.8190
 8722SOL    HW237629   3.748   1.109   1.511 -0.0603  1.2492  0.4439
 8723SOL     OW37630   0.244   4.416  13.325 -0.0434 -0.1560  0.5550
 8723SOL    HW137631   0.242   4.495  13.271 -0.2950 -1.3433 -1.1771
 8723SOL    HW237632   0.295   4.352  13.276  1.1603  1.5649 -0.4087
 8724SOL     OW37633   0.897   2.012   3.256 -0.1616 -0.1811 -0.1385
 8724SOL    HW137634   0.880   2.106   3.256 -0.7213 -0.2836  1.2030
 8724SOL    HW237635   0.960   2.006   3.327 -0.9973 -0.9885  0.5414
 8725SOL     OW37636   0.892   0.819   6.792 -0.2370 -0.0757  0.3998
 8725SOL    HW137637   0.959   0.846   6.855 -0.3393 -0.5407  0.6977
 8725SOL    HW237638   0.840   0.900   6.795  1.2614  0.8668  0.9663
 8726SOL     OW37639   0.575   4.378   6.555 -0.5017 -0.8841  0.2304
 8726SOL    HW137640   0.633   4.446   6.588 -1.7367  1.4265 -2.3731
 8726SOL    HW237641   0.621   4.357   6.474 -0.0319 -1.3862  0.6349
 8727SOL     OW37642   3.085   3.176   7.867  0.1716 -0.0337  0.2634
 8727SOL    HW137643   3.053   3.113   7.932 -0.6541 -0.2732 -0.3722
 8727SOL    HW237644   3.005   3.186   7.816  0.0596 -1.2596  0.2008
 8728SOL     OW37645   4.581   1.747   7.817  0.0176  0.0685  0.1725
 8728SOL    HW137646   4.505   1.733   7.875  0.5008  0.1885  0.8366
 8728SOL    HW237647   4.562   1.678   7.754 -0.7430  0.1253  0.3383
 8729SOL     OW37648   0.861   3.027   2.998 -0.0725 -0.2990  0.0638
 8729SOL    HW137649   0.795   2.982   3.050  1.0679 -1.1387  0.7738
 8729SOL    HW237650   0.948   3.000   3.029 -0.1011  2.5538  2.6496
 8730SOL     OW37651   0.486   3.862   7.103 -0.0452 -0.4219 -0.2081
 8730SOL    HW137652   0.547   3.919   7.055 -0.8301  1.5331  1.1518
 8730SOL    HW237653   0.537   3.826   7.175  0.5347  2.3977  0.8086
 8731SOL     OW37654   3.923   3.084   3.180  0.2598  0.5070  0.0582
 8731SOL    HW137655   3.994   3.078   3.244  1.9171 -0.0606 -1.8036
 8731SOL    HW237656   3.881   3.169   3.194  0.2985  0.8593 -1.8937
 8732SOL     OW37657   1.951   0.887   1.713 -0.2973 -0.5493 -0.0431
 8732SOL    HW137658   1.961   0.868   1.620  0.4338  2.7612 -0.6539
 8732SOL    HW237659   1.910   0.973   1.707 -1.4137 -1.1468 -0.7467
 8733SOL     OW37660   4.024   0.160   4.805  0.0361 -0.2410 -0.1141
 8733SOL    HW137661   4.050   0.250   4.784  1.4438  0.0642  2.9118
 8733SOL    HW237662   4.034   0.126   4.716  2.6569  1.1403 -0.3479
 8734SOL     OW37663   3.241   0.597  12.592  0.4935  0.1402 -0.5123
 8734SOL    HW137664   3.252   0.663  12.524 -2.3254 -0.3222 -1.4222
 8734SOL    HW237665   3.331   0.568  12.607  0.1661  0.1153  1.4943
 8735SOL     OW37666   0.382   3.989   8.737 -0.2217 -0.0533  0.0704
 8735SOL    HW137667   0.309   3.994   8.799 -0.0959  3.3570 -0.0887
 8735SOL    HW237668   0.429   3.909   8.763 -1.1910 -0.3088  1.0433
 8736SOL     OW37669   4.468   2.694   1.640  0.0901  0.2360  0.2385
 8736SOL    HW137670   4.537   2.740   1.688 -1.1074 -0.1929  2.3476
 8736SOL    HW237671   4.512   2.623   1.593  0.4348  0.4187  0.2848
 8737SOL     OW37672   4.718   3.984  13.744 -0.1070  0.4068  0.2428
 8737SOL    HW137673   4.685   3.929  13.673 -1.0877 -0.7020  1.5501
 8737SOL    HW237674   0.058   3.925  13.777  1.9894  1.4645 -2.1117
 8738SOL     OW37675   2.269   2.848   4.901 -0.2472 -0.2963 -0.7519
 8738SOL    HW137676   2.174   2.840   4.896 -0.1735 -1.1015 -0.8020
 8738SOL    HW237677   2.290   2.887   4.816 -3.1237  0.7828 -0.9689
 8739SOL     OW37678   0.716   4.070   7.273 -0.2821 -0.6114 -0.1572
 8739SOL    HW137679   0.760   4.020   7.204  0.9252  1.1968 -0.6707
 8739SOL    HW237680   0.645   4.014   7.306 -0.3031 -1.5775 -1.8247
 8740SOL     OW37681   2.828   2.245   3.398 -0.2471 -0.7320  0.3484
 8740SOL    HW137682   2.795   2.231   3.487 -0.6200  0.9100  0.4829
 8740SOL    HW237683   2.921   2.238   3.418 -0.1455 -0.6837 -0.1226
 8741SOL     OW37684   3.264   2.129  11.421  0.0985  0.3177 -0.2006
 8741SOL    HW137685   3.352   2.146  11.389  0.2240  1.6872  0.8623
 8741SOL    HW237686   3.256   2.200  11.485 -0.5277 -0.5652  0.7130
 8742SOL     OW37687   3.730   1.302  12.878 -0.1132 -0.0539  0.4404
 8742SOL    HW137688   3.674   1.226  12.892 -0.3063 -0.1155 -0.7012
 8742SOL    HW237689   3.807   1.271  12.926 -0.4481  1.0658  1.7103
 8743SOL     OW37690   2.667   1.210   8.084 -0.1040  0.2335 -0.3316
 8743SOL    HW137691   2.678   1.174   7.995 -3.2176  0.6895 -0.9085
 8743SOL    HW237692   2.690   1.300   8.060  2.3914  0.1572  1.7834
 8744SOL     OW37693   1.889   3.657   9.481  0.1365  0.0049 -0.1972
 8744SOL    HW137694   1.831   3.612   9.420  1.0807 -1.0545 -0.3228
 8744SOL    HW237695   1.905   3.594   9.551 -1.6097 -1.4086 -1.0604
 8745SOL     OW37696   2.291   3.559  11.319 -0.0833 -0.0909 -0.1281
 8745SOL    HW137697   2.196   3.558  11.329  0.1297  1.4812  1.8754
 8745SOL    HW237698   2.302   3.469  11.286 -0.1756 -1.1925  2.8431
 8746SOL     OW37699   4.108   2.418  17.493  0.0995  0.2769  0.1646
 8746SOL    HW137700   4.023   2.402  17.534 -0.7167 -1.1754 -2.1280
 8746SOL    HW237701   4.132   2.327  17.480  1.5216  0.6206  0.3861
 8747SOL     OW37702   0.973   3.709   3.323  0.7161 -0.0140 -0.0094
 8747SOL    HW137703   0.888   3.737   3.289  1.1105 -0.2355 -1.1851
 8747SOL    HW237704   1.003   3.790   3.364  2.8379 -2.2158  2.7517
 8748SOL     OW37705   4.030   3.168   4.478 -0.1785  0.4537  0.2595
 8748SOL    HW137706   4.009   3.096   4.418 -2.7642  0.9760  0.5400
 8748SOL    HW237707   4.030   3.126   4.564 -1.2294  0.1254  0.1024
 8749SOL     OW37708   2.080   3.495   7.262 -0.2662 -0.1064 -0.2992
 8749SOL    HW137709   2.060   3.418   7.314 -1.9854  0.6594  0.1700
 8749SOL    HW237710   2.021   3.559   7.302 -1.7737 -0.6065 -1.7340
 8750SOL     OW37711   2.298   3.007   4.365 -0.3776 -0.2183 -0.3882
 8750SOL    HW137712   2.336   2.923   4.392  1.1960 -0.0805 -2.2272
 8750SOL    HW237713   2.258   2.979   4.283  1.8279  2.8142 -2.4879
 8751SOL     OW37714   3.718   1.166   7.700  0.7562 -0.4484 -0.1379
 8751SOL    HW137715   3.678   1.212   7.626  1.9913  0.3872 -0.2802
 8751SOL    HW237716   3.680   1.209   7.776 -0.9169 -1.8822 -0.1707
 8752SOL     OW37717   2.201   2.268   7.554  0.1430  0.0241  0.4605
 8752SOL    HW137718   2.189   2.358   7.526  0.5183  0.1318  0.6376
 8752SOL    HW237719   2.296   2.263   7.539  0.2959 -2.1953  2.2072
 8753SOL     OW37720   2.656   2.001   1.130 -0.5340  0.3003  0.3775
 8753SOL    HW137721   2.638   2.022   1.039  1.1503 -2.4413 -0.6225
 8753SOL    HW237722   2.643   1.906   1.124  0.5034  0.2689 -1.6407
 8754SOL     OW37723   3.138   0.084   0.154 -0.3526 -0.0966  0.2286
 8754SOL    HW137724   3.226   0.067   0.118 -0.7931 -4.5972  1.2396
 8754SOL    HW237725   3.105   4.724   0.132 -0.2857  0.5228 -2.3798
 8755SOL     OW37726   1.756   3.682   0.051 -0.3283 -0.4334 -0.4662
 8755SOL    HW137727   1.667   3.712   0.034 -0.3629 -0.2042  0.1061
 8755SOL    HW237728   1.734   3.589   0.055 -2.7101 -0.0315 -3.5830
 8756SOL     OW37729   2.426   3.930  10.312 -0.3051  0.1764 -0.2877
 8756SOL    HW137730   2.519   3.921  10.333 -0.4998 -0.4118  0.3310
 8756SOL    HW237731   2.417   4.015  10.357 -0.2499 -1.1099  2.1842
 8757SOL     OW37732   0.094   0.735  13.420 -0.1470 -0.5851 -0.3188
 8757SOL    HW137733   0.082   0.731  13.326  1.0752  1.0448 -0.5480
 8757SOL    HW237734   0.009   0.748  13.461  0.1153 -1.0470  0.3764
 8758SOL     OW37735   4.241   2.604   6.129  0.6291  0.6035 -0.1400
 8758SOL    HW137736   4.304   2.626   6.060  0.8393 -0.6302 -0.3486
 8758SOL    HW237737   4.184   2.542   6.083 -2.8309  1.1819  3.3720
 8759SOL     OW37738   3.800   1.646   0.056 -0.1097 -0.0308  0.4560
 8759SOL    HW137739   3.775   1.577   0.119  2.4734  0.9844  2.6095
 8759SOL    HW237740   3.808   1.724   0.111 -0.1044  0.8326 -0.7860
 8760SOL     OW37741   3.102   1.753  14.156  0.0506 -0.9172 -0.3720
 8760SOL    HW137742   3.159   1.698  14.102  2.0244 -0.4975  1.2678
 8760SOL    HW237743   3.115   1.836  14.110 -1.4711 -0.7238 -0.4390
 8761SOL     OW37744   2.163   1.896   8.486  0.0895 -0.1204 -0.1546
 8761SOL    HW137745   2.127   1.963   8.544  1.3286 -0.3604  0.8976
 8761SOL    HW237746   2.107   1.820   8.496 -3.7532  3.0447  2.0952
 8762SOL     OW37747   1.285   2.169   3.479  0.1953 -0.0000  0.1630
 8762SOL    HW137748   1.320   2.194   3.393  2.7353 -0.6939  0.9802
 8762SOL    HW237749   1.362   2.134   3.525  0.6301 -0.9393 -1.2656
 8763SOL     OW37750   1.383   3.948   7.242  0.4471  0.0253  0.2040
 8763SOL    HW137751   1.464   3.992   7.217  1.7671 -1.5057  1.8521
 8763SOL    HW237752   1.377   3.883   7.171 -1.0836 -1.5406  1.7466
 8764SOL     OW37753   3.018   0.831   1.299  0.2776  0.2193  0.1580
 8764SOL    HW137754   3.016   0.918   1.260  2.9684  0.5084  0.6542
 8764SOL    HW237755   2.925   0.808   1.294  0.9627 -1.8876 -3.2866
 8765SOL     OW37756   0.641   0.815   5.212 -0.4947  0.1396  0.1986
 8765SOL    HW137757   0.669   0.906   5.216 -1.4138  0.4388 -0.2040
 8765SOL    HW237758   0.709   0.768   5.261 -1.1133 -1.5262 -0.5260
 8766SOL     OW37759   2.866   1.312   3.757  0.5108  0.0296  0.0212
 8766SOL    HW137760   2.937   1.350   3.706  2.5107 -2.4163  0.9913
 8766SOL    HW237761   2.916   1.268   3.826  1.0616 -0.1558 -0.5014
 8767SOL     OW37762   3.496   1.288   3.023  0.2889  0.1612  0.1941
 8767SOL    HW137763   3.558   1.355   2.993  1.3304 -0.3905  1.1675
 8767SOL    HW237764   3.471   1.323   3.108  1.3705 -0.2670  0.6732
 8768SOL     OW37765   4.584   3.679   2.465 -0.0093 -0.6221 -0.6378
 8768SOL    HW137766   4.593   3.592   2.504 -1.7835  0.3322  1.9068
 8768SOL    HW237767   4.675   3.704   2.452 -0.2537  1.0079  0.7478
 8769SOL     OW37768   0.500   1.449   9.750 -0.2347  0.1628 -0.2668
 8769SOL    HW137769   0.560   1.425   9.820 -1.0464  0.7089  0.6099
 8769SOL    HW237770   0.543   1.525   9.710 -1.2779  0.2616 -1.1939
 8770SOL     OW37771   2.205   3.758  17.104  0.3104  0.1807 -0.0550
 8770SOL    HW137772   2.293   3.751  17.141  0.2542  2.2342  0.4525
 8770SOL    HW237773   2.164   3.815  17.168 -0.4591 -1.0484  0.5494
 8771SOL     OW37774   2.056   4.515   1.840  0.1070 -0.1420 -0.3193
 8771SOL    HW137775   2.123   4.495   1.774 -2.3280 -1.7200 -2.2963
 8771SOL    HW237776   2.087   4.454   1.906  0.4100 -0.0192 -0.3450
 8772SOL     OW37777   3.602   0.083  14.090 -0.0501 -0.3044  0.2907
 8772SOL    HW137778   3.685   0.036  14.101 -0.2288 -0.3531  1.4160
 8772SOL    HW237779   3.634   0.173  14.084  1.1785 -0.9795 -3.1720
 8773SOL     OW37780   3.834   3.114   5.494 -1.1120  0.3109  0.0911
 8773SOL    HW137781   3.820   3.143   5.404  2.9241 -0.1087 -0.6389
 8773SOL    HW237782   3.774   3.172   5.543 -2.0140 -0.2142 -0.3845
 8774SOL     OW37783   4.216   0.796  12.105  0.6176 -0.4494 -0.2213
 8774SOL    HW137784   4.181   0.868  12.052 -0.3509 -2.0559 -1.7354
 8774SOL    HW237785   4.278   0.849  12.156  0.6287 -0.5387 -0.1427
 8775SOL     OW37786   4.483   3.102   6.972  0.2107  0.2253 -0.5528
 8775SOL    HW137787   4.577   3.090   6.961  0.4500 -0.5808  2.3894
 8775SOL    HW237788   4.456   3.111   6.880  1.2161 -2.8293 -1.1541
 8776SOL     OW37789   0.816   1.562   5.726 -0.2268 -0.7473 -0.1223
 8776SOL    HW137790   0.862   1.504   5.665  0.8562  0.0398 -0.0613
 8776SOL    HW237791   0.890   1.580   5.785  0.7977  0.1219 -1.6693
 8777SOL     OW37792   1.120   0.811   4.855  0.2956 -0.1498  0.0192
 8777SOL    HW137793   1.073   0.893   4.866 -0.0621 -0.1474 -1.5453
 8777SOL    HW237794   1.066   0.762   4.793  1.9047  0.7329 -2.0989
 8778SOL     OW37795   4.157   4.307  13.993  0.4668 -0.2440  0.1207
 8778SOL    HW137796   4.102   4.354  14.056 -2.0565 -0.0392 -2.1896
 8778SOL    HW237797   4.165   4.367  13.918 -0.7096 -0.6037 -0.2977
 8779SOL     OW37798   4.052   2.296   8.737  0.1071  0.4209  1.0140
 8779SOL    HW137799   4.005   2.377   8.716  0.9538  1.1764  2.0366
 8779SOL    HW237800   4.129   2.304   8.681  0.0879 -2.0544  0.6286
 8780SOL     OW37801   2.047   0.768  10.168 -0.0877  0.1654 -0.5770
 8780SOL    HW137802   1.955   0.778  10.195 -0.0142 -3.3149  0.9975
 8780SOL    HW237803   2.098   0.818  10.231  1.9787 -0.5539 -1.6989
 8781SOL     OW37804   3.738   3.029   8.018  0.1175  0.0102  0.4890
 8781SOL    HW137805   3.741   2.969   8.093 -1.4310 -1.8960 -0.9649
 8781SOL    HW237806   3.700   3.105   8.059  0.2034  0.1169  0.3720
 8782SOL     OW37807   0.263   0.969   7.601  0.3765 -0.3702  0.1149
 8782SOL    HW137808   0.278   0.976   7.696  2.6464 -1.5215 -0.1635
 8782SOL    HW237809   0.243   0.876   7.599  1.0164 -0.5125  0.1440
 8783SOL     OW37810   0.869   2.351   8.078  0.0505  0.3819  0.5413
 8783SOL    HW137811   0.948   2.297   8.070 -0.0939  0.3479 -0.6304
 8783SOL    HW237812   0.903   2.433   8.041 -0.1357 -0.1665 -0.8426
 8784SOL     OW37813   0.046   4.682   6.393  0.5192  0.7306  0.3614
 8784SOL    HW137814   0.037   4.617   6.462  0.3265 -1.1724 -1.4811
 8784SOL    HW237815   0.048   0.043   6.429 -2.1491 -0.0069  2.3065
 8785SOL     OW37816   1.348   1.095   3.558  0.1608  0.0320 -0.3967
 8785SOL    HW137817   1.414   1.081   3.490 -1.2472  1.4706 -2.0969
 8785SOL    HW237818   1.397   1.104   3.639 -1.3278  1.8362  0.3050
 8786SOL     OW37819   1.732   1.371  10.605 -0.0446  0.0113  0.4282
 8786SOL    HW137820   1.716   1.325  10.688 -2.0265 -0.6909 -0.3488
 8786SOL    HW237821   1.734   1.464  10.625 -2.2649  0.0529  0.4160
 8787SOL     OW37822   0.134   2.222   6.540  0.1947 -0.7104  0.0473
 8787SOL    HW137823   0.141   2.244   6.633  2.7867 -0.8519 -0.1033
 8787SOL    HW237824   0.107   2.308   6.507 -0.6277 -2.1188 -2.9971
 8788SOL     OW37825   4.196   2.314   9.395  0.5471 -0.6823 -0.4067
 8788SOL    HW137826   4.230   2.235   9.351 -0.7492 -1.4101 -0.1002
 8788SOL    HW237827   4.228   2.297   9.484 -0.0155 -1.0562 -0.2749
 8789SOL     OW37828   0.272   3.333  10.532 -0.0925 -1.1045 -0.2356
 8789SOL    HW137829   0.340   3.296  10.588 -0.1315 -1.2442 -0.2803
 8789SOL    HW237830   0.252   3.267  10.466 -0.2034 -1.0861 -0.2217
 8790SOL     OW37831   4.436   2.385   5.800 -0.0462 -0.3642 -0.0168
 8790SOL    HW137832   4.425   2.291   5.806 -1.0367 -0.3545 -1.6417
 8790SOL    HW237833   4.501   2.387   5.729 -0.0986 -0.4854 -0.0679
 8791SOL     OW37834   0.594   1.596   6.545  0.1354 -0.0012  0.2964
 8791SOL    HW137835   0.505   1.596   6.580 -0.7873  0.4037 -2.0365
 8791SOL    HW237836   0.582   1.545   6.465 -0.3620 -0.3614  0.6004
 8792SOL     OW37837   3.369   0.559   6.425 -0.4264  0.6241  0.6367
 8792SOL    HW137838   3.301   0.613   6.384 -0.4541  0.2427  0.1732
 8792SOL    HW237839   3.423   0.632   6.455  0.2455 -0.2073  1.4634
 8793SOL     OW37840   3.509   1.753   1.248 -0.0262 -0.1762 -0.1567
 8793SOL    HW137841   3.565   1.819   1.207  2.1913 -2.0429 -0.1356
 8793SOL    HW237842   3.430   1.805   1.264  1.7740  2.9166 -1.2604
 8794SOL     OW37843   4.563   4.583   3.125 -1.2119 -0.4938  0.0399
 8794SOL    HW137844   4.626   4.647   3.092 -1.7150 -0.0161  0.0111
 8794SOL    HW237845   4.513   4.574   3.044 -0.9793  2.0549 -0.3821
 8795SOL     OW37846   4.325   1.598   1.887  0.4877 -0.4270 -0.1002
 8795SOL    HW137847   4.355   1.550   1.810 -0.7773 -0.8179 -0.3462
 8795SOL    HW237848   4.339   1.689   1.860 -1.2702 -0.9789 -2.7329
 8796SOL     OW37849   1.554   3.818   5.118  0.8081  0.1750  0.1455
 8796SOL    HW137850   1.460   3.805   5.110  1.3190 -1.9429 -2.5433
 8796SOL    HW237851   1.549   3.913   5.129 -1.8127 -0.0707  0.9360
 8797SOL     OW37852   4.529   2.714   4.378 -0.6234 -0.1327  0.1190
 8797SOL    HW137853   4.607   2.745   4.424 -0.0919 -3.5253  1.4698
 8797SOL    HW237854   4.572   2.678   4.301 -1.6080  0.3185 -0.6434
 8798SOL     OW37855   1.460   4.599   4.432 -0.2442 -0.2662  0.0041
 8798SOL    HW137856   1.397   4.553   4.376  2.2428 -2.6746 -0.8142
 8798SOL    HW237857   1.422   4.686   4.442  2.7561  0.8511  1.5758
 8799SOL     OW37858   1.652   0.071   7.673  1.0498 -0.1695 -0.1805
 8799SOL    HW137859   1.664   0.069   7.768 -2.1261 -0.7756  0.1814
 8799SOL    HW237860   1.568   0.115   7.659  0.0011 -2.4793 -1.1183
 8800SOL     OW37861   0.523   2.419  14.987  0.2483 -0.0356 -0.1203
 8800SOL    HW137862   0.497   2.351  15.050  2.0926  1.1058  1.8964
 8800SOL    HW237863   0.442   2.427  14.938 -0.9615 -2.3550  1.4591
 8801SOL     OW37864   1.232   0.272  10.879 -0.6003 -0.1426 -0.5051
 8801SOL    HW137865   1.221   0.365  10.858  1.4174 -0.1338 -1.4943
 8801SOL    HW237866   1.315   0.282  10.926 -0.6263  2.2596 -0.9912
 8802SOL     OW37867   0.662   2.543  15.292 -0.2030 -0.3740 -0.0037
 8802SOL    HW137868   0.605   2.568  15.219  1.3323  1.4239 -0.5767
 8802SOL    HW237869   0.600   2.567  15.361 -0.9017  1.0043 -1.1063
 8803SOL     OW37870   2.507   3.794   3.931  0.2827 -0.0562  0.2487
 8803SOL    HW137871   2.513   3.882   3.894  0.5039 -0.3720 -0.4740
 8803SOL    HW237872   2.461   3.743   3.865 -0.2050 -1.0385  1.3369
 8804SOL     OW37873   0.244   3.201  16.326 -0.5397 -0.3438 -0.0612
 8804SOL    HW137874   0.276   3.111  16.321  2.8087  0.8130  0.6450
 8804SOL    HW237875   0.180   3.186  16.397  1.5460  0.1367  1.9164
 8805SOL     OW37876   2.816   2.885   9.754  0.3564  0.2625 -0.2733
 8805SOL    HW137877   2.866   2.824   9.808 -1.7412 -0.0940  1.2322
 8805SOL    HW237878   2.733   2.841   9.736  0.3028  0.2772 -0.0576
 8806SOL     OW37879   2.020   2.119   5.696  0.1030 -0.0361 -0.5373
 8806SOL    HW137880   2.044   2.031   5.725  1.0948 -0.3228 -2.2057
 8806SOL    HW237881   2.098   2.169   5.719 -0.9854  2.0434 -1.3381
 8807SOL     OW37882   2.983   3.740   4.781  0.4594 -0.0090  0.3441
 8807SOL    HW137883   2.904   3.688   4.765 -1.0187  2.0932  0.8413
 8807SOL    HW237884   2.963   3.752   4.873 -1.2928  0.9599 -0.1654
 8808SOL     OW37885   0.631   0.537  15.440 -0.2721 -0.6717  0.0584
 8808SOL    HW137886   0.697   0.565  15.377  0.2745  1.6903  1.6832
 8808SOL    HW237887   0.647   0.444  15.459 -2.7698 -1.4674 -1.8186
 8809SOL     OW37888   2.854   2.821   1.461  0.1636 -0.4480 -0.6116
 8809SOL    HW137889   2.817   2.887   1.402 -0.2442 -1.2923 -1.3002
 8809SOL    HW237890   2.826   2.735   1.429  0.6493 -1.3147  1.2813
 8810SOL     OW37891   2.550   0.972   7.002 -0.2546 -0.3788  0.5101
 8810SOL    HW137892   2.487   1.040   7.029  0.0527  0.1023  0.0103
 8810SOL    HW237893   2.614   0.979   7.073 -0.3372  1.5295  0.4022
 8811SOL     OW37894   2.503   0.192  15.480 -0.2219 -0.4941  0.2548
 8811SOL    HW137895   2.443   0.148  15.421 -2.4273  0.3503  1.8599
 8811SOL    HW237896   2.559   0.232  15.414  1.7793 -0.0584  2.2049
 8812SOL     OW37897   4.462   3.208   9.705 -0.2195  0.5145 -0.2265
 8812SOL    HW137898   4.385   3.174   9.751  1.9251 -2.1449  1.4263
 8812SOL    HW237899   4.471   3.137   9.641 -0.5660 -1.9220  2.4258
 8813SOL     OW37900   2.150   1.126   1.042 -0.0012  0.3739  0.0004
 8813SOL    HW137901   2.156   1.100   0.950  2.5800 -1.7986  0.7837
 8813SOL    HW237902   2.098   1.058   1.085  1.4497 -0.8432 -0.1784
 8814SOL     OW37903   0.813   2.314   4.902 -0.0830 -0.1154 -0.0277
 8814SOL    HW137904   0.741   2.340   4.844  2.4647  1.2527 -2.5596
 8814SOL    HW237905   0.754   2.293   4.975 -0.0926 -3.7443 -1.0456
 8815SOL     OW37906   2.490   4.028   9.370 -0.1304 -0.4130 -0.3433
 8815SOL    HW137907   2.426   4.083   9.325  1.1281  1.5677  0.3273
 8815SOL    HW237908   2.555   4.016   9.300  1.7508 -0.0341  1.3462
 8816SOL     OW37909   1.757   3.714   6.909 -0.5109  0.2900  0.5202
 8816SOL    HW137910   1.777   3.780   6.975 -0.9892  1.0753 -0.1254
 8816SOL    HW237911   1.835   3.721   6.854 -0.5241  3.4877  0.9401
 8817SOL     OW37912   0.627   3.683   7.899  0.1102 -0.2482  0.3799
 8817SOL    HW137913   0.605   3.604   7.948 -1.5688 -0.5478 -0.8560
 8817SOL    HW237914   0.566   3.666   7.827  1.2608  1.2412 -0.9475
 8818SOL     OW37915   1.294   3.974   7.998  0.1231  0.3239  0.2739
 8818SOL    HW137916   1.312   4.068   7.996  1.0253  0.2330  4.0793
 8818SOL    HW237917   1.369   3.948   7.945 -0.0343  0.0490  0.1889
 8819SOL     OW37918   3.693   3.429   4.963  0.2121  0.3431 -0.1732
 8819SOL    HW137919   3.680   3.341   4.929 -0.1664 -0.6018  2.4505
 8819SOL    HW237920   3.669   3.414   5.054  0.2544 -1.0478 -0.3926
 8820SOL     OW37921   0.091   4.004   9.952 -0.0828 -0.1398  0.5794
 8820SOL    HW137922   0.119   4.033   9.866  0.9476 -2.0761  0.2587
 8820SOL    HW237923   0.177   3.974   9.982  0.7651  1.2429 -0.4993
 8821SOL     OW37924   1.348   1.252   2.481 -0.3190  0.3598  0.1055
 8821SOL    HW137925   1.263   1.291   2.496  0.1555  0.7613  1.7430
 8821SOL    HW237926   1.323   1.184   2.418  0.0165  0.1346  0.2145
 8822SOL     OW37927   1.211   1.618   0.830 -0.0923  0.7712  0.1208
 8822SOL    HW137928   1.184   1.665   0.751  0.3585 -2.0191 -1.6941
 8822SOL    HW237929   1.299   1.650   0.846  0.1457  1.2500 -2.1851
 8823SOL     OW37930   2.711   0.692   7.637  0.6813  0.0087  0.0057
 8823SOL    HW137931   2.789   0.661   7.683  1.1372 -0.3453 -1.0108
 8823SOL    HW237932   2.653   0.736   7.700  1.1284  0.4921  0.0825
 8824SOL     OW37933   2.730   3.832   2.792  0.0791 -0.1039  0.2065
 8824SOL    HW137934   2.727   3.916   2.746 -0.7580  0.1155  0.6673
 8824SOL    HW237935   2.706   3.783   2.713 -1.6662 -0.2252  0.8015
 8825SOL     OW37936   3.271   2.751  13.152 -0.3022  0.1080  0.5473
 8825SOL    HW137937   3.309   2.684  13.209 -1.0634 -0.7824  0.0091
 8825SOL    HW237938   3.220   2.798  13.217  2.5803 -2.4051  4.6250
 8826SOL     OW37939   2.291   4.422  11.731 -0.3297  0.0528  0.0140
 8826SOL    HW137940   2.334   4.419  11.816 -0.2683 -0.0921 -0.0219
 8826SOL    HW237941   2.214   4.471  11.757 -1.0172 -1.2615  0.4639
 8827SOL     OW37942   3.918   0.230   2.929  0.2173 -0.4829 -0.1335
 8827SOL    HW137943   3.855   0.158   2.931 -0.9725  0.5935  0.9327
 8827SOL    HW237944   3.913   0.259   3.019 -1.0937 -0.0677 -0.3506
 8828SOL     OW37945   1.982   2.731   1.101  0.6244  0.0317  0.3592
 8828SOL    HW137946   1.993   2.823   1.076  1.0056 -0.2666 -0.5716
 8828SOL    HW237947   2.072   2.701   1.089 -0.7312 -3.0703 -2.1807
 8829SOL     OW37948   3.226   0.125   4.031  0.1353 -0.1449  0.0743
 8829SOL    HW137949   3.232   0.043   4.081 -2.3727 -0.5943 -0.3539
 8829SOL    HW237950   3.311   0.152   4.066  0.1421  0.5757 -0.5107
 8830SOL     OW37951   3.101   1.633   9.192 -0.0381  0.7721 -0.4425
 8830SOL    HW137952   3.017   1.633   9.237 -0.8279  2.0998 -1.9014
 8830SOL    HW237953   3.160   1.652   9.264 -0.7314 -1.3287  0.6760
 8831SOL     OW37954   4.627   2.946  14.085  0.0750  0.1093  0.1655
 8831SOL    HW137955   4.685   2.990  14.024 -1.3854  1.2955 -0.3874
 8831SOL    HW237956   4.604   3.017  14.146  1.1907  1.7454 -1.3417
 8832SOL     OW37957   1.320   3.459   3.931  0.2608  0.2725  0.0427
 8832SOL    HW137958   1.387   3.525   3.912 -0.9657  1.7049  0.6660
 8832SOL    HW237959   1.327   3.450   4.026 -1.4911 -3.1643 -0.1553
 8833SOL     OW37960   1.947   3.917   2.656  0.4127 -0.0119  0.7660
 8833SOL    HW137961   2.006   3.842   2.646  0.7620  0.3062  0.4479
 8833SOL    HW237962   1.949   3.950   2.566  2.4407 -3.8147 -0.5848
 8834SOL     OW37963   3.435   3.161   0.852  0.3087  0.1895 -0.3447
 8834SOL    HW137964   3.489   3.230   0.813  0.7541 -0.5478 -1.0190
 8834SOL    HW237965   3.481   3.081   0.828 -2.0966 -1.1707 -0.4595
 8835SOL     OW37966   2.687   2.456   9.365  0.3520 -0.8861  0.3379
 8835SOL    HW137967   2.602   2.474   9.406  0.9390  4.1681 -0.6591
 8835SOL    HW237968   2.694   2.363   9.387  1.3184 -0.2869  2.5544
 8836SOL     OW37969   0.365   0.176   4.985 -0.0431  0.1405  0.0362
 8836SOL    HW137970   0.283   0.154   5.029  0.2295 -1.9038 -0.5167
 8836SOL    HW237971   0.353   0.135   4.899  0.1848 -1.4481  0.7666
 8837SOL     OW37972   2.264   1.592  15.140 -0.7016 -0.0047 -0.3799
 8837SOL    HW137973   2.339   1.599  15.199 -1.0794 -0.1469  0.1224
 8837SOL    HW237974   2.298   1.628  15.059  1.0695 -1.6652 -0.3760
 8838SOL     OW37975   3.354   4.404   3.579 -0.2288 -0.6138 -0.0949
 8838SOL    HW137976   3.360   4.319   3.537  1.7696 -1.7615  2.4515
 8838SOL    HW237977   3.265   4.438   3.570  0.5375  1.1445 -0.8911
 8839SOL     OW37978   1.836   2.009   5.533 -0.2799 -0.0658 -0.5684
 8839SOL    HW137979   1.880   2.051   5.606  0.2419  0.5689 -1.2498
 8839SOL    HW237980   1.787   2.086   5.503  0.4690  0.5017 -0.3455
 8840SOL     OW37981   2.842   1.137  12.694 -0.2140  0.2087  0.4810
 8840SOL    HW137982   2.897   1.136  12.615  1.7782 -0.4105  1.8940
 8840SOL    HW237983   2.817   1.229  12.705 -1.8810 -0.3505  1.3399
 8841SOL     OW37984   0.007   1.639  11.045  0.2956  0.2258  0.6120
 8841SOL    HW137985   0.100   1.622  11.032  0.0024 -0.4525 -0.5861
 8841SOL    HW237986   0.005   1.726  11.084 -1.1752  0.6904 -0.4944
 8842SOL     OW37987   2.121   2.187   3.471  0.7886  0.2245  0.3314
 8842SOL    HW137988   2.149   2.159   3.384  0.1429  1.2406 -0.2089
 8842SOL    HW237989   2.145   2.114   3.528  0.3657 -1.1570 -1.2783
 8843SOL     OW37990   0.037   1.722  17.212 -0.2597  0.1084  0.4250
 8843SOL    HW137991   4.721   1.754  17.133 -0.1151 -1.6647 -0.3697
 8843SOL    HW237992   0.017   1.629  17.220 -0.7784  0.3319  1.7780
 8844SOL     OW37993   0.917   0.275   6.419  0.0413 -0.0571 -0.5816
 8844SOL    HW137994   0.957   0.193   6.449  0.5057  0.4625  0.2120
 8844SOL    HW237995   0.937   0.331   6.493 -1.4092  0.7739 -0.8355
 8845SOL     OW37996   1.468   3.125   7.494 -0.1033 -0.3823  0.4003
 8845SOL    HW137997   1.414   3.202   7.511  0.2287 -0.3443  1.2462
 8845SOL    HW237998   1.484   3.139   7.400  0.1920  0.0014  0.5118
 8846SOL     OW37999   1.488   3.427   9.673  0.3645 -0.3055 -0.4302
 8846SOL    HW138000   1.548   3.402   9.743  1.4248  0.8152 -0.9495
 8846SOL    HW238001   1.431   3.350   9.670  1.7662 -1.1891 -3.7249
 8847SOL     OW38002   0.624   1.346   2.806 -0.3036  0.3736  0.2586
 8847SOL    HW138003   0.581   1.400   2.872 -0.7831 -1.4463  1.4364
 8847SOL    HW238004   0.579   1.262   2.796  1.0569 -0.2548 -0.5830
 8848SOL     OW38005   0.238   2.719   4.488  0.5009 -0.2611  0.2064
 8848SOL    HW138006   0.204   2.673   4.411  1.5062  1.2555 -1.1250
 8848SOL    HW238007   0.332   2.708   4.480  0.1501 -1.3155 -2.5263
 8849SOL     OW38008   1.028   0.979   5.470  0.0033 -0.3434  1.0020
 8849SOL    HW138009   0.980   1.021   5.541  0.5404  0.0518  1.1253
 8849SOL    HW238010   1.080   1.056   5.450  1.8115 -1.2608  2.1877
 8850SOL     OW38011   2.673   2.009   8.734  0.4533  0.0604  0.8483
 8850SOL    HW138012   2.675   2.102   8.710 -3.3203  0.0814  0.6016
 8850SOL    HW238013   2.669   2.015   8.830  1.9883 -1.1725  0.9895
 8851SOL     OW38014   0.034   2.495  14.894 -0.1209  0.3348  0.7975
 8851SOL    HW138015   0.096   2.477  14.824 -1.1683 -0.0840 -0.0250
 8851SOL    HW238016   4.702   2.548  14.840 -1.8075  0.2140  2.5502
 8852SOL     OW38017   3.442   2.449  14.253  0.1287 -0.7004 -0.1096
 8852SOL    HW138018   3.426   2.522  14.313  1.9092 -0.0992 -0.3718
 8852SOL    HW238019   3.351   2.449  14.220  0.4851  1.4802 -1.1461
 8853SOL     OW38020   1.784   3.186   9.462 -0.8647  0.4704 -0.1538
 8853SOL    HW138021   1.789   3.261   9.522 -0.9182  0.2937  0.0706
 8853SOL    HW238022   1.746   3.117   9.516  3.4480 -0.1833  2.0472
 8854SOL     OW38023   3.007   3.696   2.590  0.0270 -0.4975  0.3352
 8854SOL    HW138024   2.944   3.636   2.629  1.3077 -1.0504  1.5395
 8854SOL    HW238025   3.045   3.751   2.659 -1.5665  0.2275  0.6155
 8855SOL     OW38026   2.538   2.721   1.172 -0.3906 -0.2793 -0.0180
 8855SOL    HW138027   2.621   2.682   1.197 -0.6048 -0.0630  1.0285
 8855SOL    HW238028   2.512   2.766   1.252 -0.3890 -0.1617 -0.0828
 8856SOL     OW38029   0.480   2.457   5.567  0.1218 -0.4063 -0.8052
 8856SOL    HW138030   0.572   2.480   5.583 -0.0295  0.0658 -0.5884
 8856SOL    HW238031   0.459   2.545   5.535  0.6763  0.2810  0.6768
 8857SOL     OW38032   3.126   1.586  15.701 -0.2615 -0.2961 -0.4236
 8857SOL    HW138033   3.123   1.511  15.643 -1.2910 -0.6535  0.0870
 8857SOL    HW238034   3.144   1.553  15.789 -3.4249 -1.0660 -0.0862
 8858SOL     OW38035   2.794   2.622   1.279 -0.5155  0.2434 -0.3774
 8858SOL    HW138036   2.826   2.532   1.284  0.8420  0.7050 -0.6475
 8858SOL    HW238037   2.841   2.651   1.201 -0.7577  2.9484  0.4887
 8859SOL     OW38038   2.615   4.284   8.072  0.4511  0.5735  0.4062
 8859SOL    HW138039   2.569   4.332   8.141  1.2175  0.5584  0.9301
 8859SOL    HW238040   2.640   4.347   8.005  0.0235  1.7527  1.3587
 8860SOL     OW38041   1.811   0.523   3.276  0.1781 -0.2981  0.0609
 8860SOL    HW138042   1.815   0.512   3.371 -1.5015  3.7680  0.6179
 8860SOL    HW238043   1.898   0.560   3.260  1.4868 -2.5312  1.9935
 8861SOL     OW38044   1.559   1.774   6.856  0.3965  0.2114  0.2498
 8861SOL    HW138045   1.544   1.752   6.948  0.3689 -0.2498  0.1391
 8861SOL    HW238046   1.529   1.864   6.857  0.9562  0.4003  0.2563
 8862SOL     OW38047   3.652   2.056  11.059  0.3152 -0.0134  0.2311
 8862SOL    HW138048   3.743   2.027  11.060  0.3593  0.0593 -2.4515
 8862SOL    HW238049   3.607   2.003  11.125 -0.6644 -1.6345 -1.7251
 8863SOL     OW38050   0.273   3.146   5.471  0.1348  0.0905 -0.4954
 8863SOL    HW138051   0.192   3.187   5.440  0.6330  2.0337  0.7843
 8863SOL    HW238052   0.335   3.218   5.457  1.5460 -0.9438  0.3722
 8864SOL     OW38053   0.645   3.037  13.702 -0.6690 -0.0963  0.1889
 8864SOL    HW138054   0.659   3.036  13.796  1.3549 -0.6876 -0.1117
 8864SOL    HW238055   0.624   3.128  13.680 -1.6781 -0.2935  0.3352
 8865SOL     OW38056   3.736   2.561   0.410  0.0981  0.1709  0.3115
 8865SOL    HW138057   3.734   2.608   0.327 -2.2474  1.4239  1.0997
 8865SOL    HW238058   3.807   2.609   0.454  0.3951  0.6380 -0.6812
 8866SOL     OW38059   4.242   1.809   6.980 -0.5913  0.1060  0.1935
 8866SOL    HW138060   4.180   1.822   6.909 -1.0344  0.4997  0.6456
 8866SOL    HW238061   4.271   1.901   6.988 -0.3900  0.3856 -4.0831
 8867SOL     OW38062   2.476   4.326   5.682  0.2311  0.3355 -0.0555
 8867SOL    HW138063   2.422   4.287   5.751  2.3207 -0.1743  1.2708
 8867SOL    HW238064   2.422   4.401   5.656 -0.9698 -0.7904 -0.7937
 8868SOL     OW38065   2.449   2.170   2.855 -0.4990  0.2660  0.2151
 8868SOL    HW138066   2.502   2.248   2.840  2.0517 -0.8322  3.6618
 8868SOL    HW238067   2.399   2.202   2.930  0.6082  1.2255  0.5348
 8869SOL     OW38068   3.137   1.666   0.640 -0.3841 -0.3638 -0.0883
 8869SOL    HW138069   3.095   1.582   0.623 -1.4463  0.1537 -0.0361
 8869SOL    HW238070   3.168   1.692   0.553  0.8594  0.7680  0.6926
 8870SOL     OW38071   4.104   0.680   5.492 -0.2019 -0.6445 -0.3450
 8870SOL    HW138072   4.038   0.612   5.478  0.2371 -1.2100  0.3155
 8870SOL    HW238073   4.082   0.741   5.421 -1.7870 -1.3425 -0.4519
 8871SOL     OW38074   0.697   0.531   1.888  0.2582 -0.2645 -0.3393
 8871SOL    HW138075   0.639   0.591   1.933 -0.5761 -1.4355  0.1387
 8871SOL    HW238076   0.631   0.465   1.866 -2.4808  1.4347  2.9069
 8872SOL     OW38077   0.265   4.358   4.718  0.2058  0.0270 -0.2197
 8872SOL    HW138078   0.291   4.268   4.740  0.0300  0.3048  1.1538
 8872SOL    HW238079   0.295   4.399   4.799 -0.8044 -0.3392  0.3481
 8873SOL     OW38080   0.369   3.505   7.219 -0.0512 -0.0085  0.1685
 8873SOL    HW138081   0.299   3.571   7.220  0.3787  0.4433  0.8637
 8873SOL    HW238082   0.408   3.523   7.304 -1.6004  0.5165  0.7643
 8874SOL     OW38083   0.402   1.907   4.980  0.0436 -0.8535 -0.5033
 8874SOL    HW138084   0.467   1.843   4.950 -1.3094 -2.2321 -0.5141
 8874SOL    HW238085   0.383   1.857   5.060 -2.2598  1.1983  0.2440
 8875SOL     OW38086   1.552   3.380   1.457 -0.4858 -0.2963  0.2851
 8875SOL    HW138087   1.526   3.372   1.366 -1.2107  1.0520  0.3827
 8875SOL    HW238088   1.509   3.305   1.498  0.8606  0.2305  2.6931
 8876SOL     OW38089   2.303   2.060   0.932  0.3448 -0.3463  0.4948
 8876SOL    HW138090   2.298   2.156   0.932  2.1386 -0.2511  1.8765
 8876SOL    HW238091   2.213   2.039   0.955  0.3330  0.4508  1.2211
 8877SOL     OW38092   3.592   2.263   3.131  0.5523 -0.4114  0.4259
 8877SOL    HW138093   3.498   2.278   3.133  0.8917  1.4374  2.7250
 8877SOL    HW238094   3.602   2.256   3.036 -0.4557  2.7341  0.0673
 8878SOL     OW38095   0.129   4.189   8.614 -0.3181 -0.3839  0.3739
 8878SOL    HW138096   0.088   4.215   8.696  0.4499 -1.3859  1.0698
 8878SOL    HW238097   0.213   4.236   8.621 -0.0869 -0.5433 -1.3552
 8879SOL     OW38098   3.384   2.073   2.970 -1.0418 -0.5562  0.7951
 8879SOL    HW138099   3.379   2.036   2.882  0.5195  1.2600 -0.0508
 8879SOL    HW238100   3.460   2.040   3.018  0.2693  0.0504 -0.8818
 8880SOL     OW38101   2.941   0.327   3.668  0.1977  0.0266 -0.1764
 8880SOL    HW138102   2.866   0.290   3.715 -0.4226 -2.4321 -3.1426
 8880SOL    HW238103   3.009   0.262   3.687  1.4458  1.3684 -0.0052
 8881SOL     OW38104   1.896   2.251   2.276  0.2966  0.1336 -0.1356
 8881SOL    HW138105   1.930   2.242   2.187 -0.4822  0.4868 -0.4712
 8881SOL    HW238106   1.960   2.310   2.313 -0.0704  0.2211  0.3541
 8882SOL     OW38107   2.031   3.721  10.943  0.5775 -0.4005  0.0091
 8882SOL    HW138108   2.116   3.762  10.929  0.5455 -0.0540  0.8529
 8882SOL    HW238109   2.068   3.633  10.955 -1.7099 -1.5241 -1.1444
 8883SOL     OW38110   2.090   1.240   2.576  0.6837 -0.2108 -0.0095
 8883SOL    HW138111   1.995   1.252   2.565  0.7518 -0.2838 -0.6963
 8883SOL    HW238112   2.088   1.145   2.585  3.1306 -0.3777 -1.3569
 8884SOL     OW38113   1.527   1.783   5.304 -0.6748 -0.2031  0.3502
 8884SOL    HW138114   1.543   1.803   5.211 -1.4052 -1.0270  0.0444
 8884SOL    HW238115   1.470   1.707   5.289  0.3965 -0.4216 -2.7783
 8885SOL     OW38116   0.318   1.339  14.500  0.4740 -0.0221  0.5643
 8885SOL    HW138117   0.315   1.409  14.565  2.5630 -0.1092  0.7469
 8885SOL    HW238118   0.253   1.275  14.530 -0.4228  0.2401 -0.8507
 8886SOL     OW38119   0.086   4.085  17.343 -0.1324 -0.0612  0.2604
 8886SOL    HW138120   0.168   4.040  17.322  0.1445  0.0440  1.0718
 8886SOL    HW238121   0.103   4.085  17.438  0.8407 -0.3189  0.0859
 8887SOL     OW38122   0.945   2.630   0.323  0.2409  0.4191 -0.4344
 8887SOL    HW138123   0.864   2.669   0.355 -0.1338 -1.0198  0.3771
 8887SOL    HW238124   0.983   2.606   0.407 -0.4391 -1.7400 -0.7325
 8888SOL     OW38125   3.686   2.528   4.770  0.2977  0.0998 -0.4986
 8888SOL    HW138126   3.694   2.479   4.688  0.3685  1.0449 -1.0594
 8888SOL    HW238127   3.702   2.453   4.828  0.6683 -0.5582 -1.4476
 8889SOL     OW38128   2.599   0.424   1.708  0.1066  0.3933 -0.3149
 8889SOL    HW138129   2.661   0.466   1.766  0.0949 -0.3845  0.2686
 8889SOL    HW238130   2.648   0.342   1.699 -0.5260 -0.0931  0.7936
 8890SOL     OW38131   2.334   0.098   0.349 -0.1467  0.0805 -0.7492
 8890SOL    HW138132   2.420   0.138   0.348 -0.7979  1.4933  1.1330
 8890SOL    HW238133   2.326   0.036   0.276  0.8656 -1.7656  0.7235
 8891SOL     OW38134   0.330   4.524   3.437  0.0053 -0.0517  0.3355
 8891SOL    HW138135   0.282   4.479   3.367 -1.0842 -1.6458  2.1308
 8891SOL    HW238136   0.415   4.544   3.396 -0.6312  1.0257 -0.4847
 8892SOL     OW38137   3.167   4.117   2.788 -0.0269  0.4863  0.7138
 8892SOL    HW138138   3.140   4.182   2.853  0.2510  1.9595 -0.6241
 8892SOL    HW238139   3.253   4.154   2.768  0.2951 -0.7051 -0.0829
 8893SOL     OW38140   2.006   2.536   5.715 -0.4322 -0.6768  0.6382
 8893SOL    HW138141   2.039   2.547   5.804  2.3016 -1.9053 -0.2352
 8893SOL    HW238142   1.939   2.604   5.719  3.1441  2.9359 -1.2950
 8894SOL     OW38143   2.068   1.693   3.460 -0.1896  0.0275 -0.2227
 8894SOL    HW138144   2.093   1.640   3.384 -0.3743 -0.7917  0.2850
 8894SOL    HW238145   2.031   1.767   3.411 -0.6132  0.9034  1.4309
 8895SOL     OW38146   4.193   4.255   7.894  0.1857  0.1260  0.3916
 8895SOL    HW138147   4.174   4.179   7.840 -1.4254  1.7870 -1.3554
 8895SOL    HW238148   4.283   4.231   7.919  0.5796 -1.7966 -2.9569
 8896SOL     OW38149   3.363   4.114  10.457  0.0358  0.1534 -0.4595
 8896SOL    HW138150   3.436   4.166  10.490  0.0724 -0.1263 -0.1107
 8896SOL    HW238151   3.308   4.187  10.427  1.4717  1.1540 -0.6300
 8897SOL     OW38152   0.476   0.079   6.625  0.5987 -0.4103  0.4371
 8897SOL    HW138153   0.496   0.039   6.710  1.0846 -2.5022 -0.6536
 8897SOL    HW238154   0.435   0.159   6.658  0.9852  0.6125 -1.5544
 8898SOL     OW38155   1.783   4.331   6.447 -0.4380  0.0771 -0.0340
 8898SOL    HW138156   1.855   4.271   6.465  0.1549  1.2282  1.4447
 8898SOL    HW238157   1.762   4.374   6.529  0.2615  1.9995 -0.8504
 8899SOL     OW38158   0.767   0.258   2.189  0.4258 -0.0783  0.2431
 8899SOL    HW138159   0.825   0.334   2.183  0.2928  0.0691  0.7916
 8899SOL    HW238160   0.791   0.233   2.278 -2.1292 -1.7746  0.4669
 8900SOL     OW38161   1.370   3.184   0.392  0.2315  0.1113  0.8300
 8900SOL    HW138162   1.332   3.120   0.331  2.3593  1.6888 -2.1446
 8900SOL    HW238163   1.300   3.194   0.456  0.2362 -2.5755  1.2727
 8901SOL     OW38164   0.067   4.037   1.572  0.4276 -0.4902  0.0278
 8901SOL    HW138165   0.158   4.042   1.543  1.1037  1.3945  2.4264
 8901SOL    HW238166   0.030   4.078   1.494 -1.4211  1.9167  2.1760
 8902SOL     OW38167   1.379   2.493  10.439  0.6594  0.2176 -0.0416
 8902SOL    HW138168   1.423   2.572  10.471  0.5902 -0.3173  1.3704
 8902SOL    HW238169   1.352   2.516  10.350  0.3052 -0.1895 -0.0381
 8903SOL     OW38170   0.571   2.415   1.620 -0.6132  0.3081 -0.4761
 8903SOL    HW138171   0.622   2.397   1.699 -0.7427 -0.8405 -0.6475
 8903SOL    HW238172   0.498   2.466   1.655  0.3560  1.1428  0.3092
 8904SOL     OW38173   1.735   1.840   3.733 -0.2203 -0.3952 -0.0134
 8904SOL    HW138174   1.671   1.785   3.778 -0.8267 -0.1645 -0.6056
 8904SOL    HW238175   1.771   1.779   3.668  1.8129  0.4112  0.3362
 8905SOL     OW38176   0.501   1.759   4.447  0.2134 -0.4581  0.3739
 8905SOL    HW138177   0.513   1.691   4.381  1.8531 -0.9095  1.1307
 8905SOL    HW238178   0.473   1.703   4.519  0.2821 -1.6846 -0.5655
 8906SOL     OW38179   4.118   2.483   2.297 -0.0913  0.1718 -0.1811
 8906SOL    HW138180   4.094   2.565   2.340  0.2886 -0.7636  1.7920
 8906SOL    HW238181   4.092   2.416   2.361 -1.6225  0.5442 -0.4118
 8907SOL     OW38182   2.156   2.635   6.860 -0.4350 -0.3415  0.1051
 8907SOL    HW138183   2.170   2.627   6.766 -0.6680 -3.1116  0.2948
 8907SOL    HW238184   2.239   2.600   6.893  0.1238 -0.1316 -1.0952
 8908SOL     OW38185   1.457   0.725  17.002  0.5379  0.2243 -0.3789
 8908SOL    HW138186   1.469   0.709  16.908  0.0257  0.7951 -0.5489
 8908SOL    HW238187   1.527   0.671  17.038 -0.1874 -0.6420 -0.2634
 8909SOL     OW38188   0.715   2.794  16.937  0.2779  0.4224 -0.5328
 8909SOL    HW138189   0.645   2.791  17.001  0.8508  0.4839  0.0956
 8909SOL    HW238190   0.721   2.887  16.918 -1.4100  0.8547  1.1644
 8910SOL     OW38191   2.427   1.350   8.786  0.0930  0.2117 -0.4284
 8910SOL    HW138192   2.448   1.396   8.705 -0.7642  0.9306 -0.2425
 8910SOL    HW238193   2.368   1.286   8.746 -0.7217  0.3483  0.5412
 8911SOL     OW38194   2.570   1.241   2.550  0.5962 -0.1146 -0.2965
 8911SOL    HW138195   2.607   1.317   2.505 -0.1563  0.9518  0.9096
 8911SOL    HW238196   2.533   1.196   2.474  2.5004 -2.1808  0.0137
 8912SOL     OW38197   3.367   1.314   4.140 -0.1327 -0.5132  0.3921
 8912SOL    HW138198   3.366   1.219   4.150  0.5997 -0.3811  1.7658
 8912SOL    HW238199   3.392   1.301   4.048 -1.9011 -1.9297  0.1219
 8913SOL     OW38200   4.034   1.805   8.316  0.0828 -0.0154 -0.0197
 8913SOL    HW138201   4.113   1.760   8.285  0.2379 -0.6954  1.3253
 8913SOL    HW238202   4.026   1.871   8.248  2.0870 -0.7005 -0.9438
 8914SOL     OW38203   3.250   3.369   9.369  0.6174 -0.1831 -0.3479
 8914SOL    HW138204   3.263   3.326   9.284  2.3508 -1.0262  0.3419
 8914SOL    HW238205   3.168   3.415   9.355  0.5278 -0.2320  0.0311
 8915SOL     OW38206   0.142   0.908   3.830 -0.2314 -0.1848  0.1646
 8915SOL    HW138207   0.126   0.868   3.916  0.1881  0.7732  0.6987
 8915SOL    HW238208   0.053   0.940   3.814 -1.2183 -2.3841  1.1959
 8916SOL     OW38209   1.211   1.296   7.545 -0.0231  0.5318  0.2157
 8916SOL    HW138210   1.229   1.389   7.528  0.4139  0.7577  1.8957
 8916SOL    HW238211   1.116   1.305   7.535 -0.0207 -1.4052 -1.5088
 8917SOL     OW38212   3.751   3.190   3.945 -0.0176 -0.0487 -0.9879
 8917SOL    HW138213   3.671   3.150   3.979 -0.0251 -2.6290 -4.1084
 8917SOL    HW238214   3.726   3.224   3.860  2.8718  0.9742 -1.4520
 8918SOL     OW38215   2.467   1.853  14.406 -0.2100  0.1075 -0.3229
 8918SOL    HW138216   2.529   1.810  14.348  0.3663 -0.8940  1.0395
 8918SOL    HW238217   2.399   1.872  14.342 -0.1180  0.4282 -0.3249
 8919SOL     OW38218   3.133   2.864  12.903 -0.5080  0.1829  0.6126
 8919SOL    HW138219   3.102   2.906  12.984  0.6865  0.2427  1.0363
 8919SOL    HW238220   3.177   2.791  12.947  0.8253  0.1720 -0.7466
 8920SOL     OW38221   1.225   1.369   1.611  0.4971 -0.5848 -0.2954
 8920SOL    HW138222   1.227   1.366   1.515  2.0858  1.2430 -0.3164
 8920SOL    HW238223   1.226   1.278   1.641  0.6584 -0.6821 -0.5984
 8921SOL     OW38224   1.881   1.498   9.517  0.2309  0.0864 -0.0758
 8921SOL    HW138225   1.975   1.480   9.507  0.0366 -1.3882  0.8577
 8921SOL    HW238226   1.883   1.575   9.459 -0.4470 -0.8058 -1.2691
 8922SOL     OW38227   3.813   2.674   6.656  0.2651 -0.7226 -0.0919
 8922SOL    HW138228   3.905   2.650   6.671 -0.1051 -0.4725  2.5889
 8922SOL    HW238229   3.800   2.736   6.729 -0.5810  0.7335 -1.4741
 8923SOL     OW38230   0.120   1.433   2.878 -0.7905 -0.0005  0.6448
 8923SOL    HW138231   0.125   1.382   2.797 -2.0395  1.6723 -0.5026
 8923SOL    HW238232   0.031   1.466   2.864 -0.3804 -0.2334 -2.5819
 8924SOL     OW38233   3.219   3.266  11.455 -0.5239 -0.2581  0.5819
 8924SOL    HW138234   3.182   3.270  11.366  0.6449  1.7063  0.1790
 8924SOL    HW238235   3.267   3.349  11.452 -0.1961 -0.5803 -4.2965
 8925SOL     OW38236   2.542   3.052  15.308 -0.2916 -0.1638  0.2124
 8925SOL    HW138237   2.478   3.057  15.380 -0.5732  0.1356 -0.0579
 8925SOL    HW238238   2.486   3.043  15.230  0.1649  0.1203 -0.1466
 8926SOL     OW38239   0.456   1.090   2.809 -0.7776 -0.3306  0.7083
 8926SOL    HW138240   0.365   1.062   2.821 -1.1034 -0.6439 -2.4696
 8926SOL    HW238241   0.480   1.028   2.740  0.2062  1.1890 -0.3103
 8927SOL     OW38242   1.973   4.725   5.699  0.3843 -0.3503  0.1579
 8927SOL    HW138243   1.990   4.633   5.680  0.5027 -0.1899 -0.5090
 8927SOL    HW238244   1.916   0.022   5.627  0.6551 -0.4673 -0.0967
 8928SOL     OW38245   4.412   1.036  16.943  0.1788 -0.4651  0.1286
 8928SOL    HW138246   4.376   0.948  16.954 -1.5724  0.1981 -0.3044
 8928SOL    HW238247   4.463   1.028  16.863 -0.9784  1.6684 -0.8356
 8929SOL     OW38248   0.685   2.906   1.103  0.1668 -0.0391 -0.5777
 8929SOL    HW138249   0.589   2.906   1.109  0.3185  1.6865  1.8006
 8929SOL    HW238250   0.691   2.846   1.029  0.4674  0.0988 -0.6626
 8930SOL     OW38251   1.718   0.693  11.387  0.0244 -0.3892  0.3592
 8930SOL    HW138252   1.682   0.651  11.309  0.4867  1.1016 -0.6695
 8930SOL    HW238253   1.636   0.704  11.434 -0.5406 -1.8081 -0.2966
 8931SOL     OW38254   1.938   4.157   3.217  0.2634  0.0144  0.2705
 8931SOL    HW138255   1.907   4.239   3.180  1.7239  0.2537 -0.4351
 8931SOL    HW238256   1.882   4.090   3.179  0.1443  0.5037 -0.4096
 8932SOL     OW38257   2.016   3.586   9.841  0.1544 -0.4557 -0.0765
 8932SOL    HW138258   2.066   3.579   9.922  0.4101 -0.6060 -0.2490
 8932SOL    HW238259   2.082   3.586   9.772 -0.4175  2.2968 -0.6433
 8933SOL     OW38260   0.425   1.065   6.217  0.7066 -0.1677  0.3243
 8933SOL    HW138261   0.412   1.073   6.311  0.5965  0.9449  0.2109
 8933SOL    HW238262   0.350   1.014   6.185 -0.4631  0.2703  2.3787
 8934SOL     OW38263   3.658   4.313  14.714 -0.0758  0.5093 -0.5781
 8934SOL    HW138264   3.674   4.403  14.686  2.4650 -0.6414 -2.9347
 8934SOL    HW238265   3.572   4.320  14.755  0.5079  0.2839  0.6779
 8935SOL     OW38266   0.847   1.521   8.308 -0.2856 -0.2340 -0.4705
 8935SOL    HW138267   0.835   1.449   8.246  0.1318  0.9131 -1.8781
 8935SOL    HW238268   0.899   1.582   8.256  1.1557  0.7039  2.1165
 8936SOL     OW38269   3.149   3.033   3.105  0.0472 -0.3069  0.2077
 8936SOL    HW138270   3.184   2.962   3.159  1.3460  0.5593  0.5105
 8936SOL    HW238271   3.230   3.081   3.086 -1.0108  0.7398 -1.6136
 8937SOL     OW38272   3.513   3.832   7.688 -0.1930  0.4425 -0.1114
 8937SOL    HW138273   3.482   3.910   7.644 -1.5100 -0.2053 -0.3370
 8937SOL    HW238274   3.600   3.864   7.711 -0.2479  0.4892  0.0330
 8938SOL     OW38275   3.163   1.939   1.741 -0.2035 -0.2778  0.0766
 8938SOL    HW138276   3.243   1.964   1.787 -0.3720 -2.1186  1.3914
 8938SOL    HW238277   3.191   1.859   1.696  3.4875  1.1542 -0.1731
 8939SOL     OW38278   3.631   3.826  14.374  0.3971  0.2541 -0.1617
 8939SOL    HW138279   3.669   3.861  14.454 -2.7693  1.1111  0.9808
 8939SOL    HW238280   3.700   3.762  14.355 -0.2333  0.0066 -1.6993
 8940SOL     OW38281   1.550   0.689   5.849  0.0611 -0.1642 -0.6505
 8940SOL    HW138282   1.617   0.682   5.917 -1.1064  1.3734  0.6696
 8940SOL    HW238283   1.510   0.771   5.875  0.2833  0.2333 -1.5526
 8941SOL     OW38284   3.402   3.085  16.167 -0.2287 -0.2349  0.4720
 8941SOL    HW138285   3.441   3.158  16.215 -0.2921 -0.4334  0.8322
 8941SOL    HW238286   3.307   3.093  16.171 -0.1225  1.0858  0.2923
 8942SOL     OW38287   0.709   2.752   8.672 -0.0633  0.2147  0.0650
 8942SOL    HW138288   0.803   2.767   8.682  0.2834 -2.0472  0.2217
 8942SOL    HW238289   0.696   2.713   8.759 -1.0550 -0.1009 -0.2279
 8943SOL     OW38290   2.600   3.254   8.578  0.2957  0.0890  0.1120
 8943SOL    HW138291   2.625   3.197   8.506 -2.1142  0.8708 -1.3584
 8943SOL    HW238292   2.665   3.232   8.644  0.5085 -0.1839 -0.1895
 8944SOL     OW38293   0.355   1.487   5.114  0.1220  0.0971  0.2383
 8944SOL    HW138294   0.320   1.417   5.060  0.6574 -2.0810  2.7025
 8944SOL    HW238295   0.276   1.503   5.166  0.1442 -0.2627  0.3826
 8945SOL     OW38296   4.512   4.150  17.358  1.0481 -0.4043 -0.2284
 8945SOL    HW138297   4.604   4.164  17.384  0.9140  0.9881 -0.5171
 8945SOL    HW238298   4.465   4.151  17.441  2.1404  0.2744  0.3924
 8946SOL     OW38299   3.523   1.308   5.828 -0.7357 -0.3464 -0.9210
 8946SOL    HW138300   3.595   1.344   5.775 -0.6947  0.4867 -0.3121
 8946SOL    HW238301   3.500   1.227   5.783 -0.3977 -3.0701  3.8370
 8947SOL     OW38302   2.096   4.596  11.796 -0.1185 -0.0615 -0.7174
 8947SOL    HW138303   2.042   4.659  11.749 -0.4780  1.0381  1.1674
 8947SOL    HW238304   2.072   4.613  11.887  0.6122  0.3565 -0.5947
 8948SOL     OW38305   2.677   1.957  14.792  0.9084 -0.1870  0.9700
 8948SOL    HW138306   2.591   1.997  14.778 -0.1545 -3.4904 -1.8967
 8948SOL    HW238307   2.696   1.933  14.701 -1.2003  3.0079 -0.3273
 8949SOL     OW38308   4.344   2.887   4.466 -0.2014  0.0570 -0.1884
 8949SOL    HW138309   4.418   2.827   4.452  0.9258  1.0792  1.3512
 8949SOL    HW238310   4.392   2.955   4.513  0.9311 -0.4523 -0.5978
 8950SOL     OW38311   4.206   2.681   7.147  0.2911  0.1922 -0.0247
 8950SOL    HW138312   4.241   2.770   7.145  0.1411  0.2024 -2.2514
 8950SOL    HW238313   4.116   2.707   7.126  0.5704 -0.8326 -2.5478
 8951SOL     OW38314   3.205   2.766   7.212 -0.5224  0.2380 -0.0712
 8951SOL    HW138315   3.143   2.781   7.284 -1.7975 -1.0151 -0.9170
 8951SOL    HW238316   3.181   2.675   7.195  1.6571 -0.2613 -0.4148
 8952SOL     OW38317   0.384   3.846   4.745 -0.5055  0.9776  0.2388
 8952SOL    HW138318   0.337   3.893   4.677  0.8380 -0.3912 -1.6505
 8952SOL    HW238319   0.475   3.859   4.717  0.7055 -2.3569  2.5432
 8953SOL     OW38320   4.509   2.847   3.241 -0.2920  0.7169  0.7560
 8953SOL    HW138321   4.575   2.782   3.263  0.8479  0.6668 -2.8205
 8953SOL    HW238322   4.429   2.818   3.286  1.2905 -3.2874  0.9022
 8954SOL     OW38323   4.188   0.228   7.684  0.1499 -0.8425  0.0822
 8954SOL    HW138324   4.234   0.192   7.760 -1.2443  0.7008  1.6717
 8954SOL    HW238325   4.147   0.149   7.649 -2.1011  0.0526  0.7170
 8955SOL     OW38326   1.989   4.468  13.549  0.7058 -0.4225 -0.3333
 8955SOL    HW138327   1.898   4.462  13.576  0.8043  2.3879  0.5510
 8955SOL    HW238328   1.999   4.563  13.554  1.2711 -0.4348 -1.1934
 8956SOL     OW38329   0.106   4.494   7.970  0.2253 -0.1799  0.8310
 8956SOL    HW138330   0.074   4.572   8.016 -0.8179 -0.7178  1.0063
 8956SOL    HW238331   0.157   4.460   8.043  0.4786  0.7328  1.0785
 8957SOL     OW38332   4.519   2.190   6.436 -0.2346 -0.3010 -0.5200
 8957SOL    HW138333   4.526   2.165   6.343 -3.3211  1.1621 -1.1579
 8957SOL    HW238334   4.567   2.124   6.485  0.0407  1.2064  1.2230
 8958SOL     OW38335   3.556   2.871   1.914 -0.1681  0.1012 -0.0069
 8958SOL    HW138336   3.472   2.914   1.899  0.6458  1.6632 -0.1173
 8958SOL    HW238337   3.545   2.853   2.008  0.0244 -0.8800 -0.1712
 8959SOL     OW38338   4.030   2.575   5.795  0.4927  0.0076 -0.2335
 8959SOL    HW138339   4.071   2.514   5.856  0.1996  1.0101  0.9758
 8959SOL    HW238340   3.955   2.520   5.772  2.4858 -2.2113 -1.4097
 8960SOL     OW38341   0.688   0.908  16.060  0.3962 -0.2127 -0.8912
 8960SOL    HW138342   0.709   0.961  16.137  2.0473  1.3319 -2.3979
 8960SOL    HW238343   0.744   0.946  15.992 -1.0850  1.1633 -1.3236
 8961SOL     OW38344   1.335   0.371   7.337 -0.2438 -0.1465 -0.2857
 8961SOL    HW138345   1.277   0.410   7.402 -0.3627  1.0219 -1.0937
 8961SOL    HW238346   1.295   0.284   7.333  1.6133 -1.0967  1.6244
 8962SOL     OW38347   2.700   4.480   7.897 -0.2017 -0.1891  0.1366
 8962SOL    HW138348   2.683   4.553   7.956  3.3715 -0.0752  1.0744
 8962SOL    HW238349   2.776   4.432   7.931 -0.4297 -0.9962 -0.5078
 8963SOL     OW38350   4.380   2.341   4.022 -0.4013  0.0146  0.1395
 8963SOL    HW138351   4.304   2.396   4.003  1.6984  2.6867 -0.5779
 8963SOL    HW238352   4.451   2.392   3.982 -1.9008  2.7427  0.9523
 8964SOL     OW38353   2.192   4.720   9.905  0.2816  0.0136  0.0194
 8964SOL    HW138354   2.115   0.049   9.910 -0.9056 -1.4121 -2.2401
 8964SOL    HW238355   2.218   0.018   9.816 -1.3402 -1.3236 -0.8389
 8965SOL     OW38356   1.402   0.469  15.699 -0.0396  0.2814 -0.1518
 8965SOL    HW138357   1.372   0.560  15.697  0.2934  0.4418  2.1713
 8965SOL    HW238358   1.476   0.484  15.758 -0.4943 -2.7647  1.1741
 8966SOL     OW38359   0.373   2.253  16.915 -0.2204 -0.6061 -0.1762
 8966SOL    HW138360   0.332   2.250  17.001 -0.0860 -0.1583 -0.0940
 8966SOL    HW238361   0.431   2.327  16.930  0.5776 -1.3286  0.2930
 8967SOL     OW38362   0.781   2.694  13.674 -0.3373 -0.0162  0.0685
 8967SOL    HW138363   0.840   2.724  13.743 -1.3957 -2.5784  2.0659
 8967SOL    HW238364   0.834   2.635  13.621 -1.0331  0.3117 -0.9997
 8968SOL     OW38365   0.841   1.706   7.855 -0.3446  0.1398  0.1922
 8968SOL    HW138366   0.919   1.691   7.802 -0.3924  0.9426 -0.1047
 8968SOL    HW238367   0.805   1.786   7.817 -1.3371  0.0172  0.8619
 8969SOL     OW38368   1.079   1.287   9.089  0.4190  0.1933 -0.2250
 8969SOL    HW138369   1.152   1.225   9.079 -0.0305 -0.4341  0.4553
 8969SOL    HW238370   1.032   1.255   9.165  1.8349 -0.1472  0.5121
 8970SOL     OW38371   2.502   0.015   6.933 -0.0010  0.0831 -0.1530
 8970SOL    HW138372   2.542   4.662   6.901 -2.7170 -2.5552  3.1714
 8970SOL    HW238373   2.424   0.025   6.878  0.5882  0.2944 -0.9547
 8971SOL     OW38374   3.538   2.366   7.622  0.4992  0.3149 -0.0056
 8971SOL    HW138375   3.497   2.448   7.651  1.9418  0.5639  1.2708
 8971SOL    HW238376   3.569   2.390   7.535  0.3451  1.6389  0.3088
 8972SOL     OW38377   3.349   3.669  15.031 -0.0380  0.0156  0.4559
 8972SOL    HW138378   3.421   3.626  15.077 -0.2892  1.3969  2.1427
 8972SOL    HW238379   3.272   3.621  15.063 -1.0952  0.9843 -0.6496
 8973SOL     OW38380   4.427   4.361   2.662  0.2262 -0.1823 -0.1846
 8973SOL    HW138381   4.507   4.344   2.612  0.6921 -0.8839  0.8009
 8973SOL    HW238382   4.400   4.270   2.674 -1.1427  0.6100  2.6590
 8974SOL     OW38383   4.507   1.972   4.654 -0.4415 -0.2193  0.0846
 8974SOL    HW138384   4.599   1.991   4.634 -0.8118  0.7601 -0.7277
 8974SOL    HW238385   4.469   2.055   4.624  1.9142  0.2719 -1.5675
 8975SOL     OW38386   0.821   3.040   1.838 -0.3414 -0.0237  0.2823
 8975SOL    HW138387   0.748   3.101   1.852 -1.1183 -1.3326  1.8716
 8975SOL    HW238388   0.800   2.967   1.895 -0.4179  1.0341  1.6105
 8976SOL     OW38389   0.603   1.027   6.820  0.6874  0.2213 -0.4354
 8976SOL    HW138390   0.643   1.097   6.769  0.4020  2.5323  2.5451
 8976SOL    HW238391   0.637   1.051   6.906 -1.4236 -1.2808  0.8359
 8977SOL     OW38392   4.268   2.335   8.905 -0.8218 -0.1058 -0.0680
 8977SOL    HW138393   4.177   2.330   8.876 -1.2343 -1.1579  1.3615
 8977SOL    HW238394   4.264   2.273   8.978  1.3087  1.1332  1.0912
 8978SOL     OW38395   0.991   1.024  10.123 -0.6869 -0.2833  0.3832
 8978SOL    HW138396   0.941   1.092  10.169 -0.9344 -0.6660  0.6824
 8978SOL    HW238397   0.917   0.972  10.091 -1.9651  1.6686  0.1043
 8979SOL     OW38398   2.722   1.462   4.733 -0.1534  0.5921 -0.1284
 8979SOL    HW138399   2.798   1.423   4.775  1.1684  2.6984 -0.5518
 8979SOL    HW238400   2.656   1.425   4.791  1.5844 -2.1417  0.0748
 8980SOL     OW38401   2.577   1.270   0.252  0.0335  0.3428 -0.1507
 8980SOL    HW138402   2.492   1.304   0.280  0.8156  0.0650  2.5628
 8980SOL    HW238403   2.609   1.253   0.341 -0.8683  1.0860  0.3180
 8981SOL     OW38404   4.232   2.221   2.609 -0.5435  0.0300 -0.0481
 8981SOL    HW138405   4.170   2.240   2.539  0.4452  1.4420 -0.5252
 8981SOL    HW238406   4.240   2.125   2.604 -0.7062  0.0937 -1.3909
 8982SOL     OW38407   0.485   3.848   5.209 -0.1040 -1.0853  0.1359
 8982SOL    HW138408   0.463   3.844   5.302 -2.2080  1.0876 -0.2772
 8982SOL    HW238409   0.410   3.814   5.160  1.1102 -1.5738 -1.3869
 8983SOL     OW38410   4.196   3.420   5.520  0.2514  0.0716 -0.7725
 8983SOL    HW138411   4.175   3.513   5.530 -1.0072 -0.5498  2.1557
 8983SOL    HW238412   4.111   3.392   5.551  0.3228  2.7709  1.9350
 8984SOL     OW38413   4.562   2.136  15.737 -0.1599  0.2694 -0.0041
 8984SOL    HW138414   4.509   2.209  15.768  2.2473  2.7995 -1.7863
 8984SOL    HW238415   4.577   2.155  15.644 -3.5694  0.5800 -0.4824
 8985SOL     OW38416   3.853   3.636   6.655  0.0702  0.1295 -0.3067
 8985SOL    HW138417   3.908   3.709   6.685 -1.7547  0.4921  2.1157
 8985SOL    HW238418   3.916   3.567   6.676 -1.3319 -0.0393  3.3105
 8986SOL     OW38419   3.746   0.901   5.320 -0.4205 -0.1263  0.6924
 8986SOL    HW138420   3.767   0.838   5.390  0.0052 -1.3728 -0.5659
 8986SOL    HW238421   3.824   0.898   5.265 -1.5577  1.2039 -0.9629
 8987SOL     OW38422   3.902   2.223   9.081  0.1340  0.1052 -0.1296
 8987SOL    HW138423   3.947   2.299   9.118  1.0017  0.3003 -1.6146
 8987SOL    HW238424   3.816   2.231   9.124  0.2348 -0.5610  0.1981
 8988SOL     OW38425   4.139   1.374  13.822  0.5762  0.0468 -0.1756
 8988SOL    HW138426   4.152   1.343  13.733  2.7041  3.8257 -1.1470
 8988SOL    HW238427   4.096   1.294  13.853  1.4853  1.0829  3.7905
 8989SOL     OW38428   2.438   1.289   6.345  0.5352 -0.3565  0.0535
 8989SOL    HW138429   2.479   1.368   6.379  1.2192  0.5822 -2.9426
 8989SOL    HW238430   2.347   1.316   6.335  0.8998  0.7819 -0.1807
 8990SOL     OW38431   0.793   0.884  14.257  0.2253 -0.7846 -0.2099
 8990SOL    HW138432   0.717   0.828  14.273 -0.6825 -0.0421 -1.8456
 8990SOL    HW238433   0.749   0.958  14.214  1.3758 -0.1541 -0.3160
 8991SOL     OW38434   2.103   3.974   0.112  0.7115  0.3785 -0.5018
 8991SOL    HW138435   2.188   3.975   0.067  1.5193 -3.3382  0.9776
 8991SOL    HW238436   2.130   3.942   0.198 -1.3056 -1.4427 -0.5505
 8992SOL     OW38437   4.509   0.957  11.963 -0.0675 -0.5927  0.1324
 8992SOL    HW138438   4.489   0.895  12.033 -2.8636 -0.3743 -0.4690
 8992SOL    HW238439   4.531   1.031  12.020 -0.1063  0.1230 -0.7899
 8993SOL     OW38440   2.001   1.234  10.140  0.1337  0.0670 -0.0313
 8993SOL    HW138441   2.096   1.246  10.147  0.0787  2.0413 -2.7143
 8993SOL    HW238442   1.975   1.207  10.228 -0.3988  2.7568  0.6252
 8994SOL     OW38443   2.103   1.863   7.761  0.0480 -0.0933  0.6544
 8994SOL    HW138444   2.198   1.867   7.772  0.2740 -1.4734 -0.6695
 8994SOL    HW238445   2.073   1.930   7.822 -0.4435  1.3620 -1.1788
 8995SOL     OW38446   1.918   3.987   3.970  0.2175  0.0796  0.4594
 8995SOL    HW138447   1.880   3.912   4.016  0.7898 -0.8725 -0.6206
 8995SOL    HW238448   1.874   4.058   4.015 -2.3183  0.7036 -2.9581
 8996SOL     OW38449   0.449   2.406   8.809 -0.2559 -0.0148  0.6322
 8996SOL    HW138450   0.484   2.445   8.728  1.9039 -1.2477  0.9589
 8996SOL    HW238451   0.498   2.324   8.810  1.3121  0.9067  0.8073
 8997SOL     OW38452   0.050   0.544   9.001 -0.1266  0.1513 -0.3937
 8997SOL    HW138453   0.099   0.522   9.080  2.3312 -0.3672 -2.0498
 8997SOL    HW238454   0.123   0.590   8.959 -0.0002 -0.7949 -1.2460
 8998SOL     OW38455   2.030   3.165   7.174 -0.0619  0.3628  0.0579
 8998SOL    HW138456   1.954   3.213   7.207 -0.8737 -2.2827  2.0687
 8998SOL    HW238457   1.984   3.095   7.127 -0.0232  0.1342  0.3597
 8999SOL     OW38458   1.525   1.509  14.927  0.0607  0.2389 -0.1748
 8999SOL    HW138459   1.615   1.518  14.957  0.2017  1.8437 -1.0860
 8999SOL    HW238460   1.495   1.432  14.976 -0.8809  0.5294 -0.2839
 9000SOL     OW38461   2.758   3.202   7.070 -0.2895 -0.4805 -0.1756
 9000SOL    HW138462   2.718   3.215   6.984 -1.0649 -1.3200  0.0621
 9000SOL    HW238463   2.847   3.216   7.036 -0.2278  2.9140  1.4337
 9001SOL     OW38464   3.736   2.388   5.807 -0.2428 -0.1838  0.0522
 9001SOL    HW138465   3.700   2.348   5.886  0.2113  1.8552  1.2881
 9001SOL    HW238466   3.745   2.304   5.761  1.3482  0.5587 -0.9814
 9002SOL     OW38467   3.218   2.335   7.455 -0.6052  0.4468 -0.0503
 9002SOL    HW138468   3.259   2.420   7.444 -0.0162  0.7168  3.9980
 9002SOL    HW238469   3.210   2.330   7.550  0.2928  0.8813  0.0461
 9003SOL     OW38470   3.206   3.544  11.226  0.6836 -0.7467 -0.0039
 9003SOL    HW138471   3.174   3.567  11.313  0.8649 -2.3779  0.4927
 9003SOL    HW238472   3.283   3.491  11.250  1.6106  1.3980  1.7451
 9004SOL     OW38473   2.904   2.986  10.719  0.2648  0.4845  0.2271
 9004SOL    HW138474   2.929   2.894  10.711 -0.1773  0.5202 -1.5088
 9004SOL    HW238475   2.926   3.001  10.811  1.5843  0.7988 -0.1444
 9005SOL     OW38476   1.263   4.069   4.071  0.1919 -0.8578 -0.7816
 9005SOL    HW138477   1.228   4.016   4.143 -1.5228  2.5776  0.9026
 9005SOL    HW238478   1.358   4.062   4.084  0.0645 -1.6825 -0.2825
 9006SOL     OW38479   0.925   2.873   1.367 -0.0850  0.2081  0.8380
 9006SOL    HW138480   0.948   2.858   1.459  3.7199 -0.4899 -0.2076
 9006SOL    HW238481   0.856   2.938   1.380  1.3948  1.9348  0.0687
 9007SOL     OW38482   4.250   2.189   7.716  0.1676  0.2749  0.6083
 9007SOL    HW138483   4.235   2.097   7.737 -1.0914  0.1229 -0.9845
 9007SOL    HW238484   4.285   2.175   7.628 -1.8139 -1.9466  0.1920
 9008SOL     OW38485   2.743   4.230  15.010 -0.1701 -0.5407  0.2256
 9008SOL    HW138486   2.816   4.214  14.950  1.3333  2.3316  1.3232
 9008SOL    HW238487   2.719   4.144  15.045 -1.2671  0.5454  2.0970
 9009SOL     OW38488   2.140   0.552  10.014 -0.3877 -0.0101 -0.3294
 9009SOL    HW138489   2.141   0.489  10.086  0.0841  0.1170 -0.2297
 9009SOL    HW238490   2.120   0.639  10.049 -2.7862 -0.4000 -0.7474
 9010SOL     OW38491   0.103   4.388   7.630 -0.4968  0.2171  0.4197
 9010SOL    HW138492   0.018   4.391   7.674 -0.9583 -1.4327 -0.3619
 9010SOL    HW238493   0.122   4.294   7.635 -1.5044 -0.0321 -0.3582
 9011SOL     OW38494   1.531   3.597   7.674  1.1915 -0.2964 -0.3187
 9011SOL    HW138495   1.549   3.578   7.582  1.8195  1.0194 -0.4791
 9011SOL    HW238496   1.437   3.616   7.672  0.6506 -3.1240 -0.8331
 9012SOL     OW38497   3.164   3.344   3.273  0.1703  0.0302  0.4983
 9012SOL    HW138498   3.169   3.308   3.184 -0.2348 -1.6032  1.1250
 9012SOL    HW238499   3.212   3.425   3.254  1.7969 -1.2746 -1.0054
 9013SOL     OW38500   1.990   0.815   5.451 -0.5006  0.0118 -0.5737
 9013SOL    HW138501   2.015   0.851   5.536 -0.4189  0.3854 -0.7510
 9013SOL    HW238502   2.011   0.891   5.396  1.4368 -1.2554 -1.5917
 9014SOL     OW38503   3.737   1.547   8.565 -0.1637  0.0246  0.2632
 9014SOL    HW138504   3.674   1.559   8.636  0.2270 -2.1193  0.9803
 9014SOL    HW238505   3.726   1.452   8.552 -1.5944  0.3685 -1.0236
 9015SOL     OW38506   0.755   0.275  17.039 -0.1230  0.2379  0.1976
 9015SOL    HW138507   0.697   0.270  16.963 -1.1302  2.9589  0.7700
 9015SOL    HW238508   0.705   0.350  17.072  1.8155  0.5177  2.4963
 9016SOL     OW38509   1.555   2.433   8.926  0.0631 -0.3203  0.3651
 9016SOL    HW138510   1.521   2.399   8.843  0.4926 -1.9191  0.8555
 9016SOL    HW238511   1.646   2.406   8.930 -0.3898 -2.2657 -2.7909
 9017SOL     OW38512   1.164   0.596  16.412  0.2489  0.4308 -0.9479
 9017SOL    HW138513   1.088   0.544  16.389 -1.3883  2.7588 -0.7788
 9017SOL    HW238514   1.122   0.678  16.437 -0.0841 -0.2865  0.8314
 9018SOL     OW38515   1.755   2.419   4.570  0.0406  0.5391  0.7009
 9018SOL    HW138516   1.819   2.403   4.639  0.5193  0.6876  0.2865
 9018SOL    HW238517   1.815   2.424   4.496  1.9128 -2.6664  2.0390
 9019SOL     OW38518   3.818   3.158  16.780  0.4271  0.2349  0.2959
 9019SOL    HW138519   3.751   3.099  16.746  0.5842  0.3921 -0.2807
 9019SOL    HW238520   3.764   3.212  16.839  0.5103 -0.2993  0.8633
 9020SOL     OW38521   4.651   4.344   3.190  0.3811 -0.0489  0.5053
 9020SOL    HW138522   4.606   4.291   3.125  2.2406  0.0919 -0.8924
 9020SOL    HW238523   4.607   4.429   3.183  2.3165  0.8473 -0.8685
 9021SOL     OW38524   3.729   3.060   3.678 -0.1505 -0.4946  0.1765
 9021SOL    HW138525   3.660   2.994   3.675 -0.8104  0.2437 -1.2024
 9021SOL    HW238526   3.698   3.140   3.635  1.0067 -0.2238 -0.1716
 9022SOL     OW38527   0.575   2.014   7.803  0.4667 -0.0876 -0.1245
 9022SOL    HW138528   0.529   1.998   7.721  1.2112  1.9758 -0.9129
 9022SOL    HW238529   0.512   2.057   7.861  0.1400  1.9866 -2.0522
 9023SOL     OW38530   2.592   0.098   2.629 -0.1675 -0.6786  0.3522
 9023SOL    HW138531   2.543   0.055   2.698 -0.0946  1.2063  1.5725
 9023SOL    HW238532   2.668   0.040   2.620  0.7855  0.7639 -1.0755
 9024SOL     OW38533   1.092   4.610   8.357  0.2741  0.7714  0.0608
 9024SOL    HW138534   1.157   4.671   8.393  0.7440  0.9548 -1.1146
 9024SOL    HW238535   1.152   4.537   8.337 -1.5827 -0.2857 -1.5863
 9025SOL     OW38536   3.584   1.551  15.367 -0.2476  0.1855  0.4934
 9025SOL    HW138537   3.489   1.546  15.358 -0.3140  0.4933  1.0048
 9025SOL    HW238538   3.606   1.524  15.278 -0.6089 -2.9641  1.3625
 9026SOL     OW38539   2.746   4.531   6.508  0.4662 -0.1013  0.9314
 9026SOL    HW138540   2.790   4.483   6.438  0.4578  1.0180  0.1729
 9026SOL    HW238541   2.814   4.577   6.558  1.7550 -0.5309 -0.4205
 9027SOL     OW38542   3.675   0.663   1.922  0.1375  0.3435 -0.0415
 9027SOL    HW138543   3.611   0.734   1.924  0.4935  0.6427  0.4849
 9027SOL    HW238544   3.746   0.711   1.881  1.8205 -1.8388  0.3410
 9028SOL     OW38545   1.455   3.686  10.665  0.1959 -0.0377 -0.1366
 9028SOL    HW138546   1.488   3.651  10.582  0.2357 -1.1168  0.3221
 9028SOL    HW238547   1.539   3.701  10.709  0.3452 -1.5615  0.0984
 9029SOL     OW38548   1.391   3.258   5.016 -0.6214  0.3862 -0.7427
 9029SOL    HW138549   1.352   3.264   5.103  0.3743 -0.0439 -0.2714
 9029SOL    HW238550   1.357   3.336   4.972 -1.2918  1.4547  1.6565
 9030SOL     OW38551   0.729   0.533   9.295 -0.4210  0.0554 -0.1494
 9030SOL    HW138552   0.703   0.543   9.386 -0.0256  0.1777 -0.0467
 9030SOL    HW238553   0.697   0.445   9.276  0.7823 -0.4293  0.0310
 9031SOL     OW38554   1.475   2.433   5.269  0.3883  0.3418  0.3298
 9031SOL    HW138555   1.427   2.365   5.222 -0.9754  0.8047  1.0559
 9031SOL    HW238556   1.452   2.417   5.360  0.4078 -1.3655  0.0363
 9032SOL     OW38557   2.083   1.936   4.304  0.4110  0.7607 -0.6848
 9032SOL    HW138558   2.143   1.939   4.378  0.3043  0.1903 -0.5692
 9032SOL    HW238559   2.144   1.972   4.240 -0.3075  0.5869 -1.4746
 9033SOL     OW38560   3.363   0.600  12.916  0.4613  0.1455 -0.0289
 9033SOL    HW138561   3.325   0.512  12.909 -0.0559  0.3469  0.2957
 9033SOL    HW238562   3.303   0.654  12.967 -0.2609 -1.3975  0.7836
 9034SOL     OW38563   2.560   3.470  11.735 -0.4225  0.2482 -0.0141
 9034SOL    HW138564   2.619   3.503  11.667 -1.3815  0.4302 -0.7636
 9034SOL    HW238565   2.473   3.494  11.703 -0.9507  0.3621  1.5114
 9035SOL     OW38566   0.067   0.783   5.110 -0.1844  0.2885  0.0059
 9035SOL    HW138567   0.042   0.789   5.018  2.8679  1.7142 -0.7198
 9035SOL    HW238568   4.713   0.796   5.158 -0.4087  1.0202 -0.5685
 9036SOL     OW38569   3.871   0.926   5.013  0.2789 -0.3740  0.1627
 9036SOL    HW138570   3.806   0.885   4.955 -1.6677  0.5347  1.7105
 9036SOL    HW238571   3.898   0.849   5.062  2.3152 -0.2061 -0.6788
 9037SOL     OW38572   3.016   0.385   7.393  0.1948  0.4749 -0.0223
 9037SOL    HW138573   2.934   0.435   7.394 -0.5099 -0.6563 -0.6158
 9037SOL    HW238574   3.046   0.403   7.304  0.6775  2.0825  0.4682
 9038SOL     OW38575   1.818   0.885   6.781  0.2364  0.6810  0.5700
 9038SOL    HW138576   1.873   0.960   6.761  1.5082 -0.0216  1.4902
 9038SOL    HW238577   1.816   0.847   6.693 -1.4284 -1.3610  1.4946
 9039SOL     OW38578   3.524   2.723  12.145 -0.2235  0.6961  0.4912
 9039SOL    HW138579   3.490   2.806  12.113  0.1104  0.6212 -0.0462
 9039SOL    HW238580   3.552   2.674  12.068 -2.3256 -1.6224  1.2045
 9040SOL     OW38581   3.296   1.602   4.024  0.9292 -0.4029  0.1123
 9040SOL    HW138582   3.219   1.549   4.043  1.7244 -1.2923  0.8021
 9040SOL    HW238583   3.368   1.554   4.065 -0.8545 -2.2780  1.0159
 9041SOL     OW38584   2.533   3.301  15.031 -0.2563  0.4244 -0.3471
 9041SOL    HW138585   2.530   3.363  14.959 -0.0997  1.4933  0.5642
 9041SOL    HW238586   2.626   3.281  15.039 -0.7706 -1.7275  0.4418
 9042SOL     OW38587   0.064   0.134   7.640  0.2896  0.0450  0.3741
 9042SOL    HW138588   0.150   0.175   7.649  1.1560 -1.7790  0.3196
 9042SOL    HW238589   0.038   0.143   7.731 -1.0417 -0.8786  0.0826
 9043SOL     OW38590   0.441   2.695   1.497  0.2816  0.4304 -0.2131
 9043SOL    HW138591   0.507   2.685   1.428 -0.3067  0.2966 -0.7534
 9043SOL    HW238592   0.504   2.719   1.565  0.3042  0.6269 -0.3025
 9044SOL     OW38593   1.993   0.696  11.398 -0.6336  0.6112 -0.1150
 9044SOL    HW138594   2.009   0.790  11.406  3.2845 -0.0893  0.6226
 9044SOL    HW238595   1.898   0.693  11.394 -0.6026 -0.7311  0.3459
 9045SOL     OW38596   3.989   2.736   6.030 -0.9041  0.0884 -0.2643
 9045SOL    HW138597   4.016   2.699   5.946 -2.0362 -0.9842 -0.1659
 9045SOL    HW238598   4.067   2.714   6.081  0.0433 -1.1098 -2.2238
 9046SOL     OW38599   3.467   3.092   3.016  0.6823  0.1157 -0.2728
 9046SOL    HW138600   3.561   3.085   3.034  0.2639 -0.1942  1.7743
 9046SOL    HW238601   3.455   2.997   3.011 -0.6596  0.2913 -0.4204
 9047SOL     OW38602   4.058   2.713   5.146 -0.6001  0.4342  0.0487
 9047SOL    HW138603   4.081   2.690   5.236  1.3385  0.8546 -0.3573
 9047SOL    HW238604   3.963   2.710   5.158 -0.5917 -1.2050 -0.1815
 9048SOL     OW38605   1.943   3.569   8.487 -0.1016  0.5580  0.1461
 9048SOL    HW138606   1.857   3.538   8.459  0.4255 -1.5950  0.8988
 9048SOL    HW238607   1.987   3.487   8.467 -1.8748  0.2591 -2.4449
 9049SOL     OW38608   2.427   3.729  13.932 -0.7190 -0.3346  0.5826
 9049SOL    HW138609   2.442   3.817  13.968 -0.2887 -1.2009  2.5027
 9049SOL    HW238610   2.445   3.674  14.008 -0.4240 -1.9463 -0.6548
 9050SOL     OW38611   4.379   3.256  17.130  0.4379  0.1779 -0.0539
 9050SOL    HW138612   4.383   3.194  17.057  3.2783  0.5875 -0.2553
 9050SOL    HW238613   4.470   3.256  17.160 -0.1151 -1.0122  1.6120
 9051SOL     OW38614   2.735   1.434   6.116 -0.1817 -0.4161  0.0410
 9051SOL    HW138615   2.809   1.465   6.063 -0.4145 -0.6491 -0.4188
 9051SOL    HW238616   2.742   1.481   6.199 -1.6618 -1.6151  0.8488
 9052SOL     OW38617   4.319   2.502   1.929 -0.0052  0.4389 -0.9901
 9052SOL    HW138618   4.307   2.510   1.835  2.3393  0.9704 -1.2339
 9052SOL    HW238619   4.395   2.444   1.929  0.0309  0.4667  0.8670
 9053SOL     OW38620   3.484   2.832   2.926  0.4496  0.1761  0.2541
 9053SOL    HW138621   3.500   2.742   2.957 -0.1274 -0.2121 -0.5682
 9053SOL    HW238622   3.533   2.831   2.843  2.5912  0.6020  1.5101
 9054SOL     OW38623   3.228   1.610  13.954 -0.2430  0.2927 -0.3306
 9054SOL    HW138624   3.146   1.603  13.906 -0.4213 -0.1690  0.0333
 9054SOL    HW238625   3.280   1.537  13.918  1.7507  1.9460 -0.8041
 9055SOL     OW38626   2.240   1.540   4.922  0.2837  0.0529 -0.3568
 9055SOL    HW138627   2.232   1.542   5.017  2.1972  0.9567 -0.2099
 9055SOL    HW238628   2.149   1.527   4.895  0.6308 -0.2670 -1.3980
 9056SOL     OW38629   0.036   1.536  14.930  0.4906 -0.0314 -0.5719
 9056SOL    HW138630   0.123   1.567  14.904  0.5261  0.5289  0.2272
 9056SOL    HW238631   0.027   1.452  14.885  1.4432 -0.2239 -0.3855
 9057SOL     OW38632   2.632   3.700   0.549 -0.1936  0.0808  0.1502
 9057SOL    HW138633   2.569   3.752   0.499 -1.2013 -2.5361 -1.3141
 9057SOL    HW238634   2.710   3.745   0.517  0.3429 -0.5681  0.5446
 9058SOL     OW38635   1.256   3.783  16.715  0.0235  0.2313  0.4232
 9058SOL    HW138636   1.200   3.778  16.792 -1.0820 -0.3577 -0.4275
 9058SOL    HW238637   1.344   3.765  16.751  0.6712  0.1772 -1.2087
 9059SOL     OW38638   4.490   1.515  16.439  0.0328  0.3699  0.0403
 9059SOL    HW138639   4.436   1.578  16.391  0.2212  2.0640  2.0430
 9059SOL    HW238640   4.552   1.575  16.481  0.9047  0.0044 -0.7407
 9060SOL     OW38641   3.415   1.986   2.691  0.0566  0.1825  0.1136
 9060SOL    HW138642   3.400   2.038   2.613 -1.6637 -0.2968  0.1309
 9060SOL    HW238643   3.346   1.920   2.686  0.7758 -0.7383  1.8857
 9061SOL     OW38644   3.847   0.376  17.083  0.0075  0.2823 -0.2864
 9061SOL    HW138645   3.763   0.338  17.059 -0.4713  0.9825  0.2759
 9061SOL    HW238646   3.913   0.357  17.016  1.4370  0.8446  0.9656
 9062SOL     OW38647   2.905   1.632   4.641  0.2820 -0.0897 -0.4855
 9062SOL    HW138648   2.826   1.581   4.658 -0.2636  0.7534 -0.4436
 9062SOL    HW238649   2.972   1.586   4.690 -1.4306 -1.8761  0.1844
 9063SOL     OW38650   4.282   2.932   2.741  0.8192  0.1102  0.3645
 9063SOL    HW138651   4.360   2.920   2.795  0.1221 -0.3158  1.2730
 9063SOL    HW238652   4.300   3.010   2.689  2.1032 -0.2216  0.3221
 9064SOL     OW38653   1.578   4.331   4.250 -0.6389 -0.5667  0.1171
 9064SOL    HW138654   1.491   4.372   4.249 -1.0012 -1.3838 -3.0805
 9064SOL    HW238655   1.603   4.350   4.340  0.3078 -1.5578  0.0555
 9065SOL     OW38656   4.173   0.518   5.854  0.7580  0.7223 -0.0741
 9065SOL    HW138657   4.154   0.612   5.845 -0.6280  0.2370 -1.9451
 9065SOL    HW238658   4.255   0.526   5.805  1.3936  0.9011  1.0150
 9066SOL     OW38659   3.781   3.003   8.297  0.2719  0.3464 -0.6901
 9066SOL    HW138660   3.691   3.001   8.330  0.5137  0.2296 -0.0363
 9066SOL    HW238661   3.802   2.909   8.292 -1.1983  0.0283 -0.9256
 9067SOL     OW38662   4.350   0.418   3.306  0.6076 -0.0486 -0.3131
 9067SOL    HW138663   4.298   0.479   3.358 -0.6064 -2.4902  1.3497
 9067SOL    HW238664   4.316   0.332   3.330 -0.9860 -0.1978 -3.1148
 9068SOL     OW38665   3.047   3.191   2.870  0.0743  0.1257  0.1626
 9068SOL    HW138666   3.087   3.105   2.882 -0.4184 -0.1873 -0.4733
 9068SOL    HW238667   3.117   3.249   2.901 -0.8671  1.7639 -0.7912
 9069SOL     OW38668   4.589   4.192   4.304  0.0063  0.0481 -0.0567
 9069SOL    HW138669   4.636   4.275   4.295 -1.8342  1.0878 -0.0803
 9069SOL    HW238670   4.584   4.186   4.399  0.2756 -1.8059 -0.1587
 9070SOL     OW38671   2.500   0.618   5.009  0.2331 -0.3139  0.1448
 9070SOL    HW138672   2.440   0.686   5.041  1.6318  0.9969  0.0201
 9070SOL    HW238673   2.496   0.553   5.078 -2.6611 -0.8582 -0.5034
 9071SOL     OW38674   2.189   1.052   6.242  0.0675  0.8692 -0.1562
 9071SOL    HW138675   2.116   1.019   6.189 -1.3945  0.3364  2.1939
 9071SOL    HW238676   2.180   1.144   6.218 -0.6690  1.2756  1.7329
 9072SOL     OW38677   2.089   2.941   4.195 -0.1895 -0.0219 -0.3709
 9072SOL    HW138678   2.076   2.930   4.101  0.3482  1.8369 -0.6511
 9072SOL    HW238679   2.027   2.872   4.221 -1.4118  0.3503 -2.2845
 9073SOL     OW38680   1.574   1.716   9.057 -0.2705  0.5430 -0.1775
 9073SOL    HW138681   1.573   1.620   9.059 -0.2438  0.5302 -0.8427
 9073SOL    HW238682   1.491   1.735   9.100 -0.8602  0.2463 -1.2159
 9074SOL     OW38683   0.160   2.819   6.331 -0.0382  0.3059 -0.3286
 9074SOL    HW138684   0.201   2.888   6.383  1.6922 -2.7292  2.3936
 9074SOL    HW238685   0.191   2.841   6.243  2.5267 -0.1125  0.4763
 9075SOL     OW38686   4.251   0.710   6.837 -0.3663  0.0019 -0.3977
 9075SOL    HW138687   4.240   0.786   6.895  0.6135 -0.6713  0.6684
 9075SOL    HW238688   4.243   0.744   6.748  0.4354  0.3033 -0.3496
 9076SOL     OW38689   1.023   2.305   5.139 -0.1486  0.1159 -0.5242
 9076SOL    HW138690   0.946   2.262   5.176 -0.5824  2.6766  1.5467
 9076SOL    HW238691   1.016   2.289   5.045  2.2105 -5.0464  0.1368
 9077SOL     OW38692   1.296   3.167   5.770  0.0571  0.0836  0.2401
 9077SOL    HW138693   1.263   3.078   5.779  1.2314 -0.0189  3.4515
 9077SOL    HW238694   1.292   3.174   5.675  0.3305  0.4051  0.2502
 9078SOL     OW38695   0.571   1.941   6.861  0.3435  0.1459 -0.1518
 9078SOL    HW138696   0.518   2.016   6.889 -1.6308 -1.7207  1.0758
 9078SOL    HW238697   0.586   1.974   6.772 -1.8753 -0.7954 -0.8512
 9079SOL     OW38698   4.546   1.090  17.238  0.0402 -0.3226 -0.3360
 9079SOL    HW138699   4.454   1.107  17.218 -0.1722 -0.4910  0.5223
 9079SOL    HW238700   4.536   1.001  17.269  1.1928 -0.3558 -0.0317
 9080SOL     OW38701   4.464   1.712   4.603  0.4114  0.3078  0.1367
 9080SOL    HW138702   4.476   1.805   4.618 -0.1304  0.1879  1.3164
 9080SOL    HW238703   4.371   1.705   4.623  0.2025  2.0920 -0.2912
 9081SOL     OW38704   4.007   0.395  16.272 -0.1820 -0.3008 -0.0507
 9081SOL    HW138705   4.042   0.484  16.277 -1.0259  0.0363 -0.1978
 9081SOL    HW238706   3.982   0.390  16.364  1.9744 -0.5524  0.5209
 9082SOL     OW38707   2.703   1.128   1.840  0.1069  0.1039  0.0981
 9082SOL    HW138708   2.721   1.200   1.780 -3.0336  0.0746 -0.8921
 9082SOL    HW238709   2.789   1.089   1.857  0.6750  1.1987 -0.2790
 9083SOL     OW38710   3.747   0.865   4.350  0.0437 -0.3542 -0.5110
 9083SOL    HW138711   3.706   0.895   4.268 -0.4779  0.9123  0.2298
 9083SOL    HW238712   3.810   0.935   4.362 -0.0681 -0.5241  0.9681
 9084SOL     OW38713   1.568   2.833   2.861  0.0488  0.2991 -0.2842
 9084SOL    HW138714   1.482   2.799   2.838  0.3264 -0.2971 -0.4639
 9084SOL    HW238715   1.616   2.755   2.891 -1.6132 -0.6090 -0.0118
 9085SOL     OW38716   1.517   0.317   4.404  0.3879  0.0464  0.2570
 9085SOL    HW138717   1.436   0.315   4.353  0.0905  1.0072  0.6874
 9085SOL    HW238718   1.536   0.411   4.400 -1.1642  0.3439  0.0546
 9086SOL     OW38719   1.092   0.290   7.086  0.1875  0.4364  0.0063
 9086SOL    HW138720   1.131   0.373   7.058  1.7750  0.1974  1.5693
 9086SOL    HW238721   1.169   0.236   7.069  0.1271  0.1887  0.5186
 9087SOL     OW38722   1.174   2.217  17.698 -0.2117  0.5023 -0.0475
 9087SOL    HW138723   1.194   2.282  17.630 -0.0963  1.1624  0.6142
 9087SOL    HW238724   1.234   2.147  17.673 -2.0608 -0.7242 -1.0211
 9088SOL     OW38725   1.351   3.524  17.638 -0.3567  0.2858  0.6636
 9088SOL    HW138726   1.354   3.435  17.673  1.7676  0.3933  0.7120
 9088SOL    HW238727   1.260   3.548  17.659 -1.1931 -0.7339 -1.7605
 9089SOL     OW38728   1.514   4.125   9.181 -0.2397 -0.0976  0.7353
 9089SOL    HW138729   1.505   4.091   9.092 -1.9700  3.1811 -0.3553
 9089SOL    HW238730   1.499   4.044   9.231 -0.8091  0.6077  1.7207
 9090SOL     OW38731   1.372   2.229  10.548  0.2767  0.1754 -0.4986
 9090SOL    HW138732   1.438   2.210  10.615  0.4885  1.3695 -0.3550
 9090SOL    HW238733   1.383   2.323  10.530  2.5877 -0.1176 -0.5584
 9091SOL     OW38734   0.884   4.018   6.472  0.4085 -0.3742 -0.3362
 9091SOL    HW138735   0.924   4.103   6.453 -1.9169  1.1679  1.6734
 9091SOL    HW238736   0.921   3.951   6.414 -1.1523 -0.1322 -1.5842
 9092SOL     OW38737   0.229   3.431   5.212 -0.1864 -0.4838  0.1031
 9092SOL    HW138738   0.286   3.400   5.282  1.6972 -0.4634 -1.4165
 9092SOL    HW238739   0.141   3.428   5.251  0.2524 -1.0813  1.0247
 9093SOL     OW38740   3.606   1.079   2.428 -0.4951 -0.3252 -0.3245
 9093SOL    HW138741   3.651   1.126   2.498  0.4171 -0.7531 -0.6187
 9093SOL    HW238742   3.684   1.038   2.390  0.3810  0.7114  0.3678
 9094SOL     OW38743   4.252   2.383   1.015 -0.2818  0.2099  0.6492
 9094SOL    HW138744   4.304   2.304   1.000 -1.8730 -0.6007 -0.6434
 9094SOL    HW238745   4.165   2.345   1.011 -0.4751  0.6663  0.4942
 9095SOL     OW38746   2.948   3.790   5.060 -0.0870 -0.0199  0.2092
 9095SOL    HW138747   2.904   3.720   5.107  1.8488 -1.7283 -0.4951
 9095SOL    HW238748   3.041   3.766   5.054  0.3081  2.2586 -2.8858
 9096SOL     OW38749   2.827   3.484   5.490 -0.4155 -0.0858  0.1173
 9096SOL    HW138750   2.857   3.403   5.532 -1.9312 -0.6018  0.2173
 9096SOL    HW238751   2.735   3.469   5.514 -0.9972  1.0027 -1.4884
 9097SOL     OW38752   3.240   3.898  14.947 -0.3625  0.0317  0.7808
 9097SOL    HW138753   3.265   3.827  15.006 -0.0554 -0.0300  0.5717
 9097SOL    HW238754   3.325   3.938  14.932 -0.4271  0.5393  1.7969
 9098SOL     OW38755   1.206   2.715   8.324  0.2037  0.8016 -0.1304
 9098SOL    HW138756   1.224   2.796   8.277 -0.5568  0.4443 -1.0423
 9098SOL    HW238757   1.129   2.690   8.273 -0.1015  2.1480 -0.3293
 9099SOL     OW38758   0.925   2.149   0.099  0.6637 -0.3292  0.2305
 9099SOL    HW138759   1.012   2.160   0.061  1.1430 -2.7753  0.6396
 9099SOL    HW238760   0.860   2.173   0.032  1.8879 -0.3751 -0.9809
 9100SOL     OW38761   4.217   1.241  15.068  0.2644 -0.9204  0.0379
 9100SOL    HW138762   4.223   1.190  15.149  0.0681 -0.9358  0.0436
 9100SOL    HW238763   4.287   1.205  15.014 -0.8901 -0.7086 -1.6048
 9101SOL     OW38764   4.351   0.677   4.579 -0.0261  0.6031  0.4500
 9101SOL    HW138765   4.259   0.677   4.553 -0.2874 -0.2175  1.3959
 9101SOL    HW238766   4.343   0.695   4.672 -0.7372 -0.6105  0.6166
 9102SOL     OW38767   3.928   3.249  17.173  0.4430 -0.6019  0.4073
 9102SOL    HW138768   3.837   3.222  17.163  0.1211  1.1312 -1.4380
 9102SOL    HW238769   3.942   3.240  17.267 -1.1041 -0.1391  0.6752
 9103SOL     OW38770   2.117   3.651   2.350  0.2165  0.5051 -0.2112
 9103SOL    HW138771   2.038   3.639   2.298  0.7242  0.2150 -0.9230
 9103SOL    HW238772   2.175   3.664   2.275 -2.5533  1.7834 -2.1197
 9104SOL     OW38773   4.679   3.253   3.008 -0.0598  0.5915 -0.0177
 9104SOL    HW138774   4.622   3.180   2.983  0.5343  0.0574  0.1721
 9104SOL    HW238775   0.042   3.232   2.987  0.1526  0.7227  0.8055
 9105SOL     OW38776   2.265   1.200   5.154  0.0100  0.1521  0.0863
 9105SOL    HW138777   2.199   1.269   5.162  0.1955  0.4278 -0.7938
 9105SOL    HW238778   2.347   1.248   5.168 -1.0243  2.3087 -1.3424
 9106SOL     OW38779   2.643   1.096   6.781 -0.1126  0.1438 -0.2788
 9106SOL    HW138780   2.639   1.036   6.856  0.7842  0.7170  0.2243
 9106SOL    HW238781   2.553   1.128   6.784 -0.8698 -2.0454  0.4795
 9107SOL     OW38782   4.628   0.413  13.497  0.4851 -0.0243  0.1579
 9107SOL    HW138783   4.719   0.441  13.499  0.4752  0.3595 -3.2109
 9107SOL    HW238784   4.604   0.503  13.473 -1.9180 -0.3793  1.1895
 9108SOL     OW38785   2.187   1.584   2.215 -0.4202  0.3620  0.1489
 9108SOL    HW138786   2.185   1.489   2.230  2.9362  0.3807  0.6291
 9108SOL    HW238787   2.274   1.596   2.252 -0.6277  1.4373  0.2815
 9109SOL     OW38788   0.681   3.582   5.494 -0.9826  0.0264  0.2470
 9109SOL    HW138789   0.648   3.554   5.409 -0.5328  2.0747 -0.6156
 9109SOL    HW238790   0.676   3.502   5.546  0.9593 -1.2499 -1.5125
 9110SOL     OW38791   3.647   1.429   5.179 -0.1768 -0.2007  0.2722
 9110SOL    HW138792   3.552   1.442   5.183 -0.6011 -2.3934 -2.4470
 9110SOL    HW238793   3.654   1.352   5.236  0.5840 -1.3191 -1.3175
 9111SOL     OW38794   3.500   1.883  14.785 -0.1606 -0.0281  0.5498
 9111SOL    HW138795   3.461   1.873  14.872 -1.8785  2.4889  0.0416
 9111SOL    HW238796   3.549   1.801  14.781 -0.2899  0.0031 -1.5599
 9112SOL     OW38797   1.348   1.301   8.527 -0.1884  0.3759  0.0162
 9112SOL    HW138798   1.408   1.375   8.536  0.2909 -0.0111 -0.0010
 9112SOL    HW238799   1.390   1.236   8.582 -0.0988  1.3203  1.0687
 9113SOL     OW38800   2.092   3.548  17.267  0.4315  0.3315 -0.1142
 9113SOL    HW138801   2.003   3.578  17.284  1.0618  1.7444  0.6521
 9113SOL    HW238802   2.144   3.614  17.221  0.5155  1.4501  1.6135
 9114SOL     OW38803   4.477   0.885  12.234  0.2188  0.3709 -0.1946
 9114SOL    HW138804   4.563   0.864  12.269  0.7839 -0.0416 -1.8548
 9114SOL    HW238805   4.480   0.980  12.221 -0.6193  0.7620  2.4801
 9115SOL     OW38806   2.304   0.173   1.145 -0.3922 -0.2882 -0.3103
 9115SOL    HW138807   2.392   0.172   1.108  0.1365 -1.0067  0.9655
 9115SOL    HW238808   2.252   0.139   1.072  1.9316 -1.1049 -1.6017
 9116SOL     OW38809   2.561   0.466   3.632 -0.2315  0.1139 -0.3428
 9116SOL    HW138810   2.644   0.504   3.602  0.7102 -1.9386 -0.3012
 9116SOL    HW238811   2.580   0.489   3.723 -1.3268  1.3475 -0.4323
 9117SOL     OW38812   3.247   2.887   9.514 -0.2265  0.4199  0.3762
 9117SOL    HW138813   3.279   2.799   9.494  2.4210  0.9311  2.2283
 9117SOL    HW238814   3.210   2.855   9.596  0.8464  1.8809  1.4434
 9118SOL     OW38815   4.234   3.993   4.983 -0.0911 -1.0474  0.4335
 9118SOL    HW138816   4.185   3.912   4.993 -2.9786  0.8592  1.6155
 9118SOL    HW238817   4.196   4.042   5.056  0.7900 -0.9172  0.8135
 9119SOL     OW38818   3.200   0.245  16.261 -0.7677  0.7275  0.2209
 9119SOL    HW138819   3.187   0.185  16.188 -1.5313  0.4833  0.5630
 9119SOL    HW238820   3.149   0.321  16.233 -1.3412 -0.0441 -0.8384
 9120SOL     OW38821   2.789   0.699   8.315  0.7208  0.1914 -0.5504
 9120SOL    HW138822   2.861   0.636   8.323  0.8289  0.5220  1.2973
 9120SOL    HW238823   2.835   0.772   8.358  1.2523  0.6992 -2.0028
 9121SOL     OW38824   1.210   0.021  15.623 -0.6126  0.2198 -0.0524
 9121SOL    HW138825   1.235   0.051  15.710  3.1545  2.3104 -1.8804
 9121SOL    HW238826   1.152   0.095  15.603  0.7954  1.3336 -0.0182
 9122SOL     OW38827   0.393   0.702   4.052 -0.0465  0.0294 -0.2487
 9122SOL    HW138828   0.483   0.712   4.022 -1.3016  1.3536 -3.6029
 9122SOL    HW238829   0.342   0.730   3.976 -1.9963  1.4194  1.6058
 9123SOL     OW38830   3.193   2.447   7.749  0.2753 -0.1625 -0.0321
 9123SOL    HW138831   3.133   2.471   7.820 -1.1737  0.1647 -1.3626
 9123SOL    HW238832   3.261   2.514   7.748 -1.0269  1.1592 -0.0955
 9124SOL     OW38833   2.076   2.334   8.807  0.1100 -0.7322 -0.4206
 9124SOL    HW138834   2.160   2.355   8.766  0.3461 -0.5001  0.1784
 9124SOL    HW238835   2.104   2.317   8.897 -1.3279  0.3195  0.2275
 9125SOL     OW38836   2.791   0.204   7.434 -0.0907 -0.5429  0.6297
 9125SOL    HW138837   2.882   0.210   7.404  0.6729 -0.8991  2.8205
 9125SOL    HW238838   2.769   0.115   7.405  0.7392 -0.0596 -1.4885
 9126SOL     OW38839   0.943   4.017  16.857 -0.2548 -0.1138 -0.6787
 9126SOL    HW138840   0.997   3.938  16.862 -0.0462  0.2337  2.6283
 9126SOL    HW238841   0.866   3.959  16.861  1.0587 -1.7461  0.7964
 9127SOL     OW38842   0.085   2.317  17.163 -0.0531 -0.1152 -0.5996
 9127SOL    HW138843   4.718   2.307  17.163 -0.2794  1.8862 -0.7079
 9127SOL    HW238844   0.094   2.374  17.087  1.1869  1.3030  0.5952
 9128SOL     OW38845   4.627   2.826  12.539 -0.1509 -0.1711 -0.6327
 9128SOL    HW138846   4.633   2.899  12.600 -1.5606 -0.2031 -0.4657
 9128SOL    HW238847   4.576   2.855  12.463 -0.3476 -0.3034 -0.5518
 9129SOL     OW38848   0.148   3.000   3.747  0.2426  0.5775  0.1606
 9129SOL    HW138849   0.120   2.942   3.677 -0.5844  0.9019  0.2255
 9129SOL    HW238850   0.076   3.054   3.779 -0.6817 -0.6182  0.0701
 9130SOL     OW38851   2.976   1.695   4.375  0.3685  0.5951 -0.5267
 9130SOL    HW138852   3.059   1.743   4.388 -0.4511  1.4212  1.7021
 9130SOL    HW238853   2.954   1.673   4.465 -1.8905  1.6344 -0.8436
 9131SOL     OW38854   1.174   1.604   9.107  0.4376 -0.5330  0.4556
 9131SOL    HW138855   1.079   1.596   9.116 -0.0479  1.5761 -3.0979
 9131SOL    HW238856   1.192   1.523   9.058 -1.0029  0.7618 -2.1753
 9132SOL     OW38857   1.289   0.483   2.672  0.2065 -0.4961 -0.0586
 9132SOL    HW138858   1.373   0.528   2.674  0.1176 -0.3804  0.9634
 9132SOL    HW238859   1.236   0.546   2.720 -0.9902 -1.3307 -0.2622
 9133SOL     OW38860   3.298   3.131   7.412 -0.4020 -0.3910 -0.1554
 9133SOL    HW138861   3.348   3.211   7.398 -1.2916  0.3458  0.7983
 9133SOL    HW238862   3.211   3.167   7.431 -0.7621  0.3096 -3.1688
 9134SOL     OW38863   0.652   4.345   3.225 -0.2814 -0.0289  0.2411
 9134SOL    HW138864   0.620   4.317   3.140 -2.0040  1.9140  0.2441
 9134SOL    HW238865   0.581   4.305   3.276  0.2635 -1.2193  0.0603
 9135SOL     OW38866   0.804   1.060   7.751 -0.0377 -1.1426 -0.4115
 9135SOL    HW138867   0.860   1.021   7.819 -1.6963 -1.0686  0.9782
 9135SOL    HW238868   0.720   1.060   7.797  0.2271 -1.1372  0.0782
 9136SOL     OW38869   4.453   1.226   7.187  0.2214 -0.7815  0.3648
 9136SOL    HW138870   4.385   1.213   7.253  1.9537 -3.4425  1.6356
 9136SOL    HW238871   4.411   1.194   7.107  0.1387 -1.0417  0.5122
 9137SOL     OW38872   1.010   0.405  16.967  0.2305 -0.4499  0.3565
 9137SOL    HW138873   1.031   0.317  16.998  0.5053 -0.2597  0.7093
 9137SOL    HW238874   1.088   0.446  17.004  0.4985  0.7009 -1.4760
 9138SOL     OW38875   3.348   4.178   8.712  0.2938 -0.2690 -0.2618
 9138SOL    HW138876   3.423   4.237   8.706  0.7509 -0.8267 -0.0076
 9138SOL    HW238877   3.383   4.112   8.652  0.7627  0.1586 -0.4546
 9139SOL     OW38878   2.435   3.516  10.550 -0.7213 -0.6370 -0.1306
 9139SOL    HW138879   2.515   3.543  10.505  0.5006 -1.3623  1.5937
 9139SOL    HW238880   2.378   3.592  10.535 -0.3690 -0.5038 -0.7924
 9140SOL     OW38881   1.531   2.998   5.913  0.2690 -0.4173 -0.2119
 9140SOL    HW138882   1.583   2.919   5.926 -1.4367 -1.2024  1.7354
 9140SOL    HW238883   1.459   2.973   5.970  0.0346 -1.1324 -0.8177
 9141SOL     OW38884   0.912   3.858  16.520  0.3064  0.5795  0.3155
 9141SOL    HW138885   0.900   3.814  16.605 -3.0202  2.3509  0.7450
 9141SOL    HW238886   0.987   3.805  16.493  0.6945  0.4673  1.5731
 9142SOL     OW38887   3.230   0.102   2.376 -0.7901 -0.0975  0.9417
 9142SOL    HW138888   3.275   0.039   2.433 -1.1722 -0.2224  1.1120
 9142SOL    HW238889   3.214   0.054   2.295  1.9471 -0.9767  0.9268
 9143SOL     OW38890   3.951   2.712   3.546 -0.2557 -0.0728 -0.6650
 9143SOL    HW138891   3.889   2.682   3.612  1.4563 -2.0657  0.0351
 9143SOL    HW238892   3.993   2.634   3.508  0.6106  1.1780 -2.2829
 9144SOL     OW38893   0.871   1.289  11.227  0.0724 -0.5187 -0.2374
 9144SOL    HW138894   0.962   1.269  11.210 -0.1311 -1.3965 -0.2761
 9144SOL    HW238895   0.832   1.205  11.249 -0.7671  0.4067  1.8015
 9145SOL     OW38896   0.434   4.188   2.650  0.0228 -0.4558  0.0116
 9145SOL    HW138897   0.512   4.237   2.626 -0.5605 -1.1599 -3.2111
 9145SOL    HW238898   0.373   4.262   2.658  1.2167  0.6072 -0.6489
 9146SOL     OW38899   1.795   0.360  12.476  0.5085 -0.1468  0.0672
 9146SOL    HW138900   1.834   0.436  12.519  0.5139 -0.4550  0.6068
 9146SOL    HW238901   1.782   0.393  12.387  0.4193  1.9492  0.8612
 9147SOL     OW38902   1.578   1.858   3.096 -0.0382  0.2471 -0.1502
 9147SOL    HW138903   1.536   1.820   3.019 -0.7612  2.8664 -1.0558
 9147SOL    HW238904   1.594   1.945   3.058 -0.3881  1.5395  2.6045
 9148SOL     OW38905   0.435   4.202   3.334  0.6367  0.3614  0.6548
 9148SOL    HW138906   0.367   4.269   3.339  0.5697  0.2603  1.0505
 9148SOL    HW238907   0.407   4.124   3.381 -0.1764  0.0941 -0.2824
 9149SOL     OW38908   0.099   0.985  10.990 -0.0483  0.5282  0.4898
 9149SOL    HW138909   0.009   0.953  10.989  1.1707 -2.8834 -0.0050
 9149SOL    HW238910   0.119   0.991  11.083 -1.3870 -0.5992  0.8435
 9150SOL     OW38911   4.077   0.160   0.746 -0.0424  0.6215 -0.1455
 9150SOL    HW138912   4.031   0.096   0.801 -1.1918  2.0811  0.5871
 9150SOL    HW238913   4.164   0.121   0.745 -0.6994 -0.9017  1.5625
 9151SOL     OW38914   0.949   3.526  13.938  0.3347 -0.6475  0.0354
 9151SOL    HW138915   0.902   3.609  13.935  0.3770 -0.6514 -0.7637
 9151SOL    HW238916   0.955   3.526  13.842  0.8673  0.4538  0.0793
 9152SOL     OW38917   4.281   0.811  14.805  0.0738  0.5006 -0.1298
 9152SOL    HW138918   4.300   0.876  14.872  1.0277  0.6728 -0.5701
 9152SOL    HW238919   4.372   0.791  14.782 -0.2537 -1.8694  0.5909
 9153SOL     OW38920   3.942   1.829   1.397 -0.4655 -0.2246  0.3263
 9153SOL    HW138921   3.853   1.812   1.425 -1.0665  1.8435 -0.3022
 9153SOL    HW238922   3.972   1.749   1.354  0.3810 -0.6447  1.7088
 9154SOL     OW38923   3.593   1.427   1.086 -0.3101  0.5877  0.2688
 9154SOL    HW138924   3.619   1.510   1.045  3.6167 -1.3546 -1.2320
 9154SOL    HW238925   3.673   1.375   1.074 -1.2763 -1.4471  2.7560
 9155SOL     OW38926   3.576   1.257   8.531 -0.6450 -0.6138  0.1212
 9155SOL    HW138927   3.660   1.229   8.566  0.0954  2.0009  0.4097
 9155SOL    HW238928   3.524   1.197   8.585  0.5813 -1.6922  0.0787
 9156SOL     OW38929   2.739   4.412  11.812  0.9539 -0.4009 -0.2751
 9156SOL    HW138930   2.806   4.386  11.874  0.9618  1.9949  0.7358
 9156SOL    HW238931   2.789   4.464  11.749 -0.7143  1.5327 -0.0105
 9157SOL     OW38932   0.899   1.920   4.529  0.2862  0.3482  0.5067
 9157SOL    HW138933   0.919   2.010   4.502  1.2121 -0.3856 -1.2677
 9157SOL    HW238934   0.959   1.858   4.488  1.7279  0.5806  2.2567
 9158SOL     OW38935   1.051   3.947   7.876  0.0405  0.4460  0.2773
 9158SOL    HW138936   1.125   3.945   7.937  0.8229 -1.6813 -0.7329
 9158SOL    HW238937   0.983   3.897   7.921  0.7421  0.0536  0.9074
 9159SOL     OW38938   0.570   0.093  11.308 -0.7751  0.0349 -0.0760
 9159SOL    HW138939   0.579   0.122  11.399  0.1700  0.6707 -0.3735
 9159SOL    HW238940   0.532   0.171  11.267  1.7766  1.9572  1.2095
 9160SOL     OW38941   0.578   2.274   6.053  0.3270  0.1866  0.4027
 9160SOL    HW138942   0.528   2.201   6.017  1.2170  0.1195 -0.7269
 9160SOL    HW238943   0.543   2.276   6.141  0.3047  0.3468  0.3906
 9161SOL     OW38944   4.608   2.995   7.385 -0.2634 -1.1487  0.4526
 9161SOL    HW138945   4.630   2.917   7.436  0.1576 -0.7228  0.9188
 9161SOL    HW238946   4.525   3.019   7.427  0.0328 -1.2163  1.0725
 9162SOL     OW38947   3.064   4.226   8.062 -0.1242 -0.0593  0.3120
 9162SOL    HW138948   2.984   4.193   8.101  0.8001 -0.1216  2.1703
 9162SOL    HW238949   3.096   4.277   8.137  0.6867  0.1388 -0.1614
 9163SOL     OW38950   2.520   3.148  11.338  0.2623 -0.2047 -0.0537
 9163SOL    HW138951   2.543   3.063  11.375 -0.5873  0.5137  2.1032
 9163SOL    HW238952   2.592   3.151  11.275  0.6792 -3.1452  0.2985
 9164SOL     OW38953   0.894   2.286  16.158 -0.8907 -0.5238 -0.3493
 9164SOL    HW138954   0.920   2.376  16.140 -0.1353 -1.1773 -2.5264
 9164SOL    HW238955   0.835   2.296  16.233 -0.9827 -0.0678 -0.4793
 9165SOL     OW38956   3.801   1.021   3.677  0.2611 -0.5449 -0.0497
 9165SOL    HW138957   3.722   1.072   3.658  0.2003 -0.9142 -0.8059
 9165SOL    HW238958   3.870   1.084   3.662 -0.2983 -0.1620 -1.0208
 9166SOL     OW38959   2.838   3.821   7.564 -0.3240 -0.2197  0.0794
 9166SOL    HW138960   2.846   3.914   7.541  0.2951 -0.5077 -0.8719
 9166SOL    HW238961   2.900   3.814   7.637 -0.8046  0.2554  0.5359
 9167SOL     OW38962   3.138   3.951   9.096 -0.4027 -0.8339  0.2177
 9167SOL    HW138963   3.047   3.961   9.126  0.9270  1.7878  3.3402
 9167SOL    HW238964   3.193   3.951   9.174 -1.1069 -1.6336  0.7188
 9168SOL     OW38965   1.325   0.235   2.696 -0.3894 -0.3539  0.1588
 9168SOL    HW138966   1.340   0.232   2.791 -2.0611 -0.2208  0.4368
 9168SOL    HW238967   1.301   0.327   2.688 -0.3987 -0.1535  2.4456
 9169SOL     OW38968   4.169   1.965   5.900  1.0084  0.0745  0.0441
 9169SOL    HW138969   4.196   2.029   5.966  2.4376  0.5913 -1.0465
 9169SOL    HW238970   4.084   1.942   5.935  2.1336 -3.8389  0.1959
 9170SOL     OW38971   4.286   1.886   8.820 -0.7732 -0.4033 -0.3840
 9170SOL    HW138972   4.228   1.811   8.804 -0.9522 -0.1724 -0.8158
 9170SOL    HW238973   4.224   1.952   8.849 -1.0344 -0.6385 -0.4047
 9171SOL     OW38974   2.564   4.196   7.667  0.2985 -0.1052  0.4312
 9171SOL    HW138975   2.510   4.271   7.645  2.2517  1.1959  0.0317
 9171SOL    HW238976   2.646   4.241   7.688  0.2841 -0.8414  2.0639
 9172SOL     OW38977   2.517   3.320   0.678  0.4788 -0.4179 -0.3951
 9172SOL    HW138978   2.579   3.383   0.716 -0.0404 -1.1714  1.6585
 9172SOL    HW238979   2.537   3.324   0.584  0.6277 -0.9263 -0.3860
 9173SOL     OW38980   1.990   2.882   5.623 -0.0298 -0.4102  0.1046
 9173SOL    HW138981   2.076   2.851   5.594 -0.2049  0.3947 -1.2528
 9173SOL    HW238982   1.936   2.821   5.572  2.0335 -1.5518 -0.7264
 9174SOL     OW38983   2.496   1.901   0.551  0.0913  0.5651 -0.2856
 9174SOL    HW138984   2.470   1.979   0.599 -0.7653  0.8896 -1.2743
 9174SOL    HW238985   2.503   1.940   0.464 -1.7143  1.1700 -0.1551
 9175SOL     OW38986   4.042   0.441   3.836  0.0962  0.3813 -0.1446
 9175SOL    HW138987   4.093   0.480   3.907 -1.1930  0.1522  0.9112
 9175SOL    HW238988   4.106   0.402   3.777 -1.6037 -1.9227 -0.4593
 9176SOL     OW38989   4.183   4.488   2.563  0.2251  0.1684  0.0144
 9176SOL    HW138990   4.260   4.463   2.614 -0.4180 -1.7954  0.0400
 9176SOL    HW238991   4.185   4.421   2.494 -1.2299  0.0035  0.1209
 9177SOL     OW38992   2.792   0.352   8.216 -0.0550 -0.6838  0.1420
 9177SOL    HW138993   2.755   0.346   8.128  1.4779  1.2348 -0.6297
 9177SOL    HW238994   2.712   0.370   8.265  1.6265  1.2968  2.1496
 9178SOL     OW38995   2.044   4.326   2.683 -0.3477 -0.2084 -0.1373
 9178SOL    HW138996   2.025   4.278   2.764  0.8270 -0.4022  0.0324
 9178SOL    HW238997   2.067   4.249   2.631 -0.9504 -1.5312  1.5755
 9179SOL     OW38998   3.056   1.518  12.716  0.1375  0.4428  0.2088
 9179SOL    HW138999   3.120   1.448  12.730 -2.9473 -2.0497  1.8264
 9179SOL    HW239000   2.975   1.467  12.718  0.5070 -0.2329 -2.0407
 9180SOL     OW39001   3.360   1.629   1.884  0.2076 -0.1385  0.6054
 9180SOL    HW139002   3.432   1.597   1.939  0.1408 -1.5488 -0.1387
 9180SOL    HW239003   3.321   1.548   1.851 -1.4968  1.3714 -1.0968
 9181SOL     OW39004   0.161   4.000   7.059 -0.4045 -1.4565 -0.6315
 9181SOL    HW139005   0.225   3.947   7.012  1.3586 -0.4836  0.6923
 9181SOL    HW239006   0.079   3.951   7.071 -1.1279  0.2115  1.2175
 9182SOL     OW39007   1.101   0.732   2.672 -0.3019  0.3505 -0.1267
 9182SOL    HW139008   1.121   0.819   2.705  0.7028  0.1884 -0.3080
 9182SOL    HW239009   1.162   0.720   2.599 -0.9911 -1.7525 -0.3680
 9183SOL     OW39010   2.503   1.078  16.697  0.4531  0.2817 -0.1828
 9183SOL    HW139011   2.421   1.088  16.648  1.7643 -0.7826 -2.6154
 9183SOL    HW239012   2.516   1.167  16.730 -1.8289  0.9062 -0.9303
 9184SOL     OW39013   0.459   0.314   0.736 -0.1521  0.2145  0.4807
 9184SOL    HW139014   0.501   0.269   0.809  0.4594  0.9407  0.5814
 9184SOL    HW239015   0.516   0.389   0.720 -1.3939  1.1991  0.6755
 9185SOL     OW39016   2.818   0.872   2.645 -0.4037 -0.7170  0.2481
 9185SOL    HW139017   2.845   0.951   2.598  1.4234  0.7856  3.7815
 9185SOL    HW239018   2.861   0.801   2.598 -0.6748 -1.3065  0.9065
 9186SOL     OW39019   0.210   4.024   9.091  0.0371 -0.1465 -0.0103
 9186SOL    HW139020   0.230   3.953   9.152  1.4199  0.3440  0.1156
 9186SOL    HW239021   0.146   4.075   9.141  0.0699  0.5854 -0.7211
 9187SOL     OW39022   3.046   4.351   6.055 -0.3241 -0.1354  0.6689
 9187SOL    HW139023   3.135   4.324   6.034  0.0314  0.6334  1.1830
 9187SOL    HW239024   3.007   4.361   5.968  0.0458  0.6701  0.6022
 9188SOL     OW39025   4.089   3.429   0.560 -0.0433  0.1552 -0.5405
 9188SOL    HW139026   4.019   3.494   0.571 -0.3540 -0.2648  0.0082
 9188SOL    HW239027   4.080   3.399   0.470 -0.0168  3.1128 -1.5210
 9189SOL     OW39028   3.276   1.713  10.452 -0.3008  0.1502  0.7401
 9189SOL    HW139029   3.237   1.629  10.475 -0.8136  0.3377  0.5628
 9189SOL    HW239030   3.196   1.750  10.414 -1.8309 -2.7577  1.1429
 9190SOL     OW39031   1.087   2.827  11.648 -0.0676  0.6863 -0.1352
 9190SOL    HW139032   1.024   2.889  11.686  0.3089  0.5600  0.6919
 9190SOL    HW239033   1.036   2.762  11.599 -2.0111  2.0750  0.0314
 9191SOL     OW39034   1.632   3.026   6.275  0.7691 -0.3351 -0.3181
 9191SOL    HW139035   1.693   3.059   6.209  1.4855 -0.6814  0.1658
 9191SOL    HW239036   1.560   3.089   6.275  2.4942  1.6288  0.3246
 9192SOL     OW39037   4.497   2.372   8.269  0.1423  0.1278 -0.0773
 9192SOL    HW139038   4.533   2.458   8.289  1.1087 -0.0788 -0.9055
 9192SOL    HW239039   4.530   2.347   8.182  1.2552  1.2486  0.0420
 9193SOL     OW39040   1.680   1.755   1.750  0.5391 -0.2611  0.0251
 9193SOL    HW139041   1.728   1.672   1.753 -2.7669 -2.0973  1.5419
 9193SOL    HW239042   1.625   1.750   1.672  0.9097 -0.6530 -0.2139
 9194SOL     OW39043   2.427   1.186   9.431 -0.6859  0.4779  0.8084
 9194SOL    HW139044   2.379   1.204   9.512 -0.9292 -0.7866  0.9388
 9194SOL    HW239045   2.495   1.128   9.464 -0.3668  1.4288  1.8339
 9195SOL     OW39046   4.668   0.300   1.909  0.5721 -0.7069  0.6091
 9195SOL    HW139047   4.646   0.374   1.853 -0.1848  0.4152  2.3810
 9195SOL    HW239048   0.032   0.292   1.883  0.3758  1.2806 -0.6700
 9196SOL     OW39049   3.612   0.258   4.447 -0.1154 -0.0784 -0.2597
 9196SOL    HW139050   3.556   0.242   4.523 -0.1073 -1.2988 -0.4989
 9196SOL    HW239051   3.542   0.257   4.381 -0.3200  0.6763 -0.0468
 9197SOL     OW39052   2.308   0.404   5.150  0.4499  0.2361  0.5054
 9197SOL    HW139053   2.335   0.322   5.110  0.9311  1.0866 -0.9301
 9197SOL    HW239054   2.270   0.355   5.223 -0.8438 -0.0374 -0.3542
 9198SOL     OW39055   1.984   1.895   3.258  0.3942  0.1294  0.2235
 9198SOL    HW139056   1.892   1.894   3.284  0.1142  2.8023 -0.6401
 9198SOL    HW239057   1.975   1.876   3.165  0.6953  1.8563 -0.1595
 9199SOL     OW39058   4.043   0.048   6.108 -0.0121  0.1778 -0.0861
 9199SOL    HW139059   3.962   0.098   6.120 -0.8543 -1.0152 -0.8901
 9199SOL    HW239060   4.102   0.091   6.170 -0.0308 -1.0576  0.7670
 9200SOL     OW39061   2.753   0.643   4.928  0.2997  0.6636  0.0989
 9200SOL    HW139062   2.658   0.650   4.922  0.0671 -1.7540  1.2071
 9200SOL    HW239063   2.770   0.647   5.022  1.1279  0.8901 -0.0600
 9201SOL     OW39064   0.036   1.228  17.314  0.5176 -0.1264 -0.3121
 9201SOL    HW139065   4.689   1.178  17.282 -0.4332  0.3852  1.1231
 9201SOL    HW239066   0.084   1.153  17.349 -1.3632 -0.8531  0.6867
 9202SOL     OW39067   3.471   0.068   6.131  0.1042 -0.4826  0.4135
 9202SOL    HW139068   3.563   0.051   6.152  0.8606 -0.5178 -3.0184
 9202SOL    HW239069   3.439   4.720   6.082 -1.2574  0.7494 -0.6070
 9203SOL     OW39070   0.210   4.335   8.870 -0.1593  0.5313 -0.0777
 9203SOL    HW139071   0.237   4.246   8.889  1.3389  0.8683 -0.6550
 9203SOL    HW239072   0.295   4.374   8.849  0.6884 -0.4745  1.5333
 9204SOL     OW39073   3.741   2.495   9.208 -0.0727  0.0461 -0.6555
 9204SOL    HW139074   3.836   2.486   9.211  0.0237  1.2064 -0.2693
 9204SOL    HW239075   3.710   2.405   9.200 -0.9168  0.2006  0.8280
 9205SOL     OW39076   3.473   4.363  14.274 -0.1362  0.0168  0.1581
 9205SOL    HW139077   3.411   4.408  14.332 -0.0616 -0.9293  0.9724
 9205SOL    HW239078   3.520   4.440  14.243  1.5248 -1.7668 -1.6725
 9206SOL     OW39079   0.133   3.730   2.499 -0.1249  0.6853 -0.0074
 9206SOL    HW139080   0.203   3.789   2.472  0.3697 -0.7321 -1.7967
 9206SOL    HW239081   0.182   3.660   2.542 -1.3957 -0.5537 -0.5897
 9207SOL     OW39082   4.595   2.761   3.902 -0.1507 -0.0019  0.3016
 9207SOL    HW139083   4.593   2.780   3.995 -0.5717  0.0284  0.2869
 9207SOL    HW239084   4.604   2.850   3.868  1.0146 -0.3578 -0.3368
 9208SOL     OW39085   0.270   4.467   4.466 -0.3599 -0.2742  0.0618
 9208SOL    HW139086   0.357   4.439   4.437  0.6185  0.5398  2.2647
 9208SOL    HW239087   0.266   4.447   4.559  0.4705 -3.2131 -0.5356
 9209SOL     OW39088   1.842   1.067   6.400  0.5077 -0.3969  0.3730
 9209SOL    HW139089   1.821   1.035   6.312 -2.7575  1.6352  0.3736
 9209SOL    HW239090   1.785   1.144   6.411 -0.7103 -1.2177 -0.1734
 9210SOL     OW39091   4.505   1.751  10.948 -0.0257 -0.3490  0.8165
 9210SOL    HW139092   4.482   1.796  11.030  1.0798  0.7800  0.5087
 9210SOL    HW239093   4.587   1.705  10.965  0.6505  0.4683 -0.2727
 9211SOL     OW39094   2.585   0.347  15.258 -0.7363  0.4354  0.0635
 9211SOL    HW139095   2.609   0.329  15.166  4.4336  1.1247  1.2449
 9211SOL    HW239096   2.664   0.381  15.300  0.1658 -0.4246 -0.9148
 9212SOL     OW39097   2.302   0.264  10.514 -0.3442 -0.9351 -0.4210
 9212SOL    HW139098   2.217   0.227  10.492 -0.8418  0.4268 -0.7543
 9212SOL    HW239099   2.340   0.195  10.570  1.3325 -1.5220 -2.2881
 9213SOL     OW39100   2.041   2.264  10.522  0.1366  0.3358 -0.0053
 9213SOL    HW139101   2.071   2.268  10.613 -0.0441 -1.5169  0.1345
 9213SOL    HW239102   2.071   2.346  10.484 -0.7365  0.3829 -0.6046
 9214SOL     OW39103   2.742   0.366   2.049 -0.8359  0.1650 -0.6987
 9214SOL    HW139104   2.816   0.402   2.098 -2.1610  0.2380  1.2415
 9214SOL    HW239105   2.795   0.306   1.996  1.0094  0.6633  0.5436
 9215SOL     OW39106   2.350   1.900   7.838  0.6270  0.4650 -0.3113
 9215SOL    HW139107   2.430   1.920   7.789 -0.3817 -1.1225 -2.6243
 9215SOL    HW239108   2.384   1.912   7.927 -0.4187 -0.0662  0.1568
 9216SOL     OW39109   4.528   4.625   8.299 -0.1544  0.2234 -0.6699
 9216SOL    HW139110   4.575   4.563   8.354 -0.5645 -0.2496 -0.8467
 9216SOL    HW239111   4.449   4.628   8.354 -0.4074  0.2756 -1.0361
 9217SOL     OW39112   3.799   4.435   9.182  0.0496 -0.1230 -0.1747
 9217SOL    HW139113   3.747   4.355   9.185 -2.1119  1.3238  0.9488
 9217SOL    HW239114   3.777   4.463   9.093 -0.7419 -1.0823 -0.2833
 9218SOL     OW39115   4.097   3.609   8.007 -0.2303  0.7289 -0.7765
 9218SOL    HW139116   4.106   3.534   8.066  2.0602  1.2031 -0.5123
 9218SOL    HW239117   4.125   3.685   8.058 -0.1175 -0.2383  0.6045
 9219SOL     OW39118   0.414   3.316   9.731 -1.4411 -0.2182 -0.7163
 9219SOL    HW139119   0.456   3.315   9.817  0.0433 -1.1118 -1.4528
 9219SOL    HW239120   0.452   3.394   9.692 -0.9695 -0.0976 -0.0188
 9220SOL     OW39121   0.479   2.298   6.307 -0.0820 -0.5333  0.3509
 9220SOL    HW139122   0.423   2.237   6.354 -1.5577  0.8555  0.3759
 9220SOL    HW239123   0.453   2.380   6.349 -0.1014  0.2841 -1.2458
 9221SOL     OW39124   0.569   1.106   9.797  0.4964  0.7526 -0.3359
 9221SOL    HW139125   0.579   1.172   9.866 -0.2588  0.2684  0.2338
 9221SOL    HW239126   0.662   1.083   9.785  0.3210 -0.2761  0.2557
 9222SOL     OW39127   2.760   1.661   2.838  0.3103  0.1653 -0.4449
 9222SOL    HW139128   2.715   1.744   2.827  0.6250  0.6432  1.7345
 9222SOL    HW239129   2.686   1.612   2.873  0.7226 -0.1524 -0.0127
 9223SOL     OW39130   3.627   1.838   2.754  0.3604  0.0252  0.4546
 9223SOL    HW139131   3.573   1.909   2.720  0.3523 -0.4368 -0.4986
 9223SOL    HW239132   3.566   1.764   2.757  1.0994 -0.5714  0.9701
 9224SOL     OW39133   1.745   1.137   4.802 -0.0013  0.2802  0.3398
 9224SOL    HW139134   1.706   1.223   4.815 -0.8045 -0.1923  1.0548
 9224SOL    HW239135   1.678   1.075   4.831  0.1071  0.2213  0.4666
 9225SOL     OW39136   3.508   3.172   8.901  0.1611 -0.2611  0.1061
 9225SOL    HW139137   3.570   3.120   8.953  0.2816 -0.6198 -0.3912
 9225SOL    HW239138   3.445   3.103   8.880  2.4330 -2.1643 -0.4730
 9226SOL     OW39139   0.874   3.714   5.637  0.4249  0.2146 -0.1477
 9226SOL    HW139140   0.820   3.654   5.584 -0.0849  0.1697  0.4248
 9226SOL    HW239141   0.910   3.649   5.698 -0.0139  1.7449  1.7314
 9227SOL     OW39142   0.165   3.699  11.668  0.0259 -0.7616 -0.5738
 9227SOL    HW139143   0.189   3.631  11.732  1.9198  0.2148 -0.2734
 9227SOL    HW239144   0.212   3.680  11.587  0.6660 -0.2911 -0.3036
 9228SOL     OW39145   1.975   1.327   0.447 -0.2416 -0.2438  0.0228
 9228SOL    HW139146   2.017   1.403   0.488 -1.6629  1.6285 -1.9742
 9228SOL    HW239147   1.912   1.365   0.386  1.8242  2.1677 -0.6089
 9229SOL     OW39148   1.857   2.240   7.867 -0.3723  0.0088 -0.0245
 9229SOL    HW139149   1.837   2.307   7.933  1.2196 -0.5268  0.9958
 9229SOL    HW239150   1.866   2.295   7.789  2.1003 -2.6769 -1.6084
 9230SOL     OW39151   3.427   3.466   8.605  0.2363 -0.7108 -0.7903
 9230SOL    HW139152   3.447   3.500   8.692  0.8481 -2.4074 -0.2690
 9230SOL    HW239153   3.335   3.493   8.605  0.7468  1.0207  0.0021
 9231SOL     OW39154   2.478   3.190   4.441 -0.4635 -0.0041 -0.6301
 9231SOL    HW139155   2.427   3.113   4.416 -0.6833  0.7056 -2.3366
 9231SOL    HW239156   2.480   3.231   4.354  0.2606  0.1695 -0.5261
 9232SOL     OW39157   3.469   2.146   6.292  0.4167 -0.2863 -0.5518
 9232SOL    HW139158   3.480   2.062   6.246 -0.5913 -0.9565  0.4113
 9232SOL    HW239159   3.397   2.182   6.240 -0.1378 -2.5917 -1.3977
 9233SOL     OW39160   0.634   2.922  15.365 -0.1559 -0.1773 -0.5440
 9233SOL    HW139161   0.664   3.013  15.357  0.6145 -0.2949  1.1675
 9233SOL    HW239162   0.550   2.918  15.318  0.7925 -0.3012 -2.2319
 9234SOL     OW39163   1.110   4.542   6.391  0.0710  0.0074 -0.5372
 9234SOL    HW139164   1.195   4.555   6.432  1.2449 -1.8310 -2.3526
 9234SOL    HW239165   1.097   4.448   6.405  1.2627 -0.0896 -0.0972
 9235SOL     OW39166   0.418   4.557  17.517 -0.4852  0.5347 -0.6134
 9235SOL    HW139167   0.418   4.631  17.456  1.1984 -1.3833 -2.9462
 9235SOL    HW239168   0.327   4.527  17.514 -0.7684  1.1995  1.4293
 9236SOL     OW39169   1.104   2.331   8.460  0.7578  0.0001 -0.7699
 9236SOL    HW139170   1.164   2.260   8.439  1.5404 -0.0131  1.4756
 9236SOL    HW239171   1.025   2.285   8.489  0.5055 -0.0794 -1.5959
 9237SOL     OW39172   0.498   2.571   1.964  0.4812 -0.7688  0.3023
 9237SOL    HW139173   0.583   2.600   1.997  0.7430 -1.8442  0.5788
 9237SOL    HW239174   0.449   2.586   2.044 -0.7406  0.1925 -0.6388
 9238SOL     OW39175   0.492   4.606   3.976 -0.4330 -0.4260 -0.0487
 9238SOL    HW139176   0.444   4.594   3.894 -0.5141  0.4447 -0.1318
 9238SOL    HW239177   0.434   4.551   4.029 -1.5243 -0.6996 -1.5140
 9239SOL     OW39178   3.275   1.311   4.894 -0.4754 -0.3796  0.0659
 9239SOL    HW139179   3.291   1.341   4.983 -0.9259 -0.6418  0.2343
 9239SOL    HW239180   3.355   1.267   4.866  0.7442  0.7291  1.8547
 9240SOL     OW39181   1.726   1.234   5.698  0.5208  0.2864 -0.5503
 9240SOL    HW139182   1.701   1.142   5.703 -1.7573  0.8828 -1.1539
 9240SOL    HW239183   1.686   1.269   5.778 -0.2800  0.1781 -0.9118
 9241SOL     OW39184   3.201   3.695   5.084 -0.1072  0.5829 -0.5243
 9241SOL    HW139185   3.218   3.785   5.055 -0.3976  0.7024 -0.3295
 9241SOL    HW239186   3.283   3.665   5.123  1.0029  2.2806 -1.5507
 9242SOL     OW39187   1.394   2.391   8.692 -0.1971  0.3015  0.1775
 9242SOL    HW139188   1.383   2.296   8.688  1.8987  0.0791 -0.4914
 9242SOL    HW239189   1.388   2.409   8.599 -0.0873 -1.1315 -0.1122
 9243SOL     OW39190   3.568   1.074   1.715 -0.0337  0.2309  0.1299
 9243SOL    HW139191   3.556   1.169   1.712  0.1928  0.1811 -2.3048
 9243SOL    HW239192   3.652   1.063   1.670  0.1406  0.9769  0.2750
 9244SOL     OW39193   3.040   2.314   5.137 -0.2043 -0.7406  0.2035
 9244SOL    HW139194   3.003   2.277   5.057  2.6350 -1.0721 -0.9316
 9244SOL    HW239195   3.073   2.397   5.101 -1.0909  0.0959  1.2949
 9245SOL     OW39196   4.045   1.686   6.417 -0.0425  0.4936  0.2033
 9245SOL    HW139197   4.085   1.772   6.429 -1.5941  1.7259 -3.3082
 9245SOL    HW239198   3.999   1.714   6.337  2.7660  2.0356 -0.8752
 9246SOL     OW39199   1.042   0.894  14.395 -0.5355  0.0191 -0.0396
 9246SOL    HW139200   1.060   0.808  14.356  0.1694  0.1023  0.1075
 9246SOL    HW239201   0.951   0.902  14.364 -0.5735 -1.9542 -0.4678
 9247SOL     OW39202   0.041   0.341   6.562 -0.1422  0.6253  0.3958
 9247SOL    HW139203   4.686   0.297   6.580  0.1389 -0.3432 -0.7000
 9247SOL    HW239204   0.092   0.293   6.628  0.4401 -0.3186 -0.7590
 9248SOL     OW39205   4.601   1.000   3.761 -0.2254  0.2856  0.6787
 9248SOL    HW139206   4.566   0.980   3.848  3.2045  0.8047  2.1949
 9248SOL    HW239207   4.580   1.093   3.755 -0.0788  0.2159 -1.0874
 9249SOL     OW39208   1.944   0.043   8.398 -0.6804 -0.3397 -0.5051
 9249SOL    HW139209   1.892   4.690   8.401 -3.3873  1.5384  2.9178
 9249SOL    HW239210   1.942   0.077   8.487  1.3346 -1.7695  0.0841
 9250SOL     OW39211   0.143   3.955   6.035  0.6419 -0.5098  0.0488
 9250SOL    HW139212   0.232   3.944   6.067  0.5645  0.9746  0.7766
 9250SOL    HW239213   0.125   4.049   6.042 -0.9405 -0.8531  0.5535
 9251SOL     OW39214   4.170   3.510  17.154  0.4876 -0.2825  0.1698
 9251SOL    HW139215   4.145   3.601  17.168 -1.1035 -0.7069  0.0845
 9251SOL    HW239216   4.158   3.478  17.243 -2.4132 -2.8627 -1.1440
 9252SOL     OW39217   1.665   0.494   8.478 -0.1044 -0.1698 -0.5483
 9252SOL    HW139218   1.701   0.419   8.431  0.7045 -0.3239  0.3190
 9252SOL    HW239219   1.648   0.545   8.398 -1.5955 -0.5314 -0.4645
 9253SOL     OW39220   2.983   1.772   9.593  0.4184 -0.1130  0.4003
 9253SOL    HW139221   2.946   1.779   9.506  1.6936  0.3610 -0.1060
 9253SOL    HW239222   3.045   1.845   9.593 -2.8486  2.6130 -4.6377
 9254SOL     OW39223   4.606   3.607  11.183  0.6020  0.2134 -0.4672
 9254SOL    HW139224   4.634   3.616  11.275 -1.2984 -1.0831  0.2207
 9254SOL    HW239225   4.538   3.674  11.180  2.4457  2.1631  0.2177
 9255SOL     OW39226   2.937   3.013   1.022  0.4750  0.0725  0.4294
 9255SOL    HW139227   2.971   2.991   0.935 -0.9403  1.0740 -0.3620
 9255SOL    HW239228   2.990   3.089   1.045  1.5770 -0.6040  0.1468
 9256SOL     OW39229   4.346   2.131   0.928 -0.8092  0.2913  0.4179
 9256SOL    HW139230   4.389   2.097   1.007 -1.5422 -1.6933 -0.0196
 9256SOL    HW239231   4.277   2.066   0.915  1.6178 -2.0964 -0.5372
 9257SOL     OW39232   4.139   0.398   2.279  0.7728 -0.0628  0.0779
 9257SOL    HW139233   4.234   0.390   2.287  0.6102 -1.9419  0.0182
 9257SOL    HW239234   4.111   0.376   2.367  1.4602 -0.3981  0.2115
 9258SOL     OW39235   3.243   1.316   3.626  0.4209 -0.2840  0.0337
 9258SOL    HW139236   3.254   1.222   3.608 -2.1372 -0.4700 -0.5714
 9258SOL    HW239237   3.176   1.341   3.563  1.9117  0.6391 -1.2032
 9259SOL     OW39238   2.533   2.045   5.922 -0.1866 -0.6129  0.1332
 9259SOL    HW139239   2.479   2.083   5.992 -0.7767 -0.3863 -0.4527
 9259SOL    HW239240   2.583   2.125   5.903  0.8396 -0.8929  1.6603
 9260SOL     OW39241   4.547   0.507   5.122 -0.3722 -0.4961 -0.2747
 9260SOL    HW139242   4.490   0.499   5.198 -2.5000  2.0692 -1.6222
 9260SOL    HW239243   4.625   0.464   5.158  0.1338 -1.3375 -2.3898
 9261SOL     OW39244   0.063   0.522   1.307 -0.1481 -0.3250 -0.2909
 9261SOL    HW139245   4.718   0.463   1.329 -1.9368  1.5890 -1.0960
 9261SOL    HW239246   0.016   0.573   1.242  0.6286  0.5257 -0.1773
 9262SOL     OW39247   3.855   3.201   6.597  0.0593 -0.2947 -0.5921
 9262SOL    HW139248   3.769   3.219   6.635  0.4432  2.4711 -1.0501
 9262SOL    HW239249   3.904   3.176   6.675  0.2747  0.0817 -0.6053
 9263SOL     OW39250   4.400   3.312   5.397 -0.4296 -0.1604  0.4767
 9263SOL    HW139251   4.421   3.382   5.336  0.4985 -1.2025 -0.4160
 9263SOL    HW239252   4.336   3.353   5.455 -1.4396 -0.8617 -0.1430
 9264SOL     OW39253   2.788   3.684  12.110 -0.1708 -0.2980  0.0250
 9264SOL    HW139254   2.745   3.598  12.103 -1.5055  0.4158 -0.6327
 9264SOL    HW239255   2.847   3.678  12.185 -0.7138 -1.2994  0.3772
 9265SOL     OW39256   4.391   3.079  17.466  0.3662 -0.1291  0.3573
 9265SOL    HW139257   4.306   3.113  17.438  0.8595  0.9962  0.2606
 9265SOL    HW239258   4.457   3.147  17.461 -0.7337  0.8744 -0.4495
 9266SOL     OW39259   2.796   0.554   4.133  0.0289  0.4191 -0.4228
 9266SOL    HW139260   2.744   0.575   4.210  1.6497 -0.9576  1.0482
 9266SOL    HW239261   2.813   0.644   4.104 -2.3856  0.9941 -0.0235
 9267SOL     OW39262   3.450   1.624  12.615  0.1265 -0.4521 -0.1352
 9267SOL    HW139263   3.391   1.579  12.555 -0.2315  3.1675 -2.5347
 9267SOL    HW239264   3.520   1.643  12.552 -0.3885 -1.7322 -1.0855
 9268SOL     OW39265   2.789   2.857   2.239 -0.3396  0.0165 -0.0566
 9268SOL    HW139266   2.719   2.918   2.262  0.6748  1.2015 -0.0862
 9268SOL    HW239267   2.755   2.838   2.152 -1.2980 -2.9707  0.9722
 9269SOL     OW39268   0.083   2.614   2.060 -0.1259 -0.0954 -0.0664
 9269SOL    HW139269   0.157   2.630   2.118 -1.0185  1.6504  0.6091
 9269SOL    HW239270   0.111   2.670   1.987  0.2382  1.3051  1.1462
 9270SOL     OW39271   4.178   3.693   5.510 -0.2700  0.0437  0.6435
 9270SOL    HW139272   4.183   3.780   5.471 -0.0261  0.3136  1.2743
 9270SOL    HW239273   4.084   3.683   5.522 -0.2009 -2.2058 -0.6906
 9271SOL     OW39274   0.839   3.846   8.055 -0.6333 -0.1708  0.0298
 9271SOL    HW139275   0.849   3.781   8.124 -1.4285  1.1564  1.4209
 9271SOL    HW239276   0.769   3.807   8.003 -3.5832  2.7374  1.7835
 9272SOL     OW39277   0.907   4.332   2.218 -0.2793  0.1769  0.2847
 9272SOL    HW139278   0.871   4.403   2.164  1.6444 -0.3282 -1.6914
 9272SOL    HW239279   0.849   4.261   2.192  0.0129 -0.9577  2.7361
 9273SOL     OW39280   4.096   2.873  17.358  0.3494  0.1783 -0.5324
 9273SOL    HW139281   4.138   2.953  17.325 -0.6907  1.2796  0.7658
 9273SOL    HW239282   4.041   2.912  17.426 -1.4636 -0.7782 -1.4659
 9274SOL     OW39283   2.339   2.199   6.083 -0.0622 -0.0611 -0.1784
 9274SOL    HW139284   2.398   2.246   6.141 -0.3572  0.7911 -0.5646
 9274SOL    HW239285   2.322   2.251   6.004  0.8380 -0.0828 -0.3814
 9275SOL     OW39286   1.693   1.776   5.539 -0.6658 -0.5922  0.1188
 9275SOL    HW139287   1.743   1.857   5.552 -0.0336 -0.8828 -0.4821
 9275SOL    HW239288   1.626   1.795   5.473 -0.1708 -0.8206 -0.4487
 9276SOL     OW39289   1.212   4.158   2.681 -0.4263  0.7968  0.4714
 9276SOL    HW139290   1.284   4.219   2.667 -2.0436  2.5746 -0.0570
 9276SOL    HW239291   1.251   4.076   2.712 -0.2145  0.9250  0.5476
 9277SOL     OW39292   0.842   1.727   3.923 -0.0759  0.4350 -0.6520
 9277SOL    HW139293   0.883   1.799   3.972  1.6750 -0.0346 -1.4183
 9277SOL    HW239294   0.755   1.764   3.907 -1.2787 -1.4218  1.6611
 9278SOL     OW39295   3.980   1.761   4.156 -0.0810  0.2112 -0.0408
 9278SOL    HW139296   3.947   1.696   4.218 -2.8188 -1.4398 -3.1515
 9278SOL    HW239297   4.065   1.720   4.141 -0.9650 -2.6198  2.7091
 9279SOL     OW39298   2.969   0.697  15.820  0.0805  0.3923  0.1744
 9279SOL    HW139299   2.927   0.664  15.900  0.2541  1.6460  0.7773
 9279SOL    HW239300   2.921   0.779  15.820 -1.1934 -0.3512  0.0222
 9280SOL     OW39301   2.473   0.064   5.538 -0.2212  0.0040  0.5078
 9280SOL    HW139302   2.440   0.005   5.470  0.2058  0.4589 -0.0951
 9280SOL    HW239303   2.560   0.024   5.546  0.7250  1.8561 -0.5338
 9281SOL     OW39304   0.236   1.289   7.964 -0.2944 -0.4498 -0.3605
 9281SOL    HW139305   0.194   1.286   8.049  0.0879 -0.0937 -0.1562
 9281SOL    HW239306   0.158   1.293   7.908 -0.4203  1.8703 -0.0399
 9282SOL     OW39307   3.657   1.922  15.967  0.2347  0.4480 -0.4016
 9282SOL    HW139308   3.741   1.877  15.960 -0.1313 -0.5169  1.2392
 9282SOL    HW239309   3.679   1.984  16.037  0.9264  0.5720 -0.7331
 9283SOL     OW39310   2.617   4.052   9.110  0.0725  0.9901 -0.0348
 9283SOL    HW139311   2.665   4.086   9.035  1.0723  1.8400  0.9856
 9283SOL    HW239312   2.582   3.970   9.076  2.7736  0.0638 -0.5447
 9284SOL     OW39313   0.537   4.278   6.014  0.3828 -0.3963 -0.5500
 9284SOL    HW139314   0.630   4.287   5.992 -0.4783  0.5974 -3.7015
 9284SOL    HW239315   0.498   4.289   5.927 -1.6424 -0.0262  0.4072
 9285SOL     OW39316   2.860   2.189   0.879  0.1853  0.2498  0.8909
 9285SOL    HW139317   2.824   2.152   0.799  1.2555  1.7685 -0.2833
 9285SOL    HW239318   2.929   2.247   0.846  0.4676  0.2982  1.5598
 9286SOL     OW39319   3.225   4.325   2.981 -0.4690  0.4618  0.2928
 9286SOL    HW139320   3.194   4.404   3.025  0.5612  0.8760  0.2836
 9286SOL    HW239321   3.284   4.301   3.052  1.2741  0.7358 -1.0546
 9287SOL     OW39322   2.780   0.832   6.154 -0.3196 -0.2826 -0.1540
 9287SOL    HW139323   2.720   0.777   6.203  0.2035 -0.7198 -0.0143
 9287SOL    HW239324   2.763   0.922   6.181 -1.0261 -1.0489  1.8983
 9288SOL     OW39325   2.675   3.510  12.380 -0.3950  0.4821  0.2477
 9288SOL    HW139326   2.761   3.473  12.400 -0.1667 -0.7426 -2.8987
 9288SOL    HW239327   2.667   3.492  12.286  2.1800 -0.9393  0.3124
 9289SOL     OW39328   4.030   1.943  13.248 -0.4377  0.0347  0.0491
 9289SOL    HW139329   3.972   1.994  13.304 -1.2782  0.7885 -1.5366
 9289SOL    HW239330   3.993   1.855  13.247 -0.6396  0.1437 -1.9539
 9290SOL     OW39331   2.765   3.423   9.459  0.5047 -0.2702 -0.1979
 9290SOL    HW139332   2.795   3.371   9.385  1.2663 -1.0108  0.6425
 9290SOL    HW239333   2.833   3.491   9.455 -2.2976  2.5702  0.0433
 9291SOL     OW39334   4.528   2.105   1.133 -0.2023  0.1145  0.2588
 9291SOL    HW139335   4.612   2.078   1.170  0.5268 -0.9925 -2.1895
 9291SOL    HW239336   4.482   2.137   1.210 -3.9374  0.0537 -1.9546
 9292SOL     OW39337   1.977   2.413  16.495 -0.2422  0.0046  0.1345
 9292SOL    HW139338   2.068   2.443  16.484  0.2853 -1.2881  1.0132
 9292SOL    HW239339   1.947   2.361  16.421 -3.4737  2.3287 -0.1822
 9293SOL     OW39340   3.399   2.025   1.836 -0.3251  0.8569  0.2862
 9293SOL    HW139341   3.414   1.983   1.921 -0.3536 -0.3695 -0.3149
 9293SOL    HW239342   3.428   2.114   1.856 -0.0133  0.7620  0.2575
 9294SOL     OW39343   2.895   2.890   2.525 -0.4267  0.6359  0.8648
 9294SOL    HW139344   2.870   2.859   2.438  1.7744  0.5836  0.2454
 9294SOL    HW239345   2.881   2.985   2.524  1.7746  0.9408 -1.6844
 9295SOL     OW39346   3.192   4.075   1.282 -0.0883 -0.4430 -0.0157
 9295SOL    HW139347   3.262   4.128   1.244  0.9062 -2.7043 -1.3477
 9295SOL    HW239348   3.114   4.129   1.275 -0.9651 -1.7916 -0.6955
 9296SOL     OW39349   1.001   1.179   8.782 -0.5143 -0.0156 -0.1790
 9296SOL    HW139350   1.045   1.107   8.827 -0.4701 -1.5036 -2.5859
 9296SOL    HW239351   1.017   1.244   8.851 -2.1507  1.7919 -1.4776
 9297SOL     OW39352   1.914   2.356  14.441  0.2486  0.0765 -0.4890
 9297SOL    HW139353   1.860   2.434  14.422 -0.6391  0.0091  1.7517
 9297SOL    HW239354   1.997   2.386  14.404  1.1187 -0.2380  1.1895
 9298SOL     OW39355   3.341   0.355   4.339  0.4792 -0.6103  0.1225
 9298SOL    HW139356   3.329   0.395   4.253 -1.3736  0.3806  0.8438
 9298SOL    HW239357   3.251   0.343   4.370  0.2415 -0.1418 -0.3841
 9299SOL     OW39358   0.683   1.091   7.074  0.4142  0.3161  0.3398
 9299SOL    HW139359   0.695   1.177   7.114 -2.7632  1.4560 -1.1383
 9299SOL    HW239360   0.755   1.040   7.110 -0.1026  0.2230  1.2447
 9300SOL     OW39361   1.365   2.821  12.422  0.5758  0.0975  0.4114
 9300SOL    HW139362   1.414   2.900  12.445  1.5759 -0.3407 -0.2344
 9300SOL    HW239363   1.441   2.763  12.420 -0.2267 -0.9655  0.7748
 9301SOL     OW39364   1.224   0.488   3.471 -0.0541 -0.5031  0.0349
 9301SOL    HW139365   1.241   0.582   3.470 -1.9674 -0.1746 -2.2539
 9301SOL    HW239366   1.182   0.468   3.387 -1.9128 -0.7662  1.0203
 9302SOL     OW39367   3.086   0.268   4.475  0.0527  0.3364 -0.0857
 9302SOL    HW139368   3.103   0.315   4.557  1.5116 -1.1573  0.4699
 9302SOL    HW239369   3.042   0.339   4.429  0.0522  0.2175 -0.2666
 9303SOL     OW39370   1.050   3.602   3.888 -0.4179  0.2975 -0.1276
 9303SOL    HW139371   0.994   3.611   3.965  0.2551  2.3001  0.1369
 9303SOL    HW239372   1.116   3.664   3.918  0.0816 -0.4335  0.2519
 9304SOL     OW39373   4.580   0.779   2.378 -0.3889  0.5952  0.2803
 9304SOL    HW139374   4.586   0.707   2.442  0.6905 -0.7818 -1.3510
 9304SOL    HW239375   4.672   0.805   2.372 -0.3195  0.3764  0.3640
 9305SOL     OW39376   0.735   2.314   7.035 -0.7507 -0.7430  0.4016
 9305SOL    HW139377   0.658   2.258   7.027 -2.1705  1.1176  1.1083
 9305SOL    HW239378   0.701   2.381   7.093 -0.1671 -0.4535  0.4083
 9306SOL     OW39379   4.047   0.808  16.576  0.0062 -0.4672 -0.2048
 9306SOL    HW139380   4.012   0.857  16.501 -1.2689 -1.2349 -0.1067
 9306SOL    HW239381   3.996   0.728  16.568 -1.5998  0.5240  0.0489
 9307SOL     OW39382   1.828   0.396  12.929  0.2664 -0.4899  0.2105
 9307SOL    HW139383   1.857   0.485  12.945  0.8112 -0.4388 -1.0441
 9307SOL    HW239384   1.891   0.367  12.863 -0.0683 -0.3987 -0.1538
 9308SOL     OW39385   1.934   3.826   7.964  0.0256  0.5111 -0.4051
 9308SOL    HW139386   1.845   3.826   7.929  0.4690  1.7685 -1.5408
 9308SOL    HW239387   1.951   3.737   7.996 -0.4376  0.8786  0.8355
 9309SOL     OW39388   1.082   1.235   3.900 -0.6150 -0.4100 -0.1641
 9309SOL    HW139389   1.097   1.156   3.848  2.4212 -0.8085  1.3362
 9309SOL    HW239390   1.127   1.303   3.851 -0.6340 -0.7665 -0.6756
 9310SOL     OW39391   1.516   0.077   5.812 -0.0295  0.0183 -0.2470
 9310SOL    HW139392   1.484   0.067   5.722  2.4132 -2.1655 -0.8730
 9310SOL    HW239393   1.511   0.172   5.818 -0.1276  0.1745 -2.7154
 9311SOL     OW39394   2.311   3.900   4.770 -0.5060 -0.5458  0.6673
 9311SOL    HW139395   2.374   3.881   4.701 -0.4949 -1.0969  0.8288
 9311SOL    HW239396   2.300   3.995   4.768 -0.5908 -0.4690  3.7229
 9312SOL     OW39397   4.620   4.490   8.728 -0.5968 -0.5639 -0.1278
 9312SOL    HW139398   4.694   4.474   8.787 -0.8682 -0.5466  0.2124
 9312SOL    HW239399   4.560   4.543   8.780  0.5382  1.8554 -1.2833
 9313SOL     OW39400   1.601   0.188   2.893 -0.1522 -0.4133  0.9363
 9313SOL    HW139401   1.611   0.093   2.880  0.0087 -0.1638 -0.7580
 9313SOL    HW239402   1.647   0.197   2.976  2.2894 -1.9512 -0.2402
 9314SOL     OW39403   3.183   0.142  16.939  0.4450  0.4803  0.5339
 9314SOL    HW139404   3.163   0.168  16.849  0.0119  2.6687  1.2743
 9314SOL    HW239405   3.145   0.054  16.943 -2.0288  1.5368  0.3104
 9315SOL     OW39406   1.347   3.737   8.718  0.2419  0.4430 -0.0065
 9315SOL    HW139407   1.298   3.736   8.636  0.5737 -0.8155 -0.1877
 9315SOL    HW239408   1.318   3.655   8.758 -0.0345  1.4703  1.9171
 9316SOL     OW39409   3.663   3.649   2.833 -0.3914 -0.4254 -0.0022
 9316SOL    HW139410   3.656   3.617   2.743 -1.5008  0.1450 -0.1204
 9316SOL    HW239411   3.570   3.670   2.846 -0.4606  0.4406 -2.0168
 9317SOL     OW39412   3.307   1.978   1.367  0.2044  0.3146  0.0741
 9317SOL    HW139413   3.356   2.057   1.390 -1.7997  1.3171  0.9529
 9317SOL    HW239414   3.267   2.023   1.293 -2.2314 -0.4093  0.9172
 9318SOL     OW39415   4.706   0.209   4.164 -0.3718 -0.2205  0.1649
 9318SOL    HW139416   0.048   0.160   4.120 -0.0525 -0.2783  0.7419
 9318SOL    HW239417   0.021   0.291   4.188  0.5071 -0.3801 -0.8581
 9319SOL     OW39418   4.169   4.592  13.832  0.2285  0.3472  0.3404
 9319SOL    HW139419   4.082   4.630  13.823 -0.3560 -0.8808  0.7367
 9319SOL    HW239420   4.225   4.649  13.886  0.0727  0.4448  0.4014
 9320SOL     OW39421   3.170   1.167  16.090 -0.4897  0.8947 -0.0781
 9320SOL    HW139422   3.257   1.144  16.056  0.6972  1.3118  2.6471
 9320SOL    HW239423   3.205   1.160  16.179  0.4133  1.5467 -0.3789
 9321SOL     OW39424   1.592   1.614   6.251  0.1040 -0.0603 -0.0151
 9321SOL    HW139425   1.607   1.660   6.334  0.1424  0.8798 -0.5421
 9321SOL    HW239426   1.501   1.636   6.229 -0.5537 -3.8713 -1.1077
 9322SOL     OW39427   4.378   1.160   5.494 -0.0854  0.0127 -0.4286
 9322SOL    HW139428   4.292   1.194   5.518  0.5999 -0.3398  2.5378
 9322SOL    HW239429   4.405   1.228   5.432 -0.6162  3.0303  2.6809
 9323SOL     OW39430   4.164   0.805   8.005  0.0821 -0.6051 -0.3588
 9323SOL    HW139431   4.171   0.737   8.072  0.4999 -1.5234 -1.3418
 9323SOL    HW239432   4.143   0.882   8.058 -1.5080 -0.9306 -0.5114
 9324SOL     OW39433   3.342   2.353   3.127 -0.7594  0.1981  0.4738
 9324SOL    HW139434   3.327   2.437   3.084 -2.1664  0.1385  0.8619
 9324SOL    HW239435   3.254   2.319   3.113 -1.1422  1.6284 -0.5565
 9325SOL     OW39436   4.649   3.866  13.503  0.9600 -0.2683  0.9126
 9325SOL    HW139437   4.567   3.822  13.526  1.8183 -2.0711  0.5429
 9325SOL    HW239438   4.640   3.901  13.415  1.3182  1.4888  1.5794
 9326SOL     OW39439   4.145   3.707   2.914 -0.3417  0.5418 -0.8157
 9326SOL    HW139440   4.144   3.799   2.940  3.8484  0.3165  0.0587
 9326SOL    HW239441   4.194   3.673   2.989 -1.7691  1.2695  0.4414
 9327SOL     OW39442   0.944   4.548  10.482  0.4596  0.3369  0.3429
 9327SOL    HW139443   0.962   4.454  10.486 -0.9005 -0.0526 -2.3966
 9327SOL    HW239444   0.892   4.550  10.562  1.2599  0.0943  0.8695
 9328SOL     OW39445   2.577   2.886   2.840  0.6374 -0.1091  0.3692
 9328SOL    HW139446   2.537   2.800   2.826 -1.5850  1.2158 -1.3162
 9328SOL    HW239447   2.565   2.926   2.754  0.4093 -0.6882  0.1317
 9329SOL     OW39448   0.458   0.439   8.072 -0.6169 -0.0066  0.1804
 9329SOL    HW139449   0.459   0.390   8.154  1.1333  0.2091  0.2912
 9329SOL    HW239450   0.517   0.379   8.027  0.7560  0.7368  0.9661
 9330SOL     OW39451   4.273   2.705   8.508 -0.1410 -0.0960  0.8257
 9330SOL    HW139452   4.209   2.636   8.524 -1.1171  0.7269  0.4831
 9330SOL    HW239453   4.226   2.762   8.448 -0.5627  0.6421  1.8493
 9331SOL     OW39454   1.778   0.726   1.845 -0.2069 -0.0509 -0.6554
 9331SOL    HW139455   1.807   0.746   1.934 -0.4500 -0.0389 -0.5797
 9331SOL    HW239456   1.831   0.788   1.795 -0.6755 -2.2817 -3.9368
 9332SOL     OW39457   1.706   1.361   7.694  0.2404  0.0131 -0.3013
 9332SOL    HW139458   1.644   1.288   7.687 -1.7390  1.6209  0.5389
 9332SOL    HW239459   1.770   1.318   7.751 -0.3394  0.1824  0.4745
 9333SOL     OW39460   1.930   1.708   8.441 -0.5520  0.2561 -0.7071
 9333SOL    HW139461   1.865   1.763   8.399 -0.6572 -1.5717 -2.9764
 9333SOL    HW239462   1.905   1.731   8.530  0.2587 -1.1196 -0.1191
 9334SOL     OW39463   2.975   2.237   4.202  0.2039  0.0479  0.8497
 9334SOL    HW139464   2.984   2.292   4.125  0.3484 -1.8345 -0.4939
 9334SOL    HW239465   2.917   2.291   4.256 -1.8059 -2.4410  1.1668
 9335SOL     OW39466   2.587   4.391   4.435 -0.2954 -0.0566  0.0353
 9335SOL    HW139467   2.515   4.328   4.428 -0.4997 -0.1526  2.8349
 9335SOL    HW239468   2.573   4.435   4.351 -1.2050 -0.5905 -0.0980
 9336SOL     OW39469   1.163   4.703   2.636 -0.0668  0.2655  0.3750
 9336SOL    HW139470   1.238   0.035   2.625  0.0943  0.2693  1.4826
 9336SOL    HW239471   1.206   4.617   2.642  1.4826  0.9838 -0.2924
 9337SOL     OW39472   3.354   2.442   4.094 -0.1449 -0.5396 -0.7428
 9337SOL    HW139473   3.303   2.524   4.096  0.1602 -0.3430 -1.0914
 9337SOL    HW239474   3.291   2.384   4.137 -2.6965  2.5117 -0.3031
 9338SOL     OW39475   1.734   3.863   6.435 -0.0129 -0.0771  0.1619
 9338SOL    HW139476   1.775   3.778   6.452  1.6902  0.8214  0.5974
 9338SOL    HW239477   1.706   3.855   6.344 -1.0877  3.0659  0.1972
 9339SOL     OW39478   0.926   3.843   3.786  0.0228 -0.0873 -0.1993
 9339SOL    HW139479   0.956   3.758   3.819 -1.5620 -0.3540  0.5184
 9339SOL    HW239480   0.833   3.838   3.804 -0.4875 -0.0619 -2.7553
 9340SOL     OW39481   4.585   1.215   0.268  0.1675  0.3258 -0.1563
 9340SOL    HW139482   4.572   1.122   0.246 -0.1304 -0.4198  3.2073
 9340SOL    HW239483   4.511   1.227   0.327 -0.6222 -0.6733 -0.9291
 9341SOL     OW39484   1.270   3.886  17.623 -0.0954 -0.4488  0.5062
 9341SOL    HW139485   1.235   3.831  17.693 -0.0945 -2.4109 -1.0358
 9341SOL    HW239486   1.187   3.894  17.576  0.8735  2.2570 -0.7421
 9342SOL     OW39487   4.182   4.123  14.214 -0.3633 -0.1736 -0.3585
 9342SOL    HW139488   4.097   4.107  14.253 -0.1184  1.7068  0.9662
 9342SOL    HW239489   4.165   4.145  14.122 -0.9334  1.4671  0.1378
 9343SOL     OW39490   0.003   3.331   6.986 -0.6990 -0.0403  0.7336
 9343SOL    HW139491   0.082   3.311   6.936 -1.4036  0.1865 -0.4530
 9343SOL    HW239492   4.677   3.384   6.927  0.4019  0.2632  0.0112
 9344SOL     OW39493   2.859   1.689   9.314 -0.5129 -0.2348 -0.3955
 9344SOL    HW139494   2.812   1.605   9.320 -0.4586 -0.1697  1.0676
 9344SOL    HW239495   2.792   1.757   9.323 -1.6766 -1.5689  1.0863
 9345SOL     OW39496   0.389   1.487   2.853 -0.5959 -0.1126  0.7224
 9345SOL    HW139497   0.410   1.538   2.775 -1.8206  0.3906  0.7054
 9345SOL    HW239498   0.300   1.455   2.838 -0.6499  0.6264 -0.5131
 9346SOL     OW39499   2.229   0.064   4.039 -0.4724 -0.3547  0.0190
 9346SOL    HW139500   2.142   0.039   4.071 -0.7604 -0.5025 -0.8982
 9346SOL    HW239501   2.259   0.120   4.111  1.4003  1.0561 -1.8957
 9347SOL     OW39502   3.654   3.284   0.750 -0.0723 -0.3010 -0.5177
 9347SOL    HW139503   3.748   3.266   0.758 -0.2613  0.5944  3.6319
 9347SOL    HW239504   3.652   3.323   0.663  1.5020 -0.8793 -0.8152
 9348SOL     OW39505   4.676   3.923   8.117 -0.1240 -0.4897  1.2707
 9348SOL    HW139506   4.709   3.947   8.203  1.2133 -1.0313  0.9046
 9348SOL    HW239507   4.614   3.995   8.104  2.2065  1.5947  1.8544
 9349SOL     OW39508   4.496   2.876   4.128 -0.1696 -0.5033 -0.0494
 9349SOL    HW139509   4.461   2.964   4.114 -0.2130 -0.4740  0.2335
 9349SOL    HW239510   4.428   2.837   4.184  0.9741  0.0658  1.7511
 9350SOL     OW39511   1.868   0.520   2.643 -0.5387 -0.3157 -0.2599
 9350SOL    HW139512   1.778   0.494   2.664 -0.3408  0.5118  1.6000
 9350SOL    HW239513   1.923   0.446   2.666  1.0397  0.9365  0.0119
 9351SOL     OW39514   0.718   1.657   2.184 -0.3841  0.1251  0.1641
 9351SOL    HW139515   0.810   1.639   2.166 -0.2264 -0.9045  1.9537
 9351SOL    HW239516   0.674   1.580   2.149 -1.1256 -0.2137  1.8232
 9352SOL     OW39517   2.027   4.571  16.447  0.4387  0.2129  0.2910
 9352SOL    HW139518   2.092   4.505  16.472  0.0828  0.8412  2.9272
 9352SOL    HW239519   2.072   4.653  16.432  1.6795 -0.3669  0.8579
 9353SOL     OW39520   2.108   3.703  10.281 -0.2094  0.0145 -0.0731
 9353SOL    HW139521   2.045   3.765  10.317 -0.0344 -0.0494  0.3476
 9353SOL    HW239522   2.161   3.691  10.360 -0.9964 -0.8729  0.3085
 9354SOL     OW39523   1.563   2.798  14.126 -0.0081  0.0489  0.8344
 9354SOL    HW139524   1.496   2.771  14.063  0.9784 -0.3872 -0.0216
 9354SOL    HW239525   1.605   2.863  14.069  0.3796  0.5675  1.7109
 9355SOL     OW39526   0.028   0.786   3.562 -0.1990  0.3403 -1.0516
 9355SOL    HW139527   4.667   0.773   3.596  0.2736 -1.9208 -0.6812
 9355SOL    HW239528   0.085   0.717   3.595  1.0896  1.6958 -0.4744
 9356SOL     OW39529   3.862   0.827   0.260  0.2239 -0.3078 -0.2652
 9356SOL    HW139530   3.768   0.811   0.249  0.4323 -0.6920 -1.4138
 9356SOL    HW239531   3.894   0.864   0.178 -1.9589  0.3693 -0.8071
 9357SOL     OW39532   4.454   0.278   6.289  0.7502  0.1950  0.2409
 9357SOL    HW139533   4.449   0.307   6.198 -2.3023 -0.8259  0.0949
 9357SOL    HW239534   4.497   0.348   6.338 -0.3853  1.1898 -0.1940
 9358SOL     OW39535   0.216   0.121   3.807  0.0312  0.2274 -0.0842
 9358SOL    HW139536   0.215   0.026   3.816 -0.4493  0.4364  2.1364
 9358SOL    HW239537   0.290   0.124   3.746  0.6440  0.2970  0.6648
 9359SOL     OW39538   2.931   0.586   9.124  0.1955 -0.1655  0.0132
 9359SOL    HW139539   2.935   0.520   9.055 -0.6866  0.2462 -0.4225
 9359SOL    HW239540   2.858   0.557   9.178  0.9214  0.2659  1.2330
 9360SOL     OW39541   2.323   0.521   1.219 -0.3732  0.2109 -0.0871
 9360SOL    HW139542   2.235   0.554   1.204 -1.5677 -1.3588  3.3575
 9360SOL    HW239543   2.312   0.426   1.209  0.7250  0.1672 -0.8434
 9361SOL     OW39544   0.944   0.311   4.041  0.4703 -0.1833 -0.1967
 9361SOL    HW139545   0.981   0.253   3.975 -0.5105 -1.9818  0.8589
 9361SOL    HW239546   0.997   0.390   4.031  0.3307 -0.1142 -0.4056
 9362SOL     OW39547   2.366   3.173   3.052  0.0562  0.6563 -0.0721
 9362SOL    HW139548   2.454   3.135   3.047 -0.8801 -1.5789  0.1053
 9362SOL    HW239549   2.388   3.255   3.008  1.6843 -0.3693 -1.1350
 9363SOL     OW39550   4.493   3.726   6.373 -0.6058  0.6577 -0.1887
 9363SOL    HW139551   4.512   3.741   6.465  0.1323 -1.8809  0.0672
 9363SOL    HW239552   4.453   3.812   6.359 -0.4846  0.8692  0.7613
 9364SOL     OW39553   3.409   0.913   5.814  0.2675  0.0474  0.6748
 9364SOL    HW139554   3.337   0.865   5.773 -1.0199  1.2875  1.4882
 9364SOL    HW239555   3.440   0.967   5.741 -0.0781  0.1710  0.6216
 9365SOL     OW39556   2.480   2.027   5.478  0.5706  0.4031  0.0745
 9365SOL    HW139557   2.481   2.120   5.500 -1.9486 -0.0961  2.3641
 9365SOL    HW239558   2.459   2.025   5.385 -2.6493 -1.0416  0.8008
 9366SOL     OW39559   1.362   4.577   4.668 -0.2011  0.2354 -0.5043
 9366SOL    HW139560   1.323   4.490   4.670 -0.5450  0.4185  1.0875
 9366SOL    HW239561   1.417   4.571   4.589 -0.1559 -0.9674 -0.3794
 9367SOL     OW39562   3.393   1.224   5.252 -0.5591 -0.2213 -0.8248
 9367SOL    HW139563   3.298   1.211   5.251 -0.2574 -2.5293 -0.1675
 9367SOL    HW239564   3.426   1.150   5.303 -0.2073 -0.5326 -1.5071
 9368SOL     OW39565   1.138   2.836   2.844 -0.2727 -0.1332  0.3389
 9368SOL    HW139566   1.166   2.871   2.929 -0.5538 -1.3111  0.9202
 9368SOL    HW239567   1.138   2.908   2.781  1.8413 -0.4441 -0.0334
 9369SOL     OW39568   3.567   0.911  17.609 -0.4580 -0.1726 -0.2703
 9369SOL    HW139569   3.612   0.995  17.602 -0.7904 -0.1141 -1.8325
 9369SOL    HW239570   3.477   0.944  17.602 -0.2271  0.3695 -0.6611
 9370SOL     OW39571   2.162   3.076   0.858  1.3245 -0.3776 -0.2076
 9370SOL    HW139572   2.186   3.131   0.784 -1.0761 -0.4423 -1.0352
 9370SOL    HW239573   2.233   3.012   0.856  0.2865 -1.5905  1.0316
 9371SOL     OW39574   0.415   0.608   4.416  0.1962  0.2280 -0.0105
 9371SOL    HW139575   0.456   0.545   4.475 -0.4048  0.5481  0.7477
 9371SOL    HW239576   0.366   0.551   4.356  1.2775  0.3206 -0.9749
 9372SOL     OW39577   1.189   2.325  12.525  0.1349 -0.0160  0.8897
 9372SOL    HW139578   1.148   2.411  12.522  1.4876  0.6279  1.2649
 9372SOL    HW239579   1.185   2.307  12.619  0.2608  3.4113  1.5240
 9373SOL     OW39580   1.981   1.739   9.423  0.1403  0.1693 -0.7638
 9373SOL    HW139581   1.938   1.783   9.497  0.2206 -0.4489 -0.3461
 9373SOL    HW239582   1.930   1.756   9.344  0.0772  0.1270 -0.7326
 9374SOL     OW39583   2.143   4.445  12.802 -0.0573 -0.4449  0.1599
 9374SOL    HW139584   2.053   4.419  12.784 -0.2695  2.4008 -3.0714
 9374SOL    HW239585   2.169   4.362  12.840 -0.6041 -0.9782 -0.6310
 9375SOL     OW39586   3.424   3.382   6.404  0.2032 -0.1090  0.8968
 9375SOL    HW139587   3.377   3.426   6.332  1.2467  0.9590  0.8803
 9375SOL    HW239588   3.484   3.449   6.435 -1.5866  1.6345  0.5813
 9376SOL     OW39589   2.200   2.257   7.847  0.3274  0.4520  0.0242
 9376SOL    HW139590   2.192   2.257   7.752  0.6573  1.9326 -0.0090
 9376SOL    HW239591   2.147   2.183   7.876  0.5742 -0.8322 -2.7925
 9377SOL     OW39592   3.547   0.669   2.807 -0.1898  0.0122 -0.3905
 9377SOL    HW139593   3.506   0.595   2.761 -0.6063 -1.1071  1.8041
 9377SOL    HW239594   3.564   0.724   2.731 -0.8380  1.4823  0.5389
 9378SOL     OW39595   0.695   4.361  11.423  0.5334 -0.5869  0.7164
 9378SOL    HW139596   0.788   4.348  11.443  0.0522 -0.1653  3.2303
 9378SOL    HW239597   0.698   4.362  11.328 -1.9843 -2.7167  0.5984
 9379SOL     OW39598   2.044   3.969   5.918  0.3770 -0.3850 -0.6487
 9379SOL    HW139599   2.067   3.979   5.826  0.9235  1.3328 -0.3206
 9379SOL    HW239600   1.949   3.976   5.922  0.6247  2.7648 -0.3118
 9380SOL     OW39601   2.095   4.113   4.342 -0.1274 -0.4255  0.4650
 9380SOL    HW139602   2.170   4.063   4.309  0.0272 -0.4489  0.8492
 9380SOL    HW239603   2.107   4.203   4.310  1.8753 -0.6941  0.4629
 9381SOL     OW39604   0.302   0.591   8.590 -0.1240 -0.3937  0.0532
 9381SOL    HW139605   0.253   0.652   8.645 -1.8305 -1.2461 -0.5188
 9381SOL    HW239606   0.290   0.640   8.509 -0.2248  2.0130  1.5278
 9382SOL     OW39607   2.500   4.469   1.071  0.0315 -0.1659 -0.2104
 9382SOL    HW139608   2.506   4.469   1.166  0.8562  0.3601 -0.2673
 9382SOL    HW239609   2.574   4.527   1.054 -0.1669  0.3327  0.6491
 9383SOL     OW39610   3.335   2.123   4.167  0.4084  0.7353 -0.3390
 9383SOL    HW139611   3.404   2.150   4.106  0.7848 -1.2489 -0.7967
 9383SOL    HW239612   3.306   2.037   4.135  2.9773 -1.4263  3.0868
 9384SOL     OW39613   1.218   0.792   5.092 -0.7319 -0.3967  0.0161
 9384SOL    HW139614   1.180   0.797   5.004 -1.5153 -4.7516  0.1002
 9384SOL    HW239615   1.276   0.866   5.079 -1.2959  0.2596  1.2319
 9385SOL     OW39616   0.085   2.052   4.927 -0.0134 -0.0453  0.7358
 9385SOL    HW139617   0.121   2.001   4.854  0.2550  1.6105 -0.2810
 9385SOL    HW239618   0.142   2.128   4.913  0.3952 -0.6485 -0.9295
 9386SOL     OW39619   0.367   1.688   2.632  0.0014 -0.1645 -0.3861
 9386SOL    HW139620   0.427   1.723   2.698  2.1096 -0.4731 -2.1275
 9386SOL    HW239621   0.412   1.710   2.550  1.4867  0.6757  0.6497
 9387SOL     OW39622   1.800   3.932   8.864 -0.4939 -0.1815 -0.2663
 9387SOL    HW139623   1.728   3.869   8.873  2.0615 -2.9891  0.6470
 9387SOL    HW239624   1.844   3.895   8.788  2.2397 -0.2376  1.3390
 9388SOL     OW39625   1.997   1.465   6.378  0.7057 -0.0959  0.0810
 9388SOL    HW139626   1.968   1.547   6.419 -1.1588 -0.9475  0.4458
 9388SOL    HW239627   1.932   1.443   6.312 -1.0414  1.5397  1.2386
 9389SOL     OW39628   2.649   1.498   6.371  0.5255 -0.1086  0.1321
 9389SOL    HW139629   2.612   1.584   6.391  0.9190 -0.4246  2.3152
 9389SOL    HW239630   2.715   1.480   6.439  0.3102  3.5059  1.3173
 9390SOL     OW39631   0.378   2.604   9.124  0.1060 -0.5507 -0.2283
 9390SOL    HW139632   0.394   2.565   9.038  0.2192  1.0726 -0.9233
 9390SOL    HW239633   0.353   2.691   9.095 -0.1779 -0.3832  0.5249
 9391SOL     OW39634   1.772   2.213  16.058 -0.6118 -0.1003  0.3889
 9391SOL    HW139635   1.834   2.233  15.988 -0.0963  2.5764  1.6183
 9391SOL    HW239636   1.713   2.151  16.014  1.1234 -1.2146 -0.3870
 9392SOL     OW39637   3.246   3.025   8.176  0.4972  0.4272 -0.6203
 9392SOL    HW139638   3.303   3.061   8.244  2.0816 -0.2040 -1.6118
 9392SOL    HW239639   3.254   2.931   8.189  0.9071  0.8095  1.8888
 9393SOL     OW39640   4.186   2.592   0.057 -0.0074 -0.2366 -0.0220
 9393SOL    HW139641   4.244   2.655   0.014  0.3873  0.7710  1.9754
 9393SOL    HW239642   4.181   2.618   0.149 -0.6211  0.0658 -0.1464
 9394SOL     OW39643   2.114   3.579  12.361  0.3716  0.5209 -0.0581
 9394SOL    HW139644   2.162   3.583  12.279 -1.1221  0.8159 -0.9228
 9394SOL    HW239645   2.022   3.595  12.339  0.0478 -1.7335 -0.3418
 9395SOL     OW39646   1.567   0.873  11.890  0.4886  0.0133 -0.1120
 9395SOL    HW139647   1.614   0.802  11.846 -1.8400 -2.8324  2.0841
 9395SOL    HW239648   1.559   0.936  11.817 -0.1098 -1.3183 -1.2009
 9396SOL     OW39649   0.042   0.736  17.530 -0.2205  0.1585 -0.2470
 9396SOL    HW139650   0.133   0.744  17.502  0.2251 -0.3772  1.0623
 9396SOL    HW239651   0.053   0.762  17.621 -0.8573  2.0524 -0.7189
 9397SOL     OW39652   0.120   1.235   3.068  0.3104  0.1011  0.8461
 9397SOL    HW139653   0.032   1.216   3.034 -0.2335  0.7036  1.8987
 9397SOL    HW239654   0.151   1.309   3.016 -0.2772 -0.5325 -0.4114
 9398SOL     OW39655   3.303   3.349   2.571  0.0590  0.2232 -0.0226
 9398SOL    HW139656   3.222   3.358   2.520 -1.1001 -0.1887  1.7304
 9398SOL    HW239657   3.359   3.386   2.503 -0.2023  1.1685  0.2677
 9399SOL     OW39658   1.180   3.396   5.884 -0.0544  0.2075  0.2422
 9399SOL    HW139659   1.209   3.316   5.841 -0.0857 -0.7578  1.9943
 9399SOL    HW239660   1.267   3.435   5.887  0.1499 -0.1397 -1.1037
 9400SOL     OW39661   2.773   3.810   0.200 -0.1566 -0.4340 -0.0459
 9400SOL    HW139662   2.853   3.819   0.252 -0.7323  3.2625  0.2420
 9400SOL    HW239663   2.725   3.887   0.231  1.8112  0.9182 -0.3468
 9401SOL     OW39664   2.967   0.782  13.183 -0.0758  0.1633  0.2782
 9401SOL    HW139665   2.911   0.749  13.253 -1.0785 -0.9436 -1.0299
 9401SOL    HW239666   2.904   0.810  13.116 -0.0465  2.7042  1.3224
 9402SOL     OW39667   4.367   3.221   0.066 -0.2857 -0.0643  0.0786
 9402SOL    HW139668   4.351   3.135   0.103 -2.5875 -0.7062 -2.4076
 9402SOL    HW239669   4.455   3.207   0.031 -0.0394  2.8560 -0.4893
 9403SOL     OW39670   1.652   0.964   5.711  0.1542 -0.4154  0.1772
 9403SOL    HW139671   1.600   0.917   5.777 -0.5093  0.3175  0.1788
 9403SOL    HW239672   1.670   0.901   5.641 -1.4076  0.7299 -1.2727
 9404SOL     OW39673   0.342   0.327   2.362 -0.0774  0.3047 -0.0234
 9404SOL    HW139674   0.267   0.350   2.307 -0.7276 -2.5669 -0.3317
 9404SOL    HW239675   0.408   0.354   2.298 -0.0265  2.4191  0.9121
 9405SOL     OW39676   2.415   0.118   3.691 -0.3218  0.5060 -0.0385
 9405SOL    HW139677   2.465   0.159   3.762 -1.7709 -0.3867  1.4838
 9405SOL    HW239678   2.459   0.158   3.616  2.0030  1.1215  1.6425
 9406SOL     OW39679   2.611   3.850   7.373 -0.0077  0.0952  0.2328
 9406SOL    HW139680   2.694   3.830   7.415  0.6474  1.5889 -0.3428
 9406SOL    HW239681   2.562   3.768   7.371 -0.4367  0.3746 -0.7222
 9407SOL     OW39682   3.933   3.194  17.439 -0.3189 -0.1648 -0.2590
 9407SOL    HW139683   4.025   3.168  17.448 -0.4583 -1.2508 -2.0992
 9407SOL    HW239684   3.891   3.109  17.452  0.4165 -0.1626  2.1018
 9408SOL     OW39685   2.122   2.210   4.591  0.1774 -0.8253 -0.6413
 9408SOL    HW139686   2.172   2.135   4.559  0.4423  0.2223 -2.7018
 9408SOL    HW239687   2.080   2.173   4.669 -0.5275  1.9285  0.2820
 9409SOL     OW39688   2.779   0.225   1.675  0.2733  0.5252  0.1447
 9409SOL    HW139689   2.761   0.131   1.675 -0.8927  0.7433 -1.1599
 9409SOL    HW239690   2.859   0.228   1.622  0.8229 -0.5678  0.9147
 9410SOL     OW39691   0.339   0.386   2.918  0.3934 -0.0356 -0.0985
 9410SOL    HW139692   0.340   0.337   2.835 -1.1677  0.7732 -0.6137
 9410SOL    HW239693   0.351   0.477   2.888 -1.1548  0.2254  0.0594
 9411SOL     OW39694   1.876   4.060   6.550  0.2297 -0.0177  0.4201
 9411SOL    HW139695   1.857   3.993   6.485  0.4897  0.1449  0.1736
 9411SOL    HW239696   1.829   4.035   6.629 -0.7245  2.3402  0.6148
 9412SOL     OW39697   3.330   0.664   1.886  0.2605  0.3500 -0.2587
 9412SOL    HW139698   3.258   0.709   1.841 -0.4602 -1.1403 -0.5924
 9412SOL    HW239699   3.384   0.741   1.902 -0.8733  1.0552  0.2003
 9413SOL     OW39700   3.466   2.700   4.326  0.6248 -0.0674  0.4894
 9413SOL    HW139701   3.554   2.711   4.362 -0.0520  2.6326  1.3706
 9413SOL    HW239702   3.494   2.664   4.241 -2.1940 -1.4738  0.1716
 9414SOL     OW39703   1.044   3.476   8.539  0.1808  0.1511  0.1474
 9414SOL    HW139704   0.952   3.465   8.563  0.5083 -0.3245  1.2062
 9414SOL    HW239705   1.083   3.439   8.618  0.0520  1.3308  0.7616
 9415SOL     OW39706   2.192   2.337  16.115 -0.2514  0.1018  0.2066
 9415SOL    HW139707   2.167   2.408  16.056 -1.2651  0.3838  0.9700
 9415SOL    HW239708   2.267   2.380  16.157  0.2674 -0.3602 -0.2418
 9416SOL     OW39709   0.366   3.964  11.938 -0.1022  0.3783  0.3081
 9416SOL    HW139710   0.296   3.909  11.973  0.7593 -1.0869 -0.2798
 9416SOL    HW239711   0.334   3.987  11.851  1.4900 -1.2331 -0.6995
 9417SOL     OW39712   1.761   1.945  12.401  0.2727  0.9260  0.4143
 9417SOL    HW139713   1.769   1.850  12.392  0.7114  0.9451  0.5836
 9417SOL    HW239714   1.790   1.953  12.492 -1.7184  0.3941  1.0802
 9418SOL     OW39715   4.184   2.535   4.012 -0.5779 -0.2029 -0.3688
 9418SOL    HW139716   4.208   2.610   4.067  0.8550 -1.9503  1.3713
 9418SOL    HW239717   4.146   2.580   3.936  1.6920  0.0508 -1.3548
 9419SOL     OW39718   2.782   1.305   7.296  0.1866  0.5695 -0.2567
 9419SOL    HW139719   2.862   1.290   7.246 -0.6885  0.5403 -1.6523
 9419SOL    HW239720   2.779   1.240   7.367 -0.8770  0.5956 -0.2744
 9420SOL     OW39721   2.851   4.659  15.898  0.7987 -0.2306 -0.0034
 9420SOL    HW139722   2.934   4.636  15.857  2.0272  5.7145 -0.8069
 9420SOL    HW239723   2.797   4.693  15.827 -1.5644 -1.5473  1.1648
 9421SOL     OW39724   3.308   2.052   7.077 -0.1801 -0.2795  0.1006
 9421SOL    HW139725   3.347   2.084   7.158  2.0407 -1.1356 -0.6188
 9421SOL    HW239726   3.376   2.058   7.011 -0.6582  0.7577 -0.2859
 9422SOL     OW39727   2.986   1.564   8.931 -0.1880  0.0038  0.1893
 9422SOL    HW139728   3.041   1.605   8.998 -0.3749  0.4110  0.0899
 9422SOL    HW239729   3.048   1.566   8.858 -0.5428  2.6056 -0.0510
 9423SOL     OW39730   4.673   2.454   4.745  0.3430 -0.0224  0.2065
 9423SOL    HW139731   0.025   2.401   4.736 -0.1385 -0.6345 -0.4279
 9423SOL    HW239732   4.650   2.447   4.838 -0.3923  1.1898  0.1130
 9424SOL     OW39733   1.588   3.905   4.313  0.0355  0.0588  0.0822
 9424SOL    HW139734   1.674   3.947   4.318 -0.1590  0.4076  0.4460
 9424SOL    HW239735   1.587   3.845   4.388  1.8068 -1.2887 -0.9847
 9425SOL     OW39736   2.347   4.094   9.933 -0.8672 -0.1068 -0.1045
 9425SOL    HW139737   2.332   4.126   9.844 -0.9075  0.4055  0.0843
 9425SOL    HW239738   2.383   4.007   9.914 -0.7994 -0.4614  1.6321
 9426SOL     OW39739   1.253   4.632   8.094 -0.8777  0.0529 -0.1729
 9426SOL    HW139740   1.300   4.605   8.173  2.7852  1.9347 -1.6609
 9426SOL    HW239741   1.165   4.656   8.121  0.2476  0.4682  3.1044
 9427SOL     OW39742   0.234   1.329   8.703  0.3540  0.3428  0.0461
 9427SOL    HW139743   0.198   1.272   8.635  1.0667  1.8953 -1.6227
 9427SOL    HW239744   0.324   1.333   8.671  0.6766 -0.2067  0.8820
 9428SOL     OW39745   4.262   1.099   1.867 -0.3144  0.0276  0.1018
 9428SOL    HW139746   4.278   1.063   1.954  2.0141 -0.1046 -0.3792
 9428SOL    HW239747   4.346   1.067   1.835 -0.0834 -0.1954  0.9321
 9429SOL     OW39748   0.346   1.861  11.549 -0.1143  0.5042  0.2046
 9429SOL    HW139749   0.393   1.802  11.489 -2.6670 -0.3257 -0.9966
 9429SOL    HW239750   0.285   1.799  11.587  0.1243  0.7843  1.0388
 9430SOL     OW39751   4.180   1.922   0.905  0.2586 -0.0628  0.1791
 9430SOL    HW139752   4.162   1.837   0.865  0.0059  1.1978 -2.3462
 9430SOL    HW239753   4.091   1.956   0.907  0.0587 -0.7336  2.7353
 9431SOL     OW39754   2.996   3.009   8.083  0.0381  0.1876 -0.1525
 9431SOL    HW139755   2.938   2.945   8.126  1.3651 -2.0368 -1.7210
 9431SOL    HW239756   3.076   3.002   8.135 -1.7065 -1.5440  2.2843
 9432SOL     OW39757   1.775   1.190  13.090  0.0556 -0.1818 -0.1052
 9432SOL    HW139758   1.696   1.141  13.114  0.0736 -0.6674 -1.0429
 9432SOL    HW239759   1.810   1.227  13.171  0.9470 -0.8505 -0.1851
 9433SOL     OW39760   4.533   1.098   2.664 -0.2915 -0.1598 -0.4623
 9433SOL    HW139761   4.477   1.156   2.613 -1.4394 -0.7571  0.1224
 9433SOL    HW239762   4.471   1.026   2.670  2.7676 -2.9665 -2.3057
 9434SOL     OW39763   1.358   4.513   2.468  0.5623 -0.4348  0.2545
 9434SOL    HW139764   1.396   4.598   2.491 -0.0649 -0.6088  1.9415
 9434SOL    HW239765   1.382   4.495   2.378 -2.0697 -0.9165 -0.3509
 9435SOL     OW39766   3.616   0.301   3.069 -0.1744 -0.1739  0.1352
 9435SOL    HW139767   3.534   0.260   3.040  0.5332 -1.4869  0.0043
 9435SOL    HW239768   3.589   0.393   3.057 -1.5642 -0.5597  0.2440
 9436SOL     OW39769   3.269   1.524   4.317 -0.0348 -0.4977  0.4697
 9436SOL    HW139770   3.203   1.461   4.287 -0.9365  1.0722 -0.8396
 9436SOL    HW239771   3.350   1.488   4.279 -1.0181 -1.3150 -0.8875
 9437SOL     OW39772   3.001   3.597  11.071 -0.3351 -0.0896 -0.4263
 9437SOL    HW139773   2.975   3.516  11.027 -0.1125  0.5208 -1.6839
 9437SOL    HW239774   3.077   3.559  11.115 -1.4411 -0.2148  1.3763
 9438SOL     OW39775   3.278   1.555   3.431  0.3146  0.0168 -0.1915
 9438SOL    HW139776   3.300   1.643   3.403  0.8338 -0.2405 -0.6004
 9438SOL    HW239777   3.232   1.579   3.511 -2.1920 -2.0736 -1.0224
 9439SOL     OW39778   0.534   1.171   3.940  0.6167 -0.3036  0.4223
 9439SOL    HW139779   0.507   1.249   3.892 -1.5190 -0.7752  0.8569
 9439SOL    HW239780   0.628   1.173   3.921  0.4014  0.2784 -0.5771
 9440SOL     OW39781   1.091   3.763  17.235  0.0614 -0.1371 -0.1227
 9440SOL    HW139782   1.082   3.841  17.289  1.6947 -2.4916  3.4967
 9440SOL    HW239783   1.102   3.696  17.302  2.2348 -0.0442 -0.3659
 9441SOL     OW39784   2.194   2.905   9.191  0.3606 -0.2190  0.3875
 9441SOL    HW139785   2.200   2.990   9.148 -2.4076 -1.3369 -2.1932
 9441SOL    HW239786   2.284   2.874   9.203  0.7004  0.5381 -0.2585
 9442SOL     OW39787   1.243   1.400   3.742  0.0145  0.3102 -0.3751
 9442SOL    HW139788   1.202   1.469   3.690 -0.5512 -0.6168 -1.1569
 9442SOL    HW239789   1.318   1.443   3.783 -0.5974  0.7767  0.2550
 9443SOL     OW39790   3.743   1.922  16.881 -0.1368  0.2516 -0.2839
 9443SOL    HW139791   3.661   1.960  16.910  0.9896  0.4259  2.6477
 9443SOL    HW239792   3.720   1.830  16.869  2.2071 -0.2954 -0.6487
 9444SOL     OW39793   0.245   1.172   6.763 -0.0757  0.1650 -0.4844
 9444SOL    HW139794   0.186   1.155   6.836  1.7049  0.2721  0.9909
 9444SOL    HW239795   0.333   1.147   6.792 -1.6399 -1.6303  2.7400
 9445SOL     OW39796   0.120   2.572   2.887 -0.5399 -0.6174  0.6338
 9445SOL    HW139797   0.047   2.516   2.912 -0.7935  0.0594  1.4146
 9445SOL    HW239798   0.110   2.643   2.950  1.4095  0.8065 -0.6360
 9446SOL     OW39799   3.947   3.713   4.412 -0.6468 -0.2618 -0.0148
 9446SOL    HW139800   3.898   3.660   4.475 -3.1104  2.7722  0.6328
 9446SOL    HW239801   3.962   3.639   4.353  1.0054  0.9614 -1.1209
 9447SOL     OW39802   2.562   0.288   5.394  0.6889  0.0685 -0.0187
 9447SOL    HW139803   2.491   0.227   5.414 -2.1241  2.9070 -1.2916
 9447SOL    HW239804   2.554   0.332   5.478 -1.1656  0.9363 -0.6321
 9448SOL     OW39805   1.776   3.582   1.511 -0.0879 -0.2955  0.0583
 9448SOL    HW139806   1.807   3.621   1.429  0.8456  1.6642  1.3188
 9448SOL    HW239807   1.788   3.490   1.487 -0.2027 -0.2667 -0.1040
 9449SOL     OW39808   1.512   4.662   1.511 -0.0186 -0.0339 -0.2398
 9449SOL    HW139809   1.574   4.686   1.579 -1.8295 -0.2159  1.4851
 9449SOL    HW239810   1.480   4.574   1.531 -0.2516  0.3432  1.0260
 9450SOL     OW39811   4.268   4.105  12.554  0.1116 -0.5664 -0.3653
 9450SOL    HW139812   4.341   4.106  12.615  0.7698  2.0322 -1.2008
 9450SOL    HW239813   4.193   4.083  12.610  1.2884 -0.1086  1.3998
 9451SOL     OW39814   1.442   0.287   8.487  0.2649  0.7562 -0.4296
 9451SOL    HW139815   1.525   0.246   8.464  0.3919  1.8716 -1.9528
 9451SOL    HW239816   1.435   0.289   8.583 -0.8563  0.4456 -0.5005
 9452SOL     OW39817   2.001   0.283   3.433  0.4613  0.3437 -0.0860
 9452SOL    HW139818   2.062   0.346   3.470 -0.4668 -1.2856  4.2608
 9452SOL    HW239819   2.051   0.204   3.410  1.6530  1.8936 -2.8794
 9453SOL     OW39820   3.638   1.344   6.505  0.2179  0.0058 -0.7394
 9453SOL    HW139821   3.692   1.400   6.449 -0.5365 -0.3060 -1.7612
 9453SOL    HW239822   3.707   1.285   6.536 -0.0338 -0.3917 -0.9367
 9454SOL     OW39823   4.454   4.551   2.876  0.2511 -0.1344  0.0029
 9454SOL    HW139824   4.453   4.477   2.814 -0.4623 -0.6562  0.6321
 9454SOL    HW239825   4.396   4.616   2.836 -0.8568 -1.0586  0.0893
 9455SOL     OW39826   0.225   3.636   4.429  0.1808 -0.0522 -0.2682
 9455SOL    HW139827   0.272   3.608   4.507  0.2658  0.0885 -0.2698
 9455SOL    HW239828   0.133   3.616   4.449 -0.0644  1.3399  0.0045
 9456SOL     OW39829   3.211   3.788   3.999 -0.6880 -0.6728 -0.4553
 9456SOL    HW139830   3.158   3.723   4.045  1.1212 -2.0832 -0.3487
 9456SOL    HW239831   3.255   3.831   4.073 -1.1485 -0.0704 -0.5381
 9457SOL     OW39832   1.747   3.026   2.816  0.0807  0.0212 -0.0251
 9457SOL    HW139833   1.800   2.979   2.881  2.8805 -0.4146 -2.5956
 9457SOL    HW239834   1.669   2.972   2.809 -0.8952  1.6461 -1.6968
 9458SOL     OW39835   2.724   3.405  11.020 -0.1792  0.0070  0.3417
 9458SOL    HW139836   2.641   3.435  10.984 -0.3657  1.5741  2.1165
 9458SOL    HW239837   2.718   3.433  11.112  4.1647  1.3982  0.1742
 9459SOL     OW39838   1.937   2.412   2.599 -0.8454 -0.2032  0.0389
 9459SOL    HW139839   1.881   2.481   2.564 -1.0841  0.6662  2.1356
 9459SOL    HW239840   2.016   2.462   2.622  0.9160 -2.5320 -0.9632
 9460SOL     OW39841   4.023   3.188  12.165 -0.1160 -0.6592  0.0177
 9460SOL    HW139842   3.976   3.271  12.167  3.6462  1.4908 -0.6636
 9460SOL    HW239843   3.960   3.116  12.160 -0.8391 -0.1207  1.3575
 9461SOL     OW39844   4.356   3.633   5.977  0.4038 -0.7401  0.4462
 9461SOL    HW139845   4.285   3.571   5.961  2.1813 -2.9212  1.0640
 9461SOL    HW239846   4.318   3.717   5.952 -0.0499 -1.3978 -1.0885
 9462SOL     OW39847   3.561   4.458   1.703  0.1890  0.6549  0.1813
 9462SOL    HW139848   3.499   4.486   1.636  0.1060  0.5698  0.2227
 9462SOL    HW239849   3.629   4.421   1.647  1.7976  0.6929  2.1092
 9463SOL     OW39850   0.479   1.975   2.887  0.6187  0.1908  0.0471
 9463SOL    HW139851   0.457   2.017   2.804 -0.3435 -0.7672 -0.1823
 9463SOL    HW239852   0.551   1.925   2.848 -0.0448 -2.7894  2.6094
 9464SOL     OW39853   1.506   2.658   4.210 -0.8276 -0.3646 -0.2060
 9464SOL    HW139854   1.502   2.631   4.302  1.2015 -2.6694 -0.8005
 9464SOL    HW239855   1.582   2.610   4.177 -0.6789 -1.3927  1.6426
 9465SOL     OW39856   1.611   4.178   1.996 -0.0601  0.1200 -0.1417
 9465SOL    HW139857   1.645   4.203   1.911  1.3366  1.7773  0.9150
 9465SOL    HW239858   1.536   4.124   1.970  0.7297 -0.3077 -1.5142
 9466SOL     OW39859   4.454   0.640  17.462  0.4286 -0.2500 -0.6264
 9466SOL    HW139860   4.385   0.609  17.521 -0.2243  1.8624 -0.2761
 9466SOL    HW239861   4.456   0.563  17.405 -1.2260 -0.3932 -0.5054
 9467SOL     OW39862   0.113   1.021  17.488 -0.5119  0.2203 -0.4463
 9467SOL    HW139863   0.052   0.948  17.480  0.9366 -0.9221 -0.9533
 9467SOL    HW239864   0.183   0.986  17.542 -0.9062 -1.2171 -0.8660
 9468SOL     OW39865   0.781   2.767  14.465 -0.3916 -0.2421  0.3068
 9468SOL    HW139866   0.873   2.790  14.452 -0.0314 -1.9723 -0.2424
 9468SOL    HW239867   0.771   2.713  14.386  0.3682  1.4312 -0.9521
 9469SOL     OW39868   1.713   0.516   1.528  0.0609 -0.0033  0.0930
 9469SOL    HW139869   1.749   0.432   1.499 -0.0314 -0.2130  0.5760
 9469SOL    HW239870   1.659   0.496   1.605  1.5389 -1.7148  0.6849
 9470SOL     OW39871   3.549   0.686   8.151  0.0517  0.0114 -1.3497
 9470SOL    HW139872   3.564   0.767   8.200  0.7802 -0.8963 -0.0612
 9470SOL    HW239873   3.496   0.640   8.216  0.0044  2.9917  0.7096
 9471SOL     OW39874   2.344   0.144   5.812 -0.2677  0.1539  0.3719
 9471SOL    HW139875   2.304   0.231   5.815  2.3956  1.4533 -2.0822
 9471SOL    HW239876   2.392   0.141   5.729 -0.3435  1.7199  0.2722
 9472SOL     OW39877   1.278   2.823   5.612 -0.4289 -0.3484 -0.5501
 9472SOL    HW139878   1.244   2.843   5.700 -0.0428 -1.0628 -0.2400
 9472SOL    HW239879   1.364   2.861   5.631 -0.6375  0.4911 -1.2419
 9473SOL     OW39880   2.731   0.947   2.313  0.3129  0.0369  0.4898
 9473SOL    HW139881   2.807   0.935   2.256  0.9285  0.4783  1.2146
 9473SOL    HW239882   2.773   0.989   2.389  2.6917 -0.4473 -0.5495
 9474SOL     OW39883   3.590   3.442  12.548 -0.2733  0.0922 -0.0515
 9474SOL    HW139884   3.647   3.411  12.477 -1.7730 -2.6677 -0.0530
 9474SOL    HW239885   3.503   3.419  12.517 -0.4557  1.1343 -0.2869
 9475SOL     OW39886   1.800   0.142   5.503 -0.4652 -0.3445 -0.2262
 9475SOL    HW139887   1.837   0.071   5.451  1.7853  1.1394 -0.6467
 9475SOL    HW239888   1.713   0.134   5.464  0.3327  2.6848 -2.6334
 9476SOL     OW39889   1.030   0.685   3.093  0.1671 -0.0149  0.0299
 9476SOL    HW139890   1.090   0.750   3.129 -0.5806  0.1850  0.8929
 9476SOL    HW239891   0.955   0.691   3.152 -1.2868 -1.9795 -1.6186
 9477SOL     OW39892   3.782   1.758   8.396 -0.8194  0.1985  0.0063
 9477SOL    HW139893   3.793   1.679   8.450  2.9401  0.0800 -0.9226
 9477SOL    HW239894   3.874   1.777   8.379 -1.1983  0.1124 -2.2265
 9478SOL     OW39895   1.274   0.756  10.012 -0.1550  0.0844 -0.4866
 9478SOL    HW139896   1.259   0.666  10.044  0.2299 -0.3699 -1.5985
 9478SOL    HW239897   1.230   0.745   9.928 -1.3605 -0.9818  0.2872
 9479SOL     OW39898   1.599   2.366   8.472 -0.6698 -0.3863  0.3673
 9479SOL    HW139899   1.534   2.436   8.468  0.5164  0.6312 -1.0542
 9479SOL    HW239900   1.567   2.314   8.399 -2.8809 -1.6110  2.2135
 9480SOL     OW39901   4.376   1.397   2.298 -0.2052  0.5100  0.4083
 9480SOL    HW139902   4.380   1.375   2.205  1.1895 -1.5263  0.9575
 9480SOL    HW239903   4.381   1.492   2.309  2.0203  0.2171  1.8521
 9481SOL     OW39904   2.695   3.845  17.662  0.1954 -0.7089 -0.6709
 9481SOL    HW139905   2.729   3.818   0.036 -1.4400 -0.0869  0.1809
 9481SOL    HW239906   2.655   3.931  17.680  0.4618  0.1797 -4.2261
 9482SOL     OW39907   1.811   3.286   9.216  1.3076  0.3333  0.1810
 9482SOL    HW139908   1.871   3.229   9.167  2.5066  1.8173 -0.0510
 9482SOL    HW239909   1.786   3.238   9.296  0.8246  2.5646  1.3660
 9483SOL     OW39910   2.603   0.566   1.151 -0.4824  0.3487 -0.2872
 9483SOL    HW139911   2.508   0.565   1.146 -0.4414  0.2298 -0.9227
 9483SOL    HW239912   2.628   0.656   1.130 -0.0935 -0.6203 -3.9914
 9484SOL     OW39913   3.219   1.982   0.075  0.4205  0.1366 -0.3381
 9484SOL    HW139914   3.130   1.999   0.045 -0.5013 -2.9756  0.5425
 9484SOL    HW239915   3.258   2.069   0.087  1.3423 -0.2147 -0.7306
 9485SOL     OW39916   0.511   3.319  12.288 -0.2240 -0.1618 -0.0357
 9485SOL    HW139917   0.418   3.337  12.295 -0.4701 -1.4356 -0.1213
 9485SOL    HW239918   0.515   3.230  12.324 -1.5368 -0.7485 -1.3488
 9486SOL     OW39919   0.203   0.302   5.432 -0.5846 -0.3897  0.1609
 9486SOL    HW139920   0.128   0.290   5.490 -0.0491 -0.2792  0.8741
 9486SOL    HW239921   0.272   0.297   5.498 -1.0027  0.2665  0.6479
 9487SOL     OW39922   4.469   1.850   7.151  0.3779  0.2305 -0.0723
 9487SOL    HW139923   4.395   1.818   7.100 -0.2957  1.7179 -0.0307
 9487SOL    HW239924   4.536   1.857   7.083 -0.2776  0.7011 -0.6603
 9488SOL     OW39925   2.812   2.299   6.416  0.4531 -0.1985  0.7179
 9488SOL    HW139926   2.866   2.310   6.494  4.3523 -2.2393 -1.6696
 9488SOL    HW239927   2.835   2.380   6.370 -0.1190 -1.8647 -2.5048
 9489SOL     OW39928   1.697   4.133  16.326  0.1013 -0.1346  0.4680
 9489SOL    HW139929   1.664   4.053  16.366  0.3033 -0.7331 -0.5816
 9489SOL    HW239930   1.615   4.173  16.297  1.1553  1.5588 -0.1845
 9490SOL     OW39931   0.710   1.308  13.200 -0.3090  0.3832 -0.4142
 9490SOL    HW139932   0.763   1.386  13.181  2.0469 -1.2056 -0.3384
 9490SOL    HW239933   0.671   1.283  13.117 -0.5508  0.4075 -0.3079
 9491SOL     OW39934   0.175   2.077   3.757 -0.3154 -0.6564 -0.5734
 9491SOL    HW139935   0.252   2.044   3.802  0.3141  0.5074 -0.7851
 9491SOL    HW239936   0.121   1.998   3.752 -0.8401 -0.4329  1.5888
 9492SOL     OW39937   2.735   3.453  16.818 -0.0018 -0.1563 -0.5736
 9492SOL    HW139938   2.690   3.389  16.763 -1.8390 -0.9008  1.8037
 9492SOL    HW239939   2.672   3.525  16.824 -0.4319 -0.6682  0.9004
 9493SOL     OW39940   4.358   0.718   4.956 -0.2014 -0.0371 -0.2531
 9493SOL    HW139941   4.407   0.645   4.920  0.4091 -0.8840  2.2489
 9493SOL    HW239942   4.347   0.702   5.050 -0.5283 -4.5493 -1.0999
 9494SOL     OW39943   2.540   2.773   6.902  0.1114  0.5530 -0.1258
 9494SOL    HW139944   2.595   2.770   6.824  1.1144 -0.3401  0.6180
 9494SOL    HW239945   2.554   2.865   6.928  3.1632 -0.6275  2.4193
 9495SOL     OW39946   4.479   2.076   3.462  0.0004 -0.0615  0.9515
 9495SOL    HW139947   4.395   2.034   3.482  0.0976 -0.8534 -0.2744
 9495SOL    HW239948   4.446   2.150   3.411  1.8169 -0.0386 -0.2063
 9496SOL     OW39949   1.855   2.149   1.530 -0.7339  0.3467 -0.0580
 9496SOL    HW139950   1.923   2.082   1.525  0.0200  0.9017  2.6053
 9496SOL    HW239951   1.792   2.092   1.575 -0.2613  1.9491  2.6745
 9497SOL     OW39952   3.601   1.396   6.800  0.0480  0.2979  0.5668
 9497SOL    HW139953   3.605   1.434   6.713 -0.3336  1.1089  0.9052
 9497SOL    HW239954   3.506   1.386   6.811  0.2657 -1.7792  0.5442
 9498SOL     OW39955   3.898   0.822   2.843  0.3146  0.1035 -0.0974
 9498SOL    HW139956   3.871   0.734   2.817  0.3462 -0.3033  1.2333
 9498SOL    HW239957   3.854   0.867   2.771 -0.7620 -0.6301  0.0872
 9499SOL     OW39958   3.851   2.118   5.224  0.4627  1.0847 -0.4141
 9499SOL    HW139959   3.755   2.117   5.223  0.4358 -0.9886  1.5970
 9499SOL    HW239960   3.876   2.047   5.165 -0.0520 -1.5252  2.4976
 9500SOL     OW39961   2.448   0.630   2.412 -0.2735  0.1344 -0.5863
 9500SOL    HW139962   2.489   0.570   2.349  1.8017  0.8194  0.1206
 9500SOL    HW239963   2.508   0.624   2.486  3.1105 -0.1174 -3.3577
 9501SOL     OW39964   3.112   0.576  13.916 -0.0459 -0.1645  0.5815
 9501SOL    HW139965   3.020   0.550  13.905  0.4609 -1.1318 -1.5065
 9501SOL    HW239966   3.155   0.503  13.871 -4.8307 -2.2961 -0.5583
 9502SOL     OW39967   2.906   3.773  12.363  0.0410  0.4845 -0.5732
 9502SOL    HW139968   2.959   3.705  12.404  0.1277  0.2229 -1.1230
 9502SOL    HW239969   2.898   3.831  12.439 -1.8268 -0.6590  0.0960
 9503SOL     OW39970   1.125   1.626   6.112 -0.5761  0.3337 -0.4797
 9503SOL    HW139971   1.138   1.533   6.128  0.2547  0.0967 -2.4446
 9503SOL    HW239972   1.042   1.641   6.157  0.4498  3.1253  0.4367
 9504SOL     OW39973   4.462   1.672  13.568 -0.7122  0.1173  0.3432
 9504SOL    HW139974   4.476   1.610  13.640 -1.6660  0.2814  0.6673
 9504SOL    HW239975   4.369   1.653  13.554 -1.1266 -0.9718  4.7401
 9505SOL     OW39976   3.964   2.678   0.562  0.1313  0.2110  0.0017
 9505SOL    HW139977   4.049   2.701   0.600  0.7211  0.4466 -1.4258
 9505SOL    HW239978   3.925   2.664   0.648  1.2838  1.7775  0.7805
 9506SOL     OW39979   3.136   2.343   8.427  0.5306  0.2119 -0.0608
 9506SOL    HW139980   3.188   2.317   8.503 -0.8834  0.1269  0.8565
 9506SOL    HW239981   3.057   2.373   8.470  0.9206  1.8110 -0.4352
 9507SOL     OW39982   3.438   0.882   4.763  0.4669  0.0008 -0.1335
 9507SOL    HW139983   3.424   0.875   4.669  1.8508  0.5022 -0.3713
 9507SOL    HW239984   3.364   0.834   4.800  2.0359 -1.4460  1.1226
 9508SOL     OW39985   3.145   3.101   9.930  0.4318 -0.2805 -0.1188
 9508SOL    HW139986   3.154   3.172   9.994 -1.1230 -1.7238  1.6649
 9508SOL    HW239987   3.063   3.120   9.885  0.4341 -1.7424 -0.7208
 9509SOL     OW39988   0.084   4.034   5.459 -0.0360 -0.2570 -0.4429
 9509SOL    HW139989   0.049   3.948   5.484  1.0834 -0.0988  1.6805
 9509SOL    HW239990   0.012   4.075   5.411  1.4339  1.9256 -0.7664
 9510SOL     OW39991   1.723   1.073   7.092 -0.0878 -0.4663 -0.2046
 9510SOL    HW139992   1.743   1.119   7.173 -0.2103  0.6766 -0.8224
 9510SOL    HW239993   1.778   1.116   7.026 -2.3350 -0.1248 -1.8534
 9511SOL     OW39994   1.243   4.039   7.479  0.2885 -0.0832  1.0693
 9511SOL    HW139995   1.270   4.125   7.447  0.0660 -0.3631  0.1326
 9511SOL    HW239996   1.266   3.985   7.403  0.4215  0.3025  0.8372
 9512SOL     OW39997   2.265   0.314  15.517  0.5172  0.5757  0.5030
 9512SOL    HW139998   2.297   0.393  15.474  2.5231  1.5443  3.7885
 9512SOL    HW239999   2.349   0.269  15.531  0.9733  1.3025  0.1381
 9513SOL     OW40000   0.528   2.071   5.595  0.7436 -0.1638 -0.4693
 9513SOL    HW140001   0.514   2.155   5.550  1.0423  0.3232  0.3604
 9513SOL    HW240002   0.493   2.012   5.527  1.9639 -2.2772  0.7543
 9514SOL     OW40003   2.434   3.281   2.762 -0.1917 -0.1497 -0.4334
 9514SOL    HW140004   2.404   3.210   2.705  0.2483 -1.3166  0.7807
 9514SOL    HW240005   2.528   3.265   2.762 -0.3680 -1.1928 -0.9600
 9515SOL     OW40006   0.934   3.026   1.066 -0.2381  0.1234 -0.3942
 9515SOL    HW140007   0.949   3.120   1.062  0.0401  0.0964  0.1048
 9515SOL    HW240008   0.839   3.018   1.063 -0.3420  1.2646 -0.1802
 9516SOL     OW40009   0.586   1.860   3.565 -0.1868 -0.3925  0.1413
 9516SOL    HW140010   0.621   1.824   3.646  2.1601  1.7756  0.0867
 9516SOL    HW240011   0.661   1.854   3.506 -0.0767  1.7852  0.0781
 9517SOL     OW40012   3.923   2.101   1.393  0.0661  0.0770 -0.1786
 9517SOL    HW140013   3.934   2.006   1.389  0.2621  0.1883 -2.2063
 9517SOL    HW240014   3.846   2.111   1.449 -0.0822 -1.1493 -0.1644
 9518SOL     OW40015   1.687   0.238   1.600  0.1862  0.3546  0.3706
 9518SOL    HW140016   1.623   0.298   1.639  1.1564  0.7939  1.2670
 9518SOL    HW240017   1.710   0.182   1.674  0.8541 -1.0389 -0.8855
 9519SOL     OW40018   3.223   4.175   4.327 -0.3670 -0.5168 -0.2722
 9519SOL    HW140019   3.170   4.133   4.394  2.5112 -1.5215  1.3773
 9519SOL    HW240020   3.179   4.141   4.249  1.3298  1.1499 -1.9749
 9520SOL     OW40021   2.449   0.586   6.259 -0.1083 -0.0877 -0.7918
 9520SOL    HW140022   2.480   0.651   6.321  0.2889 -2.0808  1.0961
 9520SOL    HW240023   2.526   0.530   6.248  0.6120  1.3428 -2.9527
 9521SOL     OW40024   3.826   2.132   8.073 -0.4388 -0.2674 -0.1248
 9521SOL    HW140025   3.906   2.081   8.067 -0.8310 -0.6399 -2.2411
 9521SOL    HW240026   3.825   2.139   8.169  0.2513 -0.7331 -0.0870
 9522SOL     OW40027   4.321   1.899  15.397 -0.4765  0.3163  0.0312
 9522SOL    HW140028   4.232   1.871  15.380  0.0595 -0.4395 -1.4589
 9522SOL    HW240029   4.365   1.884  15.314 -0.6917 -1.1651  0.1781
 9523SOL     OW40030   1.010   3.271  16.420  0.0332 -0.4465 -0.3263
 9523SOL    HW140031   0.987   3.181  16.445 -1.1374 -0.5869 -1.8642
 9523SOL    HW240032   1.088   3.263  16.365  0.6493 -3.3094  0.9549
 9524SOL     OW40033   2.746   0.912   1.408 -0.2523  0.0589 -0.0824
 9524SOL    HW140034   2.726   0.833   1.458  1.5086 -0.9447 -0.9206
 9524SOL    HW240035   2.759   0.983   1.470 -0.9376 -1.1032  1.3882
 9525SOL     OW40036   1.486   3.928  10.178  0.6719  0.0214  0.9508
 9525SOL    HW140037   1.581   3.942  10.172  0.4513  1.2346  0.3458
 9525SOL    HW240038   1.457   3.963  10.094  2.0057  3.1808  1.7827
 9526SOL     OW40039   0.074   1.727   9.377 -0.4502 -0.1172  0.2635
 9526SOL    HW140040   0.037   1.810   9.348 -0.5999 -1.6086 -3.7435
 9526SOL    HW240041   0.077   1.675   9.297  0.2654  2.5854 -1.4434
 9527SOL     OW40042   3.409   3.610   5.800  0.0100  0.4649  0.3806
 9527SOL    HW140043   3.357   3.547   5.750 -1.3763  0.7255  1.4807
 9527SOL    HW240044   3.492   3.563   5.802 -1.8875 -2.8420  1.2894
 9528SOL     OW40045   1.395   4.010   2.110  0.0776  0.1489 -0.2143
 9528SOL    HW140046   1.323   3.958   2.146  2.4090 -2.0273  1.2932
 9528SOL    HW240047   1.349   4.093   2.114 -1.4014 -0.5999 -1.8068
 9529SOL     OW40048   3.295   4.394   0.721 -0.2888  0.0182  0.0220
 9529SOL    HW140049   3.362   4.387   0.652 -1.3457 -1.5311 -0.8578
 9529SOL    HW240050   3.345   4.405   0.802  0.6729  2.2608 -0.8670
 9530SOL     OW40051   1.737   3.513   2.073 -0.3062 -0.3239  0.7249
 9530SOL    HW140052   1.734   3.476   1.985 -0.8485  1.3120  0.0587
 9530SOL    HW240053   1.814   3.569   2.068 -0.5944 -0.1392 -1.9152
 9531SOL     OW40054   3.243   1.048   7.394  0.9208  0.8061 -0.2945
 9531SOL    HW140055   3.258   1.042   7.488 -0.8934 -2.7715 -0.2471
 9531SOL    HW240056   3.336   1.042   7.372  1.2308  1.5760  0.7786
 9532SOL     OW40057   2.116   4.672  11.483  0.5059 -0.3411 -0.1267
 9532SOL    HW140058   2.207   4.677  11.513  0.5862  1.1016 -0.5996
 9532SOL    HW240059   2.104   4.589  11.438 -1.3333 -0.6611  0.9481
 9533SOL     OW40060   3.886   2.933  17.533  0.1283 -0.1450  0.0096
 9533SOL    HW140061   3.800   2.937  17.490  1.3527 -0.9083 -2.4487
 9533SOL    HW240062   3.893   2.853  17.585 -0.7238 -0.9155 -1.0577
 9534SOL     OW40063   0.738   4.715   8.703  0.4987  0.3112  0.4628
 9534SOL    HW140064   0.661   4.727   8.758 -1.2565 -3.4377 -1.1775
 9534SOL    HW240065   0.746   0.068   8.651 -2.0479 -0.4249 -1.0771
 9535SOL     OW40066   1.966   2.837   8.019  0.3797  0.4944  0.2966
 9535SOL    HW140067   1.909   2.904   8.056  1.5953  1.4840  0.3671
 9535SOL    HW240068   1.908   2.761   8.007  4.7277 -2.7183 -0.3876
 9536SOL     OW40069   0.549   2.661   5.872  0.6301  0.4074  0.0681
 9536SOL    HW140070   0.500   2.579   5.862  0.1007  0.7811 -0.3834
 9536SOL    HW240071   0.574   2.646   5.963 -0.7000 -1.4001  0.1381
 9537SOL     OW40072   2.502   0.962   0.502 -0.3847 -0.2773  0.3638
 9537SOL    HW140073   2.503   0.928   0.592  0.3766 -1.0205  0.0715
 9537SOL    HW240074   2.562   1.036   0.505 -0.7511  0.1445 -2.9580
 9538SOL     OW40075   2.495   1.979   2.240 -0.1064  0.6103 -0.6936
 9538SOL    HW140076   2.410   1.937   2.231 -0.1691  0.4766  0.6179
 9538SOL    HW240077   2.495   2.036   2.163  0.0203 -0.4140 -1.4540
 9539SOL     OW40078   4.394   1.175   6.933  0.2628  0.3096 -0.3237
 9539SOL    HW140079   4.473   1.138   6.893  0.7626  0.1498  0.8079
 9539SOL    HW240080   4.364   1.244   6.874 -2.1292 -0.2969  0.1725
 9540SOL     OW40081   2.309   1.238   9.683  0.0457  0.3483 -0.2488
 9540SOL    HW140082   2.248   1.190   9.739 -1.3617 -0.2407 -2.2626
 9540SOL    HW240083   2.363   1.286   9.745 -0.1649  1.3101 -0.7970
 9541SOL     OW40084   0.061   2.721  13.985 -0.2750  0.5150 -0.2842
 9541SOL    HW140085   0.103   2.634  13.984 -0.4360  0.4517 -1.1282
 9541SOL    HW240086   0.069   2.744  14.078 -1.7241 -1.1499  0.2612
 9542SOL     OW40087   2.619   2.092  17.652 -0.0458  0.0084 -0.3131
 9542SOL    HW140088   2.702   2.112  17.608 -0.3515  0.6513 -0.6022
 9542SOL    HW240089   2.646   2.127   0.025 -0.9029 -0.8581  0.3190
 9543SOL     OW40090   2.379   2.807   8.544  0.2014  0.0739  0.6739
 9543SOL    HW140091   2.301   2.757   8.519  0.6843 -0.5032  0.3132
 9543SOL    HW240092   2.436   2.740   8.582  0.8669  0.3437  0.1574
 9544SOL     OW40093   1.749   2.852   0.329  0.4332  0.0525  0.3158
 9544SOL    HW140094   1.801   2.911   0.384 -2.1589  1.1569  1.5889
 9544SOL    HW240095   1.726   2.789   0.397 -2.2337  0.6715  0.0019
 9545SOL     OW40096   4.597   1.827  17.025 -0.3313  0.3018  0.2448
 9545SOL    HW140097   4.618   1.913  16.989  0.9261 -0.0863  0.0469
 9545SOL    HW240098   4.503   1.832  17.008 -0.4366 -0.5460  0.6166
 9546SOL     OW40099   2.608   3.249  16.697 -0.1187 -0.2520 -0.2160
 9546SOL    HW140100   2.647   3.210  16.618  1.3495  3.7456 -1.5072
 9546SOL    HW240101   2.518   3.218  16.690 -0.3835  0.4599  0.0272
 9547SOL     OW40102   2.600   0.142   6.382 -0.2015 -0.5438  0.0979
 9547SOL    HW140103   2.653   0.136   6.462  0.3477 -2.9253 -0.4360
 9547SOL    HW240104   2.570   0.051   6.383  1.6433 -1.1680  0.1649
 9548SOL     OW40105   2.356   4.181   2.848  0.0381  0.4346 -0.5539
 9548SOL    HW140106   2.322   4.093   2.834  2.0478 -0.3879 -0.2561
 9548SOL    HW240107   2.434   4.162   2.901 -1.5967 -0.3332  1.5582
 9549SOL     OW40108   3.023   2.729  10.726  0.1305 -0.1469 -0.1840
 9549SOL    HW140109   3.070   2.667  10.671  4.8296  1.1223  2.4197
 9549SOL    HW240110   3.002   2.673  10.801 -0.0158 -0.4237 -0.4336
 9550SOL     OW40111   1.360   0.035   0.294 -0.3098  0.1080  0.3383
 9550SOL    HW140112   1.399   4.711   0.224 -1.5873 -0.6552  0.1730
 9550SOL    HW240113   1.349   4.703   0.369  4.9263 -0.6850  0.4596
 9551SOL     OW40114   1.101   2.778  15.318  0.1401  0.0122 -0.3839
 9551SOL    HW140115   1.093   2.746  15.228 -0.6715 -1.1269  0.0907
 9551SOL    HW240116   1.016   2.821  15.328 -0.3488 -1.1151  0.2990
 9552SOL     OW40117   2.233   2.533   7.222 -0.6247  0.5076  0.4391
 9552SOL    HW140118   2.313   2.537   7.275  0.7796  2.0285 -1.7812
 9552SOL    HW240119   2.256   2.482   7.144 -1.5835  1.8490 -0.7134
 9553SOL     OW40120   0.903   2.674   3.649 -0.0809 -0.4374 -0.0232
 9553SOL    HW140121   0.875   2.633   3.568 -2.2110  2.4976 -0.7808
 9553SOL    HW240122   0.948   2.752   3.616 -0.2625 -0.4244 -0.2360
 9554SOL     OW40123   3.746   2.684   7.976 -0.0247  0.0650 -0.3479
 9554SOL    HW140124   3.727   2.604   7.929 -1.1308  0.0176  0.1897
 9554SOL    HW240125   3.665   2.706   8.021 -0.9386 -0.8867 -1.5472
 9555SOL     OW40126   3.850   1.339   1.326 -0.4336  0.0420 -0.1629
 9555SOL    HW140127   3.817   1.309   1.242  1.6735 -4.0739  0.4778
 9555SOL    HW240128   3.920   1.277   1.347  0.6600  0.5874 -2.2061
 9556SOL     OW40129   3.068   1.656   8.303  0.1606 -0.0504  0.3151
 9556SOL    HW140130   3.104   1.708   8.231 -2.0987 -0.2670 -1.0022
 9556SOL    HW240131   3.142   1.633   8.358  0.0645 -0.5021  0.2524
 9557SOL     OW40132   3.903   3.803   6.250 -0.3500 -0.2960 -0.1063
 9557SOL    HW140133   3.995   3.801   6.223 -0.0047 -1.8521  1.1520
 9557SOL    HW240134   3.898   3.886   6.296 -0.6524  0.1070 -0.8709
 9558SOL     OW40135   4.029   0.789   8.749 -0.1605  0.3087  0.2453
 9558SOL    HW140136   4.035   0.721   8.682  2.5591  1.7782 -1.0096
 9558SOL    HW240137   3.986   0.734   8.815  2.0472 -3.2083 -1.1936
 9559SOL     OW40138   0.683   3.085  10.569  0.5372  0.0501 -0.4724
 9559SOL    HW140139   0.721   3.098  10.656 -2.7076  2.7803  0.5114
 9559SOL    HW240140   0.590   3.106  10.580  0.8719  1.3996 -0.2571
 9560SOL     OW40141   3.762   4.630  15.678  0.1380  0.1945 -0.0643
 9560SOL    HW140142   3.674   4.662  15.659  0.4476  0.2519 -1.3756
 9560SOL    HW240143   3.741   4.588  15.762  2.1412  0.1616  0.4163
 9561SOL     OW40144   4.481   0.647  13.051  0.5666 -0.0080  0.5773
 9561SOL    HW140145   4.511   0.573  12.999  1.2096  1.6603 -1.4214
 9561SOL    HW240146   4.426   0.695  12.989 -0.1030 -0.8595  0.5240
 9562SOL     OW40147   0.487   2.022   0.252 -0.5793  0.0807  0.1834
 9562SOL    HW140148   0.492   1.927   0.240  0.7811  0.0432  1.0068
 9562SOL    HW240149   0.582   2.036   0.248 -0.3666 -1.6459 -1.0005
 9563SOL     OW40150   2.756   4.677   1.616 -0.6763  0.2652  0.2165
 9563SOL    HW140151   2.743   4.587   1.587 -1.4106  0.8637 -1.3528
 9563SOL    HW240152   2.749   4.722   1.531 -2.5515 -0.6045 -0.0922
 9564SOL     OW40153   0.958   2.609  17.543 -0.9790  0.1936 -0.1838
 9564SOL    HW140154   0.867   2.601  17.572 -0.0851 -0.4397  2.4294
 9564SOL    HW240155   1.000   2.601  17.629  0.0375  1.1226 -0.5973
 9565SOL     OW40156   2.708   4.466   2.395 -0.2155 -0.0798  0.5816
 9565SOL    HW140157   2.614   4.467   2.378 -0.1824  1.0946  0.4840
 9565SOL    HW240158   2.734   4.387   2.347  2.1960  1.1170 -0.0554
 9566SOL     OW40159   4.092   0.846  15.067  0.1004 -0.2962 -0.0344
 9566SOL    HW140160   4.009   0.798  15.065  1.5957 -2.9324  0.5918
 9566SOL    HW240161   4.083   0.913  14.999 -0.0308 -0.2595  0.0186
 9567SOL     OW40162   2.009   0.439   7.159 -0.6952  0.0774 -0.4879
 9567SOL    HW140163   1.992   0.532   7.172 -0.9733 -0.4249  2.6369
 9567SOL    HW240164   2.051   0.413   7.241 -3.0528 -0.1222  0.6624
 9568SOL     OW40165   4.664   1.126   2.918  0.2587 -0.0103 -0.4025
 9568SOL    HW140166   4.633   1.130   2.828  1.6783 -0.8518 -0.9316
 9568SOL    HW240167   4.592   1.079   2.960 -1.0658  1.4183 -1.0555
   4.72762   4.72762  17.71123
