Membrane in water
40167
    1TCq1    O1    1   0.228   3.060  10.763 -0.0185 -0.3162  0.3475
    1TCq1    C1    2   0.247   2.941  10.833 -0.2370  0.0751 -0.6672
    1TCq1    O2    3   0.256   2.931  10.952 -0.0487  0.8826 -0.4589
    1TCq1    C2    4   0.293   2.833  10.749  0.3510 -0.3135 -0.2830
    1TCq1    C3    5   0.275   2.840  10.613 -1.1271  0.6904 -0.1107
    1TCq1    C4    6   0.273   2.724  10.547  0.8138  0.1811  0.4087
    1TCq1    C5    7   0.295   2.604  10.602 -0.5278 -0.0661  0.6298
    1TCq1    C6    8   0.321   2.601  10.734 -0.1823  0.2047 -0.2807
    1TCq1    C7    9   0.324   2.716  10.806 -0.4581  0.8163  0.0165
    1TCq1    C8   10   0.332   2.481  10.803  0.3847  0.2006 -0.2694
    1TCq1    O4   11   0.301   2.481  10.921  0.2615 -0.1039 -0.3642
    1TCq1    C9   12   0.234   2.720  10.409  0.0884  0.3378 -0.1684
    1TCq1    O5   13   0.231   2.828  10.339  0.0459  0.3190  0.0340
    1TCq1    O6   14   0.219   2.611  10.351 -0.2614  0.4298  0.5726
    1TCq1    H1   15   0.234   3.056  10.666 -0.5401  0.2948  0.2932
    1TCq1    H2   16   0.258   2.930  10.555 -0.0109 -0.3552 -2.0467
    1TCq1    H3   17   0.279   2.513  10.545 -1.3521  1.0370 -0.8837
    1TCq1    H4   18   0.336   2.707  10.913 -1.5900 -0.5834  0.0179
    2MPD2     C   19   0.412   1.983  10.821  0.3590  0.4615 -0.1337
    2MPD2    C1   20   0.329   2.068  10.891  0.4286  0.1748  0.0956
    2MPD2    C2   21   0.310   2.201  10.860 -0.2267  0.3380 -0.6724
    2MPD2    C3   22   0.396   2.249  10.763  0.2693 -0.1272 -0.9208
    2MPD2    C4   23   0.478   2.164  10.693  0.1118 -0.4266  0.2780
    2MPD2    C5   24   0.487   2.032  10.719 -0.5551  0.4209  0.2755
    2MPD2     H   25   0.230   2.257  10.905  0.4633 -0.4796  1.5391
    2MPD2    H1   26   0.553   2.207  10.628  0.5412 -0.5306  0.7024
    2MPD2    H2   27   0.435   1.880  10.844 -2.0381 -0.2066 -0.6679
    2MPD2    H3   28   0.564   1.973  10.670  0.4453 -0.1416  2.5515
    2MPD2     N   29   0.389   2.384  10.727 -0.7569  0.3849 -0.1113
    2MPD2    H5   30   0.431   2.411  10.639 -1.0717 -0.6451 -0.5792
    2MPD2    N1   31   0.255   2.028  11.006 -0.0505 -0.1700  0.7544
    2MPD2    H7   32   0.193   2.092  11.053 -1.1575 -0.3925 -0.4114
    3TCq1    O1   33   3.213   3.639  10.670 -0.2424  0.1889  0.1105
    3TCq1    C1   34   3.194   3.658  10.803 -0.5157  0.0291  0.1972
    3TCq1    O2   35   3.116   3.733  10.858 -0.1538 -0.1607  0.2007
    3TCq1    C2   36   3.263   3.549  10.871 -0.4740  0.3608 -0.4436
    3TCq1    C3   37   3.289   3.434  10.796  0.7036 -0.3899 -0.3380
    3TCq1    C4   38   3.341   3.321  10.857 -0.8678  0.3789  0.1255
    3TCq1    C5   39   3.379   3.325  10.985  0.4469  0.8523  0.3553
    3TCq1    C6   40   3.357   3.436  11.064  0.9031 -0.1978 -0.0363
    3TCq1    C7   41   3.287   3.549  11.012 -1.1872  0.7248 -0.2758
    3TCq1    C8   42   3.440   3.454  11.181 -0.2368 -0.4297  0.3250
    3TCq1    O4   43   3.510   3.359  11.222 -0.0631 -0.2291  0.0349
    3TCq1    C9   44   3.370   3.207  10.774 -0.1730  0.5451 -0.4981
    3TCq1    O5   45   3.325   3.206  10.658  0.1096  0.1905 -0.2091
    3TCq1    O6   46   3.430   3.109  10.826  0.5042 -0.1688  0.1433
    3TCq1    H1   47   3.301   3.597  10.663  0.2704  0.9262  1.8914
    3TCq1    H2   48   3.267   3.422  10.691  0.0820 -0.8563 -0.1543
    3TCq1    H3   49   3.430   3.240  11.030  0.0391 -0.5929 -1.9191
    3TCq1    H4   50   3.251   3.632  11.072  0.4606 -0.5917  2.5826
    4MPD2     C   51   3.578   3.724  11.601 -0.1831  0.1087 -0.0875
    4MPD2    C1   52   3.578   3.808  11.486 -0.3768  0.3076  0.2598
    4MPD2    C2   53   3.534   3.759  11.364  0.2402 -0.0411 -0.1098
    4MPD2    C3   54   3.502   3.628  11.347 -0.2593  0.3539  0.0581
    4MPD2    C4   55   3.510   3.537  11.455  0.1883  0.7733 -0.3908
    4MPD2    C5   56   3.544   3.592  11.572 -0.3083 -0.2803  0.8422
    4MPD2     H   57   3.540   3.826  11.279 -1.0050 -1.0598 -1.0018
    4MPD2    H1   58   3.487   3.432  11.441  1.1519  0.6423 -1.0305
    4MPD2    H2   59   3.598   3.746  11.705 -0.1765 -0.6059  0.0617
    4MPD2    H3   60   3.546   3.526  11.658 -2.5961 -0.3354  0.8582
    4MPD2     N   61   3.450   3.584  11.222  0.1997 -0.4272 -0.2073
    4MPD2    H5   62   3.416   3.663  11.167  0.6577 -0.6953 -0.8755
    4MPD2    N1   63   3.582   3.947  11.504 -0.4819 -0.1909  0.2597
    4MPD2    H7   64   3.545   4.003  11.428  2.4184  1.9388  0.4214
    5TCq1    O1   65   0.879   4.593  11.653 -0.5377  0.2185  0.4816
    5TCq1    C1   66   0.817   4.689  11.731 -0.2321  0.6546  0.2163
    5TCq1    O2   67   0.770   4.668  11.844 -0.1803 -0.1103 -0.0108
    5TCq1    C2   68   0.754   0.066  11.645 -0.4218 -0.7897 -0.3619
    5TCq1    C3   69   0.723   0.182  11.706  0.2858 -0.0915 -0.8545
    5TCq1    C4   70   0.652   0.277  11.642 -0.0641  0.2369 -0.9789
    5TCq1    C5   71   0.611   0.258  11.516  0.0075 -0.4693 -0.0633
    5TCq1    C6   72   0.629   0.137  11.455  0.7687  0.2381  0.2751
    5TCq1    C7   73   0.701   0.039  11.519 -0.1494  0.2756 -0.1026
    5TCq1    C8   74   0.575   0.112  11.321  0.1338 -0.0478 -0.2262
    5TCq1    O4   75   0.583   4.710  11.297  0.2425 -0.2524 -0.0678
    5TCq1    C9   76   0.619   0.405  11.699  0.5261  0.3354 -0.0581
    5TCq1    O5   77   0.583   0.499  11.617  0.2687 -0.2214  0.6371
    5TCq1    O6   78   0.623   0.400  11.823 -0.6137 -0.5707  0.0038
    5TCq1    H1   79   0.931   4.636  11.581 -2.0555 -0.9607 -1.2983
    5TCq1    H2   80   0.752   0.200  11.809 -0.0437  0.7151 -0.9045
    5TCq1    H3   81   0.543   0.334  11.480  0.2196 -0.5328 -0.5915
    5TCq1    H4   82   0.704   4.657  11.473  0.7180  0.6788 -0.9055
    6MPD2     C   83   0.439   0.352  11.073 -0.0130  0.0170  0.4874
    6MPD2    C1   84   0.490   0.228  11.118 -0.1000  0.4623  0.3537
    6MPD2    C2   85   0.483   0.117  11.035  0.4055  0.6024  0.1544
    6MPD2    C3   86   0.416   0.131  10.910 -0.1914 -0.4698  0.0807
    6MPD2    C4   87   0.372   0.257  10.866 -0.1456  0.2937  0.0623
    6MPD2    C5   88   0.395   0.363  10.945 -0.4454 -0.0105  0.8264
    6MPD2     H   89   0.527   0.025  11.071  0.1745  0.4945  0.1617
    6MPD2    H1   90   0.324   0.275  10.770 -0.9487 -0.9137  0.2397
    6MPD2    H2   91   0.450   0.445  11.128 -1.8187  0.9694 -0.7650
    6MPD2    H3   92   0.358   0.462  10.918 -1.3811 -0.9409 -1.2905
    6MPD2     N   93   0.383   0.012  10.834 -0.0154  0.2485 -0.2589
    6MPD2    H5   94   0.408   4.640  10.876 -1.9866  0.0450  0.4787
    6MPD2    N1   95   0.549   0.224  11.251  0.0556 -0.2987 -0.4049
    6MPD2    H7   96   0.553   0.312  11.300  0.9750 -2.3606  3.1902
    7TCq1    O1   97   1.593   4.543  13.240 -0.7284 -0.0582  0.1767
    7TCq1    C1   98   1.609   4.415  13.212  0.6373  0.3731  0.4563
    7TCq1    O2   99   1.662   4.368  13.112 -0.0629  0.7286  0.0195
    7TCq1    C2  100   1.624   4.356  13.338  0.1858  0.2972  0.1414
    7TCq1    C3  101   1.537   4.396  13.434  0.6291 -0.0776 -0.2348
    7TCq1    C4  102   1.562   4.337  13.556  0.3795  0.2048 -0.6181
    7TCq1    C5  103   1.662   4.245  13.575 -0.3073  0.1102 -0.0434
    7TCq1    C6  104   1.749   4.209  13.471  0.4881  0.2212 -0.0204
    7TCq1    C7  105   1.731   4.267  13.355 -0.4135 -0.2483  0.3298
    7TCq1    C8  106   1.879   4.149  13.494 -0.0950  0.8490 -0.0310
    7TCq1    O4  107   1.928   4.089  13.401  0.0020  0.1492  0.0531
    7TCq1    C9  108   1.473   4.363  13.656  0.9258 -0.3035  0.0949
    7TCq1    O5  109   1.353   4.340  13.620 -1.1161 -0.5461  0.3222
    7TCq1    O6  110   1.521   4.361  13.775  0.2668  0.4535  0.2438
    7TCq1    H1  111   1.582   4.566  13.335  0.9639  2.1196 -0.1719
    7TCq1    H2  112   1.451   4.460  13.414  0.1349 -0.0261  2.0742
    7TCq1    H3  113   1.669   4.208  13.677 -1.3665  2.2649  0.8223
    7TCq1    H4  114   1.801   4.240  13.277 -0.4593  0.9730 -0.1410
    8MPD2     C  115   2.243   4.003  13.827  0.3432  0.3336  0.0993
    8MPD2    C1  116   2.209   3.947  13.709  0.2425 -0.0302 -0.1539
    8MPD2    C2  117   2.114   4.014  13.634  1.2052  0.0625  0.3551
    8MPD2    C3  118   2.035   4.118  13.687 -0.3499  0.0631 -0.0885
    8MPD2    C4  119   2.072   4.163  13.810 -1.2417 -0.3586 -0.0257
    8MPD2    C5  120   2.185   4.120  13.874 -0.5835 -0.0074  0.0438
    8MPD2     H  121   2.088   3.977  13.535 -0.9653 -1.1732  1.3808
    8MPD2    H1  122   2.019   4.242  13.863  0.3285 -0.5296  1.7872
    8MPD2    H2  123   2.326   3.970  13.890  0.4092 -0.7299 -0.5338
    8MPD2    H3  124   2.214   4.162  13.969 -3.9344 -2.3693  2.0881
    8MPD2     N  125   1.921   4.174  13.627  0.1062  0.8140 -0.6754
    8MPD2    H5  126   1.875   4.239  13.690  0.9542 -0.9711  1.7514
    8MPD2    N1  127   2.287   3.841  13.662 -0.0147  0.3157 -0.3839
    8MPD2    H7  128   2.366   3.818  13.721 -0.7393 -2.2082 -0.3505
    9TCq1    O1  129   4.213   3.420  10.524  0.8886  0.5338  0.2201
    9TCq1    C1  130   4.224   3.292  10.560  0.3721  0.0077 -0.2364
    9TCq1    O2  131   4.184   3.243  10.665 -0.0968  0.5986 -1.6083
    9TCq1    C2  132   4.334   3.225  10.483 -0.0413  0.0280  0.1132
    9TCq1    C3  133   4.364   3.253  10.353  0.0182 -0.7807  0.0118
    9TCq1    C4  134   4.473   3.201  10.291  0.3901  0.2498  0.5163
    9TCq1    C5  135   4.553   3.114  10.360 -0.1999 -0.3440 -0.4188
    9TCq1    C6  136   4.520   3.073  10.490 -0.5641 -0.0235  0.4578
    9TCq1    C7  137   4.407   3.124  10.550  0.0525 -0.2051  0.7654
    9TCq1    C8  138   4.579   2.953  10.543 -0.0726 -0.0507  0.3320
    9TCq1    O4  139   4.612   2.868  10.464 -0.4313  0.2812 -0.2342
    9TCq1    C9  140   4.496   3.218  10.146 -0.3409 -0.0353  0.5625
    9TCq1    O5  141   4.578   3.144  10.087  0.2214  0.7510  0.5482
    9TCq1    O6  142   4.400   3.271  10.085  0.1903  0.3234  0.2810
    9TCq1    H1  143   4.256   3.459  10.445  0.5783 -2.0736 -1.2507
    9TCq1    H2  144   4.313   3.332  10.298 -0.4421 -0.0022  1.5592
    9TCq1    H3  145   4.639   3.071  10.310 -0.2649  1.2802 -1.8969
    9TCq1    H4  146   4.365   3.091  10.644 -1.7845  0.0361  0.0329
   10MPD2     C  147   4.665   2.731  10.727  0.2048  0.2037  0.4624
   10MPD2    C1  148   4.603   2.847  10.769 -0.0257  0.1432 -0.0400
   10MPD2    C2  149   4.581   2.870  10.903  0.7346 -0.4362 -0.5559
   10MPD2    C3  150   4.600   2.773  11.003  0.4173 -0.1557  0.2162
   10MPD2    C4  151   4.650   2.653  10.958  0.1112  0.0193  0.1096
   10MPD2    C5  152   4.682   2.636  10.826  0.5071 -0.1504 -0.8603
   10MPD2     H  153   4.518   2.950  10.939  0.1231 -0.7781 -0.8648
   10MPD2    H1  154   4.667   2.568  11.024  0.5019  1.4072  1.8164
   10MPD2    H2  155   4.709   2.715  10.629 -0.3338  0.4250  0.1818
   10MPD2    H3  156   0.018   2.545  10.798 -0.1858 -1.0711  0.8068
   10MPD2     N  157   4.567   2.792  11.139 -0.5973 -0.6213 -0.1941
   10MPD2    H5  158   4.579   2.709  11.196  0.0163 -0.7917 -0.5732
   10MPD2    N1  159   4.566   2.953  10.678 -0.2578 -0.3621 -0.1847
   10MPD2    H7  160   4.525   3.037  10.717  0.4148 -0.5545  0.9254
   11TCq1    O1  161   1.504   3.524  13.968  0.0926  0.2597 -0.2026
   11TCq1    C1  162   1.408   3.427  13.961 -0.7184  0.1195  0.4631
   11TCq1    O2  163   1.320   3.420  13.877 -0.4447 -0.0718  0.1593
   11TCq1    C2  164   1.414   3.333  14.066 -0.5036  0.0992  0.1733
   11TCq1    C3  165   1.523   3.320  14.142 -0.5768  0.4290  0.2629
   11TCq1    C4  166   1.513   3.258  14.262 -0.5196 -0.7917  0.0552
   11TCq1    C5  167   1.392   3.200  14.302 -0.1114  0.1901  0.8580
   11TCq1    C6  168   1.286   3.198  14.215  0.1127 -0.0846 -0.3568
   11TCq1    C7  169   1.296   3.264  14.090 -0.1422 -0.6467  0.1307
   11TCq1    C8  170   1.172   3.124  14.254 -0.3286  0.6633 -0.4539
   11TCq1    O4  171   1.159   3.083  14.367 -0.0168  0.0337  0.0315
   11TCq1    C9  172   1.612   3.264  14.357 -0.1963  0.0222  0.7130
   11TCq1    O5  173   1.575   3.247  14.475  0.0649  0.0700  0.0659
   11TCq1    O6  174   1.724   3.317  14.326  0.2443  0.6902  0.3902
   11TCq1    H1  175   1.583   3.531  14.027 -1.7884 -1.6313  2.5607
   11TCq1    H2  176   1.617   3.364  14.110 -0.4473 -0.1298 -0.1066
   11TCq1    H3  177   1.382   3.150  14.397  1.7495 -2.7999 -0.5221
   11TCq1    H4  178   1.213   3.272  14.020 -0.0417 -0.4860  0.0308
   12MPD2     C  179   0.904   2.990  14.256  0.0053 -0.1000 -0.1714
   12MPD2    C1  180   1.003   2.980  14.159 -0.2617  0.0209  0.4601
   12MPD2    C2  181   0.980   2.900  14.051  0.1255  0.0298 -0.0050
   12MPD2    C3  182   0.857   2.829  14.035 -0.3631 -0.0028 -0.4947
   12MPD2    C4  183   0.763   2.840  14.131  0.3281  0.0638 -0.5981
   12MPD2    C5  184   0.786   2.920  14.240  0.0437  0.3824  0.3932
   12MPD2     H  185   1.057   2.897  13.975 -0.6309  3.2151 -0.8836
   12MPD2    H1  186   0.672   2.784  14.117 -0.0199 -0.1113  2.2947
   12MPD2    H2  187   0.895   3.062  14.336 -1.6162  1.1253 -1.4694
   12MPD2    H3  188   0.708   2.938  14.313  1.4365  2.5184  1.3661
   12MPD2     N  189   0.838   2.741  13.927 -0.6030  0.2378 -0.4422
   12MPD2    H5  190   0.742   2.714  13.909  0.0304 -1.0635 -1.9133
   12MPD2    N1  191   1.112   3.066  14.149 -0.2750  0.4319 -0.1537
   12MPD2    H7  192   1.148   3.074  14.054 -0.6771  1.9027 -0.1778
   13TCq1    O1  193   4.142   3.259  10.070 -0.0190  0.4588 -0.4843
   13TCq1    C1  194   4.062   3.159  10.122 -0.1240  0.4368 -0.2706
   13TCq1    O2  195   3.952   3.175  10.173 -0.3565 -0.3913  0.1949
   13TCq1    C2  196   4.152   3.050  10.167 -0.1511 -0.1692 -0.9494
   13TCq1    C3  197   4.251   3.007  10.077  0.8568 -0.4896  0.4009
   13TCq1    C4  198   4.339   2.915  10.129 -0.4346  1.0049 -0.4277
   13TCq1    C5  199   4.318   2.848  10.249  0.2948  0.3979  0.1945
   13TCq1    C6  200   4.204   2.883  10.322 -0.0012  0.5978  0.4469
   13TCq1    C7  201   4.122   2.987  10.284 -0.0651  0.4103  0.4350
   13TCq1    C8  202   4.185   2.835  10.463 -0.2589  0.4018  0.3811
   13TCq1    O4  203   4.116   2.909  10.529  0.0793 -0.0768  0.1604
   13TCq1    C9  204   4.434   2.848  10.045 -0.7856 -0.5634 -0.0814
   13TCq1    O5  205   4.529   2.790  10.107 -0.3872 -0.0984  0.5713
   13TCq1    O6  206   4.458   2.882   9.921 -0.0577  0.2171 -0.4667
   13TCq1    H1  207   4.239   3.243  10.073 -0.0106  0.3779 -1.2040
   13TCq1    H2  208   4.272   3.060   9.984 -2.0601 -0.7586 -0.4167
   13TCq1    H3  209   4.381   2.763  10.271  0.0028 -0.2526 -1.4930
   13TCq1    H4  210   4.032   3.016  10.337  0.3580  0.0862  1.3419
   14MPD2     C  211   4.328   2.546  10.639  0.1581 -0.2680 -0.0990
   14MPD2    C1  212   4.289   2.680  10.633  0.1689 -0.5182  0.2971
   14MPD2    C2  213   4.253   2.753  10.748  0.5193  0.4624 -0.6426
   14MPD2    C3  214   4.257   2.697  10.873  0.7264  0.2745 -0.1178
   14MPD2    C4  215   4.305   2.566  10.880 -0.4134 -0.4564 -0.0494
   14MPD2    C5  216   4.346   2.495  10.766 -0.4647  0.0162 -0.5114
   14MPD2     H  217   4.216   2.855  10.739 -0.8752 -0.2936 -3.5793
   14MPD2    H1  218   4.343   2.533  10.976  0.9057 -2.6789 -1.3341
   14MPD2    H2  219   4.357   2.485  10.555  0.5321 -1.4795  0.9196
   14MPD2    H3  220   4.394   2.398  10.772  0.2194  0.4670  1.1957
   14MPD2     N  221   4.221   2.771  10.986 -0.2110 -0.0817 -0.0833
   14MPD2    H5  222   4.188   2.865  10.965 -2.7126 -0.8902  0.3079
   14MPD2    N1  223   4.263   2.727  10.501  0.1242 -0.0614  0.2758
   14MPD2    H7  224   4.284   2.665  10.423  1.3852  0.1169  0.4751
   15TCq1    O1  225   2.054   1.678   2.662  0.1577  0.4388  0.2273
   15TCq1    C1  226   2.115   1.787   2.610  0.1279 -0.2744 -0.0418
   15TCq1    O2  227   2.114   1.903   2.658  0.7744  0.1939  0.5830
   15TCq1    C2  228   2.204   1.738   2.508 -0.7025 -0.2788  0.0873
   15TCq1    C3  229   2.334   1.746   2.543 -0.3774  0.2220  0.0947
   15TCq1    C4  230   2.423   1.678   2.469 -0.1256 -0.0729  0.0875
   15TCq1    C5  231   2.384   1.611   2.362 -0.1325 -0.2763 -0.6487
   15TCq1    C6  232   2.251   1.617   2.319  0.0758 -0.0809  0.1731
   15TCq1    C7  233   2.151   1.677   2.397  0.0634  0.1793  0.1499
   15TCq1    C8  234   2.214   1.552   2.188 -0.4140  0.4133 -0.2116
   15TCq1    O4  235   2.308   1.502   2.125 -0.3746  0.2136  0.6949
   15TCq1    C9  236   2.559   1.671   2.501 -0.4062 -0.1867  1.2523
   15TCq1    O5  237   2.599   1.719   2.613  0.4838 -0.1359  0.3439
   15TCq1    O6  238   2.637   1.637   2.410  0.3796  0.4558 -0.1465
   15TCq1    H1  239   2.087   1.594   2.623  0.8802  0.0843  1.5853
   15TCq1    H2  240   2.360   1.805   2.630  1.3695  0.3049 -0.4835
   15TCq1    H3  241   2.458   1.568   2.296  0.5240 -2.5160  1.5729
   15TCq1    H4  242   2.050   1.703   2.365 -0.2142 -0.1694  0.7607
   16MPD2     C  243   1.897   1.550   2.013  1.0318 -0.2610 -0.0172
   16MPD2    C1  244   2.024   1.512   2.031 -0.2032 -0.2054  0.4435
   16MPD2    C2  245   2.082   1.425   1.941  0.1528  0.4163  0.2085
   16MPD2    C3  246   2.010   1.380   1.833  0.1518  0.4684  0.3369
   16MPD2    C4  247   1.889   1.429   1.804  0.2530 -1.0581 -0.1493
   16MPD2    C5  248   1.834   1.509   1.897  0.8878  0.6444 -0.1561
   16MPD2     H  249   2.181   1.383   1.961  0.7249  1.0807 -1.2297
   16MPD2    H1  250   1.829   1.391   1.722 -1.9769  2.0837  0.0525
   16MPD2    H2  251   1.845   1.600   2.094 -1.9658 -1.4725 -1.1848
   16MPD2    H3  252   1.735   1.549   1.879  0.2969 -0.8032 -0.1068
   16MPD2     N  253   2.077   1.288   1.742 -0.3513  0.4197 -0.7028
   16MPD2    H5  254   2.165   1.248   1.774 -1.0592  2.2880  3.5643
   16MPD2    N1  255   2.087   1.564   2.149  0.0885 -0.0690  0.1159
   16MPD2    H7  256   2.021   1.616   2.207  0.3055  0.2517  0.0736
   17TCq1    O1  257   4.197   1.768  11.072 -0.2954 -0.0620  0.1142
   17TCq1    C1  258   4.298   1.739  11.159  0.6494  0.5457 -0.1592
   17TCq1    O2  259   4.291   1.739  11.278 -0.0974 -0.2139  0.0389
   17TCq1    C2  260   4.424   1.766  11.092  1.8317 -0.1604 -0.3255
   17TCq1    C3  261   4.531   1.693  11.126  0.0349 -0.5432  1.3954
   17TCq1    C4  262   4.654   1.728  11.067 -0.5166 -0.1031 -0.0848
   17TCq1    C5  263   4.659   1.829  10.979 -0.1073 -0.3811 -0.4267
   17TCq1    C6  264   4.550   1.920  10.966  0.3238 -0.8699  0.2174
   17TCq1    C7  265   4.431   1.886  11.026  0.1639 -0.2222  0.2844
   17TCq1    C8  266   4.552   2.048  10.893 -0.3517  0.5973  0.1989
   17TCq1    O4  267   4.451   2.124  10.903  0.0730  0.1865 -0.1276
   17TCq1    C9  268   0.045   1.633  11.084  0.4704 -0.9725 -0.2306
   17TCq1    O5  269   0.048   1.554  11.184 -0.3802 -0.3199 -0.0410
   17TCq1    O6  270   0.136   1.644  10.996 -0.8515 -0.0221 -0.0512
   17TCq1    H1  271   4.214   1.756  10.976 -0.1823 -0.4774  0.1869
   17TCq1    H2  272   4.514   1.602  11.182  1.1516 -0.7665  1.3727
   17TCq1    H3  273   0.044   1.851  10.948  0.2327  0.0158  0.9573
   17TCq1    H4  274   4.342   1.942  11.000  1.7618  1.4764 -1.5307
   18MPD2     C  275   4.648   2.273  10.704  0.5888  0.1882 -0.5826
   18MPD2    C1  276   4.696   2.145  10.704  0.1922 -0.4772 -0.3050
   18MPD2    C2  277   0.071   2.110  10.607 -0.7587 -0.1985  0.2435
   18MPD2    C3  278   0.120   2.200  10.517 -0.0626 -0.0149 -0.3609
   18MPD2    C4  279   0.065   2.330  10.526  0.3643  0.2763  0.1170
   18MPD2    C5  280   4.685   2.368  10.612 -0.0442 -1.3050 -0.6835
   18MPD2     H  281   0.124   2.016  10.612 -1.1385 -0.3652  1.1071
   18MPD2    H1  282   0.108   2.408  10.463 -1.4172  0.9983 -0.2077
   18MPD2    H2  283   4.571   2.292  10.777  0.3440 -2.2249 -0.2185
   18MPD2    H3  284   4.649   2.470  10.618  0.2782 -1.2643  0.4416
   18MPD2     N  285   0.221   2.179  10.427 -0.3148 -0.3735  0.5324
   18MPD2    H5  286   0.247   2.256  10.365 -0.8331  0.4120  1.2964
   18MPD2    N1  287   4.662   2.051  10.808  0.5635  0.3437 -0.0347
   18MPD2    H7  288   4.716   1.965  10.809 -2.0033 -1.2899  0.4541
   19TMC2    C1  289   1.961   2.746  14.114  0.0518  0.1003 -0.2253
   19TMC2    C2  290   1.965   2.836  14.015 -0.0586  0.5796  0.0778
   19TMC2    C3  291   1.901   2.807  13.902  0.0886 -0.2732  0.2905
   19TMC2    C4  292   1.883   2.632  14.109  0.0910  0.0536  0.0977
   19TMC2    C5  293   1.807   2.608  13.997 -0.6291  0.1630  0.3377
   19TMC2    C6  294   1.829   2.689  13.889 -0.3051  0.3084  0.2229
   19TMC2     C  295   2.047   2.782  14.232 -0.3046  0.5606  0.0327
   19TMC2     O  296   2.120   2.880  14.225 -0.0071  0.0170  0.3706
   19TMC2     H  297   2.018   2.929  14.034  0.7747  0.4377 -1.5850
   19TMC2    H1  298   1.869   2.567  14.195  0.9440 -0.0220  0.1780
   19TMC2    H2  299   1.778   2.644  13.805 -1.3639  1.2315  0.3705
   19TMC2    C7  300   1.723   2.493  13.992 -0.0396  0.2010  0.3448
   19TMC2    C8  301   1.909   2.895  13.789 -0.4539 -0.5663  0.0172
   19TMC2    O1  302   1.754   2.409  14.075  0.0639 -0.3435 -0.4741
   19TMC2    O2  303   1.993   2.984  13.788  0.3121  0.2397 -0.2614
   19TMC2    O5  304   1.795   2.887  13.714  0.4443 -0.0836  0.4982
   19TMC2    H5  305   1.732   2.821  13.749 -0.1778 -0.0385 -0.5391
   20MPD2     C  306   2.258   2.784  14.455  0.5342  0.7291  0.7157
   20MPD2    C1  307   2.140   2.705  14.446 -0.2878  0.2010 -0.6522
   20MPD2    C2  308   2.105   2.632  14.561  0.5337  0.1787  0.1160
   20MPD2    C3  309   2.178   2.635  14.675  0.3084  0.7263  0.5959
   20MPD2    C4  310   2.290   2.713  14.682  0.1108  0.4610  0.4732
   20MPD2    C5  311   2.330   2.784  14.572  0.3291 -0.4933 -0.0751
   20MPD2     H  312   2.016   2.571  14.554  0.8859 -0.3642  0.3353
   20MPD2    H1  313   2.345   2.731  14.774  0.2005 -0.0301  0.5139
   20MPD2    H2  314   2.301   2.842  14.373  0.8099 -2.6664 -1.5437
   20MPD2    H3  315   2.413   2.854  14.571 -0.7095  0.7130 -0.9970
   20MPD2     N  316   2.145   2.582  14.793 -0.7302  0.2508 -1.0596
   20MPD2    H5  317   2.226   2.574  14.855 -1.2070  1.3101 -0.2895
   20MPD2    N1  318   2.051   2.695  14.336 -0.8422 -0.3794  0.0694
   20MPD2    H7  319   1.980   2.623  14.347 -1.3179  0.0870  0.0644
   21MPD2     C  320   4.334   3.134  13.954  0.5223  0.5836  0.2197
   21MPD2    C1  321   4.340   3.002  13.979  0.0767  0.5571 -0.6629
   21MPD2    C2  322   4.283   2.953  14.100  0.3179 -0.6522 -0.0093
   21MPD2    C3  323   4.232   3.037  14.192  0.2659 -0.5916 -0.2484
   21MPD2    C4  324   4.225   3.173  14.162 -0.5804 -1.2087  0.4616
   21MPD2    C5  325   4.279   3.224  14.045 -0.0831 -0.6427 -0.1412
   21MPD2     H  326   4.277   2.846  14.111  1.5425 -0.4582  2.5547
   21MPD2    H1  327   4.183   3.238  14.238 -1.2236 -1.8592  0.6584
   21MPD2    H2  328   4.380   3.166  13.861  1.9436  0.1290  0.7708
   21MPD2    H3  329   4.294   3.330  14.029 -0.9100 -0.7077 -1.4174
   21MPD2     N  330   4.180   2.992  14.316 -0.2382  0.0444 -0.8627
   21MPD2    H5  331   4.113   3.059  14.353  1.8603  1.2250  0.8488
   21MPD2    N1  332   4.400   2.897  13.899  0.7224  0.6186 -0.4598
   21MPD2    H7  333   4.398   2.803  13.937  2.0396  0.5737 -0.5105
   22TCq2    C1  334   4.185   2.857  14.353  0.4857  0.6462 -0.7533
   22TCq2    O2  335   4.268   2.773  14.324  0.1918 -0.6221 -0.2644
   22TCq2    C2  336   4.062   2.809  14.424  0.2722 -0.8728 -0.5967
   22TCq2    C3  337   4.038   2.668  14.415  0.3768  0.7017  0.2273
   22TCq2    C4  338   3.954   2.610  14.510 -0.5328  0.2257  0.5495
   22TCq2    C5  339   3.890   2.692  14.605 -0.9163 -0.8531 -0.2717
   22TCq2    C6  340   3.919   2.826  14.612  0.4853 -0.6036 -0.0020
   22TCq2    C7  341   4.004   2.884  14.520 -0.1773 -0.0238 -0.0117
   22TCq2    C8  342   3.857   2.905  14.720  0.0602 -0.4491  0.4554
   22TCq2    O4  343   3.811   2.849  14.819  0.5292 -0.4958 -0.3428
   22TCq2    C9  344   3.921   2.470  14.509 -0.1530  0.4607  0.2277
   22TCq2    O5  345   3.836   2.432  14.595 -0.1800 -0.3430  0.4836
   22TCq2    O6  346   3.986   2.400  14.426  0.1852 -0.1290 -0.1994
   22TCq2    H2  347   4.089   2.609  14.339  1.9737  2.4335 -0.0590
   22TCq2    H3  348   3.824   2.651  14.680 -1.0313 -0.3297 -0.0844
   22TCq2    H4  349   4.039   2.985  14.538  1.1232  0.3138 -4.4873
   23MPD2     C  350   1.316   3.713  14.168 -0.4380  0.4569  0.0687
   23MPD2    C1  351   1.257   3.752  14.292 -0.1397 -0.7771  0.3892
   23MPD2    C2  352   1.132   3.817  14.295  0.2493  1.0797 -0.0029
   23MPD2    C3  353   1.077   3.851  14.176  0.3743  1.1278 -0.4653
   23MPD2    C4  354   1.133   3.824  14.056 -0.1506  0.2350 -0.3489
   23MPD2    C5  355   1.258   3.752  14.058  0.7244  0.1315 -0.1630
   23MPD2     H  356   1.073   3.822  14.386  0.3930 -0.3935  0.1781
   23MPD2    H1  357   1.085   3.841  13.961 -3.6019 -0.4712  1.2895
   23MPD2    H2  358   1.411   3.662  14.152 -0.7815 -0.2396  0.2105
   23MPD2    H3  359   1.308   3.722  13.968  0.2826 -1.5082  0.1401
   23MPD2     N  360   0.946   3.901  14.171  0.7286  0.3021 -0.1020
   23MPD2    H5  361   0.915   3.929  14.079  0.5129 -1.9628 -0.7066
   23MPD2    N1  362   1.308   3.722  14.418  0.5227 -0.3993 -0.0461
   23MPD2    H7  363   1.256   3.756  14.498  1.1619  1.4402 -0.4357
   24TCq2    C1  364   0.857   3.910  14.277  0.2994  0.3141 -0.2327
   24TCq2    O2  365   0.858   3.874  14.395  0.4433  0.0914 -0.2438
   24TCq2    C2  366   0.728   3.962  14.230  0.4248  0.8869 -0.3986
   24TCq2    C3  367   0.721   4.055  14.131 -0.1977  0.1811  0.7303
   24TCq2    C4  368   0.595   4.088  14.077  0.0693 -0.4073  0.3087
   24TCq2    C5  369   0.483   4.031  14.126 -0.3492 -0.0929 -0.0006
   24TCq2    C6  370   0.490   3.933  14.221 -0.2562 -0.4757 -0.6239
   24TCq2    C7  371   0.612   3.899  14.278 -1.2563  0.1329  0.0073
   24TCq2    C8  372   0.378   3.864  14.258 -0.1651 -0.1159  0.0709
   24TCq2    O4  373   0.407   3.754  14.296 -0.2225  0.0547  0.0798
   24TCq2    C9  374   0.583   4.194  13.985 -0.6079  0.8685 -0.4475
   24TCq2    O5  375   0.472   4.255  13.986 -0.2672  0.1026 -0.0983
   24TCq2    O6  376   0.694   4.237  13.941  0.5108  0.6044 -0.3198
   24TCq2    H2  377   0.809   4.099  14.087 -0.5154  0.4177  0.3387
   24TCq2    H3  378   0.389   4.054  14.078 -1.7047 -3.0037  1.3116
   24TCq2    H4  379   0.616   3.838  14.367  0.1262  2.2893  1.4338
   25TMC2    C1  380   0.081   1.108  11.228 -0.3086  1.2543 -0.3270
   25TMC2    C2  381   0.189   1.159  11.164 -0.0105 -0.0271 -0.2180
   25TMC2    C3  382   0.240   1.275  11.222 -0.3071 -0.2563 -0.2858
   25TMC2    C4  383   0.013   1.165  11.333  0.0884 -0.1660 -0.0659
   25TMC2    C5  384   0.067   1.275  11.392  0.2932 -0.4505  0.2583
   25TMC2    C6  385   0.178   1.330  11.330 -0.1381 -0.6953  0.5347
   25TMC2     C  386   0.029   0.995  11.169  0.1194  0.2484 -0.0904
   25TMC2     O  387   0.103   0.906  11.128  0.4136 -0.4877  0.1098
   25TMC2     H  388   0.214   1.113  11.069 -0.0628  0.7603 -0.6082
   25TMC2    H1  389   4.636   1.128  11.373  0.9296 -0.7983  1.3595
   25TMC2    H2  390   0.232   1.406  11.385  0.7363 -0.0300 -1.2491
   25TMC2    C7  391   4.710   1.350  11.490  0.4748 -0.9783 -0.1958
   25TMC2    C8  392   0.348   1.356  11.169  0.3820 -0.6735  0.3693
   25TMC2    O1  393   4.658   1.290  11.580  0.3185  0.0100 -0.2515
   25TMC2    O2  394   0.412   1.315  11.071 -0.4345 -0.0448 -0.5957
   25TMC2    O5  395   0.291   1.480  11.164  0.2004 -0.0885  0.7203
   25TMC2    H5  396   0.204   1.486  11.209 -0.1245  0.1025  0.0714
   26MPD2     C  397   4.338   0.723  11.023  0.2770 -0.2999  0.2709
   26MPD2    C1  398   4.295   0.853  11.044  0.0167 -0.1487  0.0907
   26MPD2    C2  399   4.389   0.947  11.072 -0.6353 -0.2942 -0.1123
   26MPD2    C3  400   4.517   0.908  11.110 -0.1776  0.0287 -0.4374
   26MPD2    C4  401   4.555   0.768  11.116  0.1069  0.4248 -0.3247
   26MPD2    C5  402   4.465   0.679  11.053 -0.7512 -0.4645 -0.3722
   26MPD2     H  403   4.353   1.048  11.087  0.1436 -0.2445  1.4919
   26MPD2    H1  404   4.658   0.748  11.142 -0.3039 -0.9248  0.2333
   26MPD2    H2  405   4.273   0.642  10.993  1.8094 -1.0146 -1.0739
   26MPD2    H3  406   4.491   0.575  11.038  0.9187 -0.0232 -0.6173
   26MPD2     N  407   4.613   1.007  11.151 -0.3471  0.2898  0.6877
   26MPD2    H5  408   4.579   1.102  11.166 -0.7009  0.2148  0.3637
   26MPD2    N1  409   4.158   0.877  11.018 -0.5919  0.3463  0.5648
   26MPD2    H7  410   4.110   0.798  10.978 -3.9899  1.9559  1.4914
   27TMC2    C1  411   2.588   0.257  12.019  0.2930  0.9018  0.2600
   27TMC2    C2  412   2.635   0.327  11.914  0.1836  0.8234  0.2076
   27TMC2    C3  413   2.746   0.278  11.864  0.1071  0.4937 -0.0398
   27TMC2    C4  414   2.660   0.165  12.094  0.1532  0.4328 -0.4058
   27TMC2    C5  415   2.774   0.120  12.040  0.6419 -0.2975 -0.4909
   27TMC2    C6  416   2.813   0.169  11.919 -0.9781  1.3194  0.2416
   27TMC2     C  417   2.449   0.229  12.014 -0.4141  0.4420  0.1527
   27TMC2     O  418   2.400   0.271  11.909 -0.0718 -1.1939 -0.4923
   27TMC2     H  419   2.581   0.410  11.870  0.7612  2.4802  2.6294
   27TMC2    H1  420   2.622   0.106  12.178  0.2189  0.0906 -0.6164
   27TMC2    H2  421   2.901   0.128  11.870 -0.1930  1.2886  1.6707
   27TMC2    C7  422   2.846   0.015  12.119 -0.4913  0.1848 -0.2453
   27TMC2    C8  423   2.779   0.306  11.725  0.1823  0.4665  0.0064
   27TMC2    O1  424   2.779   4.665  12.199  0.3122 -0.1968 -0.0390
   27TMC2    O2  425   2.815   0.216  11.647  0.6851  0.1494  0.1644
   27TMC2    O5  426   2.720   0.425  11.688  0.1234  0.1131  0.1297
   27TMC2    H5  427   2.743   0.492  11.756 -0.3369  0.2380  0.1634
   28MPD2     C  428   2.100   4.583  12.121 -0.2118  0.3209  0.8172
   28MPD2    C1  429   2.164   4.615  12.245 -0.1016 -0.6631  0.0131
   28MPD2    C2  430   2.256   0.006  12.243 -0.1985  0.6622 -0.9127
   28MPD2    C3  431   2.292   0.070  12.127  0.2656 -0.1327  0.3352
   28MPD2    C4  432   2.224   0.036  12.007 -0.2757 -0.4299  0.5906
   28MPD2    C5  433   2.131   4.649  12.009 -0.1071  0.2911  0.5245
   28MPD2     H  434   2.324   0.026  12.325  0.0688 -0.3326 -0.8922
   28MPD2    H1  435   2.249   0.090  11.917 -1.8570  2.0232  1.6088
   28MPD2    H2  436   2.016   4.515  12.122  0.5392 -0.6201 -1.5832
   28MPD2    H3  437   2.081   4.622  11.917  1.5084  0.7091 -0.4510
   28MPD2     N  438   2.399   0.161  12.124  0.2764  0.0549  0.3373
   28MPD2    H5  439   2.455   0.172  12.208  0.4471 -1.7118  0.4738
   28MPD2    N1  440   2.132   4.554  12.369  0.0087 -0.0484  0.3157
   28MPD2    H7  441   2.179   4.589  12.452  0.6866  1.1102 -0.5535
   29MPD2     C  442   2.870   0.966  13.957  0.0284  0.1432  0.1846
   29MPD2    C1  443   3.003   0.960  13.974 -0.5088  0.2327 -0.2707
   29MPD2    C2  444   3.067   1.078  13.990 -0.1597 -0.2807 -0.1201
   29MPD2    C3  445   2.993   1.198  14.005 -0.1948 -0.5277  0.5060
   29MPD2    C4  446   2.855   1.197  13.998  0.1185 -0.5228  0.3693
   29MPD2    C5  447   2.792   1.076  13.970  0.5088  0.2201 -0.3872
   29MPD2     H  448   3.172   1.077  14.015 -0.5269 -0.4011  1.4054
   29MPD2    H1  449   2.794   1.282  14.026  2.3167  0.8322  0.9948
   29MPD2    H2  450   2.814   0.873  13.963 -0.3309  0.3932  0.6376
   29MPD2    H3  451   2.685   1.083  13.959  0.4300  0.0013  0.2630
   29MPD2     N  452   3.041   1.324  14.051  0.5823 -0.2484  0.6706
   29MPD2    H5  453   2.968   1.394  14.063  0.4376 -0.5912  1.7208
   29MPD2    N1  454   3.077   0.840  13.983  0.0364  0.0916 -0.3908
   29MPD2    H7  455   3.175   0.855  14.001  0.1293  0.1854 -0.9736
   30TCq2    C1  456   3.174   1.358  14.055  0.5500 -0.1773 -0.3377
   30TCq2    O2  457   3.275   1.293  14.029 -0.6808  0.3162  0.2623
   30TCq2    C2  458   3.193   1.484  14.125 -0.1949  0.2973 -0.2345
   30TCq2    C3  459   3.112   1.507  14.238 -0.1862 -0.1216  0.5893
   30TCq2    C4  460   3.134   1.619  14.312  0.5017 -1.3171  0.2620
   30TCq2    C5  461   3.243   1.693  14.296 -0.0759  0.0035 -0.1478
   30TCq2    C6  462   3.326   1.660  14.199 -0.1208 -0.1813  0.2719
   30TCq2    C7  463   3.303   1.560  14.104  0.4285 -0.5398 -0.4143
   30TCq2    C8  464   3.444   1.741  14.175 -0.0541  0.6602  0.2469
   30TCq2    O4  465   3.543   1.684  14.124 -0.1996  0.5782  0.1110
   30TCq2    C9  466   3.056   1.644  14.435  0.5332 -0.4381  0.1461
   30TCq2    O5  467   2.968   1.565  14.480  0.3519 -0.3420 -0.3327
   30TCq2    O6  468   3.092   1.736  14.508 -0.2623 -0.0829 -0.4692
   30TCq2    H2  469   3.026   1.445  14.260 -0.4709  0.2017  0.3919
   30TCq2    H3  470   3.270   1.764  14.373  1.7324 -1.1919  0.3153
   30TCq2    H4  471   3.373   1.544  14.022  1.0354 -1.8148  0.3528
   31MPD2     C  472   1.090   0.203  14.529 -0.4369  0.0308  0.5149
   31MPD2    C1  473   0.963   0.220  14.477  0.3850 -0.3720  0.0503
   31MPD2    C2  474   0.863   0.121  14.513  0.9569  0.5003 -0.4938
   31MPD2    C3  475   0.892   0.016  14.592 -0.2280 -0.1055  0.4475
   31MPD2    C4  476   1.021   0.006  14.648 -0.8846  0.2885 -0.1945
   31MPD2    C5  477   1.119   0.094  14.612  0.2828  0.3456 -0.4012
   31MPD2     H  478   0.769   0.114  14.460 -0.5561 -1.7348  2.5476
   31MPD2    H1  479   1.050   4.636  14.707 -1.8208 -1.6925 -2.6273
   31MPD2    H2  480   1.167   0.273  14.501  0.4520 -1.1012  0.1179
   31MPD2    H3  481   1.220   0.084  14.650  0.0152 -2.6140 -0.3970
   31MPD2     N  482   0.791   4.636  14.626 -0.0397  0.1980 -0.1092
   31MPD2    H5  483   0.818   4.548  14.668  0.4725  0.9859  1.2082
   31MPD2    N1  484   0.938   0.318  14.379  0.3371  0.2215 -0.3171
   31MPD2    H7  485   1.012   0.387  14.372 -0.8820  1.6096  0.8130
   32TCq2    C1  486   0.656   4.635  14.595 -0.2372  0.8288  0.1863
   32TCq2    O2  487   0.583   4.706  14.524 -0.7077  0.2269 -0.3626
   32TCq2    C2  488   0.581   4.542  14.676 -0.0851  0.0482  0.1527
   32TCq2    C3  489   0.451   4.525  14.650 -0.2697  0.1084  0.8923
   32TCq2    C4  490   0.385   4.449  14.741 -0.1356  0.4342 -0.1732
   32TCq2    C5  491   0.439   4.390  14.856 -0.2233 -0.2861  0.0933
   32TCq2    C6  492   0.569   4.415  14.881 -0.1273  0.2188  0.4326
   32TCq2    C7  493   0.641   4.489  14.789  0.2290  0.6245 -0.1026
   32TCq2    C8  494   0.644   4.368  15.000  0.0757  1.4398 -0.1769
   32TCq2    O4  495   0.758   4.418  15.009 -0.4403  0.0793 -0.0829
   32TCq2    C9  496   0.240   4.456  14.730 -0.7567 -0.4098  0.8370
   32TCq2    O5  497   0.195   4.546  14.656  0.1947  0.2766  0.1439
   32TCq2    O6  498   0.166   4.394  14.816 -0.1286 -0.2724 -0.4242
   32TCq2    H2  499   0.402   4.566  14.563  2.8999 -1.1420 -1.4582
   32TCq2    H3  500   0.375   4.331  14.921  3.5143 -0.1180  3.9447
   32TCq2    H4  501   0.746   4.504  14.813  0.4836  0.2206 -0.9855
   33MPD2     C  502   0.631   2.301   9.725  0.3985  0.1393  1.0808
   33MPD2    C1  503   0.537   2.336   9.820  0.1435  0.1491 -0.0415
   33MPD2    C2  504   0.483   2.461   9.821  0.0012  0.1733  0.3860
   33MPD2    C3  505   0.525   2.552   9.725 -0.1911 -0.4199  0.0117
   33MPD2    C4  506   0.604   2.513   9.625  0.0478  0.3418  0.4286
   33MPD2    C5  507   0.655   2.388   9.626 -0.0544  0.1269  0.4335
   33MPD2     H  508   0.416   2.493   9.900  0.6521  2.9232 -0.1701
   33MPD2    H1  509   0.639   2.573   9.542  0.1266  0.8409  0.8172
   33MPD2    H2  510   0.693   2.212   9.722 -0.4322 -0.2130 -4.9618
   33MPD2    H3  511   0.735   2.364   9.557  0.6911 -2.3616  2.1651
   33MPD2     N  512   0.485   2.684   9.725  0.6234  0.5365  0.0102
   33MPD2    H5  513   0.521   2.733   9.644 -0.2666 -0.2349 -0.8516
   33MPD2    N1  514   0.514   2.241   9.911 -0.0200 -0.0538  0.6041
   33MPD2    H7  515   0.576   2.161   9.911 -1.8848 -1.5129 -1.8410
   34TCq2    C1  516   0.403   2.745   9.817 -0.1539  0.7082 -0.3269
   34TCq2    O2  517   0.340   2.698   9.911  0.0334 -0.6441 -0.3558
   34TCq2    C2  518   0.377   2.878   9.793  0.6183 -0.3268 -1.3743
   34TCq2    C3  519   0.249   2.917   9.804 -0.0057 -0.2782 -0.7581
   34TCq2    C4  520   0.213   3.046   9.777  0.1739 -0.6118  0.5237
   34TCq2    C5  521   0.306   3.127   9.717  0.5056  0.1355  0.1090
   34TCq2    C6  522   0.431   3.082   9.698  0.1495 -0.0448  0.2441
   34TCq2    C7  523   0.472   2.957   9.734 -0.1002 -0.3764  0.6034
   34TCq2    C8  524   0.521   3.177   9.645  0.3515 -0.1441 -0.5953
   34TCq2    O4  525   0.611   3.209   9.719  0.4638  0.4305  0.4077
   34TCq2    C9  526   0.083   3.090   9.815 -0.1322 -0.2823  0.0893
   34TCq2    O5  527   0.004   3.007   9.876  0.3093  0.4734 -0.3820
   34TCq2    O6  528   0.049   3.208   9.803 -0.2034 -0.0155  0.2943
   34TCq2    H2  529   0.179   2.862   9.866 -2.0220  1.8642 -1.1280
   34TCq2    H3  530   0.285   3.232   9.696 -5.0736 -0.6320  2.0796
   34TCq2    H4  531   0.572   2.921   9.714 -0.8407 -2.6558  0.9165
   35MPD2     C  532   2.237   0.009  11.604 -0.4610 -0.2976 -0.2941
   35MPD2    C1  533   2.234   4.586  11.577 -0.2766  0.2013  0.4284
   35MPD2    C2  534   2.188   4.548  11.448  0.0697  0.0271  0.1351
   35MPD2    C3  535   2.145   4.640  11.359 -1.0248  0.7429  0.3142
   35MPD2    C4  536   2.154   0.059  11.391 -0.3904 -0.3116 -0.3990
   35MPD2    C5  537   2.195   0.102  11.513 -0.4215 -0.8567  0.5855
   35MPD2     H  538   2.194   4.446  11.412  1.5435  1.2204 -2.9878
   35MPD2    H1  539   2.106   0.129  11.324 -0.0871 -0.1158 -0.4123
   35MPD2    H2  540   2.271   0.047  11.700  0.3462 -1.1762 -0.2358
   35MPD2    H3  541   2.196   0.204  11.549 -1.7933  0.2626 -2.5563
   35MPD2     N  542   2.096   4.597  11.235  0.0053 -0.5890 -0.0215
   35MPD2    H5  543   2.078   4.498  11.227  0.8232 -0.8080  0.8417
   35MPD2    N1  544   2.270   4.493  11.680  0.3538  0.6272  0.5637
   35MPD2    H7  545   2.296   4.525  11.773  2.2149  1.5134 -0.2587
   36TCq2    C1  546   2.073   4.675  11.122 -0.0458  0.5203 -0.4057
   36TCq2    O2  547   2.117   0.071  11.110  0.6587 -0.1682 -0.3139
   36TCq2    C2  548   2.025   4.603  11.007 -0.5539 -0.2449  0.0648
   36TCq2    C3  549   2.020   4.678  10.891  0.7882  0.2851 -0.0732
   36TCq2    C4  550   1.968   4.624  10.778 -0.0865  0.3094  0.5208
   36TCq2    C5  551   1.901   4.504  10.787 -0.2195  0.6211 -0.0697
   36TCq2    C6  552   1.889   4.436  10.906 -0.2190 -0.2458  0.6654
   36TCq2    C7  553   1.955   4.489  11.018  0.1204 -0.0760 -0.4225
   36TCq2    C8  554   1.844   4.301  10.916 -0.1480 -0.7112  0.1944
   36TCq2    O4  555   1.901   4.239  11.002 -0.5443  0.6320  0.5164
   36TCq2    C9  556   1.955   4.697  10.658  0.0494  0.1884 -0.5205
   36TCq2    O5  557   2.042   0.071  10.644 -0.1835  0.1513  0.2937
   36TCq2    O6  558   1.892   4.660  10.558 -1.2798 -0.7831  0.4106
   36TCq2    H2  559   2.067   0.059  10.891 -2.4185  1.8055 -0.2710
   36TCq2    H3  560   1.874   4.454  10.695 -0.6046 -0.0731  0.4235
   36TCq2    H4  561   1.941   4.442  11.114 -0.1718  1.3139  0.2222
   37TMC2    C1  562   3.806   3.386  11.569  0.0979 -0.1694  0.4069
   37TMC2    C2  563   3.754   3.270  11.512  0.0177 -0.0252 -0.5124
   37TMC2    C3  564   3.770   3.250  11.379  0.0680  0.2326 -0.2152
   37TMC2    C4  565   3.879   3.479  11.492 -0.4266 -0.1153 -0.2158
   37TMC2    C5  566   3.878   3.469  11.358  0.2622 -0.3255  0.4762
   37TMC2    C6  567   3.820   3.354  11.304  0.1440 -0.2984 -0.0880
   37TMC2     C  568   3.791   3.391  11.713 -0.3829 -0.1840  0.7203
   37TMC2     O  569   3.715   3.306  11.756 -0.2492 -0.1900  0.1920
   37TMC2     H  570   3.706   3.185  11.560  0.6350  0.1991  0.5209
   37TMC2    H1  571   3.913   3.571  11.538 -1.6179  0.7259 -1.0418
   37TMC2    H2  572   3.826   3.331  11.199 -0.4732 -0.2678 -0.1318
   37TMC2    C7  573   3.957   3.555  11.283  0.0832 -0.3174 -0.1672
   37TMC2    C8  574   3.751   3.122  11.316 -0.0778 -0.0486 -0.0115
   37TMC2    O1  575   3.987   3.658  11.339 -0.2062  0.9022 -0.2562
   37TMC2    O2  576   3.747   3.017  11.376  0.1217 -0.3734  0.1208
   37TMC2    O5  577   3.664   3.143  11.220 -0.2277  0.1389  0.0675
   37TMC2    H5  578   3.643   3.239  11.216  0.2280  0.1566 -2.2348
   38MPD2     C  579   3.910   3.552  12.184 -1.3187 -0.1323 -0.2277
   38MPD2    C1  580   3.924   3.655  12.103  1.0782  0.0682 -1.0371
   38MPD2    C2  581   3.921   3.639  11.967 -0.1962 -0.5763  0.3521
   38MPD2    C3  582   3.881   3.519  11.914 -0.0023  0.6691 -0.5125
   38MPD2    C4  583   3.857   3.409  12.000 -0.4819  0.0425  0.0262
   38MPD2    C5  584   3.872   3.437  12.137  0.3838 -0.0413 -0.6653
   38MPD2     H  585   3.929   3.716  11.891 -1.4183 -0.1287  0.6790
   38MPD2    H1  586   3.845   3.309  11.961 -1.0574  0.3304 -0.5243
   38MPD2    H2  587   3.922   3.564  12.291 -1.2224 -0.0222 -0.2508
   38MPD2    H3  588   3.857   3.351  12.202 -1.7209  1.4232  0.8001
   38MPD2     N  589   3.858   3.503  11.771  0.3249  0.3718  0.5458
   38MPD2    H5  590   3.893   3.577  11.711 -0.1685  0.9778  1.0031
   38MPD2    N1  591   3.959   3.789  12.143 -0.4307  0.3288  0.2247
   38MPD2    H7  592   3.976   3.854  12.066  3.0962  0.6581  1.3094
   39MPD2     C  593   2.389   0.236   1.656 -0.2113 -0.3345  0.5890
   39MPD2    C1  594   2.317   0.300   1.753  0.1579 -0.1945 -0.4979
   39MPD2    C2  595   2.222   0.398   1.719 -0.8997 -0.4172 -0.1087
   39MPD2    C3  596   2.209   0.430   1.584  0.1762  0.0828  0.0667
   39MPD2    C4  597   2.291   0.368   1.490  0.2177  1.4275 -0.4826
   39MPD2    C5  598   2.375   0.267   1.524 -0.1711  0.4348 -0.6233
   39MPD2     H  599   2.159   0.445   1.795  1.0334  1.9017  0.0609
   39MPD2    H1  600   2.266   0.388   1.386  1.4298  2.2182 -0.6188
   39MPD2    H2  601   2.471   0.168   1.674  1.9937  2.4270  0.9296
   39MPD2    H3  602   2.433   0.216   1.448  1.1968 -1.4418  1.6749
   39MPD2     N  603   2.109   0.522   1.528  0.1269 -0.5589  0.0207
   39MPD2    H5  604   2.103   0.528   1.427  0.3503 -1.5714 -0.0600
   39MPD2    N1  605   2.328   0.240   1.882 -0.3406  0.5365 -0.4384
   39MPD2    H7  606   2.406   0.175   1.892 -0.1103  1.3419  3.1324
   40TCq2    C1  607   2.260   0.277   2.001 -0.2840  0.2576  0.7944
   40TCq2    O2  608   2.156   0.336   2.017 -0.4346 -0.5488  0.3535
   40TCq2    C2  609   2.322   0.231   2.116 -0.2746  0.9703  0.1469
   40TCq2    C3  610   2.245   0.242   2.233 -0.0454  0.9934 -0.4349
   40TCq2    C4  611   2.304   0.220   2.352 -0.0029 -0.6330  0.2314
   40TCq2    C5  612   2.435   0.198   2.358 -0.2875  0.1874  0.2594
   40TCq2    C6  613   2.512   0.213   2.247 -0.4133 -0.0654  0.1634
   40TCq2    C7  614   2.457   0.228   2.127  0.3271  0.0957 -0.1339
   40TCq2    C8  615   2.660   0.214   2.268  0.8560 -0.4237 -1.1930
   40TCq2    O4  616   2.701   0.145   2.359 -0.1216  0.4207  0.1704
   40TCq2    C9  617   2.221   0.209   2.468 -0.0354 -0.4101 -0.1997
   40TCq2    O5  618   2.275   0.159   2.572  0.1872 -0.0940  0.5130
   40TCq2    O6  619   2.096   0.243   2.463  0.8552 -0.0528 -0.8799
   40TCq2    H2  620   2.137   0.240   2.226  0.0799  0.8708 -2.3440
   40TCq2    H3  621   2.475   0.142   2.442  0.0785  0.0645  0.0004
   40TCq2    H4  622   2.516   0.245   2.038  0.7561 -1.5542 -0.1672
   41TMC2    C1  623   1.374   4.105  13.308  0.2488 -0.0992  0.1559
   41TMC2    C2  624   1.279   4.183  13.372 -0.7714 -0.6794  0.3035
   41TMC2    C3  625   1.216   4.274  13.300 -0.0179 -0.1722  0.4920
   41TMC2    C4  626   1.398   4.123  13.172 -0.2511  0.0046 -0.3033
   41TMC2    C5  627   1.324   4.213  13.101  1.1593  0.1828  0.2165
   41TMC2    C6  628   1.223   4.287  13.156  0.2214 -0.5641  0.5518
   41TMC2     C  629   1.462   4.023  13.388 -0.3372 -0.0387 -0.7119
   41TMC2     O  630   1.559   3.982  13.329  0.6250  0.2891  0.4360
   41TMC2     H  631   1.256   4.180  13.478 -3.7118  0.6681 -0.2919
   41TMC2    H1  632   1.482   4.071  13.128 -1.1774 -0.1210 -1.9095
   41TMC2    H2  633   1.167   4.366  13.108  0.6417 -1.5897 -1.6260
   41TMC2    C7  634   1.363   4.253  12.966  0.6112 -0.5717  0.3143
   41TMC2    C8  635   1.140   4.383  13.361 -0.2259 -0.0642  0.1116
   41TMC2    O1  636   1.297   4.344  12.918 -0.4226  0.1972 -0.1502
   41TMC2    O2  637   1.063   4.451  13.291  0.0335 -0.6419  0.1699
   41TMC2    O5  638   1.130   4.362  13.493 -0.3344 -0.6977  0.3226
   41TMC2    H5  639   1.211   4.335  13.541 -0.5026 -1.8543 -0.0493
   42MPD2     C  640   1.591   3.845  13.585 -0.2058 -0.2945 -0.3350
   42MPD2    C1  641   1.500   3.948  13.617  0.4658 -0.3079 -0.6754
   42MPD2    C2  642   1.477   3.971  13.755 -0.1250  0.3308 -0.3896
   42MPD2    C3  643   1.539   3.902  13.854 -0.4691  0.2293  0.0464
   42MPD2    C4  644   1.612   3.792  13.816 -0.0538 -0.3096 -0.0069
   42MPD2    C5  645   1.636   3.765  13.686 -0.0511 -0.0306  0.0425
   42MPD2     H  646   1.414   4.056  13.780 -0.3735 -0.4269  1.5492
   42MPD2    H1  647   1.666   3.727  13.885  0.7559 -0.4216 -0.7422
   42MPD2    H2  648   1.601   3.810  13.483  1.3854  1.3295 -0.7441
   42MPD2    H3  649   1.702   3.683  13.658 -2.2927 -2.4079  1.7923
   42MPD2     N  650   1.533   3.934  13.991 -0.3087 -0.1408  0.4897
   42MPD2    H5  651   1.578   3.866  14.050  1.5692 -1.5157 -2.5130
   42MPD2    N1  652   1.428   4.025  13.519  0.7005  0.5162 -0.6739
   42MPD2    H7  653   1.344   4.075  13.546 -0.7731 -2.0966 -0.3847
   43MPD2     C  654   2.530   1.345   0.729  0.3122  0.7065  0.3995
   43MPD2    C1  655   2.640   1.291   0.794  0.4748  1.4346 -0.7429
   43MPD2    C2  656   2.646   1.329   0.925 -0.9197  0.1478  0.3858
   43MPD2    C3  657   2.570   1.422   0.986 -0.0729 -0.3036  0.0460
   43MPD2    C4  658   2.472   1.478   0.911 -0.3928 -0.1564  0.0385
   43MPD2    C5  659   2.447   1.442   0.782  0.2214 -0.1097  0.0270
   43MPD2     H  660   2.732   1.287   0.977  0.9330  0.8183 -2.1535
   43MPD2    H1  661   2.398   1.542   0.957  0.3476  0.5880  0.1909
   43MPD2    H2  662   2.506   1.305   0.631  3.5024  0.4634 -0.2901
   43MPD2    H3  663   2.364   1.487   0.729 -0.1892  0.0992  0.8535
   43MPD2     N  664   2.590   1.467   1.123  0.1385 -0.1148 -0.4148
   43MPD2    H5  665   2.538   1.548   1.155 -2.5658 -2.2918  0.7320
   43MPD2    N1  666   2.732   1.196   0.745  0.6254  0.5035  0.0040
   43MPD2    H7  667   2.809   1.159   0.799 -0.1361  1.3129  1.6676
   44TCq2    C1  668   2.899   1.516   1.626 -0.0419 -0.2973  0.1600
   44TCq2    O2  669   2.988   1.452   1.577 -0.1618  0.0008 -0.2253
   44TCq2    C2  670   2.777   1.547   1.549  0.4284  0.0212  0.0958
   44TCq2    C3  671   2.737   1.682   1.543 -0.1469  0.2089  0.2111
   44TCq2    C4  672   2.682   1.733   1.425  0.4854  0.1432 -0.3415
   44TCq2    C5  673   2.655   1.652   1.320  0.9876  0.4410  0.5471
   44TCq2    C6  674   2.702   1.523   1.324  0.1194  0.8315 -0.4452
   44TCq2    C7  675   2.774   1.476   1.433  0.1297  0.1396  0.0874
   44TCq2    C8  676   2.683   1.432   1.213 -1.0226  0.7604  0.1777
   44TCq2    O4  677   2.753   1.331   1.205 -0.2904  0.4840 -0.2283
   44TCq2    C9  678   2.649   1.873   1.415  0.6092 -0.4635  0.1241
   44TCq2    O5  679   2.689   1.949   1.506  0.0801  0.2826 -0.7535
   44TCq2    O6  680   2.609   1.913   1.304  0.3097 -0.1331  0.5132
   44TCq2    H2  681   2.738   1.754   1.624 -1.9260  0.0739  0.3569
   44TCq2    H3  682   2.606   1.700   1.236 -0.9320  0.9127  1.9344
   44TCq2    H4  683   2.818   1.378   1.428 -2.3455 -0.8807 -1.4951
   45TMC2    C1  684   3.676   4.013   9.558  0.6094 -0.7266 -0.2482
   45TMC2    C2  685   3.640   3.961   9.681  0.8771 -0.4508  0.2098
   45TMC2    C3  686   3.715   3.993   9.790  0.1970 -0.0128  0.0594
   45TMC2    C4  687   3.774   4.110   9.554  0.6975  0.3038 -0.5579
   45TMC2    C5  688   3.827   4.161   9.673 -0.3787 -0.2765  0.1438
   45TMC2    C6  689   3.796   4.100   9.791 -0.0085 -0.3123  0.0391
   45TMC2     C  690   3.601   3.989   9.437  0.1561  1.0539 -0.0483
   45TMC2     O  691   3.645   4.041   9.333  0.1696 -0.5712 -0.7639
   45TMC2     H  692   3.565   3.883   9.691  1.1863 -0.7496  0.1818
   45TMC2    H1  693   3.787   4.170   9.464 -1.9124  0.1021 -1.0778
   45TMC2    H2  694   3.851   4.130   9.880  0.7869 -1.8041  0.0576
   45TMC2    C7  695   3.879   4.297   9.690 -0.0765 -0.5055 -0.3360
   45TMC2    C8  696   3.681   3.925   9.914 -0.5322  0.0165  0.7550
   45TMC2    O1  697   3.891   4.333   9.805  0.3951 -0.2977 -0.0461
   45TMC2    O2  698   3.583   3.857   9.926 -0.2228  0.2917 -0.2070
   45TMC2    O5  699   3.801   3.894   9.976 -0.0204 -0.1812 -0.3596
   45TMC2    H5  700   3.883   3.934   9.939  0.4618 -0.4857  0.3608
   46MPD2     C  701   3.376   3.958   9.238 -0.4586 -0.3207 -0.2516
   46MPD2    C1  702   3.365   3.929   9.373  0.1110 -0.5134  0.3835
   46MPD2    C2  703   3.241   3.913   9.415 -0.0306 -0.4934  0.5008
   46MPD2    C3  704   3.128   3.937   9.345 -0.0397 -0.8267 -0.1209
   46MPD2    C4  705   3.143   3.972   9.209  0.1744 -0.0721  0.1254
   46MPD2    C5  706   3.268   3.975   9.155  0.0512  0.3722  0.0154
   46MPD2     H  707   3.230   3.874   9.516  1.5857  0.9285  1.2331
   46MPD2    H1  708   3.062   3.998   9.142  2.1839  3.2345 -1.0375
   46MPD2    H2  709   3.475   3.970   9.195 -1.4051  0.7564 -2.1463
   46MPD2    H3  710   3.280   3.995   9.049  0.9756 -0.7445 -0.0927
   46MPD2     N  711   3.008   3.922   9.423 -0.2459  0.0418 -0.2598
   46MPD2    H5  712   3.026   3.930   9.523 -1.0145  0.8140 -0.1877
   46MPD2    N1  713   3.478   3.927   9.463  0.4225 -0.2933 -0.2623
   46MPD2    H7  714   3.455   3.914   9.561  0.4119  0.6994 -0.1277
   47TMC2    C1  715   1.006   0.295   9.050  0.0372  0.0510 -0.4463
   47TMC2    C2  716   1.033   0.314   8.922  0.2627  0.1889 -0.0687
   47TMC2    C3  717   0.928   0.321   8.835 -0.6300 -0.0341 -0.0231
   47TMC2    C4  718   0.878   0.314   9.104  0.2619  0.4201 -0.4471
   47TMC2    C5  719   0.777   0.335   9.012  0.7804  0.0612 -0.2657
   47TMC2    C6  720   0.800   0.323   8.878 -1.3687  0.0997 -0.0891
   47TMC2     C  721   1.112   0.331   9.133  0.4365  0.4529  1.1010
   47TMC2     O  722   1.101   0.426   9.214 -0.3871  0.6994 -0.2598
   47TMC2     H  723   1.131   0.328   8.878  0.1333  0.1225 -0.3810
   47TMC2    H1  724   0.869   0.342   9.208  0.4164 -1.1380 -0.0136
   47TMC2    H2  725   0.719   0.319   8.806 -1.8746  1.1537  0.4291
   47TMC2    C7  726   0.643   0.367   9.056 -0.6185 -0.4557  0.6339
   47TMC2    C8  727   0.958   0.360   8.703  0.8155 -0.0328  1.8173
   47TMC2    O1  728   0.631   0.334   9.170  0.5211 -0.5051 -0.1705
   47TMC2    O2  729   1.070   0.388   8.666  0.4368  0.5024 -0.2021
   47TMC2    O5  730   0.848   0.411   8.643  0.5147  0.6375 -0.1410
   47TMC2    H5  731   0.757   0.401   8.679  0.6620 -0.2871 -0.0340
   48MPD2     C  732   1.379   0.379   9.241  0.3521  0.3366 -0.2382
   48MPD2    C1  733   1.342   0.257   9.179 -0.2895 -0.5486  0.2043
   48MPD2    C2  734   1.436   0.157   9.177  1.0002 -0.1080  0.5660
   48MPD2    C3  735   1.564   0.179   9.224 -0.1619 -0.2102  0.1190
   48MPD2    C4  736   1.603   0.305   9.270 -0.5198 -0.1225 -0.0773
   48MPD2    C5  737   1.507   0.396   9.280  0.6057  0.2071 -0.6503
   48MPD2     H  738   1.409   0.066   9.126  0.7186 -0.8027  1.9687
   48MPD2    H1  739   1.700   0.334   9.308 -0.4673  1.0101 -1.0468
   48MPD2    H2  740   1.311   0.464   9.242 -2.1627 -1.6535 -3.0505
   48MPD2    H3  741   1.527   0.496   9.317 -0.5579  1.0201 -2.1791
   48MPD2     N  742   1.645   0.063   9.241 -0.3650 -0.0921  0.4268
   48MPD2    H5  743   1.616   4.693   9.197  0.3182  0.5868 -1.3859
   48MPD2    N1  744   1.218   0.239   9.115  0.3519  0.0469 -0.7948
   48MPD2    H7  745   1.203   0.168   9.043  0.4143 -1.6596  0.8721
   49MPD2     C  746   0.093   1.983  10.105  0.2321  0.4730 -0.4479
   49MPD2    C1  747   0.002   2.085  10.093 -0.0674  0.0890  0.4417
   49MPD2    C2  748   4.618   2.107  10.188 -0.7200  0.5444 -0.6215
   49MPD2    C3  749   4.620   2.026  10.303  0.7179 -0.2950  0.0002
   49MPD2    C4  750   0.004   1.929  10.313 -0.3270 -0.9347 -0.5638
   49MPD2    C5  751   0.095   1.914  10.218 -0.1367 -0.1250 -0.3287
   49MPD2     H  752   4.534   2.172  10.169 -0.5294  1.1508  0.6611
   49MPD2    H1  753   0.010   1.856  10.393  1.4275 -0.0502  0.1244
   49MPD2    H2  754   0.171   1.967  10.031  1.2853  0.7188  0.6073
   49MPD2    H3  755   0.173   1.841  10.234 -0.6348 -0.2580  1.4844
   49MPD2     N  756   4.511   2.019  10.394  0.1101 -0.4883 -0.2725
   49MPD2    H5  757   4.516   1.950  10.468  2.0921 -0.4477 -0.3549
   49MPD2    N1  758   0.007   2.177   9.985  0.5338  0.7268 -0.1550
   49MPD2    H7  759   4.658   2.255   9.988 -0.4824 -0.1656  0.9070
   50TCq2    C1  760   0.089   2.164   9.871  0.1341  0.0771  0.6054
   50TCq2    O2  761   0.186   2.089   9.849 -0.1046  0.1919  0.2667
   50TCq2    C2  762   0.084   2.273   9.776  0.1050  0.4158  0.5253
   50TCq2    C3  763   0.053   2.399   9.809 -0.5912 -0.0004 -0.7228
   50TCq2    C4  764   0.069   2.503   9.719  0.0827  0.8231 -0.2355
   50TCq2    C5  765   0.118   2.475   9.597 -0.0346  0.9423  0.3201
   50TCq2    C6  766   0.145   2.346   9.557  0.4177  0.2346  0.2301
   50TCq2    C7  767   0.134   2.247   9.651  0.1509 -0.4426 -0.3320
   50TCq2    C8  768   0.244   2.308   9.453  0.2788 -0.4932 -0.1691
   50TCq2    O4  769   0.245   2.193   9.410 -0.1100  0.1356 -0.4137
   50TCq2    C9  770   0.027   2.637   9.748 -0.0249  0.2352  0.3196
   50TCq2    O5  771   4.663   2.648   9.841 -0.0749  0.1260 -0.2824
   50TCq2    O6  772   0.032   2.723   9.651  0.0606 -0.3537  0.5525
   50TCq2    H2  773   0.022   2.422   9.911  0.4229 -1.2562 -0.1312
   50TCq2    H3  774   0.115   2.546   9.515  1.4405  0.7182  0.0554
   50TCq2    H4  775   0.164   2.148   9.617  0.6739 -1.1273  2.1319
   51MPD2     C  776   0.364   4.156   1.064  0.1784  0.2161  0.3186
   51MPD2    C1  777   0.385   4.281   1.002  0.3635  0.0817 -0.1286
   51MPD2    C2  778   0.470   4.372   1.063  0.1583 -0.0619 -0.4096
   51MPD2    C3  779   0.534   4.339   1.178 -0.4446 -0.8621 -0.2970
   51MPD2    C4  780   0.526   4.211   1.222 -0.2837 -0.7406 -1.3511
   51MPD2    C5  781   0.439   4.117   1.168  0.3825 -0.0981 -0.3940
   51MPD2     H  782   0.485   4.469   1.017  0.5933 -0.2337 -0.6229
   51MPD2    H1  783   0.593   4.180   1.301 -2.8592  1.3752  1.6839
   51MPD2    H2  784   0.300   4.078   1.025  0.0236  1.1874 -1.3460
   51MPD2    H3  785   0.451   4.015   1.200  2.7557  0.3772  0.2171
   51MPD2     N  786   0.623   4.421   1.244 -0.3689  0.0029 -0.0454
   51MPD2    H5  787   0.681   4.370   1.310  2.2753  1.4378 -1.3179
   51MPD2    N1  788   0.332   4.304   0.873 -0.4322  0.4040  0.2878
   51MPD2    H7  789   0.283   4.227   0.830  1.5725 -1.2084  0.8938
   52TCq2    C1  790   0.639   4.554   1.221 -0.2997  0.8961  0.7041
   52TCq2    O2  791   0.574   4.625   1.146  0.0928  0.0095  0.2567
   52TCq2    C2  792   0.728   4.627   1.318 -0.4195  0.0617 -0.3501
   52TCq2    C3  793   0.821   4.566   1.401 -0.2096 -0.0717 -0.0409
   52TCq2    C4  794   0.897   4.650   1.482  0.1786  0.1084 -0.0821
   52TCq2    C5  795   0.878   0.063   1.488  0.6790  0.2031 -0.4077
   52TCq2    C6  796   0.772   0.111   1.415 -0.0887  0.0880  0.2564
   52TCq2    C7  797   0.706   0.047   1.317  1.0082 -0.1716 -0.8211
   52TCq2    C8  798   0.715   0.239   1.446 -0.1027 -0.1058 -0.5047
   52TCq2    O4  799   0.665   0.297   1.348  0.5965  0.7335 -0.2147
   52TCq2    C9  800   1.002   4.588   1.560 -0.1444 -0.2555  0.0228
   52TCq2    O5  801   1.077   4.668   1.617 -0.2993 -0.3165 -0.2829
   52TCq2    O6  802   1.011   4.461   1.557 -0.2369  0.1540  0.1782
   52TCq2    H2  803   0.845   4.460   1.399  2.8590  0.6164 -0.8779
   52TCq2    H3  804   0.939   0.116   1.561  1.9363  0.3911 -1.5928
   52TCq2    H4  805   0.635   0.097   1.252 -0.9505  1.0194  2.2360
   53TMC2    C1  806   4.457   4.056  11.009 -0.3045 -0.7300  0.2918
   53TMC2    C2  807   4.563   4.106  10.939 -0.5787  0.3135  0.8564
   53TMC2    C3  808   4.641   4.204  11.001 -0.3926  0.2052  0.3676
   53TMC2    C4  809   4.418   4.104  11.134  0.4311  0.0127 -0.3994
   53TMC2    C5  810   4.498   4.203  11.190 -0.0278  0.4306 -0.7948
   53TMC2    C6  811   4.599   4.259  11.118 -0.4829 -0.5971  0.7529
   53TMC2     C  812   4.373   3.954  10.949 -0.7129  0.0312 -0.4574
   53TMC2     O  813   4.427   3.913  10.847 -0.6973 -0.2650 -0.7587
   53TMC2     H  814   4.597   4.063  10.846 -1.8894  0.7446  0.1825
   53TMC2    H1  815   4.329   4.072  11.186  1.2650 -1.9898 -0.1896
   53TMC2    H2  816   4.639   4.351  11.159  3.3416 -0.5287 -3.1884
   53TMC2    C7  817   4.475   4.230  11.332 -0.3091  0.1690 -0.0964
   53TMC2    C8  818   0.009   4.293  10.926  0.5500  0.5740 -0.0963
   53TMC2    O1  819   4.362   4.218  11.375  0.6357  0.2100  0.4741
   53TMC2    O2  820   0.012   4.418  10.927 -0.1008 -0.1267 -0.3226
   53TMC2    O5  821   0.087   4.214  10.842  0.0665 -0.5978 -0.5006
   53TMC2    H5  822   0.076   4.123  10.877  1.1269 -0.7951 -0.6753
   54MPD2     C  823   4.218   3.710  10.866 -0.0417 -0.3755 -0.9454
   54MPD2    C1  824   4.207   3.773  10.998 -0.1119  0.3763  0.7086
   54MPD2    C2  825   4.132   3.707  11.091 -0.5181 -0.7400 -0.3550
   54MPD2    C3  826   4.077   3.582  11.072 -0.3701  0.4379 -0.4746
   54MPD2    C4  827   4.103   3.519  10.951 -0.5283 -0.0471  1.3502
   54MPD2    C5  828   4.163   3.585  10.844  0.2459  0.2826  0.0303
   54MPD2     H  829   4.134   3.747  11.192  0.7448  1.2853 -1.1836
   54MPD2    H1  830   4.063   3.419  10.933  0.0237  0.1807 -1.1730
   54MPD2    H2  831   4.267   3.753  10.780  0.6802 -0.9721 -0.8311
   54MPD2    H3  832   4.162   3.543  10.745  0.4134  1.7072 -0.5722
   54MPD2     N  833   3.993   3.514  11.156  0.1237 -0.6086  0.3526
   54MPD2    H5  834   3.967   3.423  11.118 -1.9042 -0.7072  1.9415
   54MPD2    N1  835   4.278   3.890  11.031 -0.0439 -0.2360 -0.6494
   54MPD2    H7  836   4.269   3.930  11.123  0.5628 -2.9813  0.6083
   55MPD2     C  837   1.129   1.601  17.548  0.3888  0.4272  0.0078
   55MPD2    C1  838   1.105   1.503  17.646  0.9948 -0.9283 -0.1739
   55MPD2    C2  839   1.036   1.530   0.089  0.0999  0.0579  0.0320
   55MPD2    C3  840   0.997   1.659   0.122 -0.1378  0.5146  0.2568
   55MPD2    C4  841   1.012   1.757   0.027 -0.2700  0.2442 -0.4161
   55MPD2    C5  842   1.078   1.730  17.579 -0.4601 -0.8355 -0.7617
   55MPD2     H  843   1.027   1.451   0.164  0.7558  1.3679  1.5086
   55MPD2    H1  844   0.978   1.859   0.044  1.6464  0.4910  1.9108
   55MPD2    H2  845   1.193   1.579  17.464 -1.8338  0.0855 -1.6049
   55MPD2    H3  846   1.099   1.813  17.512 -1.2353 -0.3387 -0.3775
   55MPD2     N  847   0.939   1.676   0.247 -0.2859  0.5132  0.2107
   55MPD2    H5  848   0.922   1.592   0.302 -1.1574  0.1992 -0.5397
   55MPD2    N1  849   1.151   1.375  17.599  0.3988 -0.9900 -0.5295
   55MPD2    H7  850   1.194   1.368  17.507 -0.6446 -3.2442 -0.8358
   56TCq2    C1  851   1.135   1.257  17.662 -0.4270 -0.3182  0.0287
   56TCq2    O2  852   1.059   1.235   0.087  0.1996 -0.4227 -0.1161
   56TCq2    C2  853   1.217   1.150  17.609  0.2589 -0.1343 -0.3096
   56TCq2    C3  854   1.274   1.172  17.489 -0.5621  0.3223  0.5065
   56TCq2    C4  855   1.361   1.071  17.445  0.4870 -0.8750  0.1964
   56TCq2    C5  856   1.375   0.961  17.524  0.8119 -0.2254  0.4865
   56TCq2    C6  857   1.303   0.935  17.640 -0.2513 -0.7010 -0.3327
   56TCq2    C7  858   1.238   1.045   0.021 -0.0031  0.6087 -1.4132
   56TCq2    C8  859   1.236   0.803  17.662 -0.7662  0.2216 -0.2169
   56TCq2    O4  860   1.279   0.713  17.596 -0.6100 -0.1883 -0.0160
   56TCq2    C9  861   1.427   1.084  17.313 -0.0689 -0.3770  0.3771
   56TCq2    O5  862   1.403   1.181  17.235  0.3493 -0.7929  0.0025
   56TCq2    O6  863   1.528   1.009  17.291 -0.5103  0.1972  0.0512
   56TCq2    H2  864   1.248   1.253  17.423 -0.6538  0.6013  0.8842
   56TCq2    H3  865   1.421   0.882  17.466 -0.6304 -1.7336  1.3693
   56TCq2    H4  866   1.177   1.034   0.110 -0.3404  1.2114 -1.5623
   57TMC2    C1  867   4.597   2.872  13.359  0.2330 -0.4250  0.1281
   57TMC2    C2  868   4.652   2.743  13.380 -0.4645  0.3011 -0.1343
   57TMC2    C3  869   0.058   2.714  13.347 -0.4072  0.0348  0.2214
   57TMC2    C4  870   4.670   2.969  13.295  0.2253  0.4991 -0.4321
   57TMC2    C5  871   0.073   2.924  13.242  0.2476  1.2296  0.2051
   57TMC2    C6  872   0.121   2.796  13.259  0.0564 -0.5537 -0.4371
   57TMC2     C  873   4.464   2.904  13.415  0.2231 -0.0084 -0.2932
   57TMC2     O  874   4.437   3.021  13.431  0.0941 -0.0748 -0.2430
   57TMC2     H  875   4.599   2.676  13.446 -2.0053  0.6839 -0.9817
   57TMC2    H1  876   4.628   3.063  13.260  2.4636  0.4938 -3.0943
   57TMC2    H2  877   0.220   2.767  13.227  0.2271  0.3949 -0.7699
   57TMC2    C7  878   0.108   2.991  13.121 -0.5342  0.3188 -0.1608
   57TMC2    C8  879   0.112   2.587  13.361  0.4897  0.2693  0.2516
   57TMC2    O1  880   0.085   3.111  13.111  0.3556  0.4152  0.4572
   57TMC2    O2  881   0.133   2.541  13.473 -0.2644 -0.2812  0.4615
   57TMC2    O5  882   0.066   2.513  13.258 -0.7175  0.1048  0.2098
   57TMC2    H5  883   0.063   2.564  13.175 -1.6210 -0.0103  0.1713
   58MPD2     C  884   3.987   2.749  13.572  0.4343 -0.3533  0.3260
   58MPD2    C1  885   4.061   2.869  13.602  0.2147 -0.3563 -0.8760
   58MPD2    C2  886   4.186   2.885  13.540  0.1129 -0.7458 -0.1091
   58MPD2    C3  887   4.246   2.783  13.465  0.2502  0.0579  0.6532
   58MPD2    C4  888   4.165   2.675  13.435  0.2343  0.0261 -0.3597
   58MPD2    C5  889   4.039   2.657  13.487  0.3943 -0.0127 -0.0622
   58MPD2     H  890   4.248   2.971  13.563  0.1963 -0.2899 -2.0204
   58MPD2    H1  891   4.201   2.592  13.375 -3.5827 -1.7881 -0.1743
   58MPD2    H2  892   3.895   2.728  13.626 -0.2676 -0.1258 -0.7802
   58MPD2    H3  893   3.978   2.568  13.472  0.8826 -0.1865 -1.0587
   58MPD2     N  894   4.377   2.792  13.419  0.3181 -0.3157 -0.1798
   58MPD2    H5  895   4.414   2.710  13.371 -0.0316 -1.1935  1.0333
   58MPD2    N1  896   4.014   2.974  13.693 -0.3068 -0.2774  0.2980
   58MPD2    H7  897   4.072   3.057  13.706 -1.6383  1.0240 -2.0403
   59MPD2     C  898   2.517   3.965  13.500 -0.4137 -0.0219  0.8361
   59MPD2    C1  899   2.567   3.891  13.397  0.1310  0.5991 -0.9600
   59MPD2    C2  900   2.696   3.849  13.397 -0.3139 -0.1786 -0.3806
   59MPD2    C3  901   2.778   3.866  13.507 -0.6772 -0.4083  0.3724
   59MPD2    C4  902   2.725   3.939  13.607 -0.0924  0.5004 -0.3212
   59MPD2    C5  903   2.607   3.995  13.606 -0.1678 -0.4128  0.2044
   59MPD2     H  904   2.717   3.784  13.313  0.1463 -0.8103  0.2186
   59MPD2    H1  905   2.785   3.957  13.696  1.9608 -1.1720 -1.3574
   59MPD2    H2  906   2.415   3.999  13.510  0.1832  2.3174 -0.9037
   59MPD2    H3  907   2.578   4.061  13.687  0.1785 -0.7498  0.6009
   59MPD2     N  908   2.909   3.815  13.518  0.0031 -0.1434 -0.0809
   59MPD2    H5  909   2.964   3.832  13.601 -0.7661 -0.5648  0.5209
   59MPD2    N1  910   2.482   3.859  13.289  0.2463  0.8830  0.7990
   59MPD2    H7  911   2.524   3.805  13.215 -0.1868  2.7284 -0.7877
   60TCq2    C1  912   2.363   3.921  13.260  0.7031  0.0816 -0.5621
   60TCq2    O2  913   2.306   4.018  13.301  0.3163 -0.1601  0.2491
   60TCq2    C2  914   2.331   3.909  13.111  0.0923  0.2899 -0.3554
   60TCq2    C3  915   2.328   3.784  13.053  0.1436 -0.1362 -0.3011
   60TCq2    C4  916   2.318   3.775  12.919 -0.1233  0.2644  0.6535
   60TCq2    C5  917   2.337   3.885  12.837  0.3524  0.0205 -0.1686
   60TCq2    C6  918   2.359   4.007  12.897 -0.0202 -0.4636 -0.1255
   60TCq2    C7  919   2.354   4.019  13.031  0.1705 -0.5933 -0.8731
   60TCq2    C8  920   2.379   4.135  12.825 -0.4679 -0.3569 -0.7277
   60TCq2    O4  921   2.411   4.234  12.891  0.4638 -0.3222  0.1892
   60TCq2    C9  922   2.314   3.650  12.856  0.0664 -0.4123 -0.6091
   60TCq2    O5  923   2.310   3.549  12.932 -0.7120  0.7693  0.0841
   60TCq2    O6  924   2.323   3.656  12.730 -0.1389 -0.7577 -0.0898
   60TCq2    H2  925   2.320   3.700  13.122  3.4775  1.3865  1.9250
   60TCq2    H3  926   2.335   3.876  12.729  2.3137 -3.2011  0.0708
   60TCq2    H4  927   2.350   4.118  13.074 -0.9334 -1.1108  0.2055
   61MPD2     C  928   1.523   4.627  15.323  0.0972 -0.2746  0.3206
   61MPD2    C1  929   1.586   0.032  15.345  0.0033 -0.3521  0.0929
   61MPD2    C2  930   1.627   0.115  15.240 -0.0219  0.2225  0.4845
   61MPD2    C3  931   1.614   0.070  15.110  0.2637 -0.1202  0.3741
   61MPD2    C4  932   1.560   4.664  15.090 -0.3435  0.1984  0.1101
   61MPD2    C5  933   1.519   4.583  15.191 -0.0053  0.6086 -0.6062
   61MPD2     H  934   1.657   0.217  15.262 -0.8316  0.8511 -1.2945
   61MPD2    H1  935   1.539   4.622  14.992  0.7143 -1.1955  0.4839
   61MPD2    H2  936   1.479   4.568  15.403 -0.0944 -2.5730 -1.4726
   61MPD2    H3  937   1.473   4.489  15.165  1.1479 -0.2131  0.2816
   61MPD2     N  938   1.651   0.141  14.997 -0.3733  0.4011  0.1650
   61MPD2    H5  939   1.631   0.094  14.909  0.5108 -0.2172  0.2863
   61MPD2    N1  940   1.595   0.090  15.471 -0.5811  0.2136 -0.1924
   61MPD2    H7  941   1.623   0.188  15.465 -0.6168  0.3872  2.5605
   62TCq2    C1  942   1.573   0.029  15.589 -0.1457  0.1862 -0.0506
   62TCq2    O2  943   1.582   4.622  15.610 -0.2715 -0.1138  0.0087
   62TCq2    C2  944   1.600   0.121  15.701 -0.4194  0.5197  0.1957
   62TCq2    C3  945   1.664   0.075  15.811 -0.6292  0.0606 -0.3705
   62TCq2    C4  946   1.731   0.168  15.891 -0.1500 -0.6312 -0.0005
   62TCq2    C5  947   1.737   0.299  15.845 -0.8187  0.6648 -0.6109
   62TCq2    C6  948   1.669   0.339  15.729 -0.1641  0.5899 -0.6237
   62TCq2    C7  949   1.599   0.250  15.655  0.6183  0.8672 -0.1988
   62TCq2    C8  950   1.687   0.468  15.662 -0.4300  0.3763 -0.0507
   62TCq2    O4  951   1.654   0.467  15.545 -0.3066 -0.5018 -0.5552
   62TCq2    C9  952   1.800   0.130  16.007  0.1120 -0.5642 -0.1390
   62TCq2    O5  953   1.809   0.006  16.030  0.2740  1.1294  0.7570
   62TCq2    O6  954   1.823   0.222  16.089 -0.0807 -0.0723  0.4765
   62TCq2    H2  955   1.645   4.690  15.846  0.3288  0.9766  2.8600
   62TCq2    H3  956   1.801   0.367  15.900 -0.1321  0.8731 -1.6779
   62TCq2    H4  957   1.525   0.285  15.583 -1.2013  2.2740  2.3763
   63TMC2    C1  958   1.143   0.048  10.655 -0.3287  0.0357 -0.3460
   63TMC2    C2  959   1.224   0.108  10.752  0.8055  0.6625  0.4050
   63TMC2    C3  960   1.333   0.178  10.705  0.3106 -0.2944 -0.1922
   63TMC2    C4  961   1.193   0.041  10.529 -0.5145  0.3618 -0.5812
   63TMC2    C5  962   1.302   0.110  10.490  0.9614  0.2570  0.2453
   63TMC2    C6  963   1.379   0.188  10.575  0.0480  0.2981 -0.2539
   63TMC2     C  964   1.048   4.659  10.695 -0.1260  0.3638  0.1635
   63TMC2     O  965   0.996   4.675  10.803 -0.5054 -0.3806  0.4745
   63TMC2     H  966   1.189   0.116  10.854 -2.1198 -1.0759 -0.4881
   63TMC2    H1  967   1.129   0.003  10.449 -0.1239 -1.5378 -0.0060
   63TMC2    H2  968   1.450   0.255  10.529  1.3762 -1.4395 -0.7246
   63TMC2    C7  969   1.317   0.117  10.346 -0.1492  0.1254 -0.5362
   63TMC2    C8  970   1.417   0.241  10.808 -0.3839  0.4441 -0.2347
   63TMC2    O1  971   1.230   0.079  10.275 -0.0933  0.0177 -0.1580
   63TMC2    O2  972   1.378   0.273  10.921 -0.2124  0.1032  0.0720
   63TMC2    O5  973   1.546   0.191  10.780 -0.4561 -0.2976 -0.2603
   63TMC2    H5  974   1.559   0.167  10.685 -0.4805  1.3132 -0.6824
   64MPD2     C  975   0.775   4.222  10.663 -0.1398  0.0401 -0.2330
   64MPD2    C1  976   0.892   4.211  10.586 -0.1195 -0.8752  0.0204
   64MPD2    C2  977   0.975   4.320  10.567  0.6065 -0.2053  0.1030
   64MPD2    C3  978   0.953   4.437  10.638 -0.4666  0.9222  0.5057
   64MPD2    C4  979   0.842   4.450  10.720 -0.6586 -0.3214  0.3554
   64MPD2    C5  980   0.754   4.344  10.733  0.4963 -0.2116  0.4223
   64MPD2     H  981   1.071   4.309  10.518  0.0002 -3.0527 -0.4608
   64MPD2    H1  982   0.818   4.539  10.777 -1.6705 -0.3755  0.0187
   64MPD2    H2  983   0.717   4.133  10.686 -0.6321  0.7187  1.1969
   64MPD2    H3  984   0.683   4.355  10.815  0.5744  1.6032  0.2435
   64MPD2     N  985   1.042   4.545  10.616 -0.5559 -0.0123 -0.3461
   64MPD2    H5  986   1.105   4.540  10.536 -1.6281 -1.3846 -1.1000
   64MPD2    N1  987   0.931   4.093  10.528 -0.2620  1.2191 -0.2030
   64MPD2    H7  988   1.016   4.108  10.475 -0.3229 -0.3185 -0.7621
   65MPD2     C  989   1.950   3.961  15.773 -0.4830  0.3434 -0.1762
   65MPD2    C1  990   1.968   3.939  15.640  1.2700  0.1174 -0.4551
   65MPD2    C2  991   2.064   3.845  15.598 -0.6939  0.7424  0.3131
   65MPD2    C3  992   2.131   3.765  15.685 -0.4930 -0.1573  0.7529
   65MPD2    C4  993   2.115   3.797  15.818 -1.0315 -0.1975  0.1540
   65MPD2    C5  994   2.027   3.889  15.857  0.4466 -0.4973 -0.1263
   65MPD2     H  995   2.078   3.842  15.490 -1.5200  0.6946  0.2095
   65MPD2    H1  996   2.174   3.749  15.895  0.3329  0.9674 -0.1618
   65MPD2    H2  997   1.889   4.042  15.812  0.2555  0.7809  0.0753
   65MPD2    H3  998   2.012   3.903  15.963  0.4590  1.9598 -0.4324
   65MPD2     N  999   2.213   3.657  15.655  0.2930  0.0919  0.5255
   65MPD2    H5 1000   2.241   3.596  15.731  1.0751  1.6350  1.4887
   65MPD2    N1 1001   1.905   4.013  15.535 -0.2039  0.2392  0.0215
   65MPD2    H7 1002   1.938   3.985  15.443  1.1410  1.6971  0.0702
   66TCq2    C1 1003   1.814   4.117  15.550  0.1077  0.0856 -0.3265
   66TCq2    O2 1004   1.795   4.179  15.653 -0.1229  0.3628  0.3671
   66TCq2    C2 1005   1.788   4.170  15.421 -0.1772 -0.2595  0.3263
   66TCq2    C3 1006   1.806   4.099  15.308  0.2937  0.3548 -0.4904
   66TCq2    C4 1007   1.830   4.163  15.193 -0.0980  0.2122  0.3138
   66TCq2    C5 1008   1.853   4.293  15.193 -0.0307 -0.5640 -0.4393
   66TCq2    C6 1009   1.829   4.369  15.303 -1.1671 -0.2865  0.0813
   66TCq2    C7 1010   1.789   4.307  15.419 -0.4378  0.5977  0.1282
   66TCq2    C8 1011   1.865   4.509  15.301 -0.6438  0.0714 -0.5373
   66TCq2    O4 1012   1.868   4.568  15.193  0.1919 -0.1844 -0.5271
   66TCq2    C9 1013   1.847   4.084  15.073 -0.8200  0.4233 -0.3331
   66TCq2    O5 1014   1.887   3.967  15.075 -0.2369 -0.0713 -0.0002
   66TCq2    O6 1015   1.853   4.150  14.965  0.3045  0.1651 -1.0448
   66TCq2    H2 1016   1.799   3.991  15.304  0.4173  0.3543 -0.7054
   66TCq2    H3 1017   1.898   4.341  15.107  0.2886  0.2969  0.2023
   66TCq2    H4 1018   1.755   4.364  15.505 -2.8921 -2.2260  1.0363
   67MPD2     C 1019   2.663   3.248  13.993  0.3018 -0.0164 -0.4918
   67MPD2    C1 1020   2.641   3.379  14.023 -0.2411  0.0591  0.5647
   67MPD2    C2 1021   2.524   3.438  13.984 -0.4752 -0.3044  0.0075
   67MPD2    C3 1022   2.431   3.372  13.906  0.2321 -0.1718 -0.1113
   67MPD2    C4 1023   2.467   3.246  13.858 -0.0341 -0.0487  0.4146
   67MPD2    C5 1024   2.580   3.188  13.905 -0.0561 -0.5300  0.8767
   67MPD2     H 1025   2.494   3.533  14.027  2.6645 -0.0195  1.5658
   67MPD2    H1 1026   2.402   3.185  13.797  1.9298 -1.7510 -0.0038
   67MPD2    H2 1027   2.750   3.187  14.019  0.9670  1.3595  0.5166
   67MPD2    H3 1028   2.596   3.090  13.862 -0.2502 -0.3542  0.3990
   67MPD2     N 1029   2.309   3.430  13.860  0.0301  0.1243  0.1968
   67MPD2    H5 1030   2.244   3.368  13.812  0.3655 -0.7823  0.9148
   67MPD2    N1 1031   2.732   3.448  14.108  0.4419  0.6768  0.9072
   67MPD2    H7 1032   2.715   3.548  14.117  0.5924  0.6858  1.1008
   68TCq2    C1 1033   2.832   3.393  14.188  0.0303  0.3436  0.9233
   68TCq2    O2 1034   2.876   3.278  14.192  0.3152 -0.2053  0.0116
   68TCq2    C2 1035   2.908   3.496  14.257  0.8598  0.1629  0.9094
   68TCq2    C3 1036   2.854   3.625  14.281 -0.1248  0.4857 -0.5057
   68TCq2    C4 1037   2.914   3.700  14.375 -0.0205  0.5989  0.0660
   68TCq2    C5 1038   3.018   3.658  14.441  0.3596  0.1782  0.2334
   68TCq2    C6 1039   3.076   3.539  14.408  0.0032  0.6041 -0.2366
   68TCq2    C7 1040   3.023   3.456  14.317 -0.1499 -0.2622  0.6599
   68TCq2    C8 1041   3.158   3.483  14.514  0.5525 -0.4128 -0.5260
   68TCq2    O4 1042   3.217   3.379  14.487  0.6821  0.0236 -0.0162
   68TCq2    C9 1043   2.855   3.825  14.410  0.3648 -0.8216  0.5045
   68TCq2    O5 1044   2.764   3.865  14.339 -0.8048 -0.4543 -0.1223
   68TCq2    O6 1045   2.884   3.881  14.521  0.0623  0.1939  0.0889
   68TCq2    H2 1046   2.752   3.653  14.257 -0.2667  0.5193  0.1320
   68TCq2    H3 1047   3.045   3.732  14.515 -0.2491 -0.4416  1.0752
   68TCq2    H4 1048   3.053   3.353  14.307 -0.0512  0.1291 -3.2293
   69TMC2    C1 1049   4.490   0.087  12.292  0.9275 -0.3620 -0.5861
   69TMC2    C2 1050   4.372   0.089  12.222  0.1173 -0.2471 -0.2935
   69TMC2    C3 1051   4.392   0.109  12.089  0.0396  0.1378  0.6564
   69TMC2    C4 1052   4.617   0.088  12.234 -0.1840  0.3541 -0.2404
   69TMC2    C5 1053   4.633   0.108  12.104  1.2359  0.5845  0.3655
   69TMC2    C6 1054   4.516   0.123  12.026 -0.1241  0.5243  0.2286
   69TMC2     C 1055   4.493   0.027  12.422 -0.2711  0.9164 -0.2921
   69TMC2     O 1056   4.390   4.684  12.446 -0.1592  0.1566  0.4546
   69TMC2     H 1057   4.273   0.079  12.267 -0.7728  0.2670 -2.1595
   69TMC2    H1 1058   4.695   0.068  12.306 -0.8759 -0.2134  0.3539
   69TMC2    H2 1059   4.526   0.143  11.920 -0.9012 -0.7670 -0.0903
   69TMC2    C7 1060   0.042   0.069  12.047 -0.7703 -0.2932 -0.0062
   69TMC2    C8 1061   4.261   0.143  12.023 -0.0115  0.0460 -0.5439
   69TMC2    O1 1062   0.037   0.025  11.933  0.4707 -0.0933 -0.4876
   69TMC2    O2 1063   4.161   0.181  12.081 -0.0870 -0.2008 -0.2739
   69TMC2    O5 1064   4.251   0.056  11.923  0.5046  0.1653 -0.0654
   69TMC2    H5 1065   4.331   4.716  11.924  0.4668  0.0976 -0.7524
   70MPD2     C 1066   4.698   0.115  12.706 -0.4582 -0.2142 -0.3419
   70MPD2    C1 1067   4.611   0.040  12.633  0.2287  0.8269  0.1327
   70MPD2    C2 1068   4.573   4.635  12.676  0.2064  0.0780  0.0073
   70MPD2    C3 1069   4.625   4.589  12.796 -0.4814 -0.0150  0.1525
   70MPD2    C4 1070   4.711   4.661  12.871 -0.3217  0.2791 -0.1882
   70MPD2    C5 1071   0.017   0.073  12.829 -0.6119  0.1045  0.8573
   70MPD2     H 1072   4.511   4.572  12.613  1.7516 -1.4866  0.0192
   70MPD2    H1 1073   0.025   4.627  12.969 -0.6843  1.3489  0.3090
   70MPD2    H2 1074   0.016   0.212  12.675  0.2786 -0.4084 -0.1182
   70MPD2    H3 1075   0.074   0.138  12.895  0.3474  1.1112 -0.9715
   70MPD2     N 1076   4.591   4.464  12.851 -0.1702 -0.1252  0.8211
   70MPD2    H5 1077   4.648   4.433  12.930  0.4393 -1.3909 -0.1103
   70MPD2    N1 1078   4.573   0.095  12.504 -0.3573  0.6444  0.2881
   70MPD2    H7 1079   4.625   0.177  12.476 -0.1584  1.0483  1.8552
   71TMC2    C1 1080   1.775   0.346   1.801 -0.5163  0.1967 -0.1898
   71TMC2    C2 1081   1.847   0.315   1.914  0.1609  0.0615 -0.2115
   71TMC2    C3 1082   1.779   0.329   2.029  0.1854  0.0473 -0.4868
   71TMC2    C4 1083   1.639   0.374   1.805  0.3427  0.4556  0.3618
   71TMC2    C5 1084   1.582   0.388   1.930  0.8450  0.7509 -0.4771
   71TMC2    C6 1085   1.646   0.364   2.048  0.0604 -0.5679 -0.4836
   71TMC2     C 1086   1.818   0.307   1.669 -0.6992 -0.4383 -0.3653
   71TMC2     O 1087   1.759   0.352   1.570 -0.5036 -0.4223 -0.4207
   71TMC2     H 1088   1.955   0.323   1.915  0.0124  2.2715 -2.2797
   71TMC2    H1 1089   1.582   0.369   1.713 -0.2064 -0.9256  0.7722
   71TMC2    H2 1090   1.599   0.377   2.145  5.2276  0.2485  1.8911
   71TMC2    C7 1091   1.445   0.442   1.950  0.6319  0.6333  0.1786
   71TMC2    C8 1092   1.852   0.311   2.152  0.3704  0.0264 -0.8330
   71TMC2    O1 1093   1.400   0.454   2.064 -0.1798  0.6422  0.1941
   71TMC2    O2 1094   1.804   0.260   2.251  0.7857 -0.2250 -0.0519
   71TMC2    O5 1095   1.920   0.429   2.166  0.2595  0.2861  0.2921
   71TMC2    H5 1096   1.920   0.485   2.085 -0.8841  0.2890  0.2880
   72MPD2     C 1097   2.124   0.044   1.342  0.0288  0.8658  0.2433
   72MPD2    C1 1098   2.034   0.150   1.322  0.3196  0.1266  0.6847
   72MPD2    C2 1099   1.982   0.227   1.429  0.5680 -0.6428 -0.1338
   72MPD2    C3 1100   2.000   0.185   1.561 -0.3098  0.6646  0.1350
   72MPD2    C4 1101   2.085   0.071   1.582  0.2908  0.5580  0.6607
   72MPD2    C5 1102   2.153   0.008   1.468 -0.9831 -0.5369  0.1949
   72MPD2     H 1103   1.904   0.299   1.405 -0.4499 -1.9548 -0.7648
   72MPD2    H1 1104   2.100   0.032   1.682  0.5991 -0.7339  0.1119
   72MPD2    H2 1105   2.178   4.708   1.265 -0.5171  0.6152  0.0294
   72MPD2    H3 1106   2.222   4.644   1.492 -0.7986 -0.1866  0.8414
   72MPD2     N 1107   1.926   0.229   1.678  0.0745 -0.0627 -0.2165
   72MPD2    H5 1108   1.955   0.198   1.770 -1.8458 -1.4899 -0.0981
   72MPD2    N1 1109   2.003   0.194   1.190  0.3912 -0.5620 -1.0603
   72MPD2    H7 1110   1.947   0.279   1.186 -2.0082 -2.1176 -0.9176
   73TMC2    C1 1111   2.072   2.136  14.018  0.1460  0.4189 -0.4018
   73TMC2    C2 1112   1.999   2.155  14.137 -0.1867  1.3895  0.0792
   73TMC2    C3 1113   2.034   2.270  14.214 -0.2916 -0.5591  0.3331
   73TMC2    C4 1114   2.177   2.219  13.987  0.1649 -0.3802  0.1085
   73TMC2    C5 1115   2.205   2.327  14.068  0.4549  0.4812 -0.8619
   73TMC2    C6 1116   2.133   2.356  14.180 -0.8103 -0.4047 -0.0791
   73TMC2     C 1117   1.986   2.143  13.903  0.6275 -0.7028 -0.3422
   73TMC2     O 1118   2.009   2.231  13.827  0.9777  0.5381 -0.4335
   73TMC2     H 1119   1.908   2.101  14.162  1.1666 -0.3094  1.3224
   73TMC2    H1 1120   2.227   2.223  13.890 -0.5991  0.5313 -0.2498
   73TMC2    H2 1121   2.141   2.450  14.234  0.3280 -1.0942  0.9737
   73TMC2    C7 1122   2.228   2.448  13.995 -0.5862  0.0492 -0.2925
   73TMC2    C8 1123   1.967   2.300  14.333 -0.1649 -0.7184  0.0890
   73TMC2    O1 1124   2.297   2.543  14.034  0.1589 -1.1167 -0.0960
   73TMC2    O2 1125   1.943   2.418  14.359 -0.5941  0.2663  0.0654
   73TMC2    O5 1126   1.930   2.196  14.411  0.0668 -0.3174  0.2448
   73TMC2    H5 1127   1.941   2.103  14.385  2.7661  0.3189 -0.8885
   74MPD2     C 1128   1.599   1.973  13.600  0.6894 -1.0992 -0.0329
   74MPD2    C1 1129   1.668   2.092  13.598 -0.2058  0.4698  0.2386
   74MPD2    C2 1130   1.753   2.116  13.708 -0.8941  0.5463  0.1743
   74MPD2    C3 1131   1.782   2.027  13.803  1.0227 -0.1997  0.8490
   74MPD2    C4 1132   1.702   1.915  13.812  0.4320  0.2222 -0.5130
   74MPD2    C5 1133   1.611   1.894  13.716  0.0494  0.4873  0.2941
   74MPD2     H 1134   1.816   2.205  13.708  0.6035 -0.5218 -2.1136
   74MPD2    H1 1135   1.715   1.841  13.890  1.1117  0.9029  0.0183
   74MPD2    H2 1136   1.530   1.942  13.523 -2.4211  2.0478  1.5090
   74MPD2    H3 1137   1.551   1.804  13.720 -1.6254  1.5392 -1.1426
   74MPD2     N 1138   1.887   2.043  13.900 -0.1765 -0.4705 -0.3336
   74MPD2    H5 1139   1.894   1.971  13.971 -2.3156  0.2377  0.5746
   74MPD2    N1 1140   1.658   2.180  13.493 -0.6996  0.5145 -0.2663
   74MPD2    H7 1141   1.596   2.155  13.417  2.5420 -3.8929 -1.4403
   75TCq2    C1 1142   2.254   3.546  13.912  0.2364  0.2628  0.1100
   75TCq2    O2 1143   2.294   3.628  13.993 -0.0642  0.1286  0.4312
   75TCq2    C2 1144   2.112   3.549  13.893 -0.6546 -0.0894  0.4007
   75TCq2    C3 1145   2.042   3.568  14.011 -0.5634 -0.1910 -0.6385
   75TCq2    C4 1146   1.909   3.567  14.001 -0.1008 -0.3244  0.5893
   75TCq2    C5 1147   1.845   3.523  13.883  0.6511  0.6093 -0.0999
   75TCq2    C6 1148   1.924   3.498  13.773  0.2117  0.1561 -0.8783
   75TCq2    C7 1149   2.058   3.509  13.772  0.2331 -0.1666 -0.8051
   75TCq2    C8 1150   1.870   3.450  13.645 -0.0315  0.0839  0.1306
   75TCq2    O4 1151   1.908   3.497  13.541 -0.1268 -0.1795 -0.3047
   75TCq2    C9 1152   1.835   3.592  14.121  0.5665  0.3403  0.6190
   75TCq2    O5 1153   1.714   3.562  14.104 -0.6248 -0.2172 -0.4935
   75TCq2    O6 1154   1.900   3.562  14.225 -0.0985 -0.5542  0.1837
   75TCq2    H2 1155   2.097   3.590  14.102  0.7100  4.8692 -2.6302
   75TCq2    H3 1156   1.737   3.510  13.880  1.0447 -2.4615 -0.8017
   75TCq2    H4 1157   2.123   3.504  13.685  0.3122 -3.0612 -0.5909
   76MPD2     C 1158   1.044   4.077  11.821 -0.2030  0.9062 -0.6168
   76MPD2    C1 1159   0.926   4.030  11.764 -0.1444  0.0898  0.2590
   76MPD2    C2 1160   0.918   3.886  11.754  0.1194 -1.0806 -0.1838
   76MPD2    C3 1161   1.020   3.803  11.798  0.5804  0.9112 -0.0182
   76MPD2    C4 1162   1.128   3.861  11.852  0.0747  0.2779 -0.7854
   76MPD2    C5 1163   1.146   3.995  11.860  0.2455  0.3858  0.2843
   76MPD2     H 1164   0.841   3.843  11.691  0.7849 -1.0405 -1.0116
   76MPD2    H1 1165   1.208   3.798  11.887 -0.6050 -1.5758 -2.5357
   76MPD2    H2 1166   1.067   4.180  11.845  1.2771  0.5381 -0.4638
   76MPD2    H3 1167   1.237   4.029  11.909 -0.0586 -0.7503  1.6450
   76MPD2     N 1168   1.015   3.667  11.782 -0.2189 -0.2388 -0.0483
   76MPD2    H5 1169   1.097   3.611  11.805 -0.6845 -0.9582 -0.1250
   76MPD2    N1 1170   0.816   4.108  11.723 -0.4285  0.8576 -0.1958
   76MPD2    H7 1171   0.735   4.060  11.685 -0.2588  1.5124 -1.3908
   77TCq2    C1 1172   0.900   3.588  11.766 -0.0962  0.3693 -0.3726
   77TCq2    O2 1173   0.800   3.615  11.697 -0.7823 -0.3329  0.0484
   77TCq2    C2 1174   0.927   3.449  11.775 -0.5568 -0.2386  0.6933
   77TCq2    C3 1175   0.854   3.359  11.700 -0.6935  0.0926  0.4529
   77TCq2    C4 1176   0.890   3.229  11.691  0.7294  0.2835  0.0204
   77TCq2    C5 1177   0.997   3.184  11.761  0.2103 -0.3479 -0.3744
   77TCq2    C6 1178   1.065   3.265  11.845 -0.1338 -0.3836 -0.4556
   77TCq2    C7 1179   1.030   3.398  11.853 -0.3694  0.4781  0.0389
   77TCq2    C8 1180   1.157   3.213  11.942 -0.4448  0.1425  0.0919
   77TCq2    O4 1181   1.154   3.091  11.961 -0.5355 -0.6011 -0.0108
   77TCq2    C9 1182   0.818   3.145  11.600  0.1906 -0.1896  0.1650
   77TCq2    O5 1183   0.869   3.035  11.570 -0.3472 -0.0876  0.2425
   77TCq2    O6 1184   0.713   3.184  11.548  0.7710  0.1698  0.3632
   77TCq2    H2 1185   0.766   3.390  11.644  1.1830  2.1389 -1.3805
   77TCq2    H3 1186   1.017   3.078  11.755  0.1927 -0.2711 -1.8166
   77TCq2    H4 1187   1.080   3.465  11.921 -0.3820  1.7547 -1.2231
   78MPD1     C 1188   1.636   0.010   1.858 -0.2757 -0.4185  0.3398
   78MPD1    C1 1189   1.755   4.703   1.794 -0.8031 -0.4989  0.1084
   78MPD1    C2 1190   1.868   4.669   1.871 -0.3047  0.0638 -0.4973
   78MPD1    C3 1191   1.868   4.686   2.007 -0.0319 -0.7173 -0.1865
   78MPD1    C4 1192   1.747   0.001   2.068  0.4112 -0.5340 -0.2531
   78MPD1    C5 1193   1.631   0.016   1.995 -0.0672  0.4110 -0.7033
   78MPD1     H 1194   1.959   4.642   1.818  2.0957  3.7887  1.7323
   78MPD1    H1 1195   1.738   4.710   2.175  0.3143 -1.2279 -0.3072
   78MPD1    H2 1196   1.548   0.012   1.795 -1.0287 -1.3566  1.3605
   78MPD1    H3 1197   1.543   0.046   2.049 -0.0400 -0.9148  0.0884
   78MPD1     N 1198   1.979   4.666   2.091 -1.8322  0.0892 -0.1522
   78MPD1    H5 1199   1.960   4.687   2.188 -0.1303 -1.7341  0.5796
   78MPD1    N1 1200   1.760   4.672   1.656 -0.2687  0.7454 -0.1380
   78MPD1    H6 1201   1.856   4.691   1.627 -0.1453 -1.0072 -0.8913
   78MPD1    H7 1202   1.691   0.004   1.598  0.8074  1.3059 -0.9426
   79TCq2    C1 1203   2.100   4.617   2.050 -0.7152 -0.0976  0.0539
   79TCq2    O2 1204   2.150   4.601   1.936 -0.1296 -0.2049 -0.6608
   79TCq2    C2 1205   2.197   4.602   2.161  1.0140  0.0576  0.6917
   79TCq2    C3 1206   2.152   4.565   2.292  0.1404 -0.1789  0.2642
   79TCq2    C4 1207   2.245   4.530   2.384 -0.4266 -0.4559  0.2621
   79TCq2    C5 1208   2.374   4.528   2.354  0.2389  0.0443 -0.0130
   79TCq2    C6 1209   2.418   4.552   2.227 -0.4872  0.0450  0.8987
   79TCq2    C7 1210   2.330   4.585   2.127  0.0176  0.1744  0.2876
   79TCq2    C8 1211   2.558   4.520   2.189 -0.5249  0.0531  0.0817
   79TCq2    O4 1212   2.595   4.517   2.073 -0.4936 -0.7100 -0.4838
   79TCq2    C9 1213   2.189   4.475   2.513 -0.0573 -0.8267  0.6413
   79TCq2    O5 1214   2.274   4.438   2.596  0.0595 -0.4887  0.5269
   79TCq2    O6 1215   2.064   4.477   2.524 -0.2010  0.1749  0.1452
   79TCq2    H2 1216   2.048   4.562   2.321 -0.1818  2.0056 -0.6634
   79TCq2    H3 1217   2.435   4.494   2.436  2.8378  0.8744 -1.6225
   79TCq2    H4 1218   2.360   4.589   2.022 -1.8508 -0.6820 -0.2757
   80MPD2     C 1219   0.056   4.375  12.078 -0.7025 -0.8447  0.0067
   80MPD2    C1 1220   0.008   4.258  12.040 -0.0299 -0.8411 -0.2572
   80MPD2    C2 1221   4.601   4.205  12.090 -0.4451  0.1829 -0.3102
   80MPD2    C3 1222   4.518   4.278  12.178 -0.2810 -0.1305  0.1921
   80MPD2    C4 1223   4.566   4.398  12.219  0.4111 -0.5905  0.2313
   80MPD2    C5 1224   4.685   4.440  12.163  0.1143  0.4473  0.2137
   80MPD2     H 1225   4.572   4.105  12.061 -0.0810  0.5152 -1.8219
   80MPD2    H1 1226   4.520   4.468  12.287 -3.6633 -0.9408 -2.1852
   80MPD2    H2 1227   0.145   4.424  12.042 -1.0605  0.2493  0.6182
   80MPD2    H3 1228   0.003   4.539  12.189 -1.2621  1.2397 -0.9537
   80MPD2     N 1229   4.402   4.221  12.231  0.4523  0.1526 -0.2298
   80MPD2    H5 1230   4.360   4.273  12.308  0.8352 -0.4638  0.3934
   80MPD2    N1 1231   0.069   4.190  11.935 -0.4415 -0.0831  0.3360
   80MPD2    H7 1232   0.015   4.115  11.894 -2.2222  0.9649  0.7306
   81TCq2    C1 1233   0.191   4.225  11.876 -0.1333  0.2990 -0.3522
   81TCq2    O2 1234   0.287   4.286  11.917 -0.1071 -0.6277 -0.0930
   81TCq2    C2 1235   0.216   4.141  11.762  0.0961 -0.1229 -0.0883
   81TCq2    C3 1236   0.339   4.099  11.734 -0.3544  0.4183 -0.3130
   81TCq2    C4 1237   0.350   4.007  11.631 -0.3648 -0.7142  0.5237
   81TCq2    C5 1238   0.248   3.965  11.548  0.2750 -0.1082  0.4520
   81TCq2    C6 1239   0.126   4.015  11.584  0.7317  0.0058  0.8642
   81TCq2    C7 1240   0.106   4.097  11.693  0.2367  0.3644  0.3541
   81TCq2    C8 1241   0.010   3.953  11.529  0.5860  0.2650  0.5064
   81TCq2    O4 1242   0.008   3.926  11.406  0.0801 -0.1596  0.0162
   81TCq2    C9 1243   0.477   3.941  11.608  0.3200  0.4088 -0.0371
   81TCq2    O5 1244   0.480   3.842  11.531 -0.2353 -0.2808 -1.0300
   81TCq2    O6 1245   0.581   3.983  11.671 -0.3149 -0.1094  0.0813
   81TCq2    H2 1246   0.421   4.126  11.800  0.3327 -2.0445 -0.1593
   81TCq2    H3 1247   0.257   3.889  11.472  0.4520  2.8361 -2.5016
   81TCq2    H4 1248   0.007   4.140  11.707  0.7287  1.6606 -0.1840
   82MPD2     C 1249   2.875   3.473  10.907  0.2777 -0.4041  0.9125
   82MPD2    C1 1250   2.868   3.376  10.808 -0.4632 -0.3347  0.2902
   82MPD2    C2 1251   2.942   3.252  10.826  0.1039 -0.2848  0.1649
   82MPD2    C3 1252   3.013   3.230  10.943 -0.8311  0.5245  0.5020
   82MPD2    C4 1253   3.016   3.325  11.040 -0.0187  0.4852 -0.2061
   82MPD2    C5 1254   2.950   3.440  11.018 -1.0129  0.3862 -0.0225
   82MPD2     H 1255   2.952   3.178  10.748 -2.2274 -0.6540  0.2244
   82MPD2    H1 1256   3.089   3.313  11.120 -0.8091 -1.4101  0.2485
   82MPD2    H2 1257   2.824   3.568  10.902  0.6151 -0.2622  0.1443
   82MPD2    H3 1258   2.942   3.508  11.102 -0.8016 -0.2660  0.5237
   82MPD2     N 1259   3.089   3.107  10.943  0.1766 -0.7920  0.3042
   82MPD2    H5 1260   3.094   3.046  10.862  0.3149  0.2407 -0.4668
   82MPD2    N1 1261   2.771   3.402  10.700 -0.0671 -0.3720 -0.0134
   82MPD2    H7 1262   2.736   3.496  10.690  0.5837 -0.3848 -2.6505
   83TCq2    C1 1263   3.133   3.041  11.056  0.2984 -0.5838 -0.3352
   83TCq2    O2 1264   3.131   3.073  11.171  0.4076 -0.2352  0.6250
   83TCq2    C2 1265   3.176   2.904  11.025 -0.0606 -1.0109 -0.1155
   83TCq2    C3 1266   3.220   2.877  10.902 -0.9509 -0.7172  1.1487
   83TCq2    C4 1267   3.195   2.751  10.857 -0.7355  0.3076 -0.1400
   83TCq2    C5 1268   3.118   2.656  10.926  0.2794 -0.0479 -0.3565
   83TCq2    C6 1269   3.073   2.683  11.058 -0.6029 -0.1099  0.6426
   83TCq2    C7 1270   3.103   2.811  11.100 -0.2348 -0.0961  0.0613
   83TCq2    C8 1271   2.976   2.602  11.128 -0.7348  0.3854 -0.0245
   83TCq2    O4 1272   2.912   2.656  11.221 -0.2780 -0.5019 -0.1762
   83TCq2    C9 1273   3.254   2.714  10.734  0.5472 -0.3727 -0.1539
   83TCq2    O5 1274   3.337   2.790  10.684  0.1797 -0.3276  0.0030
   83TCq2    O6 1275   3.201   2.616  10.677  0.1035  0.0376 -0.6531
   83TCq2    H2 1276   3.287   2.938  10.843 -0.0960 -0.9135  1.9211
   83TCq2    H3 1277   3.099   2.560  10.878 -1.0006 -0.2537  0.5716
   83TCq2    H4 1278   3.069   2.841  11.199 -1.0941  0.4597 -0.4032
   84TCq2    C1 1279   4.403   2.098  10.388 -0.3554 -0.3302 -0.1955
   84TCq2    O2 1280   4.405   2.212  10.341  0.0096 -0.7512 -1.0404
   84TCq2    C2 1281   4.302   2.062  10.487  0.2436  0.6646  0.2918
   84TCq2    C3 1282   4.324   1.936  10.538  0.4277  0.7369 -0.0943
   84TCq2    C4 1283   4.275   1.906  10.662 -0.2022 -0.0075  0.5058
   84TCq2    C5 1284   4.186   1.992  10.716 -0.5570  0.6378  0.0131
   84TCq2    C6 1285   4.171   2.120  10.664  1.0620 -0.1336  0.6003
   84TCq2    C7 1286   4.236   2.162  10.553 -0.2651  0.4000  0.7351
   84TCq2    C8 1287   4.072   2.198  10.740 -0.2293 -0.2838  0.6597
   84TCq2    O4 1288   4.045   2.155  10.851  0.2653 -0.7963  0.0764
   84TCq2    C9 1289   4.269   1.773  10.712  1.0593  0.0796 -0.1370
   84TCq2    O5 1290   4.211   1.748  10.817 -0.2749 -0.2170 -0.1200
   84TCq2    O6 1291   4.342   1.690  10.650 -0.7779 -0.4199  0.5001
   84TCq2    H2 1292   4.353   1.851  10.477  3.7551  2.0837 -0.3982
   84TCq2    H3 1293   4.125   1.956  10.798 -1.2137  0.5894 -0.4918
   84TCq2    H4 1294   4.237   2.263  10.515 -1.9628  0.2684  0.3585
   85MPD2     C 1295   4.216   4.714  16.097  0.1029 -0.3133 -0.4318
   85MPD2    C1 1296   4.292   4.650  16.008  0.2245  0.8010  0.0696
   85MPD2    C2 1297   4.332   4.713  15.890  0.1295  0.2142  0.0598
   85MPD2    C3 1298   4.312   0.133  15.876  0.8741  0.8730 -0.3617
   85MPD2    C4 1299   4.230   0.199  15.968  0.3885 -0.1389 -0.4138
   85MPD2    C5 1300   4.179   0.127  16.076  0.2977  0.2723  0.5775
   85MPD2     H 1301   4.392   4.655  15.820 -1.5139  2.2824 -3.0809
   85MPD2    H1 1302   4.199   0.302  15.981 -0.7185 -0.7474  1.6829
   85MPD2    H2 1303   4.190   4.660  16.187  0.4341 -0.6796 -0.5580
   85MPD2    H3 1304   4.117   0.172  16.153 -0.5543  1.1151 -0.6091
   85MPD2     N 1305   4.375   0.191  15.760  0.2183 -0.0211 -0.6530
   85MPD2    H5 1306   4.436   0.133  15.704  1.2041  1.5568 -1.2285
   85MPD2    N1 1307   4.328   4.510  16.031  0.0954 -0.2571  0.3953
   85MPD2    H7 1308   4.371   4.461  15.954  0.6244 -1.0046  1.1614
   86TCq2    C1 1309   4.366   0.326  15.733 -0.0075  0.4774  0.0452
   86TCq2    O2 1310   4.300   0.416  15.787  0.7536 -0.4039  0.0364
   86TCq2    C2 1311   4.436   0.361  15.609  0.5140 -0.0196  0.7071
   86TCq2    C3 1312   4.414   0.488  15.569  0.7526 -0.3864  0.8495
   86TCq2    C4 1313   4.459   0.518  15.443 -0.7817 -0.1240  0.0447
   86TCq2    C5 1314   4.539   0.433  15.378  0.0983  0.0839 -0.5483
   86TCq2    C6 1315   4.570   0.310  15.427  0.3136  0.1395  0.0457
   86TCq2    C7 1316   4.518   0.270  15.546 -0.4021 -0.2134 -0.2731
   86TCq2    C8 1317   4.639   0.209  15.343  0.5796 -0.3149  0.1093
   86TCq2    O4 1318   4.702   0.124  15.398  0.2623 -0.1696 -0.1945
   86TCq2    C9 1319   4.450   0.647  15.383 -0.1797  0.3489 -0.3086
   86TCq2    O5 1320   4.344   0.718  15.402  0.5318 -0.1805 -0.0486
   86TCq2    O6 1321   4.539   0.673  15.299  0.7463  0.2707 -0.4071
   86TCq2    H2 1322   4.347   0.560  15.616  0.1948 -1.9195  2.4291
   86TCq2    H3 1323   4.583   0.454  15.281  2.4319  1.2584  0.7495
   86TCq2    H4 1324   4.559   0.181  15.592  1.1304  0.8017  0.3157
   87MPD2     C 1325   2.711   3.906   2.128  0.7452  0.9743  0.2546
   87MPD2    C1 1326   2.748   3.840   2.016 -0.6080  0.4742  0.4584
   87MPD2    C2 1327   2.724   3.897   1.887  0.0833 -0.3470  0.2361
   87MPD2    C3 1328   2.654   4.019   1.876  0.1172  0.7159  0.1334
   87MPD2    C4 1329   2.615   4.079   1.991  0.5383  0.0255 -0.2195
   87MPD2    C5 1330   2.646   4.025   2.119 -0.0337 -0.2123 -0.3303
   87MPD2     H 1331   2.766   3.851   1.798 -0.1763  1.2086 -0.6769
   87MPD2    H1 1332   2.555   4.167   1.972  0.1739 -0.4217 -1.1326
   87MPD2    H2 1333   2.740   3.861   2.222 -0.9704  0.4786  0.5367
   87MPD2    H3 1334   2.615   4.075   2.210  0.2464 -1.8850  0.7017
   87MPD2     N 1335   2.611   4.072   1.750  0.0525  0.0795  0.2275
   87MPD2    H5 1336   2.558   4.159   1.749  0.5881  0.3957 -0.6335
   87MPD2    N1 1337   2.807   3.709   2.033  0.1694 -0.2274  0.1328
   87MPD2    H7 1338   2.805   3.670   2.127 -1.7643  2.8456  1.3684
   88TCq2    C1 1339   2.859   3.627   1.931  0.6200 -0.2476 -0.5968
   88TCq2    O2 1340   2.891   3.660   1.816  0.5292  0.1664 -0.0885
   88TCq2    C2 1341   2.855   3.479   1.960  0.3567 -0.3467 -0.5966
   88TCq2    C3 1342   2.788   3.437   2.069 -0.3783 -0.0588  0.2475
   88TCq2    C4 1343   2.716   3.321   2.057 -0.6502 -0.6634 -0.9449
   88TCq2    C5 1344   2.721   3.240   1.949 -0.3406  0.3480 -0.0293
   88TCq2    C6 1345   2.804   3.276   1.843 -0.5738 -0.2396  0.7887
   88TCq2    C7 1346   2.868   3.400   1.848 -0.1414  0.0196 -0.4305
   88TCq2    C8 1347   2.805   3.205   1.712  0.5773 -0.1669 -0.2503
   88TCq2    O4 1348   2.839   3.273   1.612 -0.4562 -0.5575  0.3211
   88TCq2    C9 1349   2.645   3.259   2.161 -0.1675  0.0410 -0.3653
   88TCq2    O5 1350   2.630   3.135   2.178 -0.5625 -0.0959 -0.9021
   88TCq2    O6 1351   2.595   3.341   2.244 -0.5636 -0.4523 -0.2922
   88TCq2    H2 1352   2.781   3.498   2.159 -0.8827 -0.7620  0.6831
   88TCq2    H3 1353   2.665   3.147   1.942 -0.9555  0.5976  1.5788
   88TCq2    H4 1354   2.922   3.435   1.761 -0.0341 -0.8492 -0.7089
   89MPD2     C 1355   2.925   0.152   2.141  0.0130 -0.2139  0.8413
   89MPD2    C1 1356   2.850   0.263   2.111 -0.0966  0.4317  0.2123
   89MPD2    C2 1357   2.881   0.336   1.998  0.1387 -0.1139 -0.2669
   89MPD2    C3 1358   3.008   0.324   1.947 -0.2467  0.4762 -0.5591
   89MPD2    C4 1359   3.084   0.216   1.986 -0.1165 -0.4017  0.5548
   89MPD2    C5 1360   3.041   0.132   2.077 -0.0527  0.6072  0.2246
   89MPD2     H 1361   2.830   0.430   1.982 -0.3009  0.1393  2.6050
   89MPD2    H1 1362   3.180   0.192   1.943 -0.4045  0.5174 -0.6337
   89MPD2    H2 1363   2.898   0.074   2.212  1.2648  0.4722  2.0814
   89MPD2    H3 1364   3.095   0.042   2.105 -1.1618 -0.6365 -1.6152
   89MPD2     N 1365   3.056   0.421   1.854 -1.1534 -0.2252 -0.5479
   89MPD2    H5 1366   2.999   0.503   1.839  0.5482  0.7914 -1.4300
   89MPD2    N1 1367   2.724   0.286   2.168 -0.4024 -0.2533  0.1657
   89MPD2    H7 1368   2.659   0.353   2.129 -0.2116 -0.9100 -1.2694
   90TCq2    C1 1369   3.176   0.428   1.784  0.8647 -0.5810  0.5073
   90TCq2    O2 1370   3.256   0.335   1.769  0.6349  0.7635  0.0985
   90TCq2    C2 1371   3.171   0.525   1.680  0.1873 -0.7944 -0.3009
   90TCq2    C3 1372   3.080   0.623   1.682 -0.7843 -0.1901 -0.4391
   90TCq2    C4 1373   3.079   0.705   1.570  0.3979 -0.4460  0.6435
   90TCq2    C5 1374   3.173   0.704   1.475  0.1880  0.5184  0.7835
   90TCq2    C6 1375   3.261   0.602   1.471 -0.5044  0.6467  0.3886
   90TCq2    C7 1376   3.258   0.514   1.574  0.0173  0.3905  0.3740
   90TCq2    C8 1377   3.326   0.568   1.353  0.3927  0.3182  0.4236
   90TCq2    O4 1378   3.371   0.456   1.352  0.4642  0.2678 -0.0652
   90TCq2    C9 1379   2.990   0.820   1.561 -0.1011  0.2227 -0.0861
   90TCq2    O5 1380   3.017   0.903   1.476 -0.7557  0.0990  0.2740
   90TCq2    O6 1381   2.887   0.822   1.635 -0.6210 -0.7016  0.1008
   90TCq2    H2 1382   2.996   0.624   1.751  0.4143 -0.6604  1.0363
   90TCq2    H3 1383   3.160   0.773   1.393 -2.0256  1.7966  2.1954
   90TCq2    H4 1384   3.321   0.426   1.571 -3.7019 -2.3071  0.0187
   91TMC2    C1 1385   4.547   1.553  15.927 -0.1830  1.0255 -0.5669
   91TMC2    C2 1386   4.623   1.612  16.031  0.2126 -0.1021 -0.2134
   91TMC2    C3 1387   4.550   1.689  16.119  0.0054  0.5133 -0.0677
   91TMC2    C4 1388   4.411   1.584  15.905  0.3390  0.1722  0.1127
   91TMC2    C5 1389   4.351   1.669  15.996 -0.1733  1.0205 -0.1109
   91TMC2    C6 1390   4.422   1.730  16.093  0.2775  0.2511  0.2642
   91TMC2     C 1391   4.609   1.449  15.847  0.8664 -0.1927  0.0786
   91TMC2     O 1392   4.535   1.386  15.773  0.4818 -0.5198 -0.0979
   91TMC2     H 1393   0.010   1.583  16.049  1.0703  1.6974 -2.2263
   91TMC2    H1 1394   4.360   1.531  15.826  0.2606 -1.8285  1.5218
   91TMC2    H2 1395   4.375   1.798  16.163 -1.7531  0.3837 -1.2561
   91TMC2    C7 1396   4.224   1.727  15.971  0.7243 -0.3717 -0.8896
   91TMC2    C8 1397   4.639   1.782  16.184  0.2529 -0.4641 -0.8595
   91TMC2    O1 1398   4.196   1.828  16.034  0.0567  0.2974 -0.4519
   91TMC2    O2 1399   4.713   1.737  16.271 -0.2578  0.1481 -0.2077
   91TMC2    O5 1400   4.616   1.911  16.154 -0.4249 -0.1068  0.6062
   91TMC2    H5 1401   4.561   1.917  16.073 -0.8057 -4.4044  0.5704
   92MPD2     C 1402   0.051   1.222  15.732 -0.0001  0.5471 -0.1088
   92MPD2    C1 1403   0.107   1.334  15.795  0.6902  0.6552 -0.3994
   92MPD2    C2 1404   0.246   1.332  15.811 -0.0868 -0.3669  0.5188
   92MPD2    C3 1405   0.326   1.231  15.764  1.2206  0.2430 -0.1251
   92MPD2    C4 1406   0.270   1.122  15.701  0.8289  0.1521  0.2637
   92MPD2    C5 1407   0.131   1.122  15.684  0.3224  0.3411 -0.0567
   92MPD2     H 1408   0.281   1.418  15.868 -1.3616 -0.2146  1.0673
   92MPD2    H1 1409   0.323   1.030  15.675 -0.5087 -1.2609  2.5610
   92MPD2    H2 1410   4.661   1.205  15.732 -0.0654  0.9689 -1.8744
   92MPD2    H3 1411   0.092   1.034  15.635 -0.8725  0.2225  1.1223
   92MPD2     N 1412   0.469   1.233  15.798  0.3354  0.3142  0.0899
   92MPD2    H5 1413   0.500   1.314  15.852  1.2069 -0.3113  0.5379
   92MPD2    N1 1414   0.034   1.437  15.855 -0.1337 -0.5334  0.0505
   92MPD2    H7 1415   0.084   1.515  15.898  0.4818 -1.0676  0.2975
   93MPD2     C 1416   1.743   1.506  13.457 -0.0209 -0.1442 -0.3372
   93MPD2    C1 1417   1.709   1.525  13.590  0.6012 -1.0884 -0.4888
   93MPD2    C2 1418   1.577   1.519  13.627  0.0475 -0.3113  0.0509
   93MPD2    C3 1419   1.480   1.495  13.531 -0.2487  0.2460 -0.4831
   93MPD2    C4 1420   1.515   1.460  13.404 -0.6367 -0.2742  0.2966
   93MPD2    C5 1421   1.647   1.475  13.362  0.0549 -0.2203 -0.3321
   93MPD2     H 1422   1.557   1.546  13.730 -1.6769  0.7025 -0.5561
   93MPD2    H1 1423   1.440   1.457  13.326  1.1894  0.7600 -1.4788
   93MPD2    H2 1424   1.846   1.497  13.422  0.2856  0.4066  0.4253
   93MPD2    H3 1425   1.680   1.465  13.259 -1.1882 -1.3305 -0.6156
   93MPD2     N 1426   1.348   1.484  13.564  0.1501  0.0355  0.0618
   93MPD2    H5 1427   1.290   1.448  13.489 -1.3316 -0.5968  1.5127
   93MPD2    N1 1428   1.805   1.572  13.684 -0.2827  0.7874 -0.1858
   93MPD2    H7 1429   1.775   1.608  13.774 -1.8380 -0.6631 -0.1376
   94TCq2    C1 1430   1.946   1.565  13.662 -0.5811 -0.2698 -0.0153
   94TCq2    O2 1431   2.004   1.514  13.569  0.2385  0.2830  0.5202
   94TCq2    C2 1432   2.030   1.598  13.781 -0.1145 -0.5896  0.4811
   94TCq2    C3 1433   1.978   1.675  13.882  0.0788 -0.7029  0.2914
   94TCq2    C4 1434   2.057   1.700  13.993  0.1911  0.5227 -0.4367
   94TCq2    C5 1435   2.188   1.659  13.997  0.6351  0.5152 -0.1429
   94TCq2    C6 1436   2.238   1.604  13.884  0.9200 -0.2239  0.0252
   94TCq2    C7 1437   2.161   1.564  13.776 -0.5060 -0.1362  0.1281
   94TCq2    C8 1438   2.380   1.569  13.880 -0.0132  0.3636  0.5947
   94TCq2    O4 1439   2.416   1.514  13.776  0.9320 -0.1360 -0.1407
   94TCq2    C9 1440   2.013   1.783  14.105 -0.2197 -0.3147  1.0806
   94TCq2    O5 1441   2.091   1.784  14.202  0.2215 -0.0013  0.1872
   94TCq2    O6 1442   1.910   1.848  14.093 -0.2334 -0.0174 -0.2462
   94TCq2    H2 1443   1.881   1.723  13.874  0.0354 -0.7571  0.4961
   94TCq2    H3 1444   2.251   1.689  14.080  1.5644 -3.3422  0.5425
   94TCq2    H4 1445   2.205   1.506  13.696  1.2180  2.2921 -0.6808
   95TMC2    C1 1446   2.067   2.980  16.351  0.0555 -0.0995 -0.1706
   95TMC2    C2 1447   2.049   2.861  16.417  0.5463 -0.4476 -0.4706
   95TMC2    C3 1448   1.994   2.868  16.547 -0.2387 -0.2855 -0.1188
   95TMC2    C4 1449   2.048   3.108  16.402  0.5772 -0.4191  0.4071
   95TMC2    C5 1450   1.985   3.104  16.526 -0.1814  0.1056 -0.1312
   95TMC2    C6 1451   1.955   2.993  16.602 -0.2642  0.1775 -0.4413
   95TMC2     C 1452   2.138   2.973  16.221  0.8694 -0.1664 -0.3024
   95TMC2     O 1453   2.208   3.070  16.187 -0.3046  0.0650  0.1195
   95TMC2     H 1454   2.083   2.764  16.380  0.7971  0.2944 -2.2217
   95TMC2    H1 1455   2.095   3.200  16.369  0.3364  0.0892  1.5058
   95TMC2    H2 1456   1.920   3.010  16.703  0.9331  3.1247 -0.5258
   95TMC2    C7 1457   1.954   3.231  16.593  0.3514  0.1594 -0.4704
   95TMC2    C8 1458   1.990   2.741  16.626  0.5780  0.5728 -0.9244
   95TMC2    O1 1459   1.939   3.234  16.715 -0.1270 -0.2637  0.2349
   95TMC2    O2 1460   1.936   2.640  16.585  0.3680 -0.0864 -0.3468
   95TMC2    O5 1461   2.003   2.778  16.755 -0.5461 -0.5028  0.4453
   95TMC2    H5 1462   2.045   2.863  16.781 -3.5472  0.5245  1.9020
   96MPD2     C 1463   2.068   2.844  15.722 -0.0998  0.9249 -0.8501
   96MPD2    C1 1464   2.129   2.952  15.781  0.5253  0.3615  0.8550
   96MPD2    C2 1465   2.142   2.958  15.918  0.6072  0.8367 -0.6187
   96MPD2    C3 1466   2.090   2.861  16.001 -0.8725 -0.2391 -0.1748
   96MPD2    C4 1467   2.031   2.747  15.940  0.2334  0.4001  0.6436
   96MPD2    C5 1468   2.024   2.741  15.802  0.2178 -0.3154 -0.3338
   96MPD2     H 1469   2.179   3.052  15.957 -0.7896  0.5104  1.4828
   96MPD2    H1 1470   1.998   2.662  15.998  1.2722  0.1098  0.8053
   96MPD2    H2 1471   2.050   2.836  15.615 -2.0375 -5.6090 -0.0303
   96MPD2    H3 1472   1.977   2.653  15.760 -2.9281  2.3289 -2.3489
   96MPD2     N 1473   2.089   2.870  16.142  0.2033 -0.5059 -0.1091
   96MPD2    H5 1474   2.029   2.806  16.193 -1.5737 -0.3454 -1.9933
   96MPD2    N1 1475   2.172   3.051  15.690 -0.0876  0.5199 -0.5166
   96MPD2    H7 1476   2.149   3.032  15.593  1.5909 -1.5915 -0.5049
   97MPD2     C 1477   3.758   4.354   0.633  0.0491 -0.9372  0.4266
   97MPD2    C1 1478   3.865   4.408   0.705 -0.7969  0.1921 -0.6815
   97MPD2    C2 1479   3.947   4.497   0.630  1.1400 -0.3043  0.0920
   97MPD2    C3 1480   3.926   4.514   0.492  0.8103 -0.2939 -0.3566
   97MPD2    C4 1481   3.835   4.431   0.423 -0.9323  0.0587 -0.2281
   97MPD2    C5 1482   3.747   4.357   0.497  0.3053  0.7300  0.1500
   97MPD2     H 1483   4.025   4.549   0.684  0.7227 -0.7959  1.1722
   97MPD2    H1 1484   3.824   4.430   0.315 -1.2129  0.8469 -0.2053
   97MPD2    H2 1485   3.684   4.295   0.686 -0.7938 -0.8772 -0.6983
   97MPD2    H3 1486   3.667   4.302   0.449 -0.5874  2.2009 -0.0379
   97MPD2     N 1487   4.021   4.577   0.412 -0.2755 -0.9140 -0.0903
   97MPD2    H5 1488   3.993   4.571   0.314 -1.6223  0.3476  0.2138
   97MPD2    N1 1489   3.863   4.393   0.847  0.8166  0.1117  0.1567
   97MPD2    H7 1490   3.787   4.338   0.885  0.8291 -0.4160 -0.5849
   98TCq2    C1 1491   4.121   4.660   0.459 -0.0109  0.0754 -0.4915
   98TCq2    O2 1492   4.162   4.680   0.570  0.4365  0.2561  0.4766
   98TCq2    C2 1493   4.190   0.002   0.343  0.0709  0.5312 -0.1538
   98TCq2    C3 1494   4.164   4.683   0.211  0.0109  0.0434  0.3581
   98TCq2    C4 1495   4.222   0.029   0.109  0.6739  0.8070  0.0707
   98TCq2    C5 1496   4.314   0.130   0.134  0.2981 -0.4462  0.6847
   98TCq2    C6 1497   4.340   0.159   0.269  0.1901  0.1656  0.3956
   98TCq2    C7 1498   4.293   0.091   0.374  0.7534 -0.6297 -0.7783
   98TCq2    C8 1499   4.416   0.279   0.292 -1.0533  0.1754 -0.3134
   98TCq2    O4 1500   4.478   0.323   0.193 -0.4377 -0.1353 -0.3694
   98TCq2    C9 1501   4.185   0.004  17.646 -0.5003  0.2854  0.0571
   98TCq2    O5 1502   4.075   4.663  17.634 -0.0490 -0.0285 -0.6964
   98TCq2    O6 1503   4.262   0.046  17.555 -0.4022  0.0200  0.4269
   98TCq2    H2 1504   4.098   4.605   0.175  4.2577 -3.3365 -0.0847
   98TCq2    H3 1505   4.360   0.187   0.054 -0.6381 -0.3559  0.2172
   98TCq2    H4 1506   4.315   0.101   0.479  1.4428 -1.7929 -0.8147
   99MPD2     C 1507   3.139   1.616   2.076 -0.3730  0.0261  1.3216
   99MPD2    C1 1508   3.032   1.697   2.049  0.1979  0.2571 -0.5212
   99MPD2    C2 1509   2.952   1.680   1.941 -0.4348 -0.0879  0.6189
   99MPD2    C3 1510   2.984   1.587   1.844 -0.1565 -0.0752 -0.2765
   99MPD2    C4 1511   3.091   1.501   1.867  0.3052 -0.2479  0.3767
   99MPD2    C5 1512   3.163   1.519   1.978  0.3883  0.4525 -0.3758
   99MPD2     H 1513   2.862   1.739   1.934  1.6813  3.4478  3.1538
   99MPD2    H1 1514   3.114   1.429   1.789 -0.2903  0.3398 -0.3459
   99MPD2    H2 1515   3.204   1.618   2.162  1.1619 -0.0462  0.1558
   99MPD2    H3 1516   3.236   1.442   2.000  0.0834 -0.1333 -1.4229
   99MPD2     N 1517   2.882   1.577   1.749 -0.8129  0.4395 -0.3170
   99MPD2    H5 1518   2.803   1.639   1.759 -0.4009  0.8990  0.0938
   99MPD2    N1 1519   2.990   1.794   2.140 -0.0912  0.5319 -0.5274
   99MPD2    H7 1520   2.910   1.851   2.116 -0.1327  0.2917 -0.9636
  100TCq2    C1 1521   3.062   1.834   2.254 -0.0992  0.1085 -0.3800
  100TCq2    O2 1522   3.173   1.809   2.292 -0.7325  0.1621 -0.6096
  100TCq2    C2 1523   3.003   1.944   2.323  0.5723  0.4439  0.0552
  100TCq2    C3 1524   3.087   2.034   2.390 -0.0183 -0.2517  0.0731
  100TCq2    C4 1525   3.027   2.138   2.453  0.1385 -0.2483 -0.0007
  100TCq2    C5 1526   2.888   2.141   2.456 -0.5853 -0.1151  0.0824
  100TCq2    C6 1527   2.816   2.057   2.385 -0.0622 -0.5878 -0.1269
  100TCq2    C7 1528   2.869   1.959   2.314 -0.3711  0.1676  0.4716
  100TCq2    C8 1529   2.670   2.074   2.390  0.0171 -0.4357  0.1006
  100TCq2    O4 1530   2.622   2.133   2.486 -0.2105 -0.0638 -0.5929
  100TCq2    C9 1531   3.112   2.243   2.518 -0.4371 -0.1060 -0.4855
  100TCq2    O5 1532   3.049   2.340   2.565 -0.6065 -0.4068  0.5786
  100TCq2    O6 1533   3.235   2.220   2.518  0.1379  0.3220  0.0788
  100TCq2    H2 1534   3.193   2.012   2.390  0.5054  2.3292  0.1032
  100TCq2    H3 1535   2.836   2.219   2.509 -0.4491 -0.2175  0.3681
  100TCq2    H4 1536   2.807   1.883   2.266 -0.7411  0.9239 -0.2525
  101MPD2     C 1537   3.680   3.999  12.981  0.0696  0.5301  0.8186
  101MPD2    C1 1538   3.557   4.052  13.001 -0.7292 -0.4846 -0.1275
  101MPD2    C2 1539   3.459   3.980  13.069  0.3347  0.5316 -0.3070
  101MPD2    C3 1540   3.489   3.859  13.140 -0.3705 -0.3743  0.1108
  101MPD2    C4 1541   3.626   3.820  13.128 -0.6086 -0.9156  0.7241
  101MPD2    C5 1542   3.718   3.882  13.046 -0.4481 -0.7078  0.0933
  101MPD2     H 1543   3.361   4.026  13.069  1.6306  3.2671 -0.3334
  101MPD2    H1 1544   3.666   3.733  13.179  0.7545 -0.8723 -0.2595
  101MPD2    H2 1545   3.757   4.048  12.924 -2.2617  0.9316 -1.9962
  101MPD2    H3 1546   3.818   3.842  13.030 -0.7143 -1.6278  0.7057
  101MPD2     N 1547   3.393   3.794  13.226 -0.0100 -0.0234 -0.0335
  101MPD2    H5 1548   3.302   3.839  13.231 -0.1718 -0.4127  0.5636
  101MPD2    N1 1549   3.533   4.181  12.941 -0.6677  0.5580 -0.6494
  101MPD2    H7 1550   3.599   4.222  12.875  0.1614  1.5265  0.7754
  102TCq2    C1 1551   3.597   4.560  12.614 -0.0811 -0.1677  0.6332
  102TCq2    O2 1552   3.691   4.478  12.605 -0.5849 -0.0716  0.6721
  102TCq2    C2 1553   3.500   4.543  12.721  0.5610 -0.0719  0.1409
  102TCq2    C3 1554   3.379   4.609  12.725  0.3622 -0.0804  0.0165
  102TCq2    C4 1555   3.281   4.557  12.807  0.2726 -0.6525  0.0235
  102TCq2    C5 1556   3.298   4.444  12.882  0.0826 -0.3907  0.7056
  102TCq2    C6 1557   3.419   4.383  12.886  1.1128 -0.0403  0.5286
  102TCq2    C7 1558   3.519   4.425  12.801 -0.5813  0.1600  0.3531
  102TCq2    C8 1559   3.424   4.261  12.967 -1.0953  0.2048 -0.0124
  102TCq2    O4 1560   3.342   4.249  13.057 -0.6055 -0.6714 -0.4642
  102TCq2    C9 1561   3.149   4.619  12.803  0.8373  0.1757  0.0886
  102TCq2    O5 1562   3.126   4.702  12.710  0.0265  0.0888 -0.1669
  102TCq2    O6 1563   3.051   4.553  12.854  0.5896  0.0971 -0.6467
  102TCq2    H2 1564   3.361   4.705  12.677 -0.9562 -0.9377 -1.2033
  102TCq2    H3 1565   3.217   4.406  12.943 -0.0372  0.3156  0.9812
  102TCq2    H4 1566   3.619   4.383  12.808 -0.9605 -0.8416 -0.2615
  103TMC2    C1 1567   1.734   3.699  12.234 -0.0140 -0.9747 -0.0883
  103TMC2    C2 1568   1.818   3.761  12.143  0.6427 -0.3813  0.0903
  103TMC2    C3 1569   1.881   3.878  12.180 -0.1449 -0.2170  0.0011
  103TMC2    C4 1570   1.699   3.766  12.345 -0.6651  0.8510  0.2577
  103TMC2    C5 1571   1.753   3.883  12.370  0.6193 -0.4831 -0.4936
  103TMC2    C6 1572   1.845   3.945  12.291  0.2926  0.2211 -0.9466
  103TMC2     C 1573   1.625   3.626  12.174  0.7377 -0.5108  0.2262
  103TMC2     O 1574   1.607   3.644  12.053 -1.0559 -0.1977  0.3179
  103TMC2     H 1575   1.842   3.725  12.044  0.1967  0.9496 -0.5008
  103TMC2    H1 1576   1.625   3.719  12.410 -1.6097 -1.6906 -2.6681
  103TMC2    H2 1577   1.898   4.035  12.320 -0.8734  1.3858 -2.4519
  103TMC2    C7 1578   1.700   3.944  12.495  0.1157 -0.7465  0.4446
  103TMC2    C8 1579   2.010   3.901  12.125 -0.3090 -0.0023 -1.0873
  103TMC2    O1 1580   1.641   3.873  12.574  0.6508 -0.0457 -0.1719
  103TMC2    O2 1581   2.104   3.945  12.194 -0.1806  0.3437  0.0466
  103TMC2    O5 1582   2.023   3.868  11.992 -0.2483  0.0614 -0.1629
  103TMC2    H5 1583   1.935   3.863  11.948 -0.1872  0.7097 -0.3631
  104MPD2     C 1584   1.532   3.290  12.288 -0.4015 -0.1508 -0.4400
  104MPD2    C1 1585   1.518   3.404  12.211 -0.1054 -0.0412  0.0130
  104MPD2    C2 1586   1.430   3.400  12.105 -0.7206  0.0687 -0.2567
  104MPD2    C3 1587   1.347   3.291  12.080 -0.3256  0.3648  0.0076
  104MPD2    C4 1588   1.370   3.174  12.154  0.5350  0.7135  0.4570
  104MPD2    C5 1589   1.455   3.179  12.262  0.6215  0.0186  0.5215
  104MPD2     H 1590   1.423   3.490  12.046  1.5804  1.8012  2.1316
  104MPD2    H1 1591   1.316   3.082  12.137  0.8686  0.6385 -0.2010
  104MPD2    H2 1592   1.612   3.286  12.361 -1.4290 -1.4500  0.6139
  104MPD2    H3 1593   1.468   3.099  12.335  1.2820 -0.8559 -0.5490
  104MPD2     N 1594   1.246   3.312  11.986 -0.7600 -0.1386 -0.3638
  104MPD2    H5 1595   1.245   3.405  11.945  0.1926  0.8436  1.8245
  104MPD2    N1 1596   1.600   3.517  12.250  0.2762  0.1076  0.1503
  104MPD2    H7 1597   1.648   3.503  12.338  1.4388  2.2657 -0.1380
  105MPD2     C 1598   3.267   2.622   0.280 -0.1468  0.9920  0.0287
  105MPD2    C1 1599   3.290   2.757   0.294  0.2042 -0.4641 -0.1099
  105MPD2    C2 1600   3.223   2.821   0.399  0.6142 -0.3904 -0.0236
  105MPD2    C3 1601   3.151   2.752   0.501 -0.4531 -0.2502 -0.5483
  105MPD2    C4 1602   3.127   2.617   0.478 -0.4827 -0.7458 -0.3379
  105MPD2    C5 1603   3.182   2.555   0.368 -0.0822 -0.1501 -0.4479
  105MPD2     H 1604   3.241   2.927   0.414  1.1541 -0.6506  1.2719
  105MPD2    H1 1605   3.074   2.558   0.551  2.1551 -2.9211 -0.1648
  105MPD2    H2 1606   3.282   2.572   0.186 -2.0179  0.7824 -0.1585
  105MPD2    H3 1607   3.163   2.450   0.349  0.7134 -0.6181  1.3278
  105MPD2     N 1608   3.113   2.822   0.619 -0.2732  0.0861  0.5266
  105MPD2    H5 1609   3.129   2.922   0.608 -1.4594  0.1990 -0.2407
  105MPD2    N1 1610   3.364   2.829   0.198  0.3832 -0.2037 -0.0312
  105MPD2    H7 1611   3.375   2.929   0.216 -0.9078 -0.5689  2.7185
  106TCq2    C1 1612   3.043   2.769   0.729 -0.6906 -0.1940 -0.1284
  106TCq2    O2 1613   3.012   2.651   0.755 -0.3623 -0.3669  0.1282
  106TCq2    C2 1614   3.009   2.863   0.833 -0.2430 -0.2149 -0.0909
  106TCq2    C3 1615   3.029   3.000   0.829  0.4729 -0.5268 -0.5985
  106TCq2    C4 1616   3.012   3.074   0.943 -0.1690  1.0416 -0.0193
  106TCq2    C5 1617   2.959   3.024   1.057  0.0984 -0.2137  0.0692
  106TCq2    C6 1618   2.916   2.895   1.055 -0.1577  0.6344 -0.4696
  106TCq2    C7 1619   2.938   2.815   0.943  0.4968  0.6791  0.0838
  106TCq2    C8 1620   2.871   2.836   1.174  0.4936 -0.1200 -0.9913
  106TCq2    O4 1621   2.881   2.716   1.184  0.8434 -0.1721 -0.0391
  106TCq2    C9 1622   3.060   3.210   0.957  0.5664 -0.4106  0.1717
  106TCq2    O5 1623   3.094   3.265   0.852 -0.0156  0.5055  0.2119
  106TCq2    O6 1624   3.040   3.280   1.065  1.0546 -0.5302 -1.0836
  106TCq2    H2 1625   3.073   3.058   0.748 -1.5864 -0.0748 -1.3813
  106TCq2    H3 1626   2.955   3.088   1.144 -2.1012 -1.2878  0.7587
  106TCq2    H4 1627   2.897   2.715   0.939  2.0382  0.1229 -1.9824
  107TMC2    C1 1628   3.673   2.649  11.500  0.1440  0.1592  0.8230
  107TMC2    C2 1629   3.694   2.519  11.546 -0.3547  0.1189 -0.3248
  107TMC2    C3 1630   3.753   2.427  11.461 -0.0050 -0.0111 -0.3683
  107TMC2    C4 1631   3.724   2.685  11.375 -0.2613 -0.0236  0.3183
  107TMC2    C5 1632   3.785   2.594  11.295 -0.6099  0.1741  0.1027
  107TMC2    C6 1633   3.802   2.468  11.335 -0.0410  0.4950 -0.2342
  107TMC2     C 1634   3.600   2.734  11.597 -0.6061  0.4000  0.1103
  107TMC2     O 1635   3.574   2.692  11.709  0.0056 -0.2644 -0.4315
  107TMC2     H 1636   3.654   2.489  11.642  0.6050 -0.9405 -0.2630
  107TMC2    H1 1637   3.701   2.781  11.329 -0.8636 -0.6253 -0.6453
  107TMC2    H2 1638   3.854   2.397  11.271  1.7011  2.0089 -0.4986
  107TMC2    C7 1639   3.817   2.640  11.158  0.7851  0.2764 -0.7584
  107TMC2    C8 1640   3.784   2.298  11.521 -0.5452 -0.0867 -0.1985
  107TMC2    O1 1641   3.823   2.761  11.132 -0.2446  0.1899  0.3036
  107TMC2    O2 1642   3.773   2.281  11.644 -0.0638 -0.7004 -0.5475
  107TMC2    O5 1643   3.758   2.201  11.428  0.2748  0.3471 -0.6376
  107TMC2    H5 1644   3.759   2.238  11.337 -1.0212  2.1199  0.0721
  108MPD2     C 1645   3.461   3.072  11.537  0.3245  0.9292  0.1968
  108MPD2    C1 1646   3.476   2.955  11.601  0.0908 -1.1230 -0.1638
  108MPD2    C2 1647   3.415   2.933  11.723 -0.4098  0.1208  0.3265
  108MPD2    C3 1648   3.331   3.033  11.770 -0.2074 -0.5011  0.1473
  108MPD2    C4 1649   3.303   3.146  11.699 -0.2289  0.0419 -0.2220
  108MPD2    C5 1650   3.377   3.166  11.584 -0.6585  0.3453  0.1338
  108MPD2     H 1651   3.441   2.850  11.788 -1.4437  0.4876  1.2269
  108MPD2    H1 1652   3.237   3.222  11.740 -0.1568  0.6791 -1.3014
  108MPD2    H2 1653   3.498   3.091  11.437 -0.4979 -0.2123 -0.3303
  108MPD2    H3 1654   3.354   3.258  11.530 -0.6770  1.0208  1.2979
  108MPD2     N 1655   3.271   3.031  11.895 -0.3100  0.0513  0.4467
  108MPD2    H5 1656   3.205   3.106  11.907 -0.2937  0.4548 -2.0920
  108MPD2    N1 1657   3.563   2.859  11.536  0.1248  0.4028  0.3023
  108MPD2    H7 1658   3.614   2.883  11.451 -0.7033 -2.2075 -0.9420
  109MPD2     C 1659   3.531   4.023   2.241  0.2629  0.8080 -0.4364
  109MPD2    C1 1660   3.579   4.090   2.133  0.8583 -0.2538  0.0103
  109MPD2    C2 1661   3.708   4.070   2.101 -0.0001  0.9439  0.1962
  109MPD2    C3 1662   3.779   3.970   2.162  0.5684  0.5315 -0.7931
  109MPD2    C4 1663   3.732   3.898   2.271  0.1320 -0.0890  0.9214
  109MPD2    C5 1664   3.607   3.931   2.314  0.3893  0.3108  0.4055
  109MPD2     H 1665   3.746   4.106   2.007  0.9145 -0.3268  0.0785
  109MPD2    H1 1666   3.773   3.807   2.314 -1.7787 -0.2379  2.4120
  109MPD2    H2 1667   3.425   4.027   2.265 -0.0183 -0.9498 -1.3708
  109MPD2    H3 1668   3.562   3.872   2.393 -0.0838  1.6092  1.1081
  109MPD2     N 1669   3.904   3.936   2.097  0.6269 -0.3910  0.3912
  109MPD2    H5 1670   3.932   4.004   2.027 -0.9060 -0.9306 -0.7525
  109MPD2    N1 1671   3.493   4.179   2.066  0.7370 -0.5720 -0.0660
  109MPD2    H7 1672   3.395   4.171   2.094 -0.6174  1.2932 -4.3502
  110TCq2    C1 1673   3.978   3.821   2.121 -0.0339  0.0564 -0.6224
  110TCq2    O2 1674   3.961   3.724   2.195  0.3021 -0.0250  0.5403
  110TCq2    C2 1675   4.109   3.818   2.050  0.2419  0.6809 -0.0502
  110TCq2    C3 1676   4.201   3.713   2.079 -0.1433 -0.3996  0.0721
  110TCq2    C4 1677   4.319   3.727   2.014  1.0843 -0.5046 -0.2712
  110TCq2    C5 1678   4.349   3.817   1.917 -0.5914  0.4738  0.0964
  110TCq2    C6 1679   4.255   3.904   1.883 -0.7482  0.3652  0.2787
  110TCq2    C7 1680   4.139   3.919   1.958  0.1275  0.6899 -0.1964
  110TCq2    C8 1681   4.258   3.993   1.773  0.7452  0.0768 -0.0021
  110TCq2    O4 1682   4.218   4.107   1.792 -0.0191 -0.1851  0.5073
  110TCq2    C9 1683   4.419   3.637   2.055  0.3582 -0.9367  0.1617
  110TCq2    O5 1684   4.531   3.646   1.998 -0.3504 -0.4173  0.0028
  110TCq2    O6 1685   4.394   3.572   2.159  0.1857 -0.3287 -0.4285
  110TCq2    H2 1686   4.184   3.645   2.161 -1.9956  0.0979  0.0951
  110TCq2    H3 1687   4.445   3.816   1.866  0.1686  1.9871  1.4716
  110TCq2    H4 1688   4.068   3.993   1.922 -0.9133 -0.9279 -1.5084
  111TMC2    C1 1689   3.305   0.268  11.522 -0.1736 -0.3632  0.1289
  111TMC2    C2 1690   3.222   0.299  11.621  0.6745  0.1573  0.2882
  111TMC2    C3 1691   3.253   0.236  11.737 -0.1676 -0.1757 -0.8214
  111TMC2    C4 1692   3.405   0.178  11.534 -0.3683  1.0022  0.3125
  111TMC2    C5 1693   3.439   0.127  11.657 -0.0342 -0.2949  0.2351
  111TMC2    C6 1694   3.356   0.155  11.761 -0.3153 -0.5311 -0.0441
  111TMC2     C 1695   3.296   0.337  11.385  0.5782 -0.1072  0.1361
  111TMC2     O 1696   3.394   0.340  11.315  0.0897 -0.0865  0.3519
  111TMC2     H 1697   3.138   0.367  11.611  0.2186 -0.5440 -0.6914
  111TMC2    H1 1698   3.450   0.139  11.443 -0.7011 -1.5087  1.2237
  111TMC2    H2 1699   3.378   0.126  11.863  0.9444  1.5123  0.2701
  111TMC2    C7 1700   3.550   0.050  11.677  0.3698  0.1433 -0.6728
  111TMC2    C8 1701   3.160   0.257  11.848  0.8731 -0.5785 -0.5730
  111TMC2    O1 1702   3.560   4.705  11.784 -0.0513  0.4128  0.3600
  111TMC2    O2 1703   3.162   0.187  11.947  0.1617 -0.0823 -0.0231
  111TMC2    O5 1704   3.068   0.345  11.820 -0.3141  0.6080 -0.5045
  111TMC2    H5 1705   3.016   0.367  11.900  1.6142 -0.8502  1.1292
  112MPD2     C 1706   3.003   0.519  11.005 -0.2338 -0.0570 -0.0216
  112MPD2    C1 1707   3.140   0.489  11.005  0.3059 -0.8161  0.7512
  112MPD2    C2 1708   3.204   0.473  11.131  0.0126 -0.6781 -0.4551
  112MPD2    C3 1709   3.124   0.447  11.244 -0.5433  0.0462 -0.0112
  112MPD2    C4 1710   2.990   0.488  11.238 -0.8811  0.2213 -0.0870
  112MPD2    C5 1711   2.934   0.530  11.120  0.0951  0.8404 -0.9418
  112MPD2     H 1712   3.312   0.463  11.138  0.0071 -1.0552 -0.9260
  112MPD2    H1 1713   2.932   0.489  11.329 -0.4246  0.6609  0.1999
  112MPD2    H2 1714   2.950   0.530  10.911  0.1316  2.0484  0.0196
  112MPD2    H3 1715   2.829   0.558  11.117 -0.4513 -1.0735 -0.0175
  112MPD2     N 1716   3.170   0.397  11.365 -0.2693  0.3252 -0.7344
  112MPD2    H5 1717   3.101   0.382  11.438 -0.3014  0.1121 -0.8074
  112MPD2    N1 1718   3.222   0.472  10.893 -0.0937  1.4781  0.2340
  112MPD2    H7 1719   3.321   0.471  10.915 -0.0825 -0.1966  0.0610
  113MPD2     C 1720   2.260   2.054   1.500 -0.5966  0.2128  0.5261
  113MPD2    C1 1721   2.204   2.178   1.535 -0.3410  0.2216  0.3649
  113MPD2    C2 1722   2.131   2.242   1.433  0.0695  0.1478  0.6151
  113MPD2    C3 1723   2.101   2.188   1.310 -0.8746  0.1375  0.1909
  113MPD2    C4 1724   2.160   2.068   1.288  0.0143 -0.1207  0.1385
  113MPD2    C5 1725   2.228   1.999   1.382 -0.8504  0.1578  0.1159
  113MPD2     H 1726   2.096   2.344   1.444 -0.6521 -0.0206 -0.1388
  113MPD2    H1 1727   2.134   2.011   1.199 -3.8812 -1.0404  1.8851
  113MPD2    H2 1728   2.321   1.995   1.568  0.4428  0.2784 -0.3488
  113MPD2    H3 1729   2.256   1.898   1.353 -2.3405  0.3642 -2.0237
  113MPD2     N 1730   2.051   2.248   1.197 -0.1630 -0.8600 -0.7544
  113MPD2    H5 1731   2.064   2.204   1.107  1.7391 -0.2066 -0.7961
  113MPD2    N1 1732   2.209   2.240   1.668  0.2731  0.5795  0.9640
  113MPD2    H7 1733   2.163   2.330   1.676  0.3516  0.3895  3.4072
  114TCq2    C1 1734   2.006   2.379   1.193 -0.2849  0.1212 -0.0375
  114TCq2    O2 1735   1.997   2.467   1.280  0.2726 -0.7583 -0.5838
  114TCq2    C2 1736   1.947   2.416   1.066  0.1927 -0.5004 -0.5267
  114TCq2    C3 1737   1.939   2.547   1.025 -0.3449 -0.6329  0.2074
  114TCq2    C4 1738   1.877   2.571   0.906 -0.3207 -0.1000 -0.0540
  114TCq2    C5 1739   1.820   2.468   0.834 -0.4273  0.0540  0.7130
  114TCq2    C6 1740   1.821   2.339   0.876 -0.2179 -1.2171  0.4865
  114TCq2    C7 1741   1.882   2.310   0.996 -0.5157  0.1721 -0.2618
  114TCq2    C8 1742   1.709   2.256   0.832 -0.7189  0.2401  0.5654
  114TCq2    O4 1743   1.695   2.252   0.711  0.6411 -0.8375  0.3721
  114TCq2    C9 1744   1.866   2.704   0.846 -0.2229  0.3170 -0.2500
  114TCq2    O5 1745   1.816   2.708   0.729 -0.2664 -0.0338  0.3416
  114TCq2    O6 1746   1.936   2.797   0.898  0.5306 -0.5211 -0.0977
  114TCq2    H2 1747   1.978   2.636   1.072 -0.6422 -0.9234  1.0005
  114TCq2    H3 1748   1.773   2.489   0.738  1.7116 -0.6188 -0.4751
  114TCq2    H4 1749   1.887   2.205   1.025 -0.5703  0.5911  1.2576
  115TMC2    C1 1750   2.890   4.554  17.633 -0.8758 -0.3541 -0.2684
  115TMC2    C2 1751   2.983   4.498   0.049 -0.6101  0.2469  0.1340
  115TMC2    C3 1752   3.040   4.577   0.143 -0.5114  0.3487  0.2082
  115TMC2    C4 1753   2.861   4.690  17.632 -0.0925  0.3196 -0.1953
  115TMC2    C5 1754   2.923   0.044   0.064  0.1107  0.2232 -0.7398
  115TMC2    C6 1755   3.004   4.707   0.158 -0.1882  0.9403  0.1962
  115TMC2     C 1756   2.858   4.467  17.518 -0.5367 -1.0338  0.5394
  115TMC2     O 1757   2.895   4.351  17.517 -0.4084 -0.0310  0.6934
  115TMC2     H 1758   3.015   4.394   0.039  0.4474  0.5647  0.1901
  115TMC2    H1 1759   2.782   0.011  17.568 -1.8497  1.9055  2.8862
  115TMC2    H2 1760   3.044   0.054   0.236 -2.1997  1.4593  0.8064
  115TMC2    C7 1761   2.875   0.180   0.088  0.0260  0.0981  0.0740
  115TMC2    C8 1762   3.127   4.516   0.250 -0.1405 -0.5618  1.0281
  115TMC2    O1 1763   2.832   0.207   0.199  0.7856 -0.0682  0.1825
  115TMC2    O2 1764   3.134   4.391   0.260  0.1808 -0.4553  0.2677
  115TMC2    O5 1765   3.239   4.585   0.230 -0.5426 -0.0817  0.6305
  115TMC2    H5 1766   3.222   4.680   0.247 -1.0580 -0.3455  1.5697
  116MPD2     C 1767   2.634   4.378  17.074 -0.6685  0.1272 -0.8541
  116MPD2    C1 1768   2.714   4.291  17.148 -1.2366  0.1192  0.3194
  116MPD2    C2 1769   2.762   4.341  17.263 -0.0983  0.3019 -0.0701
  116MPD2    C3 1770   2.742   4.473  17.301 -0.4114  0.2068  0.3108
  116MPD2    C4 1771   2.669   4.553  17.224  0.3679  0.1013  0.1013
  116MPD2    C5 1772   2.611   4.506  17.110  0.2474  0.4548  1.0185
  116MPD2     H 1773   2.824   4.275  17.322  0.2140  1.0982  0.4961
  116MPD2    H1 1774   2.665   4.659  17.245 -0.4915 -0.2898  1.9393
  116MPD2    H2 1775   2.582   4.353  16.982  0.3096 -1.2915 -1.0125
  116MPD2    H3 1776   2.548   4.565  17.044  2.0754  0.0055 -1.1141
  116MPD2     N 1777   2.797   4.536  17.417  0.3471 -0.3052  0.3154
  116MPD2    H5 1778   2.778   4.633  17.440 -1.6890 -0.5073 -0.5677
  116MPD2    N1 1779   2.734   4.151  17.117  0.2172  0.1035  0.1387
  116MPD2    H7 1780   2.777   4.091  17.187 -1.5199 -2.5373 -1.0652
  117TMC2    C1 1781   1.234   1.740  13.964  0.0178  0.1726 -0.1972
  117TMC2    C2 1782   1.160   1.727  14.079 -0.1027  0.3353 -0.4367
  117TMC2    C3 1783   1.204   1.788  14.196 -0.6280  0.3877  0.7963
  117TMC2    C4 1784   1.358   1.799  13.969  0.7315  0.4126  0.0495
  117TMC2    C5 1785   1.402   1.867  14.083 -0.3299 -0.8383  0.1948
  117TMC2    C6 1786   1.324   1.855  14.198 -0.0387 -0.4409  0.3552
  117TMC2     C 1787   1.154   1.810  13.856 -0.1394  0.1898  0.1989
  117TMC2     O 1788   1.213   1.898  13.788  0.2842 -0.1142 -0.0364
  117TMC2     H 1789   1.061   1.684  14.082 -0.2716  0.7438 -0.2180
  117TMC2    H1 1790   1.406   1.803  13.871  2.2422 -1.9033  0.7023
  117TMC2    H2 1791   1.360   1.905  14.286 -0.8408  0.4579  0.1693
  117TMC2    C7 1792   1.445   1.999  14.066  0.4210 -0.2207  0.8938
  117TMC2    C8 1793   1.110   1.788  14.305  0.0612  0.2202 -0.2731
  117TMC2    O1 1794   1.474   2.069  14.162 -0.3401  0.8043  0.8287
  117TMC2    O2 1795   1.002   1.730  14.300 -0.4289 -0.0679 -0.0374
  117TMC2    O5 1796   1.158   1.861  14.411 -0.3139  0.2035  0.1312
  117TMC2    H5 1797   1.245   1.904  14.401 -0.8020  1.1581 -0.0013
  118MPD2     C 1798   1.322   2.230  13.814  0.1481 -0.2148 -0.0491
  118MPD2    C1 1799   1.414   2.184  13.902 -0.1670  0.2390 -0.0842
  118MPD2    C2 1800   1.515   2.269  13.936  0.1035  0.8331 -0.4325
  118MPD2    C3 1801   1.523   2.390  13.880  0.1300 -0.1520 -0.4980
  118MPD2    C4 1802   1.429   2.428  13.793 -0.8316  0.4026  0.3321
  118MPD2    C5 1803   1.320   2.353  13.773 -0.2774 -0.0162  0.3364
  118MPD2     H 1804   1.584   2.224  14.006  0.4502 -0.8252 -1.8339
  118MPD2    H1 1805   1.435   2.518  13.732  1.6557 -1.3659 -2.0084
  118MPD2    H2 1806   1.234   2.176  13.781 -0.0663 -0.1650  0.4311
  118MPD2    H3 1807   1.256   2.382  13.690 -2.9059 -0.7450  2.1289
  118MPD2     N 1808   1.618   2.492  13.904 -0.5066  0.2366 -0.6273
  118MPD2    H5 1809   1.594   2.576  13.851  0.0874  0.6979 -0.1727
  118MPD2    N1 1810   1.399   2.051  13.950  0.1825 -0.1747  0.3410
  118MPD2    H7 1811   1.334   2.002  13.889  1.8664  0.0498 -1.6267
  119MPD2     C 1812   4.088   3.675  13.934 -0.3730 -0.3102 -0.9929
  119MPD2    C1 1813   4.073   3.537  13.939  0.3382 -0.0335  0.1768
  119MPD2    C2 1814   4.117   3.457  13.835 -0.8177  1.0477 -0.0667
  119MPD2    C3 1815   4.158   3.517  13.722 -0.6013 -0.1818  0.0394
  119MPD2    C4 1816   4.156   3.652  13.710 -0.3619 -0.0205  0.3723
  119MPD2    C5 1817   4.124   3.730  13.817 -0.5443 -0.2577 -0.1070
  119MPD2     H 1818   4.121   3.350  13.850  0.7158  1.2111  0.7883
  119MPD2    H1 1819   4.184   3.696  13.615  2.7428 -0.0252  1.3076
  119MPD2    H2 1820   4.061   3.736  14.020  2.0812 -0.1948 -0.3130
  119MPD2    H3 1821   4.128   3.838  13.806 -1.6073 -0.4549 -2.5926
  119MPD2     N 1822   4.209   3.444  13.608  0.3520 -0.2157 -0.0973
  119MPD2    H5 1823   4.246   3.499  13.532  1.8066 -0.4369  0.4584
  119MPD2    N1 1824   4.015   3.481  14.059  0.0946 -0.1828  0.1294
  119MPD2    H7 1825   4.018   3.546  14.137  0.5635 -1.4891  1.2057
  120TCq2    C1 1826   4.204   3.303  13.592  0.3792  0.0795 -0.3456
  120TCq2    O2 1827   4.149   3.218  13.664  0.0256 -0.1066  0.1804
  120TCq2    C2 1828   4.244   3.259  13.465 -0.5265 -0.7068 -0.6142
  120TCq2    C3 1829   4.318   3.340  13.383  0.0975 -0.0280  0.5260
  120TCq2    C4 1830   4.314   3.319  13.250  0.5017  0.0410 -0.7581
  120TCq2    C5 1831   4.238   3.219  13.191  0.5723 -1.1793 -0.6426
  120TCq2    C6 1832   4.149   3.162  13.273  0.8270 -0.6231  0.6614
  120TCq2    C7 1833   4.157   3.170  13.411 -0.0428  0.2706  0.3199
  120TCq2    C8 1834   4.023   3.116  13.218 -0.3952  0.6328 -0.0854
  120TCq2    O4 1835   4.002   3.143  13.099  0.1878 -0.3402 -0.2744
  120TCq2    C9 1836   4.407   3.393  13.162  0.0211  0.3868  0.5181
  120TCq2    O5 1837   4.454   3.334  13.057  0.4947 -0.0602  0.2928
  120TCq2    O6 1838   4.459   3.493  13.208 -0.1240 -0.4010  0.3002
  120TCq2    H2 1839   4.377   3.417  13.431 -0.2053  0.9729 -0.6962
  120TCq2    H3 1840   4.235   3.210  13.083  0.4749 -2.0569 -0.5640
  120TCq2    H4 1841   4.072   3.140  13.472 -0.5536 -1.5132 -1.2707
  121TMC2    C1 1842   1.070   0.258  13.899 -0.3010 -0.0238  0.0141
  121TMC2    C2 1843   1.057   0.157  13.987  1.0000  0.4205 -0.1542
  121TMC2    C3 1844   0.925   0.118  14.019 -0.3214 -0.2833 -0.0484
  121TMC2    C4 1845   0.971   0.321  13.837  0.0468 -0.3992 -0.6043
  121TMC2    C5 1846   0.841   0.287  13.879 -0.9937 -0.8703  0.0181
  121TMC2    C6 1847   0.812   0.181  13.969 -0.0255 -0.0677 -0.2364
  121TMC2     C 1848   1.205   0.278  13.847 -0.2573  0.2864 -0.5889
  121TMC2     O 1849   1.306   0.268  13.916  0.3265  0.1619 -0.3641
  121TMC2     H 1850   1.142   0.112  14.036  1.0061 -0.1524 -0.6924
  121TMC2    H1 1851   0.985   0.410  13.776  0.9721  0.9521  1.5659
  121TMC2    H2 1852   0.709   0.149  13.981  0.4611 -2.0891 -1.4361
  121TMC2    C7 1853   0.732   0.359  13.816  0.4022 -1.1476  0.3284
  121TMC2    C8 1854   0.907   0.013  14.118 -0.4098  0.0350  0.6969
  121TMC2    O1 1855   0.757   0.466  13.766  0.1380  0.0221  0.0288
  121TMC2    O2 1856   0.803   4.662  14.124 -0.1833 -0.6603 -0.0411
  121TMC2    O5 1857   1.001   0.014  14.213 -0.9095 -0.2885  0.7262
  121TMC2    H5 1858   0.996   4.652  14.271 -0.1059 -1.8923 -1.3825
  122MPD2     C 1859   1.424   0.336  13.658  0.3127 -0.0744  0.1189
  122MPD2    C1 1860   1.289   0.359  13.622  0.8136 -0.2355 -1.0139
  122MPD2    C2 1861   1.256   0.398  13.489  0.2029 -0.3883 -0.2319
  122MPD2    C3 1862   1.347   0.403  13.387  0.7874  0.6593 -0.8552
  122MPD2    C4 1863   1.475   0.371  13.423  0.5458 -1.0696 -0.0089
  122MPD2    C5 1864   1.513   0.358  13.552  0.2848 -0.4856  0.7347
  122MPD2     H 1865   1.153   0.413  13.462  0.7899  1.8419 -1.1634
  122MPD2    H1 1866   1.557   0.376  13.352 -0.5473 -0.9708 -1.2505
  122MPD2    H2 1867   1.445   0.299  13.758 -2.8043  1.9104  1.5191
  122MPD2    H3 1868   1.616   0.334  13.577  1.2377  1.8308 -0.9422
  122MPD2     N 1869   1.325   0.417  13.247  0.9929 -0.3094 -0.8946
  122MPD2    H5 1870   1.407   0.405  13.188  1.1996 -1.3713 -0.4000
  122MPD2    N1 1871   1.192   0.317  13.715 -0.1655  0.3660 -0.4764
  122MPD2    H7 1872   1.097   0.327  13.679 -0.1856  0.1118 -0.4892
  123MPD2     C 1873   3.283   3.740   8.599 -0.8736  0.2442 -0.5982
  123MPD2    C1 1874   3.307   3.651   8.708  0.3703 -0.4407 -0.1846
  123MPD2    C2 1875   3.406   3.551   8.691 -0.3740 -0.2675  0.6127
  123MPD2    C3 1876   3.486   3.547   8.577  0.2556 -0.1609  0.9638
  123MPD2    C4 1877   3.461   3.638   8.471  0.4164 -0.2257  0.2379
  123MPD2    C5 1878   3.351   3.734   8.480  0.5875  0.9664  0.1967
  123MPD2     H 1879   3.421   3.474   8.766 -0.2072  1.0808  1.9704
  123MPD2    H1 1880   3.525   3.628   8.384  0.0543 -0.8579  0.0425
  123MPD2    H2 1881   3.211   3.821   8.606 -0.5133  0.3943  1.5614
  123MPD2    H3 1882   3.323   3.792   8.392  0.4951  1.3456  0.4776
  123MPD2     N 1883   3.582   3.444   8.572  0.0441 -0.2781 -0.3498
  123MPD2    H5 1884   3.571   3.377   8.647 -1.1086 -0.6256 -0.8308
  123MPD2    N1 1885   3.244   3.673   8.831  0.1270  0.0104  0.0745
  123MPD2    H7 1886   3.162   3.733   8.839 -0.3503 -0.3931 -1.8523
  124TCq2    C1 1887   3.685   3.435   8.480  0.5218  0.1627  0.3193
  124TCq2    O2 1888   3.731   3.522   8.408  0.1317 -0.2402  0.2909
  124TCq2    C2 1889   3.762   3.309   8.489  0.5955  0.4699 -0.0840
  124TCq2    C3 1890   3.885   3.302   8.428 -0.0801  0.4307  0.1479
  124TCq2    C4 1891   3.976   3.216   8.476 -0.4648 -0.0779  0.2901
  124TCq2    C5 1892   3.944   3.121   8.566 -0.1648  0.4686 -0.2480
  124TCq2    C6 1893   3.819   3.122   8.614  0.0648  0.7628  0.5273
  124TCq2    C7 1894   3.727   3.215   8.579 -0.3749 -0.1824 -0.1400
  124TCq2    C8 1895   3.787   3.007   8.692  0.8485 -0.3753 -0.4026
  124TCq2    O4 1896   3.878   2.950   8.751 -0.0746 -0.6948 -0.3769
  124TCq2    C9 1897   4.100   3.199   8.412  0.3350  0.7502 -0.1752
  124TCq2    O5 1898   4.191   3.125   8.470  0.7663 -0.3717  0.4092
  124TCq2    O6 1899   4.119   3.279   8.319  0.2195 -0.2926 -0.0067
  124TCq2    H2 1900   3.904   3.375   8.350  0.3953  2.1297  1.8557
  124TCq2    H3 1901   4.025   3.061   8.606 -0.9268  1.0284  2.1237
  124TCq2    H4 1902   3.638   3.223   8.640 -0.5423  0.2209 -0.4378
  125TMC2    C1 1903   0.160   0.472   9.695 -1.0527  1.0213 -0.2961
  125TMC2    C2 1904   0.079   0.563   9.765 -0.1608  0.5254  0.0409
  125TMC2    C3 1905   4.713   0.641   9.687 -0.0808 -0.2650  0.0332
  125TMC2    C4 1906   0.153   0.466   9.556  0.0458 -0.3867  0.0126
  125TMC2    C5 1907   0.081   0.556   9.486 -0.4877 -0.4349  0.2072
  125TMC2    C6 1908   4.714   0.643   9.550  0.1743  0.1376 -0.0166
  125TMC2     C 1909   0.235   0.376   9.776  0.1125 -0.3882  0.2501
  125TMC2     O 1910   0.222   0.386   9.900  0.3810 -0.0136  0.4431
  125TMC2     H 1911   0.075   0.570   9.873  0.9519  0.0930  0.1099
  125TMC2    H1 1912   0.189   0.384   9.494  0.7943 -0.1691  0.1647
  125TMC2    H2 1913   4.638   0.698   9.496 -1.9153 -1.6677  1.1145
  125TMC2    C7 1914   0.083   0.554   9.344 -0.2190 -0.5437  0.2911
  125TMC2    C8 1915   4.641   0.743   9.751 -0.0737  0.0702 -0.7222
  125TMC2    O1 1916   4.713   0.624   9.288 -0.4102 -0.4859  0.0621
  125TMC2    O2 1917   4.531   0.775   9.710  0.2915 -0.5490 -0.1673
  125TMC2    O5 1918   0.023   0.835   9.753 -0.5503  0.2411 -0.3752
  125TMC2    H5 1919   0.111   0.809   9.718  0.2753 -0.2802  2.1259
  126MPD1     C 1920   0.542   4.686   9.854 -0.3476  0.5297  0.0832
  126MPD1    C1 1921   0.564   0.016   9.728 -0.1614 -0.1660 -0.2898
  126MPD1    C2 1922   0.474   0.106   9.673 -0.2454  0.1007  0.0822
  126MPD1    C3 1923   0.391   0.186   9.756  0.4788 -0.0010 -0.0023
  126MPD1    C4 1924   0.378   0.142   9.888  0.4060 -0.4197 -0.3267
  126MPD1    C5 1925   0.447   0.028   9.930  0.4297  0.4305  0.3135
  126MPD1     H 1926   0.480   0.135   9.569 -1.5047 -0.2803 -0.1033
  126MPD1    H1 1927   0.325   0.190   9.969  2.3990 -0.1737  0.8352
  126MPD1    H2 1928   0.591   4.601   9.902  1.5222  2.6506  1.9588
  126MPD1    H3 1929   0.433   4.702  10.029  0.0331  0.8088  0.4235
  126MPD1     N 1930   0.319   0.301   9.704 -0.7308 -0.1853 -0.5238
  126MPD1    H5 1931   0.333   0.318   9.605 -0.1751  0.9007 -0.2561
  126MPD1    N1 1932   0.645   4.664   9.638 -0.2085  0.0909 -0.2807
  126MPD1    H6 1933   0.718   4.607   9.681 -0.5281 -0.8735 -1.0021
  126MPD1    H7 1934   0.690   4.716   9.564 -0.9155  0.8231 -0.1965
  127MPD2     C 1935   1.421   3.955   9.134 -0.1638  0.4030 -0.0460
  127MPD2    C1 1936   1.426   3.974   9.270 -0.0010  0.4664 -0.1209
  127MPD2    C2 1937   1.503   4.071   9.328 -0.4493  0.6077  0.1222
  127MPD2    C3 1938   1.579   4.149   9.241  0.2771 -0.0430  0.0034
  127MPD2    C4 1939   1.582   4.126   9.102  0.0689 -0.0821  0.2492
  127MPD2    C5 1940   1.499   4.030   9.048 -0.4018  0.3492 -0.3147
  127MPD2     H 1941   1.510   4.079   9.436  3.8728 -0.5918 -0.0810
  127MPD2    H1 1942   1.642   4.176   9.028 -1.1873  0.1477 -0.6109
  127MPD2    H2 1943   1.353   3.884   9.088  0.8339 -1.4678  1.3645
  127MPD2    H3 1944   1.493   4.025   8.940 -1.8800  0.4795 -0.2430
  127MPD2     N 1945   1.672   4.238   9.300  0.6671 -0.6668  0.3102
  127MPD2    H5 1946   1.661   4.246   9.401 -2.5169 -2.6201  0.1239
  127MPD2    N1 1947   1.354   3.878   9.341 -0.2679 -0.4343 -0.0497
  127MPD2    H7 1948   1.298   3.815   9.285  0.3538 -1.9129  1.0007
  128TCq2    C1 1949   1.331   3.888   9.475  0.3129  0.1515  0.5823
  128TCq2    O2 1950   1.387   3.953   9.560 -0.1274 -0.8088  0.2688
  128TCq2    C2 1951   1.220   3.806   9.521 -0.2791  0.0968 -0.1198
  128TCq2    C3 1952   1.210   3.801   9.660  0.0580  0.0165  0.4956
  128TCq2    C4 1953   1.112   3.718   9.709  0.8675 -0.2940  0.4104
  128TCq2    C5 1954   1.031   3.638   9.626 -0.4861 -0.1448  0.6620
  128TCq2    C6 1955   1.063   3.628   9.498  0.1380 -0.4395  0.5814
  128TCq2    C7 1956   1.148   3.718   9.445  0.4480  0.6850 -0.0172
  128TCq2    C8 1957   0.973   3.568   9.402  0.4691  0.5110 -0.6175
  128TCq2    O4 1958   0.984   3.599   9.286  0.1061 -0.0128  0.3292
  128TCq2    C9 1959   1.076   3.727   9.843 -0.3252 -0.0072  0.7586
  128TCq2    O5 1960   1.131   3.815   9.913 -0.3780  0.1451  0.5563
  128TCq2    O6 1961   0.964   3.682   9.878  0.5220  0.1081 -0.1392
  128TCq2    H2 1962   1.269   3.861   9.729  0.4509  0.1307  0.0650
  128TCq2    H3 1963   0.953   3.575   9.669  0.8013 -2.7431 -0.8351
  128TCq2    H4 1964   1.157   3.710   9.337  3.6110  0.3880  0.2736
  129MPD2     C 1965   4.195   4.183   0.858  0.3316 -0.2425  0.3424
  129MPD2    C1 1966   4.306   4.115   0.897 -0.2004  0.0142 -0.3499
  129MPD2    C2 1967   4.426   4.126   0.835 -0.1386  0.1961 -0.2345
  129MPD2    C3 1968   4.446   4.219   0.733  0.8365  0.3803 -0.1681
  129MPD2    C4 1969   4.334   4.287   0.694  0.4751 -0.2871  0.2761
  129MPD2    C5 1970   4.214   4.275   0.751 -0.0268 -0.2895  0.4133
  129MPD2     H 1971   4.516   4.071   0.861  1.2882  2.9414  0.7376
  129MPD2    H1 1972   4.338   4.343   0.601  1.4303  2.0638  1.7607
  129MPD2    H2 1973   4.099   4.167   0.907 -0.1466  1.4185 -0.0568
  129MPD2    H3 1974   4.131   4.337   0.719  0.5553  0.4325  0.3209
  129MPD2     N 1975   4.580   4.239   0.690  0.7381  0.6042  0.7215
  129MPD2    H5 1976   4.655   4.182   0.729  0.1347  0.0352  1.0518
  129MPD2    N1 1977   4.294   4.033   1.002 -0.6554 -0.2129  0.0626
  129MPD2    H7 1978   4.369   3.966   1.010  0.3456  1.0472  1.2989
  130TCq2    C1 1979   4.187   4.014   1.087  0.4895 -0.5231  0.8072
  130TCq2    O2 1980   4.091   4.094   1.106  0.2715 -0.1703 -0.6951
  130TCq2    C2 1981   4.192   3.891   1.167  0.2549 -0.0357 -0.1620
  130TCq2    C3 1982   4.248   3.783   1.123  0.5890  0.0403  0.1021
  130TCq2    C4 1983   4.245   3.669   1.206  0.1027 -0.3251 -0.1088
  130TCq2    C5 1984   4.194   3.671   1.336  0.4842  0.4217 -0.3161
  130TCq2    C6 1985   4.141   3.793   1.374  0.9937 -0.7923  0.1619
  130TCq2    C7 1986   4.137   3.898   1.286  0.1785  0.2278  0.0180
  130TCq2    C8 1987   4.064   3.801   1.500 -0.2785 -0.4318  0.3317
  130TCq2    O4 1988   3.999   3.902   1.523  0.1965  0.1936 -0.0106
  130TCq2    C9 1989   4.308   3.547   1.159  0.6079 -0.2860  0.2787
  130TCq2    O5 1990   4.335   3.455   1.238  0.3711 -0.3019 -0.1258
  130TCq2    O6 1991   4.330   3.542   1.036 -0.2909 -0.0352  0.1692
  130TCq2    H2 1992   4.298   3.781   1.027  2.2240  0.4574  0.9351
  130TCq2    H3 1993   4.191   3.570   1.375 -1.6302 -0.3842 -2.5845
  130TCq2    H4 1994   4.089   3.992   1.312  1.1770  0.9347 -0.7149
  131MPD2     C 1995   3.700   3.542   9.734  0.1895  0.3345 -0.0878
  131MPD2    C1 1996   3.741   3.612   9.623  0.2705  0.0381  0.0430
  131MPD2    C2 1997   3.650   3.632   9.520  0.6055 -0.1828  0.1955
  131MPD2    C3 1998   3.524   3.576   9.524  0.6467 -0.4206 -0.2441
  131MPD2    C4 1999   3.483   3.504   9.629  0.2462  0.1470  0.9528
  131MPD2    C5 2000   3.569   3.499   9.735 -1.1725  0.4457  0.1635
  131MPD2     H 2001   3.663   3.693   9.431 -1.4603 -0.5053 -0.3283
  131MPD2    H1 2002   3.379   3.490   9.658 -0.0362  1.1908  0.4446
  131MPD2    H2 2003   3.761   3.526   9.822  0.6989 -1.3493 -0.7438
  131MPD2    H3 2004   3.519   3.453   9.819 -0.0323  1.0176  1.1647
  131MPD2     N 2005   3.434   3.604   9.412  0.3199  0.2364 -0.5204
  131MPD2    H5 2006   3.475   3.643   9.328 -2.0157 -1.0328 -2.2676
  131MPD2    N1 2007   3.875   3.668   9.630  0.0455 -0.6398  0.9744
  131MPD2    H7 2008   3.935   3.648   9.709  0.8202 -0.1709  0.5051
  132TCq2    C1 2009   4.194   4.097   9.381 -0.5006  0.1065 -0.8376
  132TCq2    O2 2010   4.149   4.059   9.271 -0.0811 -0.4433  0.7624
  132TCq2    C2 2011   4.165   4.007   9.497 -0.8524 -0.1399 -0.3657
  132TCq2    C3 2012   4.191   4.048   9.626 -0.0136  0.1817 -0.3184
  132TCq2    C4 2013   4.124   3.982   9.725 -0.3126 -0.0751  0.0626
  132TCq2    C5 2014   4.053   3.865   9.701  0.6143  0.7009  0.0865
  132TCq2    C6 2015   4.045   3.823   9.569  0.1434  0.3235 -0.4614
  132TCq2    C7 2016   4.095   3.896   9.464 -0.2542  0.5920 -0.9264
  132TCq2    C8 2017   3.935   3.737   9.527  0.2158  0.1726  0.1322
  132TCq2    O4 2018   3.887   3.752   9.414 -0.1530  0.0561  0.0552
  132TCq2    C9 2019   4.143   4.021   9.862  0.5243  0.4857 -0.1445
  132TCq2    O5 2020   4.251   4.081   9.897  0.1688 -0.1746 -0.3645
  132TCq2    O6 2021   4.047   3.982   9.940  0.3638 -0.2341  1.0013
  132TCq2    H2 2022   4.258   4.129   9.651 -0.3932  0.3765  0.0665
  132TCq2    H3 2023   4.005   3.823   9.789  1.3679  1.4664  0.8640
  132TCq2    H4 2024   4.084   3.854   9.365  0.5772  0.8570 -1.1310
  133MPD2     C 2025   2.513   0.116   9.629  0.2094 -0.1980  0.1078
  133MPD2    C1 2026   2.512   0.043   9.511 -0.1860 -0.2896  0.4291
  133MPD2    C2 2027   2.547   4.622   9.516 -0.2578 -0.0183  0.1202
  133MPD2    C3 2028   2.579   4.556   9.634 -0.2455 -0.5193  0.0363
  133MPD2    C4 2029   2.582   4.633   9.751  1.0381 -0.8796 -0.1426
  133MPD2    C5 2030   2.555   0.047   9.741  0.4844 -0.2101  0.2473
  133MPD2     H 2031   2.535   4.571   9.421  0.2213  0.3078 -0.1210
  133MPD2    H1 2032   2.603   4.597   9.852  0.6803  0.0431  0.2620
  133MPD2    H2 2033   2.500   0.223   9.625 -0.8973 -0.3055  0.8921
  133MPD2    H3 2034   2.562   0.108   9.831 -1.0804 -0.2913  0.4138
  133MPD2     N 2035   2.627   4.421   9.639  0.1610  0.1888  0.3040
  133MPD2    H5 2036   2.656   4.388   9.731  2.0723 -3.6814 -1.7105
  133MPD2    N1 2037   2.474   0.115   9.395 -0.5606 -0.0296  0.3634
  133MPD2    H7 2038   2.450   0.210   9.423  1.9297  0.1022  2.0375
  134TCq2    C1 2039   2.458   0.073   9.266  0.0038 -0.2930 -1.0128
  134TCq2    O2 2040   2.487   4.685   9.215 -0.6898  0.7001 -0.1117
  134TCq2    C2 2041   2.430   0.182   9.168 -0.3497 -0.3662  0.3354
  134TCq2    C3 2042   2.456   0.315   9.178  0.6143  0.9262 -0.5209
  134TCq2    C4 2043   2.438   0.396   9.067 -0.2314 -0.7771  0.2869
  134TCq2    C5 2044   2.380   0.349   8.952  0.4500  0.5275 -0.0759
  134TCq2    C6 2045   2.361   0.217   8.939 -0.3966 -1.2483 -0.0027
  134TCq2    C7 2046   2.380   0.136   9.047  0.0032  0.0903  0.2673
  134TCq2    C8 2047   2.273   0.164   8.840  0.1897 -0.5200 -0.1118
  134TCq2    O4 2048   2.279   0.048   8.810 -0.6182 -0.2381 -0.6215
  134TCq2    C9 2049   2.453   0.540   9.080 -0.1253 -0.1835 -0.9010
  134TCq2    O5 2050   2.375   0.605   9.005  0.6400 -0.5478 -0.6601
  134TCq2    O6 2051   2.492   0.577   9.188  0.5523  0.1105  0.4466
  134TCq2    H2 2052   2.507   0.363   9.261 -1.3917  0.9430  0.7111
  134TCq2    H3 2053   2.374   0.410   8.862 -2.3654  0.9401  0.4149
  134TCq2    H4 2054   2.339   0.036   9.045 -0.9617  0.5018 -0.1248
  135MPD2     C 2055   0.676   0.775   8.838 -0.4822 -0.5590 -0.8297
  135MPD2    C1 2056   0.752   0.739   8.948 -0.1422 -0.1871  0.4317
  135MPD2    C2 2057   0.885   0.711   8.927  0.0782  0.7300 -0.1142
  135MPD2    C3 2058   0.945   0.737   8.799 -0.4577 -0.4771 -0.1465
  135MPD2    C4 2059   0.868   0.781   8.692  0.2898 -0.0630 -0.2831
  135MPD2    C5 2060   0.727   0.795   8.714  0.7397  0.1019 -0.3647
  135MPD2     H 2061   0.949   0.680   9.008 -0.2973 -2.1350 -0.9075
  135MPD2    H1 2062   0.906   0.807   8.594 -1.2878  0.5125 -0.7449
  135MPD2    H2 2063   0.571   0.801   8.848  0.2616  1.0363  2.7362
  135MPD2    H3 2064   0.671   0.841   8.634 -0.3867  1.3980  1.1683
  135MPD2     N 2065   1.081   0.719   8.767  0.5394 -0.2741  0.6699
  135MPD2    H5 2066   1.118   0.730   8.673 -2.0813  1.2164 -0.1726
  135MPD2    N1 2067   0.696   0.748   9.083  0.1030  0.2312 -0.4243
  135MPD2    H7 2068   0.749   0.716   9.163 -0.1950  2.3925  0.6348
  136TCq2    C1 2069   0.573   0.808   9.112  0.2292  0.3563  0.3418
  136TCq2    O2 2070   0.500   0.881   9.042  0.9120  0.0676 -0.1935
  136TCq2    C2 2071   0.532   0.773   9.254 -0.3284 -0.0063  0.3391
  136TCq2    C3 2072   0.416   0.831   9.308 -0.0960  0.4919  0.1472
  136TCq2    C4 2073   0.384   0.800   9.440 -0.2401 -0.4237  0.0881
  136TCq2    C5 2074   0.459   0.717   9.513 -0.3867  0.2401  0.2151
  136TCq2    C6 2075   0.572   0.665   9.456  0.3700  0.3952 -0.7413
  136TCq2    C7 2076   0.611   0.692   9.325  0.5414  0.0791  0.1769
  136TCq2    C8 2077   0.644   0.557   9.529 -0.4897 -1.1124  0.2734
  136TCq2    O4 2078   0.734   0.496   9.471 -0.0715 -0.6476 -0.1676
  136TCq2    C9 2079   0.265   0.846   9.504  0.5814 -0.6192  0.0988
  136TCq2    O5 2080   0.245   0.801   9.620  0.1857  0.2387  0.3717
  136TCq2    O6 2081   0.195   0.924   9.443  0.0272  0.2901  0.0110
  136TCq2    H2 2082   0.347   0.892   9.251  0.9688 -0.6661 -2.3864
  136TCq2    H3 2083   0.436   0.687   9.615  1.1133 -0.4463  0.3431
  136TCq2    H4 2084   0.700   0.638   9.294  0.6310  0.1601  0.2873
  137MPD2     C 2085   4.586   4.492   9.206 -0.3437 -0.0024 -0.0177
  137MPD2    C1 2086   4.714   4.535   9.177  0.8352  0.2632 -0.9308
  137MPD2    C2 2087   0.102   4.474   9.246  0.1651 -0.1797 -0.5025
  137MPD2    C3 2088   0.080   4.386   9.349 -0.2795 -0.5922 -0.2789
  137MPD2    C4 2089   4.668   4.346   9.378 -0.9808 -0.3801  0.0821
  137MPD2    C5 2090   4.568   4.387   9.298 -0.2586  0.1793  0.4770
  137MPD2     H 2091   0.206   4.499   9.228  0.4503 -0.9970 -0.0215
  137MPD2    H1 2092   4.643   4.276   9.457  1.7761  1.2019  2.3678
  137MPD2    H2 2093   4.500   4.534   9.156 -1.4709 -1.0601  1.0299
  137MPD2    H3 2094   4.470   4.345   9.317  0.6196 -1.4964  1.2136
  137MPD2     N 2095   0.192   4.328   9.422  0.1473  0.4775  0.0189
  137MPD2    H5 2096   0.280   4.346   9.375  0.7783 -0.8526  0.7100
  137MPD2    N1 2097   0.011   4.632   9.076  0.0258  0.2651 -0.3853
  137MPD2    H7 2098   4.647   4.680   9.037 -1.4740 -0.2850  2.0745
  138TCq2    C1 2099   0.132   4.664   9.017  0.2101  0.5586 -0.1477
  138TCq2    O2 2100   0.244   4.618   9.022 -0.0529  1.1933  0.1543
  138TCq2    C2 2101   0.118   0.040   8.912  0.0311  0.7455 -0.3462
  138TCq2    C3 2102   0.232   0.065   8.837  0.4262 -0.6055  0.6117
  138TCq2    C4 2103   0.239   0.177   8.769 -0.0332  0.3561 -0.2687
  138TCq2    C5 2104   0.141   0.270   8.776 -0.6002 -0.5821  0.0889
  138TCq2    C6 2105   0.039   0.259   8.865 -0.2246  0.0031  0.2525
  138TCq2    C7 2106   0.024   0.143   8.938 -0.7410 -0.1734 -0.0004
  138TCq2    C8 2107   4.656   0.366   8.874  0.1282 -0.7036 -0.3172
  138TCq2    O4 2108   4.634   0.414   8.762 -0.6530 -0.0659  0.0723
  138TCq2    C9 2109   0.347   0.196   8.675 -0.5612  0.2833  0.6362
  138TCq2    O5 2110   0.345   0.305   8.610 -0.0971 -0.5224  0.4374
  138TCq2    O6 2111   0.424   0.104   8.644  0.4529  0.2893 -0.2347
  138TCq2    H2 2112   0.310   4.709   8.814 -0.2613 -1.1384 -0.0392
  138TCq2    H3 2113   0.147   0.355   8.709  1.4262 -0.5034  0.3768
  138TCq2    H4 2114   4.653   0.124   8.999  0.5489 -1.5212  1.4611
  139TMC2    C1 2115   0.630   3.012  12.939 -0.0367 -0.4889  0.0517
  139TMC2    C2 2116   0.622   3.074  12.816 -0.4669  0.3333 -0.1140
  139TMC2    C3 2117   0.541   3.183  12.819 -0.2139  0.7691 -0.4036
  139TMC2    C4 2118   0.570   3.050  13.054 -0.5754 -0.3890  0.7576
  139TMC2    C5 2119   0.484   3.155  13.049 -0.4696 -0.3557  0.1003
  139TMC2    C6 2120   0.467   3.218  12.932 -0.3425 -0.5014  0.2210
  139TMC2     C 2121   0.709   2.890  12.929  0.4085 -0.4749 -0.5443
  139TMC2     O 2122   0.718   2.843  12.815 -0.1661 -0.4516  0.1853
  139TMC2     H 2123   0.657   3.038  12.719  0.0406  0.0716  0.1630
  139TMC2    H1 2124   0.571   2.964  13.120 -0.8329 -0.1809  1.0313
  139TMC2    H2 2125   0.402   3.304  12.921 -0.0695 -0.5358 -1.6803
  139TMC2    C7 2126   0.401   3.185  13.164  0.0139 -0.1259 -0.1725
  139TMC2    C8 2127   0.592   3.297  12.749 -0.1060 -0.4547 -0.4278
  139TMC2    O1 2128   0.343   3.291  13.162  0.2691  0.1346  0.0619
  139TMC2    O2 2129   0.517   3.393  12.735 -0.5776 -0.2875  0.1105
  139TMC2    O5 2130   0.725   3.295  12.722  0.1715  0.1201  0.3974
  139TMC2    H5 2131   0.773   3.209  12.722  0.9664  0.5708  0.7815
  140MPD2     C 2132   0.918   2.754  13.202  0.5888  0.0525 -0.1148
  140MPD2    C1 2133   0.835   2.749  13.096 -0.7676  0.3107  0.1049
  140MPD2    C2 2134   0.784   2.630  13.060  0.0700 -0.3980  0.1067
  140MPD2    C3 2135   0.819   2.512  13.119 -0.1264  1.3074 -0.0170
  140MPD2    C4 2136   0.899   2.515  13.226  0.1090 -0.1369 -0.5492
  140MPD2    C5 2137   0.940   2.636  13.271 -0.4832  0.1729  0.4751
  140MPD2     H 2138   0.718   2.624  12.974 -0.4416 -0.3639  0.4956
  140MPD2    H1 2139   0.932   2.428  13.281 -0.7921 -0.4295 -0.4653
  140MPD2    H2 2140   0.962   2.843  13.246 -0.4180  0.3521  0.2861
  140MPD2    H3 2141   1.016   2.639  13.348 -1.0578 -0.0821  1.0623
  140MPD2     N 2142   0.728   2.408  13.090 -0.0903 -0.5432  0.1271
  140MPD2    H5 2143   0.656   2.433  13.024  0.5290 -3.5194 -1.7119
  140MPD2    N1 2144   0.787   2.876  13.040 -0.3049  0.0282  0.1729
  140MPD2    H7 2145   0.785   2.957  13.101 -4.0219  1.0260 -1.3076
  141TCq2    C1 2146   1.472   4.044  14.050 -0.5117  1.0368 -0.0765
  141TCq2    O2 2147   1.404   4.133  13.999  0.8914  0.2361  0.1429
  141TCq2    C2 2148   1.488   4.039  14.197  0.9104 -0.3688 -0.7056
  141TCq2    C3 2149   1.552   3.930  14.258 -0.6833  0.3407 -0.5176
  141TCq2    C4 2150   1.621   3.958  14.373 -0.1708 -0.7851 -0.8195
  141TCq2    C5 2151   1.601   4.077  14.438  0.5683 -0.0463 -0.6049
  141TCq2    C6 2152   1.520   4.177  14.384 -0.2932  0.4084 -0.0178
  141TCq2    C7 2153   1.465   4.163  14.260 -0.2726  0.6051  0.4095
  141TCq2    C8 2154   1.535   4.318  14.435 -0.3307  0.4588  0.0726
  141TCq2    O4 2155   1.628   4.348  14.509 -0.2970  0.2405  0.0576
  141TCq2    C9 2156   1.707   3.858  14.427 -0.0863 -0.0346 -0.2545
  141TCq2    O5 2157   1.778   3.886  14.527  0.3274 -0.6214 -0.4732
  141TCq2    O6 2158   1.720   3.751  14.359 -0.3252 -0.4320 -0.1789
  141TCq2    H2 2159   1.581   3.842  14.202  1.4437  0.2828  0.6296
  141TCq2    H3 2160   1.649   4.098  14.533  1.2239  0.2090 -0.9967
  141TCq2    H4 2161   1.419   4.242  14.203 -2.6740 -2.7211 -2.2978
  142MPD2     C 2162   3.239   1.957   9.353 -0.3734  0.2405  0.2071
  142MPD2    C1 2163   3.322   1.983   9.462  0.2660 -0.0241  0.3376
  142MPD2    C2 2164   3.390   2.103   9.462  0.0381 -1.4445 -0.2743
  142MPD2    C3 2165   3.378   2.194   9.356 -0.6794  0.3577  0.2159
  142MPD2    C4 2166   3.287   2.173   9.252 -0.3165  0.2031 -0.4304
  142MPD2    C5 2167   3.214   2.056   9.263 -0.2560 -0.1781 -0.3517
  142MPD2     H 2168   3.459   2.118   9.544  0.4639  0.7840 -1.0467
  142MPD2    H1 2169   3.272   2.236   9.165 -2.0613  0.7227  0.2520
  142MPD2    H2 2170   3.169   1.873   9.351  0.1086 -0.2111  2.2923
  142MPD2    H3 2171   3.150   2.043   9.176  0.1691  2.0393 -0.9935
  142MPD2     N 2172   3.458   2.311   9.357  0.1549  0.1078  0.0847
  142MPD2    H5 2173   3.466   2.372   9.276  0.7355  0.0600  0.1027
  142MPD2    N1 2174   3.327   1.885   9.570 -0.1469  0.3147  0.0581
  142MPD2    H7 2175   3.249   1.820   9.568 -2.2181  2.7829  1.4956
  143TCq2    C1 2176   3.524   2.368   9.465  0.4963  0.2736 -0.1930
  143TCq2    O2 2177   3.525   2.330   9.578 -0.1567 -0.9854 -0.2069
  143TCq2    C2 2178   3.596   2.489   9.436  0.4634 -0.3531  0.5941
  143TCq2    C3 2179   3.697   2.520   9.524  0.4250 -0.2891  0.5137
  143TCq2    C4 2180   3.794   2.609   9.479 -0.5760 -0.2218  0.1310
  143TCq2    C5 2181   3.794   2.669   9.359 -0.2928 -0.2796 -0.1081
  143TCq2    C6 2182   3.693   2.634   9.270 -0.6595 -0.2325  0.3124
  143TCq2    C7 2183   3.602   2.538   9.300  0.4355 -0.0489  0.3849
  143TCq2    C8 2184   3.689   2.695   9.140  0.5694 -0.4542  0.4223
  143TCq2    O4 2185   3.790   2.753   9.108 -0.3769  0.2826 -0.7480
  143TCq2    C9 2186   3.900   2.643   9.574  0.9243  0.6678 -0.4547
  143TCq2    O5 2187   3.917   2.575   9.682 -0.0304 -0.3288 -0.0277
  143TCq2    O6 2188   3.974   2.744   9.541  0.1157 -0.6593 -0.4328
  143TCq2    H2 2189   3.696   2.492   9.629 -2.2113  1.1116  0.8695
  143TCq2    H3 2190   3.883   2.723   9.328  0.5835 -0.2295  2.4643
  143TCq2    H4 2191   3.525   2.509   9.230  0.6666  1.2575 -0.4112
  144MPD2     C 2192   1.695   1.439   0.655  0.8396 -0.3675 -0.1144
  144MPD2    C1 2193   1.779   1.375   0.560 -0.7526  0.1986  0.4931
  144MPD2    C2 2194   1.899   1.319   0.610  0.2263  0.2626 -0.5989
  144MPD2    C3 2195   1.935   1.317   0.745  0.2568  0.0509 -0.0608
  144MPD2    C4 2196   1.845   1.384   0.835  0.1776 -0.1945  0.0085
  144MPD2    C5 2197   1.732   1.450   0.790 -0.3421  0.0155  0.8416
  144MPD2     H 2198   1.962   1.267   0.539  0.2619  0.2316 -0.5441
  144MPD2    H1 2199   1.878   1.406   0.936 -1.6098  1.4707  0.2460
  144MPD2    H2 2200   1.607   1.486   0.614 -0.4617 -1.5890  1.2737
  144MPD2    H3 2201   1.664   1.481   0.869  0.4906  1.3326  1.0480
  144MPD2     N 2202   2.054   1.267   0.794  0.2951 -0.2317  0.1903
  144MPD2    H5 2203   2.074   1.291   0.891  1.5664  1.5010 -0.5039
  144MPD2    N1 2204   1.756   1.366   0.421  0.4463 -0.0278  0.4321
  144MPD2    H7 2205   1.829   1.323   0.366  0.5473  0.3727  0.2496
  145TCq2    C1 2206   2.143   1.178   0.720  0.2775 -0.1919 -0.0874
  145TCq2    O2 2207   2.137   1.130   0.604 -0.0714  0.0952  0.6450
  145TCq2    C2 2208   2.241   1.098   0.798 -0.3161 -0.4712 -0.8960
  145TCq2    C3 2209   2.271   0.974   0.741  0.6579 -0.6966  0.2014
  145TCq2    C4 2210   2.353   0.899   0.815  0.7610  0.7610 -0.2832
  145TCq2    C5 2211   2.409   0.936   0.937 -0.4940 -0.9104 -0.1502
  145TCq2    C6 2212   2.378   1.067   0.977  0.4096  0.4022  0.5626
  145TCq2    C7 2213   2.293   1.149   0.917  0.2841  0.2063 -0.0863
  145TCq2    C8 2214   2.428   1.101   1.109  0.6490  0.5450 -0.9407
  145TCq2    O4 2215   2.532   1.045   1.140  0.1442  0.0412  0.3520
  145TCq2    C9 2216   2.394   0.766   0.761  0.5246 -0.5454  0.3504
  145TCq2    O5 2217   2.465   0.691   0.831  0.1764  0.1994 -0.3435
  145TCq2    O6 2218   2.364   0.748   0.638  0.0573  0.0258 -0.5542
  145TCq2    H2 2219   2.253   0.937   0.640 -2.0078  2.0331 -0.3378
  145TCq2    H3 2220   2.472   0.867   0.992  0.4099 -1.4419 -1.8425
  145TCq2    H4 2221   2.263   1.249   0.945 -1.3140  0.2149 -1.7848
  146TMC2    C1 2222   3.246   0.752  11.957 -0.2704  0.3867  0.2527
  146TMC2    C2 2223   3.148   0.769  11.867  0.0143 -0.3190 -0.0323
  146TMC2    C3 2224   3.150   0.702  11.748  0.0772  0.0030 -0.4371
  146TMC2    C4 2225   3.351   0.666  11.932  0.6835  1.0646  0.0619
  146TMC2    C5 2226   3.345   0.599  11.819 -0.0986 -0.0062  0.2848
  146TMC2    C6 2227   3.253   0.614  11.723 -0.8248 -0.2149  0.5191
  146TMC2     C 2228   3.266   0.847  12.063 -0.3201  0.5423 -0.2519
  146TMC2     O 2229   3.208   0.956  12.064  0.9293  0.1072 -0.7051
  146TMC2     H 2230   3.071   0.845  11.878  0.7551  0.3671  0.3880
  146TMC2    H1 2231   3.427   0.660  12.010  0.5254  1.5969  0.2617
  146TMC2    H2 2232   3.256   0.567  11.625 -2.8086 -0.5979  0.6263
  146TMC2    C7 2233   3.456   0.512  11.784 -0.1422  0.2995 -0.5351
  146TMC2    C8 2234   3.025   0.696  11.671 -0.8143 -0.3823  0.4302
  146TMC2    O1 2235   3.479   0.502  11.665  0.0108 -0.2485  0.2799
  146TMC2    O2 2236   2.990   0.597  11.610 -0.2204 -0.5661 -0.0612
  146TMC2    O5 2237   2.980   0.827  11.653 -0.1391 -0.4679 -0.4459
  146TMC2    H5 2238   3.054   0.890  11.669 -0.5036 -0.1347 -0.0724
  147MPD2     C 2239   3.887   0.260  11.916 -0.2480 -0.3685  0.1408
  147MPD2    C1 2240   3.815   0.291  12.034  0.1296 -0.0835 -0.7493
  147MPD2    C2 2241   3.691   0.354  12.022 -0.9461  0.0758 -0.1888
  147MPD2    C3 2242   3.631   0.382  11.898 -0.0812 -0.6471  0.1784
  147MPD2    C4 2243   3.702   0.347  11.782  0.1952 -0.0857 -0.2236
  147MPD2    C5 2244   3.825   0.287  11.795 -0.6096 -0.1675  0.0980
  147MPD2     H 2245   3.645   0.394  12.112 -0.6740  0.5209 -0.2501
  147MPD2    H1 2246   3.681   0.387  11.683  2.1875  2.0992  0.2167
  147MPD2    H2 2247   3.983   0.212  11.912  0.8638  1.7832  0.8985
  147MPD2    H3 2248   3.886   0.275  11.706 -1.0533 -1.3451 -0.0430
  147MPD2     N 2249   3.510   0.455  11.901  0.5623  0.0410  0.2032
  147MPD2    H5 2250   3.485   0.477  11.997 -0.7968  1.7726 -0.5459
  147MPD2    N1 2251   3.877   0.267  12.157  0.1634  0.3019  0.1428
  147MPD2    H7 2252   3.968   0.223  12.148 -0.4007 -0.9058  0.4472
  148MPD2     C 2253   3.001   4.498  10.389 -0.3823  0.3296  0.4006
  148MPD2    C1 2254   3.034   4.367  10.413  0.9789 -0.0576  0.5066
  148MPD2    C2 2255   2.951   4.266  10.375 -0.9392  0.2873 -0.3977
  148MPD2    C3 2256   2.848   4.289  10.291  0.3372 -0.2445 -0.4908
  148MPD2    C4 2257   2.819   4.417  10.251  0.0863 -0.2122 -0.4581
  148MPD2    C5 2258   2.890   4.520  10.310 -0.3735 -0.6793  1.1020
  148MPD2     H 2259   2.975   4.164  10.401  0.2568  0.8638  0.7978
  148MPD2    H1 2260   2.736   4.447  10.188 -0.0305  0.8195  0.1818
  148MPD2    H2 2261   3.059   4.583  10.422 -2.0501  1.5029  0.2710
  148MPD2    H3 2262   2.868   4.621  10.277  1.2144 -0.8268 -0.4055
  148MPD2     N 2263   2.768   4.182  10.259 -0.5025 -0.2678 -0.3605
  148MPD2    H5 2264   2.780   4.091  10.303 -1.5904  0.7283  1.9922
  148MPD2    N1 2265   3.144   4.334  10.487 -0.1591 -0.4908  0.1586
  148MPD2    H7 2266   3.166   4.235  10.489  1.0431 -0.2441 -1.7578
  149TCq2    C1 2267   3.243   4.421  10.525 -0.3556 -0.9368  0.5097
  149TCq2    O2 2268   3.251   4.543  10.520  0.3147  0.1541  0.1389
  149TCq2    C2 2269   3.356   4.358  10.591  0.3246 -0.2000  0.0178
  149TCq2    C3 2270   3.457   4.446  10.622 -0.4975  0.7311 -0.5192
  149TCq2    C4 2271   3.550   4.411  10.722  0.5401 -0.3791  0.3478
  149TCq2    C5 2272   3.546   4.280  10.765 -0.2466  0.2222  0.4785
  149TCq2    C6 2273   3.440   4.199  10.739 -0.2651 -0.5931 -0.5138
  149TCq2    C7 2274   3.339   4.240  10.658  0.7900 -0.2387 -0.0714
  149TCq2    C8 2275   3.443   4.055  10.779  0.1614  0.7908  0.5957
  149TCq2    O4 2276   3.355   3.976  10.738 -0.0746  0.0036  0.6113
  149TCq2    C9 2277   3.679   4.465  10.726 -0.3856  0.2513  0.8573
  149TCq2    O5 2278   3.717   4.532  10.624 -0.0578  0.0101  0.7583
  149TCq2    O6 2279   3.764   4.421  10.813  0.5941 -0.4317  0.0962
  149TCq2    H2 2280   3.467   4.541  10.570  0.0020  1.2041  0.4346
  149TCq2    H3 2281   3.630   4.242  10.823 -0.7870 -0.0040  1.1061
  149TCq2    H4 2282   3.258   4.174  10.628  0.0096  0.8208 -0.3190
  150MPD2     C 2283   4.622   3.377  11.774  0.5344 -0.5737  0.3795
  150MPD2    C1 2284   4.685   3.255  11.743  0.1849 -0.0058 -0.1957
  150MPD2    C2 2285   0.099   3.241  11.794 -0.1508  0.0304 -0.2709
  150MPD2    C3 2286   0.163   3.332  11.874 -0.1695 -0.4796  0.3575
  150MPD2    C4 2287   0.092   3.447  11.912  0.3347 -0.3749  0.5272
  150MPD2    C5 2288   4.678   3.464  11.864  0.3706 -0.4523 -0.1478
  150MPD2     H 2289   0.158   3.153  11.769 -0.1110  0.5069 -1.8639
  150MPD2    H1 2290   0.137   3.530  11.965 -1.2424  0.5888  0.3513
  150MPD2    H2 2291   4.528   3.404  11.727  0.9503  1.0044  0.4696
  150MPD2    H3 2292   4.627   3.554  11.895  1.5304  0.1362  0.0571
  150MPD2     N 2293   0.294   3.302  11.915 -0.6600  0.3531 -0.6272
  150MPD2    H5 2294   0.343   3.220  11.881 -0.0701  0.5705 -0.3068
  150MPD2    N1 2295   4.624   3.151  11.675 -0.1883  0.7318 -0.0668
  150MPD2    H7 2296   4.676   3.064  11.677  0.6253  1.2008 -1.4804
  151TCq2    C1 2297   0.373   3.397  11.985  0.2024 -0.3377 -0.1621
  151TCq2    O2 2298   0.356   3.511  12.024 -0.1498 -0.3779 -0.5554
  151TCq2    C2 2299   0.505   3.337  12.012  0.0564  0.5299 -0.8940
  151TCq2    C3 2300   0.535   3.203  12.008  0.2879 -0.2738 -1.1406
  151TCq2    C4 2301   0.664   3.159  12.036  0.2310 -0.5451 -0.0340
  151TCq2    C5 2302   0.770   3.241  12.065 -0.1660 -0.4462 -0.1786
  151TCq2    C6 2303   0.729   3.370  12.057  0.1093 -0.4445 -0.3189
  151TCq2    C7 2304   0.603   3.423  12.027 -0.6179 -0.2089 -0.1565
  151TCq2    C8 2305   0.826   3.469  12.107 -0.6748  0.5919  0.4807
  151TCq2    O4 2306   0.817   3.585  12.075  0.3577 -0.4904 -0.3230
  151TCq2    C9 2307   0.698   3.018  12.013 -0.2034  0.3685  0.5393
  151TCq2    O5 2308   0.610   2.930  11.988 -0.0676  0.4804  0.2168
  151TCq2    O6 2309   0.818   2.987  12.034  0.6681  0.3451 -0.1422
  151TCq2    H2 2310   0.462   3.122  12.011 -1.1045  0.9402 -1.9489
  151TCq2    H3 2311   0.864   3.193  12.089  0.9691  0.5453 -2.6229
  151TCq2    H4 2312   0.594   3.531  12.032  0.1309 -0.0956 -1.3735
  152MPD2     C 2313   0.118   2.990  12.051 -0.0477 -0.4564  0.7079
  152MPD2    C1 2314   0.117   3.097  12.138 -0.5395 -0.2308 -0.3096
  152MPD2    C2 2315   4.711   3.160  12.153 -0.3885 -0.5265  0.4511
  152MPD2    C3 2316   4.599   3.122  12.070 -0.2645 -0.0422  0.1507
  152MPD2    C4 2317   4.613   3.008  11.991  0.2725  0.8350  0.3075
  152MPD2    C5 2318   0.009   2.941  11.982 -0.3277 -0.3266 -0.8587
  152MPD2     H 2319   4.707   3.248  12.217  0.2256  0.0341 -0.2712
  152MPD2    H1 2320   4.539   2.962  11.927  1.0723 -1.4207  0.9948
  152MPD2    H2 2321   0.209   2.939  12.021  1.3901  0.4155  3.7161
  152MPD2    H3 2322   0.013   2.854  11.917 -0.8711 -1.5584  0.7489
  152MPD2     N 2323   4.477   3.190  12.081 -0.7146  0.4702  0.7633
  152MPD2    H5 2324   4.477   3.256  12.158  2.7825  0.5111  0.7585
  152MPD2    N1 2325   0.233   3.130  12.210 -0.6890 -0.4017  0.4159
  152MPD2    H7 2326   0.311   3.073  12.181 -1.7858 -1.0923 -1.2242
  153TCq2    C1 2327   0.252   3.235  12.295  0.3594 -0.2774 -0.1467
  153TCq2    O2 2328   0.175   3.329  12.311 -0.2977  0.1586 -0.4826
  153TCq2    C2 2329   0.382   3.235  12.357  0.2223 -0.6949  0.1214
  153TCq2    C3 2330   0.455   3.125  12.371  0.2237  0.0905  0.3975
  153TCq2    C4 2331   0.590   3.133  12.400  0.2007 -0.5955 -1.0761
  153TCq2    C5 2332   0.647   3.254  12.414  0.1778  0.9280 -0.2213
  153TCq2    C6 2333   0.564   3.360  12.409 -0.2199 -1.1168 -0.2438
  153TCq2    C7 2334   0.435   3.360  12.383 -0.1232  0.3826 -0.0399
  153TCq2    C8 2335   0.623   3.485  12.397 -0.6462  0.7143  0.2603
  153TCq2    O4 2336   0.578   3.571  12.323 -0.2057 -0.1573  0.0481
  153TCq2    C9 2337   0.671   3.006  12.395 -0.5097  1.0377  0.2494
  153TCq2    O5 2338   0.604   2.907  12.368 -0.4196 -0.4905  0.6285
  153TCq2    O6 2339   0.795   3.015  12.388  0.4300  0.3304  0.1499
  153TCq2    H2 2340   0.410   3.027  12.374  1.1085 -0.3609 -0.9724
  153TCq2    H3 2341   0.755   3.263  12.422  0.2428 -0.5258  0.5218
  153TCq2    H4 2342   0.372   3.447  12.375  0.7447  1.0483  0.2972
  154MPD2     C 2343   2.648   2.723   0.625 -0.4138  0.0680  0.1151
  154MPD2    C1 2344   2.677   2.847   0.668 -0.4526  0.0832 -0.2330
  154MPD2    C2 2345   2.644   2.891   0.800 -0.3184  0.6059 -0.5273
  154MPD2    C3 2346   2.598   2.803   0.890  0.0582  0.0555 -0.9024
  154MPD2    C4 2347   2.567   2.671   0.849  0.4231  0.7731  0.1657
  154MPD2    C5 2348   2.583   2.639   0.716  0.4916  0.4378  0.5683
  154MPD2     H 2349   2.675   2.988   0.838  1.2364  0.7796 -2.2154
  154MPD2    H1 2350   2.527   2.596   0.916  1.6217 -2.8565 -3.2227
  154MPD2    H2 2351   2.658   2.689   0.522 -2.2816 -0.2954  0.0493
  154MPD2    H3 2352   2.550   2.542   0.682  1.2571  0.6564 -0.8358
  154MPD2     N 2353   2.579   2.851   1.020  0.7030  0.0433 -0.6934
  154MPD2    H5 2354   2.617   2.945   1.032  3.2844 -1.1312  0.4674
  154MPD2    N1 2355   2.742   2.925   0.577  0.0880 -0.3080  0.7505
  154MPD2    H7 2356   2.778   2.878   0.495 -0.5653 -0.6146  0.6396
  155TCq2    C1 2357   2.782   3.057   0.586  0.1519 -0.5197  0.3177
  155TCq2    O2 2358   2.749   3.134   0.675 -0.5648 -0.4708  0.0681
  155TCq2    C2 2359   2.885   3.108   0.487  0.8282  0.0845 -0.4707
  155TCq2    C3 2360   2.950   3.222   0.517 -0.6448 -0.6597  0.2618
  155TCq2    C4 2361   3.045   3.274   0.435  0.4231 -0.1987  0.1063
  155TCq2    C5 2362   3.084   3.212   0.324  0.1949  0.3475 -0.0872
  155TCq2    C6 2363   3.026   3.092   0.294  0.3262  0.5539  0.2534
  155TCq2    C7 2364   2.924   3.043   0.374 -0.2076 -0.9148  0.1255
  155TCq2    C8 2365   3.032   3.038   0.162 -0.2735 -0.1080  0.3928
  155TCq2    O4 2366   3.035   2.917   0.151 -0.0713 -0.1530 -0.0487
  155TCq2    C9 2367   3.125   3.391   0.473  0.1327 -0.7951  0.3562
  155TCq2    O5 2368   3.112   3.430   0.589  0.0756  0.5503  0.2711
  155TCq2    O6 2369   3.191   3.452   0.384 -0.2318  0.1330 -0.0721
  155TCq2    H2 2370   2.933   3.282   0.605  2.8334  1.9386 -0.8241
  155TCq2    H3 2371   3.173   3.248   0.273 -0.2900  1.2910 -0.2517
  155TCq2    H4 2372   2.874   2.961   0.324 -0.1767 -2.3981  2.4748
  156MPD2     C 2373   1.207   0.335  11.916  0.4485 -0.2192  0.1048
  156MPD2    C1 2374   1.164   0.415  11.811 -0.1777  1.1069 -0.0357
  156MPD2    C2 2375   1.177   0.554  11.827 -0.5297 -0.0470  0.0911
  156MPD2    C3 2376   1.204   0.619  11.946  0.0090  0.1472 -0.1255
  156MPD2    C4 2377   1.236   0.538  12.050  0.8485  0.0183  0.1093
  156MPD2    C5 2378   1.236   0.403  12.031  0.0428  0.3364 -0.0069
  156MPD2     H 2379   1.149   0.621  11.746 -1.6877 -0.5017  0.1100
  156MPD2    H1 2380   1.272   0.564  12.149 -1.8019 -0.5488  1.2208
  156MPD2    H2 2381   1.219   0.227  11.908  0.5528 -0.0402 -2.3364
  156MPD2    H3 2382   1.265   0.351  12.122 -2.4304 -2.2197 -0.6772
  156MPD2     N 2383   1.210   0.763  11.951 -0.0709  0.6449  0.0359
  156MPD2    H5 2384   1.188   0.818  11.869  1.1949 -0.2903 -0.9411
  156MPD2    N1 2385   1.116   0.365  11.692 -0.2284  0.0021  0.0019
  156MPD2    H7 2386   1.106   0.264  11.693  1.2269 -0.1521 -0.6005
  157TCq2    C1 2387   1.084   0.438  11.579  0.0033  0.1589 -0.5596
  157TCq2    O2 2388   1.098   0.556  11.548 -0.0739 -0.1421 -0.1308
  157TCq2    C2 2389   1.019   0.356  11.479 -0.7906  0.5637 -0.0471
  157TCq2    C3 2390   1.028   0.220  11.477 -0.4537  0.5167 -0.2980
  157TCq2    C4 2391   0.993   0.153  11.357  0.1675  0.0909  0.1173
  157TCq2    C5 2392   0.953   0.213  11.246 -0.4351  0.4507 -0.1776
  157TCq2    C6 2393   0.933   0.350  11.257  0.7247  0.3315 -0.1492
  157TCq2    C7 2394   0.962   0.419  11.375  0.2827  1.0083 -0.3039
  157TCq2    C8 2395   0.896   0.425  11.146 -0.0706 -0.3048 -0.0065
  157TCq2    O4 2396   0.891   0.547  11.155 -0.0800 -0.4906  0.3842
  157TCq2    C9 2397   1.009   0.011  11.354  0.2084 -0.1879 -0.3980
  157TCq2    O5 2398   1.020   4.668  11.464 -0.1653  0.3524 -0.1579
  157TCq2    O6 2399   0.991   4.667  11.249 -0.5912 -0.7470  0.0022
  157TCq2    H2 2400   1.065   0.156  11.556 -0.6497  2.2987  1.2407
  157TCq2    H3 2401   0.927   0.152  11.160  1.7653  0.3902 -0.8026
  157TCq2    H4 2402   0.945   0.526  11.370  0.7077  1.0725 -0.4272
  158TMC2    C1 2403   0.471   4.376  13.267 -0.4528 -0.3197 -0.2327
  158TMC2    C2 2404   0.481   4.503  13.200  0.4358 -0.4756  0.1652
  158TMC2    C3 2405   0.371   4.549  13.142 -0.0800 -0.0814  0.7583
  158TMC2    C4 2406   0.357   4.300  13.264  0.0491 -0.4840 -0.5506
  158TMC2    C5 2407   0.250   4.359  13.204  1.1188  0.5285  0.7548
  158TMC2    C6 2408   0.256   4.480  13.136 -0.3893 -0.8624 -0.0522
  158TMC2     C 2409   0.595   4.334  13.325  0.1391 -0.5425 -0.3486
  158TMC2     O 2410   0.697   4.402  13.302 -0.3824 -0.2694 -0.0204
  158TMC2     H 2411   0.565   4.570  13.191  0.8791 -0.7747  2.0259
  158TMC2    H1 2412   0.351   4.198  13.302 -1.3718 -0.3807 -0.5022
  158TMC2    H2 2413   0.173   4.518  13.079  0.4660  0.8452 -0.1482
  158TMC2    C7 2414   0.113   4.317  13.239 -0.6844 -0.3437  0.1265
  158TMC2    C8 2415   0.378   4.677  13.077  0.4558  0.1560 -0.9027
  158TMC2    O1 2416   0.026   4.369  13.173 -0.4964 -0.3803  0.2107
  158TMC2    O2 2417   0.490   4.716  13.045  0.1933 -0.4965  0.3104
  158TMC2    O5 2418   0.261   0.023  13.060  0.3951  0.2311 -0.2797
  158TMC2    H5 2419   0.191   0.000  13.126  2.9494  0.7101  2.6112
  159MPD2     C 2420   0.912   3.944  13.424 -0.4656  0.1584 -0.0589
  159MPD2    C1 2421   0.792   3.918  13.485 -0.6631  0.2908  0.2809
  159MPD2    C2 2422   0.687   4.017  13.488  0.2861  0.8086 -0.0882
  159MPD2    C3 2423   0.705   4.129  13.409 -0.0686  0.3459 -0.0400
  159MPD2    C4 2424   0.826   4.151  13.336  0.2992 -0.1966  0.7402
  159MPD2    C5 2425   0.926   4.057  13.342 -0.1728 -0.3773 -0.1472
  159MPD2     H 2426   0.593   4.001  13.541  1.5366  1.8932  2.4451
  159MPD2    H1 2427   0.837   4.235  13.268  2.2727 -1.7089 -0.8050
  159MPD2    H2 2428   0.994   3.875  13.416 -0.4679  0.1075  0.3373
  159MPD2    H3 2429   1.019   4.076  13.290 -1.7571  1.7272 -2.1850
  159MPD2     N 2430   0.596   4.213  13.391  0.1366 -0.1752 -0.2431
  159MPD2    H5 2431   0.504   4.178  13.417 -0.2270  1.7612  1.1176
  159MPD2    N1 2432   0.790   3.792  13.543  0.3409 -0.2545 -0.1586
  159MPD2    H7 2433   0.872   3.733  13.552 -0.3452 -1.4872 -2.1044
  160TMC2    C1 2434   0.686   2.008   1.687 -0.2111 -0.3995 -0.3095
  160TMC2    C2 2435   0.790   1.961   1.762 -0.3380 -0.5564  0.0925
  160TMC2    C3 2436   0.915   1.958   1.709  0.0113 -0.3662  0.1050
  160TMC2    C4 2437   0.708   2.061   1.567  0.0324 -0.0774 -0.5059
  160TMC2    C5 2438   0.837   2.072   1.517 -0.0544  0.3710 -0.4455
  160TMC2    C6 2439   0.939   2.012   1.587  0.3016  0.1770 -0.4682
  160TMC2     C 2440   0.556   2.021   1.755 -0.0762 -0.1461  0.1399
  160TMC2     O 2441   0.555   2.024   1.875  0.2694 -0.4902  0.1544
  160TMC2     H 2442   0.778   1.921   1.862  0.4528 -0.4553  0.2299
  160TMC2    H1 2443   0.630   2.123   1.523 -0.3348 -0.1849 -0.0070
  160TMC2    H2 2444   1.038   1.994   1.545  0.1131 -0.5441 -0.6148
  160TMC2    C7 2445   0.854   2.090   1.373 -0.2749 -0.1099  0.2320
  160TMC2    C8 2446   1.021   1.879   1.768  0.2736  0.5783  0.2248
  160TMC2    O1 2447   0.754   2.094   1.302  0.6791 -0.2667 -0.2444
  160TMC2    O2 2448   1.133   1.908   1.732  0.1432 -0.4421 -0.0121
  160TMC2    O5 2449   0.983   1.779   1.839  0.0050  0.1890 -0.0319
  160TMC2    H5 2450   0.892   1.750   1.815 -0.3525  3.1670 -2.2724
  161MPD2     C 2451   0.267   2.014   1.833 -0.5283 -0.6077  0.6102
  161MPD2    C1 2452   0.316   2.028   1.703 -0.0665 -0.1071 -0.1851
  161MPD2    C2 2453   0.220   2.044   1.603  0.1029 -0.8090 -0.1579
  161MPD2    C3 2454   0.092   2.052   1.627  0.2159  0.0220  0.1797
  161MPD2    C4 2455   0.047   2.042   1.752  0.3052  1.0968 -0.6559
  161MPD2    C5 2456   0.137   2.025   1.856 -0.2634  0.6112  0.0926
  161MPD2     H 2457   0.264   2.048   1.504 -0.1364  1.2199 -0.1745
  161MPD2    H1 2458   4.658   2.058   1.772  0.1175 -0.9281 -0.0455
  161MPD2    H2 2459   0.322   1.997   1.925  1.6947  2.8350 -0.0853
  161MPD2    H3 2460   0.104   2.000   1.957 -2.0277 -0.8170 -0.8489
  161MPD2     N 2461   4.706   2.073   1.534  0.0241 -0.5467 -0.9086
  161MPD2    H5 2462   4.625   2.117   1.578 -0.2774 -1.2842 -0.7233
  161MPD2    N1 2463   0.453   2.023   1.670  0.0140  0.4540 -0.4727
  161MPD2    H7 2464   0.475   2.033   1.571 -1.3350  1.6759 -0.6419
  162TMC2    C1 2465   3.256   4.052   1.015 -0.2431  0.1135 -0.8829
  162TMC2    C2 2466   3.157   4.123   0.952 -0.1702  0.2437  0.3071
  162TMC2    C3 2467   3.099   4.219   1.027 -0.3442 -0.8549  0.6138
  162TMC2    C4 2468   3.278   4.062   1.151 -0.1628  0.2911 -0.3039
  162TMC2    C5 2469   3.197   4.142   1.217  0.1704  0.6142 -0.0671
  162TMC2    C6 2470   3.107   4.227   1.158 -0.0960  0.2423  0.4793
  162TMC2     C 2471   3.343   3.966   0.947 -0.1541 -0.4911  0.2532
  162TMC2     O 2472   3.368   3.999   0.835 -0.5920  0.5109 -0.8244
  162TMC2     H 2473   3.149   4.106   0.845 -1.8875 -0.5979  0.5707
  162TMC2    H1 2474   3.360   4.007   1.195 -0.3296  0.7468  0.5864
  162TMC2    H2 2475   3.039   4.284   1.221 -1.1873 -0.3901 -0.1157
  162TMC2    C7 2476   3.193   4.121   1.356  0.4037 -0.8496  0.4056
  162TMC2    C8 2477   2.970   4.270   0.981  0.2023 -0.6884 -0.0902
  162TMC2    O1 2478   3.294   4.066   1.404 -0.2793  0.7364 -0.1729
  162TMC2    O2 2479   2.925   4.382   1.010 -0.1518 -0.4206 -0.1825
  162TMC2    O5 2480   2.896   4.161   0.974  0.3102 -0.0995  0.1438
  162TMC2    H5 2481   2.951   4.084   0.997  0.2624 -0.3777 -0.6585
  163MPD2     C 2482   3.647   3.557   0.928 -0.1532 -0.0923  0.9361
  163MPD2    C1 2483   3.620   3.652   0.830 -0.2790 -0.4735  0.3301
  163MPD2    C2 2484   3.534   3.754   0.855 -0.5836  0.0748  1.0169
  163MPD2    C3 2485   3.472   3.761   0.981  0.0849  0.5372  0.3807
  163MPD2    C4 2486   3.493   3.657   1.072  0.7874  0.9338  0.0153
  163MPD2    C5 2487   3.583   3.565   1.047  0.4366 -0.4508  0.4728
  163MPD2     H 2488   3.512   3.833   0.784  0.5262 -0.1053  0.4803
  163MPD2    H1 2489   3.456   3.676   1.173 -0.0550 -1.8247  0.2241
  163MPD2    H2 2490   3.713   3.472   0.917  1.2296  0.7648  2.4414
  163MPD2    H3 2491   3.600   3.482   1.115  0.7127  0.5332  1.6247
  163MPD2     N 2492   3.373   3.857   1.015 -0.4078  0.9707 -0.3948
  163MPD2    H5 2493   3.317   3.828   1.094  0.0306  0.2593 -0.3381
  163MPD2    N1 2494   3.672   3.636   0.701  0.0517 -0.5116  0.2622
  163MPD2    H7 2495   3.742   3.562   0.699 -0.1313 -0.6432 -1.5381
  164TCq2    C1 2496   3.654   4.010  11.601  0.3401  0.3880 -0.2826
  164TCq2    O2 2497   3.715   3.967  11.694  0.0430 -0.1940 -0.6432
  164TCq2    C2 2498   3.671   4.152  11.568  0.1075  0.2818 -0.0644
  164TCq2    C3 2499   3.779   4.161  11.491  0.3368  0.5977  0.6914
  164TCq2    C4 2500   3.781   4.262  11.397 -0.2716 -0.6496  0.0123
  164TCq2    C5 2501   3.684   4.357  11.393  0.2691  0.4589 -0.3107
  164TCq2    C6 2502   3.572   4.342  11.472  0.7819  0.4860 -0.2134
  164TCq2    C7 2503   3.558   4.223  11.543  0.1943  0.7528 -0.1021
  164TCq2    C8 2504   3.458   4.437  11.462 -0.0911 -0.6449 -0.7385
  164TCq2    O4 2505   3.455   4.530  11.382 -0.2442 -0.0121 -0.0771
  164TCq2    C9 2506   3.899   4.271  11.315 -0.5307  0.2791  0.4552
  164TCq2    O5 2507   3.888   4.338  11.209  0.0456  0.1207 -0.7449
  164TCq2    O6 2508   4.010   4.227  11.357  0.9542 -0.3474 -0.2180
  164TCq2    H2 2509   3.857   4.085  11.487  1.6007  2.0252 -1.9505
  164TCq2    H3 2510   3.706   4.443  11.332 -1.6688  1.6671  0.6780
  164TCq2    H4 2511   3.462   4.191  11.582  0.8486  0.3634  1.1959
  165MPD2     C 2512   0.710   0.425   1.773  0.0254  0.1250  0.7560
  165MPD2    C1 2513   0.692   0.408   1.636 -0.0566  0.7184 -0.3398
  165MPD2    C2 2514   0.637   0.508   1.562 -0.2578 -0.4453  0.6041
  165MPD2    C3 2515   0.599   0.627   1.629 -0.0657  0.5068  0.3656
  165MPD2    C4 2516   0.638   0.651   1.755 -0.4433  0.5563  0.0560
  165MPD2    C5 2517   0.688   0.549   1.831 -0.2638  0.3479  0.2992
  165MPD2     H 2518   0.612   0.491   1.458  0.0365  2.5122  0.0739
  165MPD2    H1 2519   0.608   0.732   1.820  0.1053  1.0643 -0.3272
  165MPD2    H2 2520   0.754   0.348   1.836  1.3672  0.3978  0.1615
  165MPD2    H3 2521   0.716   0.584   1.929 -0.4458  1.7846 -0.1574
  165MPD2     N 2522   0.549   0.738   1.563 -0.5205  0.3891 -0.0593
  165MPD2    H5 2523   0.539   0.822   1.619  0.7609  0.8151 -0.4527
  165MPD2    N1 2524   0.735   0.287   1.575 -0.0883  0.4414  0.6742
  165MPD2    H7 2525   0.776   0.222   1.640  0.0192  1.0816  1.2479
  166TCq2    C1 2526   0.504   0.749   1.437  0.6213  0.0286 -0.1358
  166TCq2    O2 2527   0.477   0.657   1.359 -0.6004 -0.3190  0.2638
  166TCq2    C2 2528   0.449   0.878   1.401  0.0073 -0.7545 -0.9249
  166TCq2    C3 2529   0.308   0.896   1.394  0.2882  0.0837  0.5579
  166TCq2    C4 2530   0.264   1.026   1.359 -0.2366 -0.7239  0.6551
  166TCq2    C5 2531   0.356   1.129   1.342  0.6755  0.0804 -0.2996
  166TCq2    C6 2532   0.487   1.100   1.352  0.0490 -0.7665 -0.2389
  166TCq2    C7 2533   0.539   0.975   1.388  0.3500 -0.2331 -0.2701
  166TCq2    C8 2534   0.587   1.200   1.397  0.0908  0.5786 -0.1383
  166TCq2    O4 2535   0.699   1.169   1.428  0.0606 -0.0918 -0.4932
  166TCq2    C9 2536   0.123   1.049   1.354 -0.0273  0.6875  0.6714
  166TCq2    O5 2537   0.049   0.948   1.371  1.1447 -0.5863 -0.1241
  166TCq2    O6 2538   0.078   1.165   1.341 -0.1696 -0.3138  0.2948
  166TCq2    H2 2539   0.240   0.813   1.409 -1.7431  1.5183 -0.8940
  166TCq2    H3 2540   0.314   1.226   1.316  1.9802  0.4640 -0.9950
  166TCq2    H4 2541   0.643   0.949   1.400 -0.2019 -1.8905  0.8255
  167TMC2    C1 2542   3.154   4.261  12.614 -0.3064 -0.5510 -0.0781
  167TMC2    C2 2543   3.052   4.317  12.684 -0.2116 -0.1952 -0.8800
  167TMC2    C3 2544   3.014   4.257  12.799  0.6536  0.0013 -0.2026
  167TMC2    C4 2545   3.206   4.143  12.651  0.6259 -0.4556 -0.7184
  167TMC2    C5 2546   3.158   4.081  12.769 -0.3803 -0.1144  1.2452
  167TMC2    C6 2547   3.069   4.141  12.845 -0.0275 -0.1717  0.9015
  167TMC2     C 2548   3.218   4.338  12.510 -0.5275 -0.6769 -0.2821
  167TMC2     O 2549   3.336   4.313  12.488  0.5113 -0.2252 -0.0705
  167TMC2     H 2550   3.000   4.408  12.657 -1.4589 -1.3791 -2.4603
  167TMC2    H1 2551   3.298   4.112  12.605  1.0222  0.4093 -0.5091
  167TMC2    H2 2552   3.030   4.089  12.933 -0.4679  1.1990  1.5187
  167TMC2    C7 2553   3.190   3.944  12.802 -0.3612 -0.5912  0.3550
  167TMC2    C8 2554   2.876   4.280  12.847 -0.1253  0.4421 -0.2709
  167TMC2    O1 2555   3.177   3.905  12.917  0.7194  0.4335  0.2674
  167TMC2    O2 2556   2.804   4.187  12.877  0.2484  0.0893  0.0472
  167TMC2    O5 2557   2.842   4.409  12.834  0.1410 -0.2743 -0.5550
  167TMC2    H5 2558   2.921   4.467  12.825 -0.6180  0.5896 -1.5929
  168MPD2     C 2559   3.275   4.507  12.268  0.3233 -0.2038  0.1392
  168MPD2    C1 2560   3.150   4.494  12.319 -0.2988 -0.1444  0.1948
  168MPD2    C2 2561   3.045   4.556  12.251 -0.2753  0.8355 -0.3081
  168MPD2    C3 2562   3.068   4.634  12.140  0.4411  0.6813 -0.5714
  168MPD2    C4 2563   3.194   4.632  12.084  0.6063  0.0861 -0.2929
  168MPD2    C5 2564   3.293   4.573  12.151  0.3022 -0.1191  0.5547
  168MPD2     H 2565   2.949   4.562  12.301  1.0159  1.6142  2.1097
  168MPD2    H1 2566   3.223   4.677  11.990  1.1424 -0.1588 -0.2433
  168MPD2    H2 2567   3.360   4.472  12.325 -0.6421  1.3374  2.5248
  168MPD2    H3 2568   3.393   4.573  12.108  0.6736 -1.4194  1.4145
  168MPD2     N 2569   2.976   0.000  12.074 -0.1367  0.0908  0.4304
  168MPD2    H5 2570   3.010   0.063  12.003  1.4714 -1.2405  0.0223
  168MPD2    N1 2571   3.124   4.416  12.437  0.2848 -0.4316  0.1730
  168MPD2    H7 2572   3.027   4.415  12.466 -0.3318 -0.6026 -1.8432
  169MPD1     C 2573   0.829   2.824  10.096  0.8730  0.6004 -0.5184
  169MPD1    C1 2574   0.889   2.944  10.071 -0.0625  0.7369  0.1352
  169MPD1    C2 2575   0.913   2.978   9.932 -1.0161 -0.0709  0.3228
  169MPD1    C3 2576   0.858   2.904   9.825  0.6463  0.0391 -0.2736
  169MPD1    C4 2577   0.783   2.791   9.857  0.1723  0.1344 -0.1016
  169MPD1    C5 2578   0.776   2.753   9.990 -0.3950 -0.2458  0.0561
  169MPD1     H 2579   0.983   3.061   9.921 -1.3265  0.2187  0.5345
  169MPD1    H1 2580   0.739   2.725   9.783  0.8364  0.6726 -0.9752
  169MPD1    H2 2581   0.818   2.788  10.198  0.6242 -1.1577 -1.1675
  169MPD1    H3 2582   0.728   2.658  10.005 -1.7483  0.5639  0.8961
  169MPD1     N 2583   0.874   2.961   9.696  0.2599 -0.4030  0.0915
  169MPD1    H5 2584   0.926   3.048   9.699  1.7711 -1.2499 -2.1575
  169MPD1    N1 2585   0.956   3.018  10.174  0.3463  0.0585  0.0446
  169MPD1    H6 2586   0.939   2.995  10.272 -1.1877  3.4122  0.5621
  169MPD1    H7 2587   0.956   3.119  10.164 -1.4277 -0.0563 -1.1308
  170MPD1     C 2588   4.181   0.759  13.198  0.3026  0.6545 -0.2426
  170MPD1    C1 2589   4.229   0.775  13.323 -0.1710  0.4809 -1.0771
  170MPD1    C2 2590   4.240   0.907  13.363  0.6503 -0.0064 -0.4413
  170MPD1    C3 2591   4.251   1.010  13.267  0.7719  0.7043  0.5299
  170MPD1    C4 2592   4.207   0.987  13.141 -0.1363 -0.1631  0.1147
  170MPD1    C5 2593   4.166   0.866  13.108  0.8099  0.1580 -0.4249
  170MPD1     H 2594   4.260   0.931  13.466 -1.4105  2.1215 -0.5404
  170MPD1    H1 2595   4.197   1.067  13.068  0.0470  0.4048  0.7084
  170MPD1    H2 2596   4.166   0.658  13.162 -2.0324  0.1021  2.3128
  170MPD1    H3 2597   4.131   0.840  13.008 -2.7656  0.1772  0.8297
  170MPD1     N 2598   4.296   1.138  13.311 -0.7593  0.6458 -0.4838
  170MPD1    H5 2599   4.296   1.151  13.412  0.9434  1.2967 -0.5749
  170MPD1    N1 2600   4.223   0.668  13.409 -0.1349 -0.3837 -0.5692
  170MPD1    H6 2601   4.268   0.676  13.501  3.0497 -0.1455 -2.1361
  170MPD1    H7 2602   4.259   0.585  13.363 -1.0272 -0.6631 -0.7547
  171MPD1     C 2603   3.147   2.834  15.648 -0.6765  0.0619 -0.7341
  171MPD1    C1 2604   3.179   2.779  15.536  0.6433 -0.0222 -0.0051
  171MPD1    C2 2605   3.170   2.645  15.522  0.5299  0.2633  0.3202
  171MPD1    C3 2606   3.149   2.566  15.638  0.5463  0.4805  0.6628
  171MPD1    C4 2607   3.128   2.626  15.761 -0.4129  0.0499 -0.6125
  171MPD1    C5 2608   3.115   2.762  15.758 -0.0383 -0.0897 -0.1709
  171MPD1     H 2609   3.193   2.601  15.426  2.0354  1.4471  0.1459
  171MPD1    H1 2610   3.111   2.569  15.851  1.0810 -2.2547 -1.7968
  171MPD1    H2 2611   3.142   2.942  15.654  3.2603  0.2671 -1.2256
  171MPD1    H3 2612   3.084   2.801  15.854  1.9221  2.1268 -0.4612
  171MPD1     N 2613   3.189   2.430  15.641  0.6146  0.0386 -0.2752
  171MPD1    H5 2614   3.187   2.380  15.729  2.3881  0.3348 -0.0682
  171MPD1    N1 2615   3.196   2.857  15.423  0.3387 -0.2730 -0.0185
  171MPD1    H6 2616   3.224   2.954  15.438 -2.0714  0.6212 -1.3606
  171MPD1    H7 2617   3.248   2.812  15.348  0.4928 -0.6309  0.3064
  172MPD1     C 2618   1.663   0.924   0.399  0.3099 -0.3210 -0.2470
  172MPD1    C1 2619   1.699   0.963   0.269 -0.4315  1.0176 -1.0087
  172MPD1    C2 2620   1.829   0.996   0.251  0.3943 -0.4388 -0.0136
  172MPD1    C3 2621   1.916   1.012   0.361 -0.0245 -0.1500 -0.0067
  172MPD1    C4 2622   1.866   1.007   0.490 -0.2075 -0.9472  0.4382
  172MPD1    C5 2623   1.738   0.965   0.506 -0.0762 -0.0132  0.4956
  172MPD1     H 2624   1.868   1.010   0.151  1.0527  0.9917  0.4437
  172MPD1    H1 2625   1.927   1.045   0.572 -2.2179 -2.8366  2.8064
  172MPD1    H2 2626   1.569   0.874   0.419  0.6815 -0.3943  1.2761
  172MPD1    H3 2627   1.700   0.949   0.607  0.3896 -0.5475  0.5793
  172MPD1     N 2628   2.041   1.079   0.348 -0.0061  0.1223 -0.1762
  172MPD1    H5 2629   2.089   1.106   0.433  1.3739  0.4798 -1.0723
  172MPD1    N1 2630   1.619   0.916   0.158 -0.0780 -0.2832  0.2303
  172MPD1    H6 2631   1.633   0.963   0.069  0.6984 -1.0023 -0.0254
  172MPD1    H7 2632   1.520   0.929   0.180  0.0616  1.5566 -0.2336
  173MPD1     C 2633   3.964   1.338  13.844 -0.0228  0.1630  0.4639
  173MPD1    C1 2634   3.927   1.474  13.857  0.0236 -0.0507  0.1442
  173MPD1    C2 2635   3.826   1.498  13.949 -0.3187 -0.0118  0.7335
  173MPD1    C3 2636   3.758   1.405  14.024  0.1278 -1.0639 -0.8047
  173MPD1    C4 2637   3.808   1.273  14.015  0.1152 -0.9197 -0.4820
  173MPD1    C5 2638   3.910   1.240  13.926  1.2033 -0.0306 -0.5763
  173MPD1     H 2639   3.797   1.599  13.976 -0.9298  0.0763 -0.2437
  173MPD1    H1 2640   3.765   1.197  14.078 -0.3861 -0.2411 -0.0061
  173MPD1    H2 2641   4.040   1.304  13.774  0.7201 -0.8988  1.7894
  173MPD1    H3 2642   3.939   1.137  13.911  2.7523  0.1502  1.2306
  173MPD1     N 2643   3.658   1.447  14.117 -0.4021 -0.4024  0.0748
  173MPD1    H5 2644   3.632   1.544  14.103  1.0897  0.4438  2.9608
  173MPD1    N1 2645   3.979   1.568  13.769 -0.4011  0.7980  0.1559
  173MPD1    H6 2646   3.987   1.662  13.808 -0.7946  0.9551 -0.1534
  173MPD1    H7 2647   4.068   1.545  13.724  0.8045  0.5232  2.6518
  174MPD1     C 2648   3.726   2.125  14.832 -0.5942  0.4165 -0.2529
  174MPD1    C1 2649   3.791   2.094  14.710 -1.4927  0.5887  0.0519
  174MPD1    C2 2650   3.761   1.971  14.657  0.5327 -0.1776  0.2083
  174MPD1    C3 2651   3.662   1.892  14.711 -0.3212  0.0080  0.0565
  174MPD1    C4 2652   3.591   1.928  14.828  0.1778 -0.4324  0.3860
  174MPD1    C5 2653   3.636   2.039  14.891  0.5196 -0.4302  0.4286
  174MPD1     H 2654   3.789   1.953  14.554  1.2578 -0.4655  0.4536
  174MPD1    H1 2655   3.518   1.858  14.866 -0.1717  0.1590  0.7984
  174MPD1    H2 2656   3.739   2.218  14.886 -1.8717  0.4706 -0.0328
  174MPD1    H3 2657   3.595   2.063  14.988 -1.5665 -1.8376 -0.0843
  174MPD1     N 2658   3.617   1.777  14.647 -0.1723  0.5492  0.2900
  174MPD1    H5 2659   3.518   1.760  14.663  0.3173 -2.2191  0.3513
  174MPD1    N1 2660   3.901   2.160  14.660  0.1592  0.3231 -0.4666
  174MPD1    H6 2661   3.898   2.146  14.559  1.5903  0.1829 -0.4905
  174MPD1    H7 2662   3.895   2.260  14.676  0.7935  0.2695  0.0803
  175MPD1     C 2663   1.935   1.377  16.756 -0.2984 -0.2149  0.2037
  175MPD1    C1 2664   1.863   1.488  16.713  0.7044  0.9698 -0.1176
  175MPD1    C2 2665   1.932   1.601  16.683  1.0928 -0.8933 -0.2624
  175MPD1    C3 2666   2.071   1.612  16.666  0.2663  0.1505  0.0270
  175MPD1    C4 2667   2.138   1.503  16.716 -0.3030  0.1946 -0.6438
  175MPD1    C5 2668   2.075   1.387  16.750  0.3197 -0.2232  0.0181
  175MPD1     H 2669   1.871   1.691  16.680  2.3828  0.0333  1.2876
  175MPD1    H1 2670   2.246   1.498  16.715 -0.3037 -0.1738  1.8408
  175MPD1    H2 2671   1.889   1.292  16.805 -1.4361 -0.2213 -0.8896
  175MPD1    H3 2672   2.128   1.298  16.782 -0.2297 -0.3463  0.5832
  175MPD1     N 2673   2.145   1.722  16.617  0.5520 -0.6103 -0.1402
  175MPD1    H5 2674   2.246   1.713  16.617  0.5486 -0.8951 -5.3547
  175MPD1    N1 2675   1.725   1.496  16.732  0.1059  0.3278  0.2260
  175MPD1    H6 2676   1.692   1.400  16.724  3.3361 -1.0165  2.7477
  175MPD1    H7 2677   1.678   1.561  16.670  0.3153  0.1185 -0.1507
  176MPD1     C 2678   3.047   3.674  17.438 -0.0500  0.1808  0.3428
  176MPD1    C1 2679   2.988   3.782  17.498  0.6955  0.0224 -0.5010
  176MPD1    C2 2680   3.068   3.890  17.526 -0.8884  0.2487 -0.1430
  176MPD1    C3 2681   3.195   3.909  17.475 -0.5391 -0.3194 -0.1058
  176MPD1    C4 2682   3.247   3.806  17.399 -0.3547 -0.0304  0.1992
  176MPD1    C5 2683   3.171   3.694  17.385 -0.2893  0.3390 -0.1010
  176MPD1     H 2684   3.026   3.973  17.582  1.0031  1.7498 -0.9477
  176MPD1    H1 2685   3.351   3.814  17.370 -0.5047 -1.3094 -0.6749
  176MPD1    H2 2686   2.989   3.586  17.412 -2.2460  2.0417 -1.0123
  176MPD1    H3 2687   3.218   3.619  17.322 -0.6092 -1.1277  1.4186
  176MPD1     N 2688   3.267   4.024  17.513  0.4847  0.2543  0.2190
  176MPD1    H5 2689   3.216   4.094  17.566  4.0359  1.5682  1.8909
  176MPD1    N1 2690   2.861   3.765  17.559 -0.8067 -0.2138  0.0516
  176MPD1    H6 2691   2.803   3.727  17.485  0.8751 -0.5955 -1.0701
  176MPD1    H7 2692   2.815   3.855  17.566  2.6735  1.5549  0.2754
  177MPD1     C 2693   1.989   4.265  10.111 -0.4184  0.6346 -0.0759
  177MPD1    C1 2694   1.902   4.182  10.043 -0.6277 -0.0038  0.0352
  177MPD1    C2 2695   1.860   4.222   9.914  0.1068  0.5295 -0.6433
  177MPD1    C3 2696   1.897   4.349   9.864 -0.2376 -0.1893 -0.4549
  177MPD1    C4 2697   1.989   4.429   9.935  0.1846  0.4874  0.0387
  177MPD1    C5 2698   2.024   4.385  10.061  0.4111 -0.4949 -0.5638
  177MPD1     H 2699   1.806   4.154   9.850  1.0519 -0.7234 -0.1117
  177MPD1    H1 2700   2.018   4.527   9.900 -0.1510  0.7510  0.4976
  177MPD1    H2 2701   2.030   4.243  10.209 -1.2858  0.6448  0.2839
  177MPD1    H3 2702   2.095   4.442  10.120 -3.5829  2.1286  1.7103
  177MPD1     N 2703   1.858   4.387   9.733  0.3141 -0.5196  0.3367
  177MPD1    H5 2704   1.786   4.330   9.689 -0.1856  0.2966  0.0786
  177MPD1    N1 2705   1.888   4.051  10.084 -0.6715  0.7189 -0.0605
  177MPD1    H6 2706   1.894   4.042  10.185 -2.1222 -1.7372 -0.1727
  177MPD1    H7 2707   1.803   4.020  10.036  0.7922  2.0864 -3.5307
  178MPD1     C 2708   4.202   0.997  16.995 -0.7375  0.4610  0.3562
  178MPD1    C1 2709   4.329   0.942  16.990 -0.4866  0.1835  0.3292
  178MPD1    C2 2710   4.346   0.806  16.976  0.0129  1.2629  0.3447
  178MPD1    C3 2711   4.230   0.721  16.970 -0.2633 -0.2194  0.3508
  178MPD1    C4 2712   4.105   0.778  16.988  0.3690  0.3230 -0.1713
  178MPD1    C5 2713   4.094   0.913  16.993  0.3549 -0.5757  0.4373
  178MPD1     H 2714   4.448   0.769  16.970  0.3179  1.6611  2.9890
  178MPD1    H1 2715   4.018   0.713  16.990  0.3948  0.2631 -1.1934
  178MPD1    H2 2716   4.181   1.103  16.998  4.2842  1.4664  0.3719
  178MPD1    H3 2717   3.994   0.955  17.000 -0.0507 -1.1249 -1.9894
  178MPD1     N 2718   4.235   0.583  16.943 -0.1653  0.1590 -0.2399
  178MPD1    H5 2719   4.151   0.531  16.922 -0.3459  0.3836 -0.0727
  178MPD1    N1 2720   4.440   1.035  16.991 -0.0905 -0.0507 -0.3887
  178MPD1    H6 2721   4.432   1.103  17.067 -1.9272 -0.7927  0.0657
  178MPD1    H7 2722   4.525   0.983  17.015  0.1393  1.3147  1.7981
  179MPD1     C 2723   3.904   3.779  15.084 -0.1780  0.3842 -0.8772
  179MPD1    C1 2724   3.965   3.671  15.034  0.5235  0.2311 -0.1476
  179MPD1    C2 2725   3.966   3.559  15.114 -0.4446 -0.2802  0.2279
  179MPD1    C3 2726   3.879   3.547  15.222  0.4068 -0.5714  0.3989
  179MPD1    C4 2727   3.804   3.655  15.260  0.3113 -0.7935 -0.1670
  179MPD1    C5 2728   3.814   3.769  15.188  0.1497 -0.0133  0.6467
  179MPD1     H 2729   4.016   3.475  15.066  0.9901 -0.3520  1.8789
  179MPD1    H1 2730   3.742   3.643  15.349 -1.0813  2.8455 -0.6430
  179MPD1    H2 2731   3.926   3.875  15.039  0.0090 -0.4571 -2.5409
  179MPD1    H3 2732   3.758   3.858  15.213  0.0661  0.1188 -0.0281
  179MPD1     N 2733   3.869   3.424  15.293 -0.0181 -0.3051 -0.2950
  179MPD1    H5 2734   3.794   3.421  15.362  1.6153 -0.5039  1.4856
  179MPD1    N1 2735   4.048   3.684  14.926 -1.0557 -0.3754 -0.0321
  179MPD1    H6 2736   4.020   3.761  14.866 -0.1332  0.1698  0.2274
  179MPD1    H7 2737   4.061   3.597  14.876  0.7660 -0.1445  0.0139
  180MPD1     C 2738   2.991   4.663  15.248  0.1156 -0.3727  0.4331
  180MPD1    C1 2739   2.949   4.578  15.144 -0.6538  0.4047 -0.2599
  180MPD1    C2 2740   3.020   4.583  15.029  0.3684  0.0129 -0.2763
  180MPD1    C3 2741   3.116   4.677  15.003 -0.0909  0.5694 -0.1231
  180MPD1    C4 2742   3.149   0.053  15.104  0.3863 -0.2499  0.5740
  180MPD1    C5 2743   3.097   0.027  15.228  0.7255 -0.3425 -0.2237
  180MPD1     H 2744   3.002   4.510  14.951 -1.0742 -0.4739  0.5337
  180MPD1    H1 2745   3.228   0.126  15.092 -1.0913  0.9405 -2.0273
  180MPD1    H2 2746   2.949   4.655  15.348 -0.7052  1.2873  0.2124
  180MPD1    H3 2747   3.122   0.093  15.310 -1.2015 -0.4294  0.4336
  180MPD1     N 2748   3.177   4.677  14.871 -0.2370 -0.0239 -0.6800
  180MPD1    H5 2749   3.152   4.603  14.807  4.2568 -0.1900 -2.2785
  180MPD1    N1 2750   2.868   4.464  15.176  0.6376  0.4692  0.1990
  180MPD1    H6 2751   2.793   4.494  15.239 -1.5389  0.8842 -2.5947
  180MPD1    H7 2752   2.825   4.420  15.095 -0.2177 -0.2139  1.0190
  181MPD1     C 2753   0.369   1.212   8.953 -0.8001 -0.2488  0.6888
  181MPD1    C1 2754   0.433   1.303   8.869  0.1204  0.1105 -0.1094
  181MPD1    C2 2755   0.554   1.346   8.914  0.3270  0.5983  0.1341
  181MPD1    C3 2756   0.610   1.314   9.036 -0.7304  0.3778 -0.0674
  181MPD1    C4 2757   0.546   1.217   9.106  0.2320 -0.1083  0.0600
  181MPD1    C5 2758   0.422   1.173   9.072 -0.1164  0.2860 -0.0378
  181MPD1     H 2759   0.602   1.416   8.848  0.4732 -0.0844 -0.4791
  181MPD1    H1 2760   0.581   1.184   9.203  1.4729  1.2601  0.0925
  181MPD1    H2 2761   0.263   1.191   8.946 -0.8609  0.1868  0.2270
  181MPD1    H3 2762   0.372   1.122   9.153 -2.5207  1.3779 -0.8309
  181MPD1     N 2763   0.718   1.386   9.093 -0.0855  0.3403 -0.0324
  181MPD1    H5 2764   0.749   1.352   9.184 -0.1466 -2.7076 -1.1684
  181MPD1    N1 2765   0.374   1.360   8.757 -0.7566 -0.2755 -0.4631
  181MPD1    H6 2766   0.299   1.302   8.719 -0.0789 -0.3121 -1.7605
  181MPD1    H7 2767   0.448   1.368   8.686 -1.3055  0.0960 -0.9881
  182MPD1     C 2768   1.802   0.782   2.101  0.4520  0.2069 -0.1165
  182MPD1    C1 2769   1.827   0.723   1.985  0.2013  0.6635  0.6842
  182MPD1    C2 2770   1.726   0.712   1.887  0.0250 -0.4193  0.3051
  182MPD1    C3 2771   1.615   0.799   1.900 -0.6911 -0.3028  0.1986
  182MPD1    C4 2772   1.596   0.867   2.016 -0.1075 -0.7660 -0.0532
  182MPD1    C5 2773   1.683   0.846   2.119 -0.9255 -0.4189  0.2972
  182MPD1     H 2774   1.737   0.661   1.792  1.5375 -1.3617  0.9868
  182MPD1    H1 2775   1.510   0.931   2.028 -1.8737 -3.1826  0.1344
  182MPD1    H2 2776   1.864   0.779   2.189  1.6261 -0.9311 -0.9813
  182MPD1    H3 2777   1.665   0.886   2.218  0.8093  1.0862  0.0094
  182MPD1     N 2778   1.509   0.817   1.801 -0.7969  0.5851  0.5790
  182MPD1    H5 2779   1.434   0.877   1.834 -1.1143 -0.4602  1.7866
  182MPD1    N1 2780   1.939   0.641   1.974  0.1052  0.4791 -0.2749
  182MPD1    H6 2781   2.026   0.681   2.009 -0.7219  2.3167 -0.2926
  182MPD1    H7 2782   1.963   0.627   1.876  0.2140  0.5375 -0.2561
  183MPD1     C 2783   2.450   2.247   9.577 -1.0302  0.5485 -0.3620
  183MPD1    C1 2784   2.358   2.236   9.479 -0.5880 -0.6847 -0.4588
  183MPD1    C2 2785   2.267   2.133   9.484  0.0610 -0.2759  0.3483
  183MPD1    C3 2786   2.293   2.016   9.547 -0.5399 -0.4094  0.2201
  183MPD1    C4 2787   2.390   2.023   9.644  0.2259  0.3777 -0.0881
  183MPD1    C5 2788   2.462   2.142   9.659  0.4646 -0.4716 -0.7427
  183MPD1     H 2789   2.197   2.126   9.401  1.6274  0.7784 -1.0793
  183MPD1    H1 2790   2.405   1.944   9.717  0.0446 -0.0528 -0.5199
  183MPD1    H2 2791   2.512   2.336   9.587 -0.0740 -0.1043 -0.4743
  183MPD1    H3 2792   2.536   2.153   9.737 -0.1363  0.1931 -0.2561
  183MPD1     N 2793   2.203   1.905   9.536  0.7760 -0.5846 -0.5912
  183MPD1    H5 2794   2.135   1.912   9.461  0.3632  0.1280 -0.1545
  183MPD1    N1 2795   2.348   2.346   9.392  0.0143  0.5027  0.1838
  183MPD1    H6 2796   2.320   2.310   9.301  1.3798 -1.7933  0.6611
  183MPD1    H7 2797   2.438   2.394   9.383  0.7476 -0.9113 -0.0442
  184MPD1     C 2798   0.616   3.728   9.558  0.0586  0.2532 -0.1525
  184MPD1    C1 2799   0.722   3.770   9.636 -0.6160 -0.1246  0.2620
  184MPD1    C2 2800   0.798   3.866   9.582  0.0601 -0.4163 -0.2679
  184MPD1    C3 2801   0.804   3.885   9.446  0.1246 -0.1884 -0.0780
  184MPD1    C4 2802   0.702   3.838   9.370 -0.7204  0.4402  0.8718
  184MPD1    C5 2803   0.608   3.754   9.426  0.1171 -0.6180 -0.0114
  184MPD1     H 2804   0.872   3.914   9.645  0.5609 -0.0723 -1.1207
  184MPD1    H1 2805   0.701   3.849   9.262 -0.7376 -0.2628  0.8005
  184MPD1    H2 2806   0.540   3.668   9.606  2.9430 -2.2198  1.3055
  184MPD1    H3 2807   0.528   3.715   9.364  1.3588 -0.5847 -1.6527
  184MPD1     N 2808   0.897   3.971   9.374 -0.2302 -0.2005  0.3420
  184MPD1    H5 2809   0.887   3.975   9.273  1.6346  3.1972  0.2765
  184MPD1    N1 2810   0.705   3.752   9.774  0.8788 -0.2665  0.1015
  184MPD1    H6 2811   0.796   3.747   9.819  0.2741 -2.8317  1.0124
  184MPD1    H7 2812   0.662   3.664   9.800 -0.8155  0.7657  0.8384
  185MPD1     C 2813   1.038   3.771   8.613 -0.4565 -1.0426 -0.3577
  185MPD1    C1 2814   1.132   3.871   8.623 -0.2264  0.6381 -0.3589
  185MPD1    C2 2815   1.138   3.951   8.734  0.7924  0.2933  0.8051
  185MPD1    C3 2816   1.032   3.948   8.823  0.0599  0.6020 -0.9917
  185MPD1    C4 2817   0.929   3.849   8.811  0.4165 -0.2648 -1.2586
  185MPD1    C5 2818   0.938   3.763   8.705 -0.0801  0.5147  0.2967
  185MPD1     H 2819   1.215   4.027   8.737 -0.8051  2.0428 -2.4232
  185MPD1    H1 2820   0.853   3.838   8.887  3.1435 -0.6323  1.4151
  185MPD1    H2 2821   1.041   3.701   8.531  1.0598 -0.7878 -0.5250
  185MPD1    H3 2822   0.862   3.686   8.700 -0.9923  1.5770 -2.1082
  185MPD1     N 2823   1.033   4.032   8.935 -0.2606  0.0870 -0.4815
  185MPD1    H5 2824   0.970   4.003   9.009  0.4390 -0.2141 -0.0051
  185MPD1    N1 2825   1.247   3.861   8.539  0.4588 -0.3239  0.3543
  185MPD1    H6 2826   1.212   3.847   8.444 -3.6412 -2.6419  2.1995
  185MPD1    H7 2827   1.295   3.950   8.546  0.7356 -0.3784 -0.8774
  186MPD1     C 2828   0.058   2.876  15.706 -0.1371 -0.1964  0.0964
  186MPD1    C1 2829   0.081   2.865  15.843 -0.0675 -0.4161  0.0597
  186MPD1    C2 2830   0.022   2.952  15.926  0.4332  0.4639  0.2319
  186MPD1    C3 2831   4.669   3.061  15.877  0.8097 -0.3791 -0.3440
  186MPD1    C4 2832   4.649   3.078  15.745 -0.0861  0.5546 -0.0200
  186MPD1    C5 2833   4.704   2.985  15.659  0.1005  0.0227  0.4508
  186MPD1     H 2834   0.034   2.921  16.029  1.5416 -3.7819 -1.1885
  186MPD1    H1 2835   4.586   3.159  15.710 -0.6716 -0.2548 -0.8578
  186MPD1    H2 2836   0.091   2.802  15.634  1.8429  1.4013 -0.6316
  186MPD1    H3 2837   4.675   2.989  15.554  0.4217 -0.2713  0.3520
  186MPD1     N 2838   4.615   3.150  15.963 -0.1648  0.1462  0.2389
  186MPD1    H5 2839   4.575   3.234  15.921 -0.3208 -0.3379 -0.5759
  186MPD1    N1 2840   0.146   2.749  15.894 -0.0883 -0.1334 -0.0674
  186MPD1    H6 2841   0.202   2.761  15.978 -1.8153 -0.4599  1.1225
  186MPD1    H7 2842   0.185   2.690  15.820  0.6927  0.9696 -0.5366
  187MPD1     C 2843   3.895   0.171   0.261  0.3121 -0.1628  0.1757
  187MPD1    C1 2844   3.782   0.106   0.222 -0.3221  0.1602 -0.6921
  187MPD1    C2 2845   3.725   0.134   0.098 -0.0882  0.4736  0.1868
  187MPD1    C3 2846   3.792   0.211   0.007 -0.5805 -0.2303 -0.9908
  187MPD1    C4 2847   3.907   0.275   0.047  0.5497 -0.0963  0.4444
  187MPD1    C5 2848   3.951   0.262   0.171  0.2867 -0.0752  0.3725
  187MPD1     H 2849   3.628   0.090   0.079  0.0129  1.4633 -2.6905
  187MPD1    H1 2850   3.962   0.346  17.655 -0.9253  1.0775  0.4697
  187MPD1    H2 2851   3.947   0.180   0.355 -0.8635  1.0482  0.7188
  187MPD1    H3 2852   4.040   0.315   0.203 -0.9172  2.5425 -0.6008
  187MPD1     N 2853   3.753   0.234  17.544 -0.1733 -0.3092  0.1527
  187MPD1    H5 2854   3.814   0.295  17.491 -1.3437  0.6215 -0.1314
  187MPD1    N1 2855   3.710   0.036   0.318 -0.4649  0.1450 -0.0402
  187MPD1    H6 2856   3.771   4.693   0.374  1.0539  0.6129 -1.1888
  187MPD1    H7 2857   3.651   4.683   0.273  2.3829 -0.5846 -2.6886
  188MPD1     C 2858   3.465   1.088   9.366  1.0409 -0.4246 -0.5090
  188MPD1    C1 2859   3.586   1.030   9.378 -0.0581  0.1608 -0.0368
  188MPD1    C2 2860   3.586   0.899   9.414  0.1377  0.5178 -0.0159
  188MPD1    C3 2861   3.467   0.835   9.465  0.1249  0.2936 -0.1694
  188MPD1    C4 2862   3.353   0.907   9.474  0.4400  0.3283 -0.5408
  188MPD1    C5 2863   3.360   1.029   9.416  0.1454  0.1249  0.3168
  188MPD1     H 2864   3.675   0.845   9.385 -1.1087 -1.7178  0.3700
  188MPD1    H1 2865   3.259   0.864   9.508 -0.6789  0.0029 -4.0148
  188MPD1    H2 2866   3.463   1.185   9.317  3.3933 -0.2517 -0.2278
  188MPD1    H3 2867   3.268   1.085   9.412 -0.4926 -1.0089 -0.9534
  188MPD1     N 2868   3.450   0.699   9.482 -0.1577  0.0029  0.2621
  188MPD1    H5 2869   3.356   0.664   9.500  0.3455 -1.9979 -0.9377
  188MPD1    N1 2870   3.704   1.091   9.337 -0.2299  0.2417 -0.4139
  188MPD1    H6 2871   3.695   1.191   9.321 -0.7717  0.1240 -0.8500
  188MPD1    H7 2872   3.786   1.064   9.391 -0.8528 -0.2378  0.2981
  189MPD1     C 2873   0.570   0.741  17.256 -0.3743 -0.3458  0.3527
  189MPD1    C1 2874   0.448   0.679  17.266  0.7843 -0.3483 -0.1915
  189MPD1    C2 2875   0.368   0.718  17.372  0.3451  0.1084 -0.1855
  189MPD1    C3 2876   0.406   0.813  17.463 -0.3438  0.2344  0.3732
  189MPD1    C4 2877   0.528   0.869  17.456  0.2483 -0.2879 -0.0495
  189MPD1    C5 2878   0.606   0.838  17.348 -0.0471  0.8613  0.8819
  189MPD1     H 2879   0.270   0.672  17.373  1.0644 -1.4308 -0.7256
  189MPD1    H1 2880   0.561   0.951  17.520 -1.6574  0.2121  0.2946
  189MPD1    H2 2881   0.637   0.717  17.174 -1.3117 -0.6541 -0.3331
  189MPD1    H3 2882   0.704   0.885  17.339  0.3149  0.2993  1.8892
  189MPD1     N 2883   0.314   0.843  17.570 -0.4936  0.2368 -0.0353
  189MPD1    H5 2884   0.229   0.788  17.566  0.7753 -1.6244 -1.8314
  189MPD1    N1 2885   0.404   0.589  17.166  0.0914  0.6246  0.8266
  189MPD1    H6 2886   0.485   0.549  17.119  0.5352  0.3450  1.8248
  189MPD1    H7 2887   0.342   0.513  17.192  1.7168 -0.9497  0.0889
  190MPD1     C 2888   3.563   4.139  14.908  0.1433 -0.1999 -0.7562
  190MPD1    C1 2889   3.691   4.184  14.896 -0.1324  0.3696  0.2619
  190MPD1    C2 2890   3.776   4.159  15.013  0.2457  0.2349  0.7308
  190MPD1    C3 2891   3.718   4.127  15.135 -0.0218 -0.0322  0.2914
  190MPD1    C4 2892   3.585   4.104  15.142 -0.1459 -0.1309 -0.0843
  190MPD1    C5 2893   3.511   4.108  15.028  0.3376  0.6478  0.4879
  190MPD1     H 2894   3.883   4.172  15.009  0.2138  0.7803  1.4453
  190MPD1    H1 2895   3.541   4.081  15.238  2.7776 -1.0043  1.0260
  190MPD1    H2 2896   3.507   4.149  14.816 -0.4537 -0.9429 -0.4701
  190MPD1    H3 2897   3.404   4.094  15.040  0.4703 -1.5070 -0.9151
  190MPD1     N 2898   3.807   4.112  15.242 -1.1200 -0.5584 -0.2229
  190MPD1    H5 2899   3.904   4.129  15.220 -1.0643 -0.8263 -0.1885
  190MPD1    N1 2900   3.747   4.209  14.765  0.0681 -0.0927 -0.4605
  190MPD1    H6 2901   3.677   4.254  14.708  0.4027  0.2827 -0.5700
  190MPD1    H7 2902   3.835   4.260  14.766  0.0513 -0.0673 -0.2873
  191MPD1     C 2903   3.512   1.319  13.000 -0.4491 -0.0200 -0.1845
  191MPD1    C1 2904   3.536   1.456  12.984  0.5154 -0.5009  0.4973
  191MPD1    C2 2905   3.433   1.540  12.943  0.3480  0.3963  0.0872
  191MPD1    C3 2906   3.312   1.487  12.911 -0.4385 -0.6685  0.3068
  191MPD1    C4 2907   3.294   1.354  12.899  0.0568 -0.3269  0.1407
  191MPD1    C5 2908   3.393   1.273  12.944  0.4678  0.7970 -0.1201
  191MPD1     H 2909   3.444   1.648  12.940  0.1253  0.4202  0.0803
  191MPD1    H1 2910   3.202   1.303  12.870  0.1741 -0.7976  0.5796
  191MPD1    H2 2911   3.586   1.244  13.026 -1.3046 -0.8561 -0.1335
  191MPD1    H3 2912   3.381   1.165  12.952  1.9030  0.6115 -0.5063
  191MPD1     N 2913   3.207   1.577  12.880  0.4706  0.3044 -0.6586
  191MPD1    H5 2914   3.239   1.672  12.867 -0.0058  0.9006  2.5199
  191MPD1    N1 2915   3.654   1.519  13.032 -0.0653  1.1396  0.0761
  191MPD1    H6 2916   3.662   1.617  13.004  0.8131  0.9702 -0.2577
  191MPD1    H7 2917   3.740   1.477  12.996  0.3511  0.0463  2.3692
  192MPD1     C 2918   2.438   1.880  13.336 -0.4542  0.0660 -0.5999
  192MPD1    C1 2919   2.397   1.883  13.206 -0.4538 -0.0688 -0.2577
  192MPD1    C2 2920   2.480   1.850  13.104 -0.2114 -0.2207 -0.3181
  192MPD1    C3 2921   2.612   1.810  13.129 -0.0917  0.4356 -0.4322
  192MPD1    C4 2922   2.652   1.817  13.260  0.0622  0.4228  0.2558
  192MPD1    C5 2923   2.567   1.848  13.357 -0.0770  0.2384 -0.6248
  192MPD1     H 2924   2.449   1.851  13.000 -2.1662 -3.5720  0.2213
  192MPD1    H1 2925   2.758   1.807  13.280 -0.5385 -0.4334  3.0607
  192MPD1    H2 2926   2.388   1.904  13.429  2.3242  0.5725  0.7671
  192MPD1    H3 2927   2.608   1.846  13.457  0.4429 -1.1194 -0.8677
  192MPD1     N 2928   2.705   1.778  13.022 -0.1706 -0.1589  0.0319
  192MPD1    H5 2929   2.796   1.738  13.042  0.8856  2.1443 -0.2190
  192MPD1    N1 2930   2.267   1.918  13.176  0.2205  1.2429  0.5196
  192MPD1    H6 2931   2.226   1.992  13.232 -1.8082  1.5165 -1.3289
  192MPD1    H7 2932   2.272   1.959  13.083 -0.5249  0.1671  0.0077
  193MPD1     C 2933   3.644   1.627  17.176 -0.0134  0.4311 -0.4099
  193MPD1    C1 2934   3.568   1.723  17.247  0.3686 -0.2729  0.5400
  193MPD1    C2 2935   3.549   1.854  17.202  0.1576  0.5592 -0.0716
  193MPD1    C3 2936   3.616   1.891  17.089  0.3524 -0.5305 -0.5119
  193MPD1    C4 2937   3.701   1.805  17.026  0.3538  1.1241  0.0831
  193MPD1    C5 2938   3.709   1.675  17.068  1.0579  0.3874 -0.2807
  193MPD1     H 2939   3.489   1.925  17.259 -0.0511  0.3761 -0.0604
  193MPD1    H1 2940   3.762   1.826  16.940 -1.4690  0.4279 -1.3718
  193MPD1    H2 2941   3.656   1.522  17.197  0.4138  0.4776 -0.4201
  193MPD1    H3 2942   3.773   1.605  17.016 -2.8824 -2.8834 -0.7027
  193MPD1     N 2943   3.611   2.020  17.028  0.3869 -1.0547  0.0213
  193MPD1    H5 2944   3.662   2.033  16.941 -0.0565 -1.6238 -0.3265
  193MPD1    N1 2945   3.488   1.685  17.354 -0.6441  0.4755 -0.6679
  193MPD1    H6 2946   3.535   1.604  17.395 -0.4055  0.3425 -1.2020
  193MPD1    H7 2947   3.477   1.748  17.433  1.9853  1.1456 -0.8413
  194MPD1     C 2948   0.462   4.020  16.864  0.7273  0.6174  0.5304
  194MPD1    C1 2949   0.508   3.993  16.990 -0.5653  0.3458  0.0711
  194MPD1    C2 2950   0.626   3.927  16.996 -0.1027  0.1164 -0.0611
  194MPD1    C3 2951   0.702   3.904  16.881  0.8476  0.9762  0.1450
  194MPD1    C4 2952   0.664   3.948  16.765  0.0231 -0.7181  0.7044
  194MPD1    C5 2953   0.540   4.007  16.757  0.4575 -0.4850  0.1368
  194MPD1     H 2954   0.651   3.871  17.086 -2.4443 -0.5583  0.1583
  194MPD1    H1 2955   0.724   3.942  16.675  0.2185 -1.8626  0.9078
  194MPD1    H2 2956   0.366   4.069  16.853  0.7185  0.6614  0.7890
  194MPD1    H3 2957   0.507   4.036  16.658  2.1836 -2.3423 -0.9823
  194MPD1     N 2958   0.833   3.864  16.888  0.3895 -0.6246 -0.5701
  194MPD1    H5 2959   0.883   3.847  16.801 -0.4133 -0.4731 -1.0569
  194MPD1    N1 2960   0.439   4.026  17.109  0.2657  0.0274  0.1875
  194MPD1    H6 2961   0.503   4.034  17.188  0.3350 -0.6327  0.1941
  194MPD1    H7 2962   0.377   4.105  17.093  1.4874  0.9942  0.2393
  195MPD1     C 2963   3.382   1.366  17.263 -0.0583  0.5152  0.8692
  195MPD1    C1 2964   3.310   1.379  17.379 -0.4991 -0.2815 -1.0170
  195MPD1    C2 2965   3.272   1.263  17.442  0.0977 -0.1060 -0.4079
  195MPD1    C3 2966   3.316   1.137  17.398 -0.2070  0.1765  0.2596
  195MPD1    C4 2967   3.398   1.133  17.283 -0.0305 -0.4913  0.2744
  195MPD1    C5 2968   3.426   1.247  17.211  0.0678  0.3179 -0.4032
  195MPD1     H 2969   3.214   1.273  17.533  1.5161 -1.5776  0.6389
  195MPD1    H1 2970   3.447   1.043  17.247  1.3744  0.4716 -0.2186
  195MPD1    H2 2971   3.401   1.457  17.208  2.4488  0.0737  1.0003
  195MPD1    H3 2972   3.492   1.248  17.125 -1.0359  2.2521 -1.2092
  195MPD1     N 2973   3.294   1.018  17.473 -0.1213  0.5687  0.0596
  195MPD1    H5 2974   3.354   0.942  17.444  0.5492  0.7291  1.0194
  195MPD1    N1 2975   3.255   1.503  17.406  0.4718 -0.1324 -0.4897
  195MPD1    H6 2976   3.240   1.524  17.504  0.2385  1.9289 -0.9607
  195MPD1    H7 2977   3.312   1.577  17.365  0.9919 -1.1131 -1.5523
  196MPD1     C 2978   1.935   4.556   0.237  0.1021  0.4566  0.2122
  196MPD1    C1 2979   1.991   4.674   0.234 -0.5952 -0.3348  0.2170
  196MPD1    C2 2980   1.994   0.037   0.350 -0.0120  0.4876  0.8381
  196MPD1    C3 2981   1.950   4.704   0.472  0.2442 -1.0420  0.4457
  196MPD1    C4 2982   1.893   4.577   0.466 -1.1458 -0.0623 -0.2550
  196MPD1    C5 2983   1.882   4.505   0.348  0.4232 -0.0692  0.6435
  196MPD1     H 2984   2.053   0.128   0.340 -0.4665  0.5672 -1.2738
  196MPD1    H1 2985   1.855   4.532   0.556 -0.4596 -1.6406 -0.7642
  196MPD1    H2 2986   1.929   4.494   0.149 -0.3877 -1.2848  1.4843
  196MPD1    H3 2987   1.823   4.414   0.349  0.6233 -0.2196 -2.2464
  196MPD1     N 2988   1.966   0.049   0.595  0.8038  0.0227  0.5888
  196MPD1    H5 2989   1.932   0.010   0.682 -1.1957  4.1742  1.6617
  196MPD1    N1 2990   2.037   0.008   0.113 -0.2058  0.2082 -0.1291
  196MPD1    H6 2991   2.055   4.655   0.041 -2.3788  2.8841 -3.2381
  196MPD1    H7 2992   2.114   0.075   0.110  0.9305 -1.1690 -1.4224
  197MPD1     C 2993   1.939   1.926  17.365  0.2591 -0.1833  0.5190
  197MPD1    C1 2994   2.041   1.970  17.445 -0.2290  0.4700  0.1624
  197MPD1    C2 2995   2.103   2.087  17.409  0.2841  0.4845 -0.1868
  197MPD1    C3 2996   2.071   2.158  17.290 -0.7819  0.6534 -0.6375
  197MPD1    C4 2997   1.977   2.101  17.207 -0.4170  0.1087  0.2484
  197MPD1    C5 2998   1.913   1.988  17.251  0.5250 -0.2664  0.0074
  197MPD1     H 2999   2.164   2.139  17.482 -1.4414  0.0821  1.5091
  197MPD1    H1 3000   1.954   2.150  17.113 -0.3307 -0.1015  0.1160
  197MPD1    H2 3001   1.871   1.846  17.394  0.5687 -0.9247 -0.7814
  197MPD1    H3 3002   1.832   1.951  17.188  0.7930 -1.0347  0.1101
  197MPD1     N 3003   2.131   2.278  17.250  0.0160 -0.0770 -0.2540
  197MPD1    H5 3004   2.122   2.299  17.151  3.1093  0.5568 -0.3923
  197MPD1    N1 3005   2.069   1.915  17.574  0.5480  0.2357  0.2803
  197MPD1    H6 3006   2.168   1.918  17.595  0.2486  0.6814  1.5820
  197MPD1    H7 3007   2.041   1.817  17.563 -0.3998  0.6397 -0.9365
  198MPD1     C 3008   2.797   1.490  15.636 -0.0825  0.1753  0.5651
  198MPD1    C1 3009   2.854   1.609  15.592  0.1979  0.3321 -0.5561
  198MPD1    C2 3010   2.976   1.609  15.528  0.1863 -0.0166  0.3812
  198MPD1    C3 3011   3.061   1.500  15.534 -0.7164  0.0199  0.7711
  198MPD1    C4 3012   2.998   1.378  15.571 -0.3645  0.3777  0.3959
  198MPD1    C5 3013   2.872   1.376  15.625  0.0822 -0.8108 -0.5361
  198MPD1     H 3014   3.012   1.703  15.489  0.1052 -1.0780 -2.3276
  198MPD1    H1 3015   3.051   1.283  15.575 -0.4500  0.3806  1.4483
  198MPD1    H2 3016   2.696   1.478  15.673 -0.3942  1.1700  0.0394
  198MPD1    H3 3017   2.829   1.288  15.672  0.6257 -0.4690  0.6209
  198MPD1     N 3018   3.193   1.514  15.492  0.0145  0.2675 -0.2692
  198MPD1    H5 3019   3.221   1.607  15.464 -4.0947  0.9441 -2.1230
  198MPD1    N1 3020   2.777   1.726  15.589  0.4869 -0.3366  0.0627
  198MPD1    H6 3021   2.712   1.734  15.666  0.1407 -2.4657 -0.0188
  198MPD1    H7 3022   2.842   1.805  15.594  0.6952 -0.5560  0.7514
  199MPD1     C 3023   0.504   1.911   8.692  1.0729 -0.5244  0.1870
  199MPD1    C1 3024   0.434   1.849   8.794  0.2906 -0.6105  0.1586
  199MPD1    C2 3025   0.352   1.935   8.855 -0.1887  0.5472  0.3415
  199MPD1    C3 3026   0.341   2.070   8.837  0.5125  0.1037  0.1231
  199MPD1    C4 3027   0.427   2.129   8.754  0.2499  0.0197 -0.2631
  199MPD1    C5 3028   0.513   2.045   8.687  0.3238  0.2408 -0.3664
  199MPD1     H 3029   0.286   1.890   8.928  1.1422  0.4107  1.4442
  199MPD1    H1 3030   0.426   2.235   8.735 -2.1927  0.0248 -0.0694
  199MPD1    H2 3031   0.578   1.855   8.635 -1.3952 -1.6295 -1.9094
  199MPD1    H3 3032   0.575   2.086   8.609  1.2269 -0.5796 -0.0852
  199MPD1     N 3033   0.261   2.159   8.912  0.4153 -0.0155  0.4117
  199MPD1    H5 3034   0.254   2.253   8.877 -0.0087  0.0730  0.7218
  199MPD1    N1 3035   0.475   1.728   8.847  0.0006 -0.0028  0.0352
  199MPD1    H6 3036   0.490   1.657   8.776  0.6114  0.0475  0.1174
  199MPD1    H7 3037   0.404   1.689   8.909  0.1213  0.8018  0.6660
  200MPD1     C 3038   4.586   2.838  14.941 -0.1784 -0.0978  0.1819
  200MPD1    C1 3039   4.710   2.840  14.885 -0.0966 -0.1122 -0.5473
  200MPD1    C2 3040   0.047   2.720  14.837 -0.4380  0.1653 -0.3328
  200MPD1    C3 3041   4.696   2.599  14.842  0.0383 -0.5155 -0.0843
  200MPD1    C4 3042   4.578   2.595  14.917  0.1716 -0.3620  1.0350
  200MPD1    C5 3043   4.528   2.714  14.956 -0.0094 -0.3332  0.7318
  200MPD1     H 3044   0.139   2.709  14.781 -1.9104 -0.9972 -2.5103
  200MPD1    H1 3045   4.512   2.509  14.926  0.8856 -1.1473 -1.1436
  200MPD1    H2 3046   4.540   2.927  14.982  0.2045  1.3984 -2.6236
  200MPD1    H3 3047   4.431   2.710  15.006  1.2014 -1.2535  3.0214
  200MPD1     N 3048   0.046   2.490  14.780  0.3391  0.0737  0.2920
  200MPD1    H5 3049   0.139   2.508  14.744  0.3171  0.5272  0.4655
  200MPD1    N1 3050   0.072   2.955  14.868  0.0629 -0.4948 -0.1279
  200MPD1    H6 3051   0.059   3.010  14.953  0.0259 -2.4755  1.1598
  200MPD1    H7 3052   0.171   2.934  14.881 -0.1330 -2.0105 -1.0731
  201MPD1     C 3053   2.333   1.791  12.528 -0.1012  0.5301 -0.0638
  201MPD1    C1 3054   2.275   1.676  12.485  0.2249 -0.5242  0.3895
  201MPD1    C2 3055   2.322   1.555  12.513  0.4657  0.1470 -0.2347
  201MPD1    C3 3056   2.451   1.536  12.559  0.2227 -0.5420 -0.7431
  201MPD1    C4 3057   2.523   1.651  12.584  0.3285  0.1790  0.5932
  201MPD1    C5 3058   2.462   1.772  12.573 -0.4763  0.5782 -0.1189
  201MPD1     H 3059   2.271   1.459  12.511  1.5388 -0.4589  0.9874
  201MPD1    H1 3060   2.623   1.662  12.624  0.4896  1.2341 -0.0876
  201MPD1    H2 3061   2.292   1.891  12.518 -0.3133  0.2460 -2.0642
  201MPD1    H3 3062   2.521   1.858  12.601  2.0881 -0.5627 -1.9771
  201MPD1     N 3063   2.502   1.405  12.570  0.5304 -0.6599  0.3081
  201MPD1    H5 3064   2.440   1.327  12.552 -0.1540 -0.1458  0.4483
  201MPD1    N1 3065   2.140   1.672  12.441  0.1548  0.0043  0.0690
  201MPD1    H6 3066   2.115   1.753  12.384 -0.3050 -0.6268 -0.6128
  201MPD1    H7 3067   2.127   1.586  12.389 -1.9028  0.2335  0.2264
  202MPD1     C 3068   3.307   1.474   9.413 -0.1965 -0.0626 -0.8519
  202MPD1    C1 3069   3.181   1.454   9.354 -0.4490 -0.6838 -1.0250
  202MPD1    C2 3070   3.109   1.357   9.422  0.8550  0.2756 -0.7969
  202MPD1    C3 3071   3.147   1.299   9.541 -0.1774  0.1515  0.0039
  202MPD1    C4 3072   3.264   1.342   9.597  0.4735 -0.5165 -0.4483
  202MPD1    C5 3073   3.344   1.433   9.535  0.5693 -1.3317 -0.0784
  202MPD1     H 3074   3.011   1.329   9.386  0.4858  0.7542 -0.1621
  202MPD1    H1 3075   3.303   1.297   9.688  1.2542  2.0464  0.5109
  202MPD1    H2 3076   3.390   1.520   9.361 -0.3408  1.7738  0.5216
  202MPD1    H3 3077   3.442   1.459   9.573 -0.4218  1.7166  0.4252
  202MPD1     N 3078   3.063   1.206   9.607  0.2831 -0.7126 -0.1698
  202MPD1    H5 3079   3.095   1.180   9.700  0.9946  0.5265 -0.0784
  202MPD1    N1 3080   3.160   1.483   9.219 -0.4199 -0.3931 -0.5765
  202MPD1    H6 3081   3.060   1.490   9.202 -0.5492 -2.2980 -0.5993
  202MPD1    H7 3082   3.192   1.578   9.200 -0.4243  0.1163  1.9667
  203MPD1     C 3083   0.982   2.235  12.355 -0.1547 -0.1280 -0.0298
  203MPD1    C1 3084   1.108   2.203  12.294  0.1025 -0.2477  0.5227
  203MPD1    C2 3085   1.157   2.077  12.323  0.1029  0.5123  1.3599
  203MPD1    C3 3086   1.097   1.982  12.407 -0.7873 -0.0061  0.9273
  203MPD1    C4 3087   0.981   2.026  12.463 -0.2329  0.3907  0.0692
  203MPD1    C5 3088   0.924   2.145  12.434 -0.0937 -0.0466 -0.5256
  203MPD1     H 3089   1.259   2.053  12.297 -0.9172 -1.3048 -1.0158
  203MPD1    H1 3090   0.922   1.963  12.528  1.5102 -0.4997  0.8072
  203MPD1    H2 3091   0.919   2.319  12.327  0.1959  0.3671  0.6464
  203MPD1    H3 3092   0.837   2.175  12.490 -0.7068 -1.1996 -0.8439
  203MPD1     N 3093   1.164   1.860  12.436 -0.4212 -0.1450  0.1947
  203MPD1    H5 3094   1.258   1.847  12.400 -1.5404 -1.5330 -2.1991
  203MPD1    N1 3095   1.164   2.295  12.208 -0.1211 -0.7039  0.1268
  203MPD1    H6 3096   1.093   2.328  12.143 -1.0636 -1.7099  0.6565
  203MPD1    H7 3097   1.235   2.258  12.144  0.8609 -0.0570  0.8333
  204MPD1     C 3098   0.423   2.003   0.209  0.7587  0.4029 -0.9094
  204MPD1    C1 3099   0.531   2.062   0.142 -0.2678  0.5710 -0.5963
  204MPD1    C2 3100   0.607   1.983   0.057 -0.6275  0.0684 -0.4897
  204MPD1    C3 3101   0.578   1.852   0.043 -1.6525  0.2470 -0.1451
  204MPD1    C4 3102   0.466   1.800   0.101  0.1785  0.0290 -0.0214
  204MPD1    C5 3103   0.384   1.872   0.178 -0.0705 -0.5056 -0.0241
  204MPD1     H 3104   0.696   2.026   0.014 -1.6168  1.3082 -1.3141
  204MPD1    H1 3105   0.427   1.700   0.086 -1.3952  0.6820 -0.2563
  204MPD1    H2 3106   0.353   2.055   0.273 -0.0051 -1.6521 -0.0793
  204MPD1    H3 3107   0.296   1.827   0.221 -0.6090 -1.4017 -2.0594
  204MPD1     N 3108   0.666   1.782  17.624  0.1428 -0.0651 -0.3483
  204MPD1    H5 3109   0.737   1.831  17.570 -0.4970 -0.6698 -1.7308
  204MPD1    N1 3110   0.570   2.195   0.176  1.1151 -0.6095 -0.0338
  204MPD1    H6 3111   0.621   2.233   0.096 -0.2288  1.6944  0.2034
  204MPD1    H7 3112   0.500   2.262   0.208 -2.3725 -4.4221  0.3288
  205MPD1     C 3113   1.210   0.285  16.408 -0.6967  0.6401 -0.6264
  205MPD1    C1 3114   1.194   0.421  16.425  0.4704 -0.0464  0.0043
  205MPD1    C2 3115   1.241   0.471  16.543  0.8103  0.3105 -0.2405
  205MPD1    C3 3116   1.279   0.398  16.659  0.5045 -0.0807  0.1096
  205MPD1    C4 3117   1.276   0.261  16.652  0.8097 -0.2662 -0.1905
  205MPD1    C5 3118   1.249   0.211  16.524 -0.4756  0.4269  0.2800
  205MPD1     H 3119   1.245   0.579  16.552  2.0076  0.2819 -0.4049
  205MPD1    H1 3120   1.283   0.189  16.733  0.8775  0.1314  0.1521
  205MPD1    H2 3121   1.182   0.221  16.325  2.4921 -1.4179 -0.1252
  205MPD1    H3 3122   1.246   0.104  16.512  2.9019  0.3631 -0.0494
  205MPD1     N 3123   1.309   0.459  16.789  0.2292 -0.1270  0.2242
  205MPD1    H5 3124   1.317   0.383  16.857 -1.1535 -1.8769 -1.5934
  205MPD1    N1 3125   1.191   0.501  16.308  0.0357 -0.2094 -1.1702
  205MPD1    H6 3126   1.149   0.592  16.328 -0.2075 -0.5244 -0.2345
  205MPD1    H7 3127   1.139   0.455  16.233 -1.0497 -1.4980  0.3691
  206MPD1     C 3128   1.094   3.766  16.259 -0.8137  0.4185  0.0122
  206MPD1    C1 3129   1.209   3.734  16.179 -0.6775  0.3472  0.4525
  206MPD1    C2 3130   1.214   3.789  16.056  0.8092  0.4222 -0.4210
  206MPD1    C3 3131   1.113   3.865  16.001  0.2883 -0.0671  0.1199
  206MPD1    C4 3132   0.996   3.889  16.080  0.1750 -0.4114 -0.0649
  206MPD1    C5 3133   0.988   3.837  16.209  0.2875 -0.3787 -0.7341
  206MPD1     H 3134   1.304   3.773  15.999 -0.3190 -2.1914 -1.4504
  206MPD1    H1 3135   0.924   3.954  16.031  1.1377 -1.0223 -2.3125
  206MPD1    H2 3136   1.086   3.737  16.363 -1.3319 -0.9590 -0.4185
  206MPD1    H3 3137   0.903   3.861  16.271  1.0735  0.0886  0.1507
  206MPD1     N 3138   1.122   3.916  15.866  0.2845  0.3506  0.3417
  206MPD1    H5 3139   1.041   3.961  15.825  0.8090  1.5359  0.6025
  206MPD1    N1 3140   1.315   3.673  16.233 -0.6396  0.0289  0.4903
  206MPD1    H6 3141   1.359   3.610  16.165 -1.5369 -1.3815  1.2103
  206MPD1    H7 3142   1.282   3.615  16.310 -1.1692 -0.2275  0.0744
  207MPD1     C 3143   2.821   1.132   9.995  0.0525  0.8021 -0.1330
  207MPD1    C1 3144   2.780   1.243   9.924  0.5159  1.0589  0.6583
  207MPD1    C2 3145   2.874   1.338   9.881 -0.0605 -0.0635 -0.3395
  207MPD1    C3 3146   3.003   1.333   9.929 -0.7949  0.4457  0.9492
  207MPD1    C4 3147   3.039   1.222  10.003  0.0121 -0.2306  0.5322
  207MPD1    C5 3148   2.951   1.123  10.031 -0.0651  0.5116 -0.1132
  207MPD1     H 3149   2.833   1.422   9.826 -0.2554  1.0864  1.5504
  207MPD1    H1 3150   3.139   1.212  10.044  0.0264 -2.0727  0.0242
  207MPD1    H2 3151   2.757   1.048  10.021  1.9398 -0.1167  1.5905
  207MPD1    H3 3152   2.982   1.036  10.088 -1.0788 -0.5513 -1.1872
  207MPD1     N 3153   3.112   1.421   9.909  0.3671  0.4232  0.5064
  207MPD1    H5 3154   3.202   1.401   9.951 -0.0824  1.6675  2.0683
  207MPD1    N1 3155   2.655   1.254   9.866 -0.2798 -0.1670  0.6614
  207MPD1    H6 3156   2.579   1.235   9.932  1.5494 -2.0752  2.2201
  207MPD1    H7 3157   2.633   1.345   9.827  1.7029  0.1526  0.3162
  208MPD1     C 3158   1.430   1.163   0.737  0.1787 -0.2177 -0.2920
  208MPD1    C1 3159   1.368   1.075   0.824 -0.1615 -0.0249  0.2687
  208MPD1    C2 3160   1.316   0.964   0.766 -0.6068  0.2444 -0.6716
  208MPD1    C3 3161   1.319   0.946   0.624 -0.2020  0.1458 -0.2993
  208MPD1    C4 3162   1.380   1.034   0.541  0.6103  0.4838  0.0562
  208MPD1    C5 3163   1.437   1.143   0.597 -0.1152 -0.2463 -0.3401
  208MPD1     H 3164   1.279   0.882   0.826 -0.2744  1.4823  1.2063
  208MPD1    H1 3165   1.391   1.031   0.433 -0.1761 -0.6378  0.0133
  208MPD1    H2 3166   1.478   1.249   0.783 -0.3855 -0.2704  0.3943
  208MPD1    H3 3167   1.490   1.211   0.531  3.0134 -1.5073  0.9189
  208MPD1     N 3168   1.253   0.829   0.579  0.6870 -0.3096  0.1058
  208MPD1    H5 3169   1.197   0.791   0.654  0.2875 -1.2307 -0.6613
  208MPD1    N1 3170   1.374   1.085   0.964  0.0039 -0.0791 -0.4042
  208MPD1    H6 3171   1.307   1.028   1.015  2.1553 -3.6608 -1.5346
  208MPD1    H7 3172   1.359   1.181   0.993  2.6628 -0.1277  1.1053
  209MPD1     C 3173   3.274   0.789  10.723  0.4067 -0.1509  0.3277
  209MPD1    C1 3174   3.311   0.857  10.608 -0.4458  0.6717  0.3281
  209MPD1    C2 3175   3.419   0.936  10.621  0.5850  0.0135  0.7232
  209MPD1    C3 3176   3.472   0.973  10.743 -0.4266  0.2583 -0.3813
  209MPD1    C4 3177   3.428   0.910  10.855 -0.7320 -0.0452  0.0685
  209MPD1    C5 3178   3.330   0.815  10.846 -0.2768  0.2033 -0.4364
  209MPD1     H 3179   3.455   0.983  10.530  1.6849  1.1909  1.7772
  209MPD1    H1 3180   3.458   0.934  10.956 -1.1043 -1.6172  0.5481
  209MPD1    H2 3181   3.189   0.723  10.718 -0.5214  0.8116  3.3742
  209MPD1    H3 3182   3.285   0.784  10.940  0.5002  1.8055  0.4808
  209MPD1     N 3183   3.571   1.073  10.745  0.7118 -0.1692  0.0108
  209MPD1    H5 3184   3.599   1.113  10.656 -0.1038  1.3937  0.4478
  209MPD1    N1 3185   3.271   0.808  10.481  0.5880 -0.4505 -0.6444
  209MPD1    H6 3186   3.283   0.876  10.406 -0.8850  2.2470  1.5323
  209MPD1    H7 3187   3.172   0.786  10.487  0.4212  0.4580 -0.0318
  210MPD1     C 3188   4.317   1.405  11.365  0.1206 -0.9060  0.0853
  210MPD1    C1 3189   4.353   1.374  11.236 -0.6826 -0.1126 -0.2952
  210MPD1    C2 3190   4.248   1.351  11.148 -0.0375  0.1425 -0.3146
  210MPD1    C3 3191   4.118   1.390  11.162  0.4283 -0.2916  0.4803
  210MPD1    C4 3192   4.082   1.438  11.285 -0.2591 -0.2537  0.3704
  210MPD1    C5 3193   4.180   1.435  11.381 -0.5594 -0.2019 -0.2562
  210MPD1     H 3194   4.262   1.318  11.045 -0.6518  0.0897 -0.3784
  210MPD1    H1 3195   3.981   1.471  11.304 -0.4980  0.3477 -1.8739
  210MPD1    H2 3196   4.389   1.416  11.445 -0.1937 -0.3843  0.2961
  210MPD1    H3 3197   4.142   1.482  11.471 -2.9845  0.2574 -1.5135
  210MPD1     N 3198   4.015   1.381  11.059 -0.2421 -0.3385  0.4752
  210MPD1    H5 3199   3.920   1.403  11.084  0.0658  1.6122 -0.0676
  210MPD1    N1 3200   4.478   1.330  11.209  0.0279 -0.1660 -0.5778
  210MPD1    H6 3201   4.533   1.369  11.285  1.2734  0.0495 -1.6178
  210MPD1    H7 3202   4.502   1.346  11.112 -0.0103  2.4583 -0.1399
  211MPD1     C 3203   1.397   0.748  15.502 -0.7584  0.2296  0.1269
  211MPD1    C1 3204   1.423   0.883  15.492  0.5507 -0.4291 -0.1381
  211MPD1    C2 3205   1.310   0.962  15.519 -0.8276  0.2372 -0.2094
  211MPD1    C3 3206   1.185   0.911  15.555 -0.1126 -0.2918 -0.1824
  211MPD1    C4 3207   1.163   0.777  15.552  0.3225  0.7680  0.2915
  211MPD1    C5 3208   1.275   0.696  15.529 -0.0302 -0.5139 -0.2503
  211MPD1     H 3209   1.321   1.070  15.517 -0.2030  0.2079  2.8716
  211MPD1    H1 3210   1.070   0.724  15.574  0.7076 -0.2658 -0.5544
  211MPD1    H2 3211   1.487   0.692  15.479  0.4561  2.8054 -1.4942
  211MPD1    H3 3212   1.259   0.589  15.520 -1.0359 -0.2461 -1.7330
  211MPD1     N 3213   1.087   1.004  15.601  0.0842 -0.0195 -0.1845
  211MPD1    H5 3214   1.121   1.097  15.623  2.3658 -0.8954  0.0638
  211MPD1    N1 3215   1.558   0.921  15.465 -0.6352 -0.1179  0.5544
  211MPD1    H6 3216   1.572   1.014  15.425  2.7602 -1.1138 -0.6549
  211MPD1    H7 3217   1.612   0.853  15.411  0.1407  0.8126  0.1432
  212MPD1     C 3218   0.227   4.262  16.484  0.5205  0.0875 -0.7332
  212MPD1    C1 3219   0.136   4.236  16.587  0.5576  0.0541  0.1351
  212MPD1    C2 3220   0.131   4.114  16.650  0.4463 -0.4203  0.2980
  212MPD1    C3 3221   0.226   4.026  16.619  0.3468 -0.4446 -0.8383
  212MPD1    C4 3222   0.317   4.047  16.516  0.1245  0.4247 -0.2650
  212MPD1    C5 3223   0.319   4.167  16.455  0.0221 -0.3268  0.4444
  212MPD1     H 3224   0.061   4.110  16.733 -0.5133  0.6203 -0.4696
  212MPD1    H1 3225   0.392   3.975  16.486 -0.5398  0.0852 -1.1075
  212MPD1    H2 3226   0.221   4.351  16.423  1.5187 -0.2727 -1.3533
  212MPD1    H3 3227   0.389   4.188  16.376 -1.1849  1.7962 -0.0717
  212MPD1     N 3228   0.236   3.902  16.683  0.0116  0.6761 -0.7548
  212MPD1    H5 3229   0.308   3.843  16.643 -0.9672  0.2996 -1.9803
  212MPD1    N1 3230   0.043   4.337  16.621  0.2784  0.3459  0.3264
  212MPD1    H6 3231   0.076   4.432  16.641  2.4966  0.2901 -3.0429
  212MPD1    H7 3232   4.706   4.321  16.706  1.6240  1.1145  1.3209
  213MPD1     C 3233   3.221   0.476  15.623 -0.2386 -0.5664  0.6233
  213MPD1    C1 3234   3.091   0.482  15.575 -0.5509 -0.1351  0.7599
  213MPD1    C2 3235   3.092   0.463  15.435  0.0809  0.4847  0.2531
  213MPD1    C3 3236   3.201   0.486  15.357 -0.8730  0.0596  0.2243
  213MPD1    C4 3237   3.325   0.518  15.411  0.0369  0.5309  0.2185
  213MPD1    C5 3238   3.329   0.511  15.545  0.4478  0.2314  0.3964
  213MPD1     H 3239   2.999   0.446  15.382  1.5937 -3.1346 -1.2701
  213MPD1    H1 3240   3.413   0.541  15.351  0.0564 -0.1506 -0.0180
  213MPD1    H2 3241   3.233   0.479  15.730  0.9375 -3.5285  0.5879
  213MPD1    H3 3242   3.419   0.547  15.595 -0.3313  1.9702  0.5218
  213MPD1     N 3243   3.172   0.484  15.218 -0.1999  0.0461  0.4938
  213MPD1    H5 3244   3.078   0.466  15.186  0.3716  0.8893 -1.6405
  213MPD1    N1 3245   2.988   0.433  15.651  0.2972  1.0679 -0.4908
  213MPD1    H6 3246   2.893   0.452  15.618  0.5088  1.1170 -1.0539
  213MPD1    H7 3247   2.993   0.453  15.751 -1.1880  2.2046 -0.6463
  214MPD1     C 3248   2.671   4.640  14.797  0.0524  0.3952 -0.4130
  214MPD1    C1 3249   2.750   4.667  14.688 -0.4860 -0.8186  0.5391
  214MPD1    C2 3250   2.851   0.044  14.705 -0.5590 -0.1040  0.0188
  214MPD1    C3 3251   2.873   0.116  14.825  0.0402  0.1146  0.7062
  214MPD1    C4 3252   2.786   0.091  14.925 -0.6395  0.6187  0.1876
  214MPD1    C5 3253   2.691   4.710  14.912  0.2625 -0.6421 -0.6078
  214MPD1     H 3254   2.927   0.068  14.632  0.0990 -0.3204  0.6306
  214MPD1    H1 3255   2.784   0.146  15.019  1.0923 -0.2956  0.7697
  214MPD1    H2 3256   2.598   4.560  14.801 -0.2903  0.6616 -1.5204
  214MPD1    H3 3257   2.638   4.671  14.998  1.1034  2.0494  1.1240
  214MPD1     N 3258   2.978   0.205  14.848 -0.1677  0.2960  0.2768
  214MPD1    H5 3259   2.996   0.227  14.946  0.6016  0.6158  0.0612
  214MPD1    N1 3260   2.749   4.576  14.580 -0.5536 -0.2868  0.3413
  214MPD1    H6 3261   2.659   4.535  14.558 -0.4711 -2.0067  3.2677
  214MPD1    H7 3262   2.784   4.610  14.491  0.6776 -0.5482  0.7209
  215MPD1     C 3263   3.276   0.997  10.178 -0.6157  0.4723  0.1783
  215MPD1    C1 3264   3.403   1.055  10.164 -1.0436 -0.0957  0.2025
  215MPD1    C2 3265   3.433   1.167  10.243  0.2480 -0.3952 -0.4319
  215MPD1    C3 3266   3.349   1.213  10.342 -0.3817  0.5212  0.5878
  215MPD1    C4 3267   3.234   1.145  10.364  0.3300 -0.3934 -0.3339
  215MPD1    C5 3268   3.198   1.040  10.282 -0.2696  0.1205 -0.3201
  215MPD1     H 3269   3.528   1.217  10.226 -0.7521  1.3888 -0.7331
  215MPD1    H1 3270   3.164   1.175  10.441 -0.3928 -0.6320 -0.9043
  215MPD1    H2 3271   3.246   0.923  10.104  0.0176  1.1750 -0.7833
  215MPD1    H3 3272   3.101   0.992  10.296 -0.5174  1.1466  1.5120
  215MPD1     N 3273   3.386   1.325  10.414  0.4406  0.2360  0.2457
  215MPD1    H5 3274   3.464   1.380  10.382 -0.0062  0.9574  0.4064
  215MPD1    N1 3275   3.478   1.029  10.048  0.5591 -0.2534 -0.1303
  215MPD1    H6 3276   3.579   1.035  10.065  0.7202 -0.6239 -0.9623
  215MPD1    H7 3277   3.468   0.935  10.011 -2.2544 -0.6022  1.5741
  216MPD1     C 3278   0.755   3.605  16.419 -0.3587  0.5836 -0.2639
  216MPD1    C1 3279   0.773   3.472  16.381 -0.2631 -0.5914 -0.8216
  216MPD1    C2 3280   0.812   3.378  16.476  0.2403  0.0087  0.0465
  216MPD1    C3 3281   0.807   3.407  16.612  0.0955 -0.1841 -0.0892
  216MPD1    C4 3282   0.788   3.540  16.647  0.4085  0.5837 -0.2279
  216MPD1    C5 3283   0.765   3.638  16.554 -0.2655 -0.2031  0.0289
  216MPD1     H 3284   0.834   3.278  16.441  1.4829  0.8342 -1.5279
  216MPD1    H1 3285   0.776   3.569  16.751  0.7023 -1.8206  0.4903
  216MPD1    H2 3286   0.734   3.680  16.343 -0.2644  0.2002 -0.6718
  216MPD1    H3 3287   0.734   3.739  16.578 -1.2321 -0.1280 -1.5172
  216MPD1     N 3288   0.821   3.296  16.699  0.2507  0.6677 -0.3030
  216MPD1    H5 3289   0.821   3.205  16.654 -0.0331 -0.3718  1.8145
  216MPD1    N1 3290   0.783   3.441  16.243  1.7065  0.0103  0.3101
  216MPD1    H6 3291   0.712   3.490  16.188  1.6423  0.1173  0.4881
  216MPD1    H7 3292   0.766   3.341  16.237  0.8421  0.0727  1.7508
  217MPD1     C 3293   1.385   1.418   8.642  0.0284 -0.3561  0.5490
  217MPD1    C1 3294   1.475   1.363   8.732 -0.1578  0.4892  0.4059
  217MPD1    C2 3295   1.493   1.226   8.730 -0.4941 -0.3337  0.1476
  217MPD1    C3 3296   1.416   1.148   8.641 -0.1474 -0.1105  0.2738
  217MPD1    C4 3297   1.314   1.206   8.565  0.0051 -0.1772 -0.3215
  217MPD1    C5 3298   1.298   1.340   8.575 -0.3663  0.1560  0.1963
  217MPD1     H 3299   1.560   1.191   8.807  0.1190 -0.9685 -0.6881
  217MPD1    H1 3300   1.243   1.146   8.510 -0.5826 -1.8391  2.2343
  217MPD1    H2 3301   1.366   1.525   8.641 -0.0434 -0.3562  1.3786
  217MPD1    H3 3302   1.216   1.382   8.518  0.2983  2.7344  1.1671
  217MPD1     N 3303   1.431   1.005   8.635  0.2716  0.3999 -0.1382
  217MPD1    H5 3304   1.361   0.950   8.588 -0.5082 -0.7426  2.3349
  217MPD1    N1 3305   1.562   1.446   8.802  0.3220 -0.4874  0.1287
  217MPD1    H6 3306   1.522   1.534   8.834  1.0855  1.0423 -3.1364
  217MPD1    H7 3307   1.607   1.412   8.887  2.7085  1.3153 -0.4205
  218MPD1     C 3308   2.432   2.404  12.618  0.4880  0.8854  0.6296
  218MPD1    C1 3309   2.546   2.481  12.590  0.5698  0.9680  0.5755
  218MPD1    C2 3310   2.648   2.403  12.547 -0.4810 -0.2525 -0.4808
  218MPD1    C3 3311   2.654   2.262  12.547 -0.2694 -0.7824  0.4360
  218MPD1    C4 3312   2.544   2.198  12.596  0.5086  0.3015 -0.0221
  218MPD1    C5 3313   2.437   2.270  12.633  0.2143  0.0796  0.0195
  218MPD1     H 3314   2.740   2.453  12.518  0.5995 -1.4190  0.9518
  218MPD1    H1 3315   2.541   2.090  12.600  1.6101  0.2887  0.2575
  218MPD1    H2 3316   2.344   2.466  12.633 -0.3280  0.4939 -2.4577
  218MPD1    H3 3317   2.346   2.216  12.658  1.5466 -2.1665  0.0635
  218MPD1     N 3318   2.775   2.197  12.503  0.2098 -0.1036 -0.8354
  218MPD1    H5 3319   2.859   2.254  12.496 -0.2176  0.7953  1.3443
  218MPD1    N1 3320   2.547   2.618  12.565 -0.0654  0.7724  0.3567
  218MPD1    H6 3321   2.490   2.667  12.634 -0.8512  1.2447 -0.6223
  218MPD1    H7 3322   2.641   2.656  12.558  0.6931 -1.5088 -1.8916
  219MPD1     C 3323   3.576   2.401  11.968  0.7592 -0.2456 -0.6233
  219MPD1    C1 3324   3.450   2.461  11.992  0.5701 -1.2501 -0.6465
  219MPD1    C2 3325   3.361   2.381  12.063  0.2541  0.3186 -0.2441
  219MPD1    C3 3326   3.385   2.253  12.104 -0.2267  0.6156  0.4655
  219MPD1    C4 3327   3.506   2.200  12.066  0.0568 -0.1704 -0.1409
  219MPD1    C5 3328   3.602   2.271  12.003  0.4108 -0.5978 -0.4877
  219MPD1     H 3329   3.263   2.421  12.086  1.2656  2.5254  0.1911
  219MPD1    H1 3330   3.518   2.092  12.069 -0.4916 -0.2197  0.3465
  219MPD1    H2 3331   3.652   2.459  11.917  2.0460 -0.4231  1.1064
  219MPD1    H3 3332   3.692   2.225  11.964  0.1430 -1.4783 -0.0515
  219MPD1     N 3333   3.291   2.174  12.171  0.2831  0.1490 -0.6333
  219MPD1    H5 3334   3.314   2.076  12.186  1.4145  0.6011  0.6126
  219MPD1    N1 3335   3.435   2.596  11.964 -0.1258 -0.3694  0.0916
  219MPD1    H6 3336   3.339   2.632  11.967  0.3852  1.2509 -3.5523
  219MPD1    H7 3337   3.489   2.637  11.889  2.3172  0.2059  2.1774
  220MPD1     C 3338   3.147   2.602   9.150  0.5319  0.5278  0.4433
  220MPD1    C1 3339   3.234   2.627   9.255  0.8136  0.0717 -0.8081
  220MPD1    C2 3340   3.216   2.540   9.359  0.0105  0.2386 -0.1070
  220MPD1    C3 3341   3.126   2.433   9.365 -0.0758 -0.0306  0.5601
  220MPD1    C4 3342   3.029   2.427   9.265 -0.1850  0.2069 -0.5371
  220MPD1    C5 3343   3.041   2.523   9.166 -0.9211 -0.4035  0.0023
  220MPD1     H 3344   3.282   2.545   9.446  0.6609 -0.4085 -0.5605
  220MPD1    H1 3345   2.939   2.368   9.272  0.7592 -1.1385  0.4103
  220MPD1    H2 3346   3.145   2.661   9.059  3.1390 -1.9733 -1.2552
  220MPD1    H3 3347   2.959   2.528   9.096 -0.0972 -0.8691 -0.9817
  220MPD1     N 3348   3.119   2.354   9.488  0.3155 -0.4275 -0.2862
  220MPD1    H5 3349   3.170   2.389   9.569  2.2128 -1.7715 -0.8911
  220MPD1    N1 3350   3.347   2.710   9.235 -0.1674  0.1048  0.1930
  220MPD1    H6 3351   3.384   2.755   9.319  0.6472  0.1088 -0.1755
  220MPD1    H7 3352   3.328   2.780   9.163 -1.4265 -2.2158 -1.7084
  221MPD1     C 3353   1.161   4.595  16.824 -0.6634  0.1882  0.2921
  221MPD1    C1 3354   1.263   4.601  16.732 -0.0078 -0.0717  0.1889
  221MPD1    C2 3355   1.235   4.563  16.602 -0.4575 -0.0925  0.6509
  221MPD1    C3 3356   1.104   4.566  16.558  0.1940  0.5233 -0.3302
  221MPD1    C4 3357   1.003   4.584  16.644 -0.0160 -0.4156  0.4469
  221MPD1    C5 3358   1.029   4.594  16.775 -0.2365 -0.2375 -0.8058
  221MPD1     H 3359   1.321   4.547  16.537 -0.7307  0.5503  0.1190
  221MPD1    H1 3360   0.897   4.587  16.623 -0.1554 -1.5543  0.9948
  221MPD1    H2 3361   1.184   4.595  16.930 -5.2379  0.5475  1.2964
  221MPD1    H3 3362   0.951   4.592  16.850 -0.9858  1.5714 -1.5452
  221MPD1     N 3363   1.067   4.543  16.422  0.5185 -0.6962 -0.2725
  221MPD1    H5 3364   0.968   4.543  16.398  0.8048 -1.9891 -1.4489
  221MPD1    N1 3365   1.391   4.586  16.783  0.3492 -0.2952 -0.2850
  221MPD1    H6 3366   1.456   4.632  16.719  0.1271  0.5893  0.1224
  221MPD1    H7 3367   1.401   4.623  16.877 -0.9973  1.7650 -0.9495
  222MPD1     C 3368   1.554   3.831  16.968  0.1417 -0.2665 -0.1806
  222MPD1    C1 3369   1.639   3.820  17.068  0.1802  0.0729 -0.2057
  222MPD1    C2 3370   1.626   3.902  17.176  0.1164  0.0217 -0.2230
  222MPD1    C3 3371   1.529   4.000  17.180  0.5697 -0.7333  0.1092
  222MPD1    C4 3372   1.461   4.033  17.067 -0.0016  0.0570 -1.1363
  222MPD1    C5 3373   1.485   3.950  16.961 -0.0368 -0.0692 -0.1453
  222MPD1     H 3374   1.684   3.881  17.265  0.3337 -0.6356 -0.5178
  222MPD1    H1 3375   1.391   4.116  17.063  0.0250  0.0989 -0.7200
  222MPD1    H2 3376   1.559   3.762  16.884  2.0136 -1.3838  0.8431
  222MPD1    H3 3377   1.435   3.961  16.866  3.8837 -0.9259 -2.3204
  222MPD1     N 3378   1.502   4.073  17.304  0.1483  0.5245  0.3428
  222MPD1    H5 3379   1.430   4.144  17.295 -0.0190  0.1547 -1.3950
  222MPD1    N1 3380   1.729   3.714  17.063 -0.1157  1.0732  0.1677
  222MPD1    H6 3381   1.766   3.689  16.972  1.3680 -1.5130  1.5013
  222MPD1    H7 3382   1.802   3.725  17.133  1.0501  1.7197 -1.1500
  223MPD1     C 3383   1.823   4.277   0.684 -0.7613  0.4298  0.1727
  223MPD1    C1 3384   1.686   4.298   0.686  0.3655  0.6839  0.3736
  223MPD1    C2 3385   1.623   4.284   0.566 -0.9776  0.8445  0.6680
  223MPD1    C3 3386   1.677   4.224   0.452  0.5350  0.0513 -0.1806
  223MPD1    C4 3387   1.808   4.190   0.458 -0.5236 -0.6933 -0.6627
  223MPD1    C5 3388   1.880   4.228   0.575  0.0590 -0.5259  0.2265
  223MPD1     H 3389   1.519   4.316   0.561 -1.0736  0.1462 -1.7753
  223MPD1    H1 3390   1.862   4.141   0.377  2.1649  0.8461  0.1836
  223MPD1    H2 3391   1.876   4.295   0.777 -1.1438  1.1000  0.2580
  223MPD1    H3 3392   1.985   4.219   0.553 -0.2068  0.0511 -1.2646
  223MPD1     N 3393   1.599   4.220   0.336 -0.2826 -0.1087  0.1194
  223MPD1    H5 3394   1.507   4.263   0.340  0.5036  1.7723 -1.7251
  223MPD1    N1 3395   1.621   4.366   0.786 -0.1693  0.3850 -0.9499
  223MPD1    H6 3396   1.522   4.343   0.774 -0.1771 -0.7860  1.4027
  223MPD1    H7 3397   1.639   4.321   0.876  0.0050 -0.6653 -1.5063
  224MPD1     C 3398   2.120   1.776   9.002  0.4120  0.6133  0.0660
  224MPD1    C1 3399   2.192   1.747   9.116 -0.2233 -0.4957 -0.5093
  224MPD1    C2 3400   2.153   1.633   9.189  0.2359  0.0059 -0.0649
  224MPD1    C3 3401   2.063   1.543   9.131  0.4601  0.0761  0.2904
  224MPD1    C4 3402   1.995   1.576   9.009 -0.3210  0.3208 -0.4605
  224MPD1    C5 3403   2.026   1.692   8.952  0.0482  0.1108 -0.2783
  224MPD1     H 3404   2.184   1.603   9.289  1.2788  1.0539 -0.0802
  224MPD1    H1 3405   1.933   1.511   8.949  0.1151 -0.2713 -0.2701
  224MPD1    H2 3406   2.130   1.871   8.950 -1.7289  0.9109  0.1802
  224MPD1    H3 3407   1.966   1.721   8.866 -0.9612 -0.0523  0.3778
  224MPD1     N 3408   2.021   1.423   9.191  0.3199  0.0846 -0.7651
  224MPD1    H5 3409   1.944   1.373   9.147  0.6060  0.1337 -1.3237
  224MPD1    N1 3410   2.285   1.841   9.167  0.7085  0.3346 -0.0230
  224MPD1    H6 3411   2.359   1.798   9.222  0.3531 -0.3736 -0.0945
  224MPD1    H7 3412   2.323   1.888   9.086 -0.6540 -0.0281 -0.8784
  225MPD1     C 3413   1.293   1.836  13.388  0.9961 -0.2184 -0.5124
  225MPD1    C1 3414   1.281   1.972  13.413 -0.0876 -0.5968  0.5378
  225MPD1    C2 3415   1.337   2.057  13.323  0.2171 -0.0169 -0.4878
  225MPD1    C3 3416   1.418   2.003  13.221  0.6088 -0.3472  0.4682
  225MPD1    C4 3417   1.441   1.865  13.215 -0.3050 -0.1234 -0.8162
  225MPD1    C5 3418   1.371   1.783  13.292 -0.0464 -1.0275 -0.1307
  225MPD1     H 3419   1.319   2.163  13.332  1.6866  0.1161  0.7374
  225MPD1    H1 3420   1.516   1.822  13.150  1.2064  2.3839 -0.7337
  225MPD1    H2 3421   1.239   1.767  13.452  0.7014 -2.3711 -3.0514
  225MPD1    H3 3422   1.386   1.676  13.283 -0.9928 -1.1781  0.0331
  225MPD1     N 3423   1.484   2.085  13.127  0.6558 -0.2956 -0.3451
  225MPD1    H5 3424   1.560   2.043  13.074  1.5522 -0.4756  1.0706
  225MPD1    N1 3425   1.193   2.011  13.518 -0.1738  1.2043 -0.1308
  225MPD1    H6 3426   1.199   2.107  13.551  1.4716  0.8945  0.4694
  225MPD1    H7 3427   1.198   1.959  13.605  0.5788  0.2840 -0.7335
  226MPD1     C 3428   1.584   0.712   9.153 -0.6182  0.2354  0.0186
  226MPD1    C1 3429   1.659   0.830   9.159 -0.0765 -0.3122  0.3646
  226MPD1    C2 3430   1.590   0.950   9.135 -0.0249  0.4133  0.5141
  226MPD1    C3 3431   1.457   0.957   9.084 -0.5769  0.3493  0.4743
  226MPD1    C4 3432   1.394   0.838   9.079  0.2076 -0.0650 -0.0343
  226MPD1    C5 3433   1.447   0.718   9.118 -0.5012  0.2052  0.5862
  226MPD1     H 3434   1.640   1.044   9.156 -0.7234  1.0595 -0.7507
  226MPD1    H1 3435   1.287   0.847   9.062 -0.2178 -1.7207  1.8500
  226MPD1    H2 3436   1.622   0.611   9.164 -1.8329 -0.1704  0.4902
  226MPD1    H3 3437   1.374   0.639   9.124 -0.2792 -0.0489 -0.0347
  226MPD1     N 3438   1.399   1.078   9.043 -0.3246  0.2404  0.8611
  226MPD1    H5 3439   1.458   1.158   9.060 -1.4036  0.5035  3.2985
  226MPD1    N1 3440   1.783   0.820   9.220  0.1780 -0.0793  0.0737
  226MPD1    H6 3441   1.846   0.898   9.204 -1.0589  0.4648 -2.0540
  226MPD1    H7 3442   1.831   0.737   9.185  0.5703  0.1116  0.1592
  227MPD1     C 3443   0.688   1.226   8.344 -0.4316 -0.0622  0.9252
  227MPD1    C1 3444   0.676   1.142   8.453  0.6660  0.4280 -0.2847
  227MPD1    C2 3445   0.764   1.153   8.562 -0.6266  1.1294  0.7282
  227MPD1    C3 3446   0.848   1.259   8.572 -0.0261 -0.1305  0.5726
  227MPD1    C4 3447   0.861   1.350   8.471 -0.0632  0.0388  0.2940
  227MPD1    C5 3448   0.784   1.333   8.354  0.1397  0.3263 -0.7724
  227MPD1     H 3449   0.761   1.085   8.647 -1.3388  0.8916  0.5118
  227MPD1    H1 3450   0.936   1.429   8.474 -1.5849  1.5125 -0.8983
  227MPD1    H2 3451   0.627   1.210   8.256  1.7206 -1.8633 -0.2460
  227MPD1    H3 3452   0.807   1.401   8.273 -0.8712  0.0796 -1.2678
  227MPD1     N 3453   0.918   1.270   8.691 -0.3923 -0.2738 -0.1786
  227MPD1    H5 3454   0.909   1.190   8.753  1.5563  0.6247  1.2653
  227MPD1    N1 3455   0.581   1.038   8.446  0.0519 -0.0306  0.0028
  227MPD1    H6 3456   0.509   1.049   8.375  0.5373  1.9241 -0.1996
  227MPD1    H7 3457   0.534   1.031   8.536 -0.6237  4.1434 -0.0122
  228MPD1     C 3458   4.641   0.558  12.267 -0.2582 -0.1825 -0.8845
  228MPD1    C1 3459   4.525   0.609  12.223 -0.3219 -0.1870 -0.9379
  228MPD1    C2 3460   4.408   0.551  12.265  0.1873 -0.5641  0.1432
  228MPD1    C3 3461   4.401   0.460  12.369  0.1761 -0.1036 -0.5559
  228MPD1    C4 3462   4.520   0.431  12.427  0.1972  0.0289  0.5697
  228MPD1    C5 3463   4.636   0.486  12.381  0.0717 -0.3072  0.2399
  228MPD1     H 3464   4.316   0.578  12.215  0.4579  1.3864  0.6912
  228MPD1    H1 3465   4.532   0.370  12.515  0.8261  0.1499  0.5706
  228MPD1    H2 3466   0.020   0.589  12.226  1.3797  0.3383  3.3827
  228MPD1    H3 3467   0.016   0.459  12.423  0.7896  1.5773 -0.1916
  228MPD1     N 3468   4.278   0.412  12.415 -0.2402 -0.4435  0.0084
  228MPD1    H5 3469   4.195   0.452  12.371 -0.7086 -0.4081  0.9237
  228MPD1    N1 3470   4.523   0.684  12.099 -0.2852 -0.3237  0.3162
  228MPD1    H6 3471   4.596   0.753  12.087 -0.7112  0.3583  1.7339
  228MPD1    H7 3472   4.438   0.738  12.087 -0.4160 -0.5989 -0.0266
  229MPD1     C 3473   4.421   3.972  13.956 -0.1287 -0.4808 -0.5355
  229MPD1    C1 3474   4.316   3.937  14.030 -0.2688  0.6967 -0.6970
  229MPD1    C2 3475   4.323   3.821  14.106  0.1498 -0.6716  0.0508
  229MPD1    C3 3476   4.436   3.740  14.105  0.3013  0.3532  0.4715
  229MPD1    C4 3477   4.552   3.791  14.040 -0.4725 -0.3326 -0.7721
  229MPD1    C5 3478   4.540   3.906  13.968  0.9173 -0.4244 -0.1084
  229MPD1     H 3479   4.234   3.786  14.158  0.2225 -1.5476 -0.4148
  229MPD1    H1 3480   4.643   3.734  14.055 -1.2615 -1.7142 -1.2418
  229MPD1    H2 3481   4.417   4.047  13.878  2.9086  0.0119 -0.2098
  229MPD1    H3 3482   4.628   3.954  13.928  1.3991 -0.1273  1.2833
  229MPD1     N 3483   4.453   3.616  14.167  0.4275  0.3997  0.2931
  229MPD1    H5 3484   4.543   3.572  14.150  1.4375  2.6988 -0.3515
  229MPD1    N1 3485   4.190   4.006  14.017 -0.5235  0.3578 -0.2401
  229MPD1    H6 3486   4.195   4.104  13.989 -1.1734  0.8374  1.2932
  229MPD1    H7 3487   4.132   3.982  14.098 -1.3131 -1.8202 -1.4635
  230MPD1     C 3488   4.164   2.819  14.849  0.1251  0.6492 -0.3769
  230MPD1    C1 3489   4.252   2.770  14.756 -0.2786 -0.1510 -0.2238
  230MPD1    C2 3490   4.309   2.861  14.672  0.3531 -0.7609  0.1300
  230MPD1    C3 3491   4.288   2.997  14.686 -0.2150 -0.0075 -0.1523
  230MPD1    C4 3492   4.205   3.046  14.790 -0.6537  0.0219  0.6211
  230MPD1    C5 3493   4.143   2.955  14.869 -0.1253  0.5469 -0.2271
  230MPD1     H 3494   4.382   2.833  14.597  1.8953  0.6512  1.1068
  230MPD1    H1 3495   4.177   3.151  14.794  1.2516  0.5918 -0.5839
  230MPD1    H2 3496   4.102   2.750  14.904  0.1456  1.0988  0.2120
  230MPD1    H3 3497   4.064   2.985  14.938 -0.1340  1.3749 -0.6079
  230MPD1     N 3498   4.350   3.088  14.597 -0.2030 -0.2940 -0.1853
  230MPD1    H5 3499   4.419   3.051  14.533 -1.1447 -0.9913 -0.7939
  230MPD1    N1 3500   4.264   2.631  14.739  0.2485  0.5305  0.3307
  230MPD1    H6 3501   4.184   2.572  14.758  0.7814 -0.4904 -0.5807
  230MPD1    H7 3502   4.333   2.604  14.669  0.6726  1.3534  0.4327
  231MPD1     C 3503   2.566   0.180  15.418  0.1307  1.4561  0.3125
  231MPD1    C1 3504   2.471   0.257  15.341  0.0249  0.2537 -0.2872
  231MPD1    C2 3505   2.511   0.313  15.217  0.0087 -0.1163 -0.3220
  231MPD1    C3 3506   2.646   0.327  15.182  0.1034 -0.3567  0.4702
  231MPD1    C4 3507   2.738   0.256  15.264 -0.2508  0.2051  0.4671
  231MPD1    C5 3508   2.699   0.181  15.376 -0.2105 -0.4200 -0.3866
  231MPD1     H 3509   2.428   0.361  15.165 -1.5303 -0.1627  2.0745
  231MPD1    H1 3510   2.845   0.249  15.248 -0.2616 -1.1083  0.9831
  231MPD1    H2 3511   2.544   0.123  15.508  1.3152 -0.5466 -0.6654
  231MPD1    H3 3512   2.771   0.130  15.439  0.5199  0.3111 -0.6281
  231MPD1     N 3513   2.681   0.403  15.074 -0.8359 -0.1549  0.0857
  231MPD1    H5 3514   2.608   0.435  15.011  0.1545  0.6094 -0.6592
  231MPD1    N1 3515   2.331   0.240  15.358  0.2124  0.7993 -0.3840
  231MPD1    H6 3516   2.300   0.237  15.454  0.8165 -0.9484 -0.2545
  231MPD1    H7 3517   2.278   0.308  15.303 -0.9381  1.5956  1.7072
  232MPD1     C 3518   4.628   2.305  17.533 -0.1009 -0.3978  0.2953
  232MPD1    C1 3519   4.501   2.359  17.538  0.3862 -0.6970  0.1397
  232MPD1    C2 3520   4.396   2.269  17.560  0.3938  0.2942  0.1793
  232MPD1    C3 3521   4.419   2.134  17.595 -0.2163  0.1075 -0.4566
  232MPD1    C4 3522   4.552   2.088  17.609  0.2127 -0.6762  0.3022
  232MPD1    C5 3523   4.654   2.177  17.573 -0.1212  0.4991 -0.0888
  232MPD1     H 3524   4.293   2.300  17.576  0.8631  0.9561  1.9822
  232MPD1    H1 3525   4.576   1.985  17.633  0.5403 -0.4331  1.0204
  232MPD1    H2 3526   4.715   2.362  17.505  0.7449 -1.7868  0.0824
  232MPD1    H3 3527   0.045   2.161  17.577 -0.2838 -1.1066 -2.3277
  232MPD1     N 3528   4.313   2.041  17.614  0.2985 -0.1255  0.3022
  232MPD1    H5 3529   4.222   2.078  17.587 -0.2056 -1.4630  0.1809
  232MPD1    N1 3530   4.482   2.492  17.507 -0.4439  0.8233  0.1354
  232MPD1    H6 3531   4.564   2.549  17.529 -0.1276  0.7229 -0.7984
  232MPD1    H7 3532   4.396   2.519  17.553  0.3077  1.2940  1.2602
  233MPD1     C 3533   0.383   2.135   0.900 -0.2000  0.5871  0.7043
  233MPD1    C1 3534   0.514   2.107   0.874  0.1203 -0.8052 -0.0466
  233MPD1    C2 3535   0.565   1.987   0.908 -0.0355 -0.3904  0.7355
  233MPD1    C3 3536   0.483   1.894   0.961  0.0710  0.1176 -0.4210
  233MPD1    C4 3537   0.350   1.918   0.985 -0.2111 -0.1115 -0.2119
  233MPD1    C5 3538   0.296   2.039   0.955 -0.2392  0.5769 -0.0586
  233MPD1     H 3539   0.668   1.958   0.892 -0.0336  0.8017 -1.3050
  233MPD1    H1 3540   0.290   1.847   1.040 -0.0406 -0.3046 -0.2748
  233MPD1    H2 3541   0.331   2.227   0.875 -0.0796  0.2237 -0.8569
  233MPD1    H3 3542   0.190   2.051   0.975  0.3804  2.7845  1.9369
  233MPD1     N 3543   0.540   1.772   1.012  0.3028  0.4947 -0.1792
  233MPD1    H5 3544   0.476   1.709   1.059 -0.3367  1.8465  0.7581
  233MPD1    N1 3545   0.601   2.206   0.845 -0.6107  0.2420 -0.0438
  233MPD1    H6 3546   0.686   2.170   0.803 -1.2097 -0.1182 -0.9154
  233MPD1    H7 3547   0.566   2.272   0.776  1.2399  0.9131 -0.3439
  234MPD1     C 3548   2.359   4.167   9.652 -0.5420  0.2019 -0.3977
  234MPD1    C1 3549   2.285   4.246   9.729 -0.0249 -0.2168 -0.3166
  234MPD1    C2 3550   2.240   4.369   9.687 -0.4296 -0.4347  0.7006
  234MPD1    C3 3551   2.257   4.404   9.549  0.2701  0.4443  0.5653
  234MPD1    C4 3552   2.312   4.311   9.468 -0.3965 -0.1904 -0.1323
  234MPD1    C5 3553   2.362   4.190   9.518  0.4533  0.0203 -0.2524
  234MPD1     H 3554   2.182   4.440   9.745 -2.5757 -1.2341 -0.4520
  234MPD1    H1 3555   2.314   4.321   9.360 -2.2372  0.9895 -0.0607
  234MPD1    H2 3556   2.391   4.069   9.687 -1.5762 -0.3114 -0.9136
  234MPD1    H3 3557   2.423   4.122   9.460  0.9238 -0.6878  1.0943
  234MPD1     N 3558   2.213   4.529   9.499 -0.4882 -0.0223 -0.0074
  234MPD1    H5 3559   2.199   4.604   9.565 -0.2255 -0.7847  0.9235
  234MPD1    N1 3560   2.267   4.200   9.865  0.3093 -0.1185 -0.1289
  234MPD1    H6 3561   2.175   4.220   9.903  0.0936  1.4454 -1.4804
  234MPD1    H7 3562   2.262   4.099   9.877  0.9612  0.2475  3.1836
  235MPD1     C 3563   2.482   3.265   9.302 -0.1876 -0.3426 -0.0600
  235MPD1    C1 3564   2.567   3.264   9.406 -0.3199 -0.0590  0.2328
  235MPD1    C2 3565   2.686   3.336   9.393  0.0698  0.3231  0.5966
  235MPD1    C3 3566   2.710   3.415   9.285 -0.1767  0.0270 -0.8292
  235MPD1    C4 3567   2.617   3.435   9.188 -0.4686  0.4518 -0.2622
  235MPD1    C5 3568   2.501   3.353   9.200 -0.1400  0.3180 -0.0177
  235MPD1     H 3569   2.760   3.325   9.471  0.6230 -0.4660 -0.0404
  235MPD1    H1 3570   2.633   3.494   9.099  0.2101  0.2888 -0.2437
  235MPD1    H2 3571   2.391   3.206   9.312 -1.4126  1.3673 -1.1858
  235MPD1    H3 3572   2.430   3.361   9.119 -2.3903  1.4729  2.0826
  235MPD1     N 3573   2.842   3.466   9.273  0.3669  0.3360  0.1964
  235MPD1    H5 3574   2.906   3.438   9.347  0.5093  2.3635  0.8542
  235MPD1    N1 3575   2.545   3.165   9.502 -0.8827  0.2065  0.1931
  235MPD1    H6 3576   2.447   3.154   9.526 -1.1403  0.4467 -0.7801
  235MPD1    H7 3577   2.589   3.179   9.593 -2.2370 -1.9713  1.1976
  236MPD1     C 3578   2.361   3.747   9.383 -1.1362 -0.0876 -0.6314
  236MPD1    C1 3579   2.275   3.810   9.469 -0.2517 -0.2960  0.0364
  236MPD1    C2 3580   2.316   3.838   9.603 -0.0818  0.1158  0.1844
  236MPD1    C3 3581   2.440   3.800   9.651 -0.1647  0.2094 -0.2466
  236MPD1    C4 3582   2.525   3.738   9.560  0.5644  0.4189 -0.2765
  236MPD1    C5 3583   2.478   3.694   9.432  0.0884 -0.2229  0.1214
  236MPD1     H 3584   2.251   3.887   9.674  1.4321  1.7209  0.4630
  236MPD1    H1 3585   2.630   3.713   9.573  0.4785  0.5962  0.8228
  236MPD1    H2 3586   2.345   3.737   9.276  2.9000 -0.6386 -1.2089
  236MPD1    H3 3587   2.545   3.635   9.371 -0.3343 -1.0962  0.4951
  236MPD1     N 3588   2.490   3.818   9.781 -0.0936 -0.4197 -0.1516
  236MPD1    H5 3589   2.580   3.776   9.801 -0.0525 -0.3336 -0.1563
  236MPD1    N1 3590   2.152   3.862   9.420 -0.3509 -0.1280  0.4767
  236MPD1    H6 3591   2.116   3.816   9.337  0.7439 -1.7023  0.8807
  236MPD1    H7 3592   2.077   3.874   9.488  0.9264  3.3547  1.3064
  237MPD1     C 3593   3.099   1.051  15.232  0.0541  0.7732 -0.0443
  237MPD1    C1 3594   2.986   0.983  15.267 -0.0892 -0.4715  0.2384
  237MPD1    C2 3595   2.865   1.050  15.282  0.1339  0.1671  0.1687
  237MPD1    C3 3596   2.867   1.188  15.264 -0.3424  0.4546 -0.2689
  237MPD1    C4 3597   2.980   1.253  15.236 -0.3360 -0.0729 -0.0246
  237MPD1    C5 3598   3.093   1.182  15.220 -0.0759 -0.7386  0.0728
  237MPD1     H 3599   2.779   0.989  15.306  0.6773 -0.1118  1.4099
  237MPD1    H1 3600   2.996   1.360  15.233  1.4592 -0.3036  1.0943
  237MPD1    H2 3601   3.197   1.007  15.222 -0.1275  0.5672 -0.8647
  237MPD1    H3 3602   3.178   1.244  15.197 -0.7842 -0.6467 -2.2977
  237MPD1     N 3603   2.752   1.269  15.282  0.3695 -0.2290  0.6317
  237MPD1    H5 3604   2.770   1.369  15.279 -0.6982 -0.1438 -2.1494
  237MPD1    N1 3605   2.998   0.849  15.314 -0.1908 -0.3547 -0.1438
  237MPD1    H6 3606   3.078   0.805  15.269 -0.5895  0.2235 -1.4170
  237MPD1    H7 3607   2.913   0.799  15.292 -1.7352  2.2135 -0.0340
  238MPD1     C 3608   0.185   0.487  14.727 -0.2236 -0.7417 -0.0880
  238MPD1    C1 3609   0.090   0.401  14.786 -0.0699  0.9379  0.9560
  238MPD1    C2 3610   4.679   0.399  14.730 -0.0736  0.4246  0.2481
  238MPD1    C3 3611   4.634   0.509  14.665  0.6626 -0.1936  0.3243
  238MPD1    C4 3612   0.009   0.609  14.624 -0.0290  0.4929  0.2105
  238MPD1    C5 3613   0.144   0.583  14.644 -0.2482 -0.1402  0.0569
  238MPD1     H 3614   4.608   0.324  14.766  0.0116 -0.5741 -1.6375
  238MPD1    H1 3615   4.700   0.695  14.564  2.1267  0.5302 -0.6389
  238MPD1    H2 3616   0.291   0.463  14.734 -0.0850 -0.3631 -0.8294
  238MPD1    H3 3617   0.213   0.655  14.600 -2.0058  0.4347 -1.7758
  238MPD1     N 3618   4.493   0.533  14.632  0.6402 -0.4755 -0.1458
  238MPD1    H5 3619   4.481   0.621  14.582  1.2923  0.0813  0.6921
  238MPD1    N1 3620   0.137   0.294  14.861 -0.0557  0.0114  0.3064
  238MPD1    H6 3621   0.225   0.322  14.903  1.5164 -0.7107 -2.5150
  238MPD1    H7 3622   0.068   0.265  14.930  1.3447 -2.0534  0.8326
  239MPD1     C 3623   0.267   1.305  14.824 -0.4169 -0.6038 -0.3615
  239MPD1    C1 3624   0.345   1.287  14.713 -0.0734 -0.1020  0.1057
  239MPD1    C2 3625   0.285   1.319  14.592 -0.7552 -0.3503 -0.0038
  239MPD1    C3 3626   0.150   1.351  14.588 -0.6858  0.4632 -0.6456
  239MPD1    C4 3627   0.073   1.359  14.699 -0.4067  0.2021 -0.2569
  239MPD1    C5 3628   0.140   1.351  14.818 -0.2876  0.1525 -0.2398
  239MPD1     H 3629   0.349   1.312  14.504 -1.6816  1.9264 -0.8588
  239MPD1    H1 3630   4.683   1.381  14.696 -0.3959  0.3128  0.1892
  239MPD1    H2 3631   0.301   1.277  14.923  1.1323 -2.3581 -1.3975
  239MPD1    H3 3632   0.078   1.357  14.907  0.9120 -0.4586  0.6265
  239MPD1     N 3633   0.088   1.382  14.465 -0.1610 -0.0012 -0.3123
  239MPD1    H5 3634   4.703   1.386  14.461 -0.1715 -0.2125 -0.2314
  239MPD1    N1 3635   0.487   1.274  14.730 -0.7535  0.1003  0.5463
  239MPD1    H6 3636   0.526   1.231  14.646 -0.2429  0.6275  0.5109
  239MPD1    H7 3637   0.506   1.221  14.814 -0.5151 -1.3142 -0.4028
  240MPD1     C 3638   4.640   0.855  14.002 -0.2323  0.4315  0.1920
  240MPD1    C1 3639   4.511   0.873  13.959 -0.5940 -0.7454  0.0873
  240MPD1    C2 3640   4.409   0.889  14.054  0.0365 -0.0081 -0.9082
  240MPD1    C3 3641   4.434   0.839  14.185  0.7032  0.1128 -0.7102
  240MPD1    C4 3642   4.566   0.793  14.212  0.4844 -0.2717 -0.5525
  240MPD1    C5 3643   4.670   0.808  14.126  1.0121  0.8048  0.1327
  240MPD1     H 3644   4.307   0.912  14.024 -0.4645  0.6279  1.2361
  240MPD1    H1 3645   4.592   0.742  14.305  1.1413  0.9662 -0.0560
  240MPD1    H2 3646   4.715   0.866  13.924 -1.1170  2.3120 -0.4009
  240MPD1    H3 3647   0.057   0.800  14.157 -0.0536  1.0155  3.6959
  240MPD1     N 3648   4.327   0.837  14.278  0.4237  0.1035 -0.0039
  240MPD1    H5 3649   4.239   0.879  14.249  1.6358  1.9057 -1.0535
  240MPD1    N1 3650   4.506   0.912  13.822 -0.4552 -0.2100 -0.2099
  240MPD1    H6 3651   4.422   0.871  13.781 -1.2381  1.0048  0.1855
  240MPD1    H7 3652   4.585   0.873  13.771  0.3533 -0.1825  1.0017
  241MPD1     C 3653   4.317   1.261  15.166 -0.2118  0.4217  0.0532
  241MPD1    C1 3654   4.185   1.251  15.132 -0.0916  0.1406  0.9382
  241MPD1    C2 3655   4.147   1.189  15.012 -0.2248 -0.1084 -0.1885
  241MPD1    C3 3656   4.248   1.119  14.942  0.3416  0.6023 -0.2664
  241MPD1    C4 3657   4.382   1.114  14.983  0.6169  0.0615 -0.3633
  241MPD1    C5 3658   4.413   1.192  15.093  0.7311 -0.8387  0.5975
  241MPD1     H 3659   4.040   1.187  14.994 -0.4382  3.0741  0.6864
  241MPD1    H1 3660   4.453   1.047  14.936  0.0769 -0.3350 -0.6092
  241MPD1    H2 3661   4.345   1.304  15.262 -0.7845  2.3741 -0.6451
  241MPD1    H3 3662   4.507   1.174  15.144  2.3647 -2.2796 -2.9343
  241MPD1     N 3663   4.215   1.052  14.823 -0.1338  0.3746  0.3006
  241MPD1    H5 3664   4.293   1.014  14.772  0.2877  0.8170  0.6207
  241MPD1    N1 3665   4.101   1.326  15.215  0.3391 -0.9100 -0.5213
  241MPD1    H6 3666   4.129   1.319  15.312 -0.2655 -1.8647 -0.4194
  241MPD1    H7 3667   4.002   1.303  15.203  0.4834 -2.0694  0.5842
  242MPD1     C 3668   3.696   4.446  15.778  0.6825  0.0812  0.1870
  242MPD1    C1 3669   3.678   4.363  15.881  0.9698 -0.0371  0.2816
  242MPD1    C2 3670   3.625   4.237  15.857 -0.6102 -0.2976 -0.4442
  242MPD1    C3 3671   3.600   4.198  15.725 -0.5570 -0.4987  0.1687
  242MPD1    C4 3672   3.630   4.279  15.619 -0.2450 -0.2063  0.1754
  242MPD1    C5 3673   3.683   4.402  15.645  0.2335  0.4353  0.1571
  242MPD1     H 3674   3.612   4.173  15.944 -0.2860  0.6254  0.2862
  242MPD1    H1 3675   3.602   4.255  15.517 -1.0468  0.9989  0.1158
  242MPD1    H2 3676   3.727   4.549  15.791 -2.3980  0.8627  1.2848
  242MPD1    H3 3677   3.692   4.473  15.565 -1.6557 -0.2978 -0.7060
  242MPD1     N 3678   3.547   4.069  15.689 -0.1339 -0.2455 -0.4636
  242MPD1    H5 3679   3.533   4.051  15.590  0.2219  0.0209 -0.5623
  242MPD1    N1 3680   3.683   4.419  16.005 -0.1903  0.1543  0.1391
  242MPD1    H6 3681   3.695   4.349  16.077 -1.9282 -0.2702  0.0170
  242MPD1    H7 3682   3.758   4.488  16.016  0.9810 -0.6544 -2.6877
  243MPD1     C 3683   0.113   1.732  17.657  0.3099 -0.2237  0.1914
  243MPD1    C1 3684   0.142   1.604  17.609 -0.4523  0.1180 -0.7590
  243MPD1    C2 3685   0.214   1.591  17.493 -0.1587 -0.2237  0.0208
  243MPD1    C3 3686   0.269   1.696  17.428  0.2039  0.8143 -0.1485
  243MPD1    C4 3687   0.231   1.824  17.467  0.2042  0.1549  0.1923
  243MPD1    C5 3688   0.162   1.839  17.583 -0.4476  0.0033 -0.6379
  243MPD1     H 3689   0.233   1.489  17.463 -0.6032 -0.0262 -0.9346
  243MPD1    H1 3690   0.251   1.913  17.410  1.5705 -0.0334  0.3842
  243MPD1    H2 3691   0.061   1.753   0.080  0.4915 -1.1543  0.5070
  243MPD1    H3 3692   0.145   1.938  17.622  0.4103 -0.6078  1.2873
  243MPD1     N 3693   0.346   1.669  17.314  0.1726  0.6687  0.8547
  243MPD1    H5 3694   0.339   1.572  17.286 -0.5090  0.9664  0.0019
  243MPD1    N1 3695   0.129   1.497   0.034 -0.0776  0.5082  0.3943
  243MPD1    H6 3696   0.112   1.410  17.653 -0.8392 -0.3871  2.1736
  243MPD1    H7 3697   0.054   1.505   0.102 -0.6631  0.2308 -0.2203
  244MPD1     C 3698   0.984   1.023  16.911  0.6922 -0.2144  0.6177
  244MPD1    C1 3699   0.964   1.097  16.794  0.6706  0.3268 -0.0329
  244MPD1    C2 3700   0.888   1.211  16.814 -0.0503 -0.0716 -1.1119
  244MPD1    C3 3701   0.832   1.249  16.940 -0.6230 -0.2156  0.2121
  244MPD1    C4 3702   0.844   1.162  17.042 -0.1520 -0.0924 -0.2521
  244MPD1    C5 3703   0.925   1.053  17.024  0.3589 -0.1607 -0.3742
  244MPD1     H 3704   0.854   1.271  16.731 -2.5596 -0.2764 -0.2280
  244MPD1    H1 3705   0.791   1.171  17.136  2.5437 -0.6377  1.3151
  244MPD1    H2 3706   1.043   0.933  16.903 -0.1444 -0.8690  1.8059
  244MPD1    H3 3707   0.948   0.988  17.108 -2.4063  0.1049  0.5969
  244MPD1     N 3708   0.748   1.360  16.945  0.7233  0.2186 -0.3673
  244MPD1    H5 3709   0.746   1.419  16.862 -0.1043 -1.2325 -1.3911
  244MPD1    N1 3710   1.040   1.067  16.679  0.7254  0.2193  0.2326
  244MPD1    H6 3711   1.049   0.966  16.670 -1.0507  0.3384 -2.7662
  244MPD1    H7 3712   0.996   1.096  16.592 -1.6508  0.8232  1.6290
  245MPD1     C 3713   1.874   3.063  13.267 -0.7879 -0.2438  0.2084
  245MPD1    C1 3714   1.928   3.153  13.174  0.5963 -0.1716 -0.2053
  245MPD1    C2 3715   2.044   3.219  13.212 -0.4848  0.0341  0.0725
  245MPD1    C3 3716   2.104   3.209  13.333 -0.2549 -0.1207 -0.3196
  245MPD1    C4 3717   2.054   3.119  13.419  0.1177  0.5284  0.3580
  245MPD1    C5 3718   1.948   3.040  13.386 -0.2758 -0.3775 -0.1303
  245MPD1     H 3719   2.085   3.280  13.132 -0.9356  2.4945  1.7250
  245MPD1    H1 3720   2.099   3.107  13.516  1.9109 -1.7967 -0.7712
  245MPD1    H2 3721   1.784   3.004  13.254 -0.3700 -1.1350  1.3893
  245MPD1    H3 3722   1.901   2.975  13.459  0.4983 -1.2666 -0.4265
  245MPD1     N 3723   2.209   3.297  13.365  0.1652  0.1482 -0.3513
  245MPD1    H5 3724   2.236   3.370  13.301  1.2439  0.4584  0.4615
  245MPD1    N1 3725   1.854   3.193  13.065 -0.8383  0.1801  0.4417
  245MPD1    H6 3726   1.814   3.114  13.014  0.7983  0.3940 -1.1703
  245MPD1    H7 3727   1.903   3.250  12.996  0.9950  1.1893  2.5686
  246MPD1     C 3728   1.846   0.217   8.544  0.3585  0.6336 -0.0638
  246MPD1    C1 3729   1.867   0.336   8.607  0.5757  0.1806  0.6236
  246MPD1    C2 3730   1.983   0.345   8.680 -0.7807 -0.1945 -1.0061
  246MPD1    C3 3731   2.071   0.241   8.699 -0.3187  0.4236 -0.2526
  246MPD1    C4 3732   2.038   0.117   8.651 -0.5130  0.3706 -0.2566
  246MPD1    C5 3733   1.926   0.110   8.573  0.3397 -0.0675 -0.4144
  246MPD1     H 3734   2.007   0.442   8.721 -0.4844 -1.3024  1.4433
  246MPD1    H1 3735   2.103   0.030   8.656  1.4785  1.9299  1.1790
  246MPD1    H2 3736   1.762   0.200   8.477 -0.7457 -0.3251  1.5710
  246MPD1    H3 3737   1.895   0.013   8.535 -0.0758  0.3366 -1.1078
  246MPD1     N 3738   2.183   0.265   8.793  0.2979 -0.1639 -0.0203
  246MPD1    H5 3739   2.193   0.354   8.840  0.4535  1.7836 -3.7302
  246MPD1    N1 3740   1.785   0.446   8.584 -0.0047 -0.1775  0.3687
  246MPD1    H6 3741   1.689   0.427   8.555  0.2135 -1.0035  0.1983
  246MPD1    H7 3742   1.785   0.503   8.669  0.7582  1.1052 -0.4879
  247MPD1     C 3743   1.823   3.733  16.580 -0.3298  0.4136 -0.1793
  247MPD1    C1 3744   1.872   3.653  16.680  0.1805 -0.5913 -0.3181
  247MPD1    C2 3745   1.899   3.521  16.659 -0.0699  0.5887  0.0633
  247MPD1    C3 3746   1.898   3.472  16.534  0.7667  0.8465 -0.3282
  247MPD1    C4 3747   1.860   3.546  16.428 -0.2479  0.4168 -0.1190
  247MPD1    C5 3748   1.827   3.677  16.456 -0.1450  0.4093  0.8523
  247MPD1     H 3749   1.934   3.460  16.742 -2.9608  0.4164  1.1353
  247MPD1    H1 3750   1.857   3.505  16.328  1.6589 -1.5156  0.6250
  247MPD1    H2 3751   1.791   3.836  16.594  1.0131  0.9328 -0.9403
  247MPD1    H3 3752   1.804   3.740  16.370 -0.0393 -1.9150 -0.8792
  247MPD1     N 3753   1.940   3.340  16.507 -0.0926  0.4110  0.5684
  247MPD1    H5 3754   1.937   3.313  16.409  0.5832  1.0352  0.3759
  247MPD1    N1 3755   1.884   3.713  16.807  0.2971 -0.3457  0.2587
  247MPD1    H6 3756   1.953   3.666  16.866 -0.9949  1.0140  2.8656
  247MPD1    H7 3757   1.918   3.809  16.793 -0.6169  0.2220  1.9486
  248MPD1     C 3758   3.031   3.113  17.331  0.4025  0.4467 -0.5713
  248MPD1    C1 3759   2.998   3.232  17.394 -0.2182  0.1141  0.5192
  248MPD1    C2 3760   3.028   3.238  17.527  0.5536  0.1816 -0.1205
  248MPD1    C3 3761   3.059   3.127  17.604  0.1071  0.6662  0.1037
  248MPD1    C4 3762   3.078   3.006  17.540 -0.3906  0.0130 -0.0827
  248MPD1    C5 3763   3.074   3.002  17.397 -0.0619  0.2423  0.2939
  248MPD1     H 3764   3.004   3.335  17.569 -0.2195  0.7619 -1.8841
  248MPD1    H1 3765   3.122   2.928  17.601 -1.2329 -0.5011 -0.1360
  248MPD1    H2 3766   3.021   3.102  17.224 -0.1929  2.0777 -0.6898
  248MPD1    H3 3767   3.084   2.914  17.335 -1.0094 -0.3274  0.9376
  248MPD1     N 3768   3.047   3.140   0.077  0.3117  0.3026 -0.3848
  248MPD1    H5 3769   3.050   3.233   0.116 -0.2159  0.2562 -0.2441
  248MPD1    N1 3770   2.995   3.346  17.319 -0.0361  0.1382 -0.3120
  248MPD1    H6 3771   2.943   3.426  17.353  0.1546  0.4938 -0.8524
  248MPD1    H7 3772   2.972   3.328  17.221 -0.6165 -1.8034  0.1865
  249MPD1     C 3773   0.631   2.417   9.146 -0.5879 -0.3505 -0.8809
  249MPD1    C1 3774   0.598   2.533   9.209 -0.2935  0.0743 -0.0569
  249MPD1    C2 3775   0.492   2.530   9.298  0.3311  0.3798  0.5331
  249MPD1    C3 3776   0.416   2.414   9.318  0.2736  0.1684 -0.3678
  249MPD1    C4 3777   0.448   2.303   9.235  0.0617  0.1507  0.1815
  249MPD1    C5 3778   0.554   2.307   9.155 -0.2449  0.5577 -0.0050
  249MPD1     H 3779   0.457   2.617   9.353 -1.2317 -1.3290  2.2083
  249MPD1    H1 3780   0.384   2.215   9.227 -1.3274  1.1593  0.0955
  249MPD1    H2 3781   0.714   2.414   9.076 -0.5391 -0.1382 -0.8322
  249MPD1    H3 3782   0.583   2.225   9.092  0.0649 -0.7927  1.8874
  249MPD1     N 3783   0.320   2.421   9.417 -0.2660 -0.3247 -0.1157
  249MPD1    H5 3784   0.307   2.509   9.466 -0.0918  0.2972 -1.1951
  249MPD1    N1 3785   0.684   2.642   9.194 -0.3495  0.4539  0.3285
  249MPD1    H6 3786   0.635   2.731   9.191  0.6097  0.9133 -1.7444
  249MPD1    H7 3787   0.735   2.632   9.107 -0.0029  0.7272  0.5039
  250MPD2     C 3788   0.122   2.008  12.780  0.8760 -0.1307 -0.4053
  250MPD2    C1 3789   0.127   2.008  12.643 -0.3388 -0.0894 -0.1447
  250MPD2    C2 3790   0.108   1.900  12.561  0.3501  0.1360  0.3739
  250MPD2    C3 3791   0.082   1.779  12.623  0.7897 -0.3062 -0.1295
  250MPD2    C4 3792   0.089   1.770  12.761  0.5936  0.1457  0.2849
  250MPD2    C5 3793   0.096   1.885  12.837 -0.1347  0.0078  0.8231
  250MPD2     H 3794   0.097   1.912  12.454 -0.0374  3.1104  0.7553
  250MPD2    H1 3795   0.082   1.678  12.818  2.2188  0.5267  1.1193
  250MPD2    H2 3796   0.135   2.097  12.840 -1.2064 -1.4727  2.0736
  250MPD2    H3 3797   0.098   1.878  12.945 -0.5180  1.1304  0.9023
  250MPD2     N 3798   0.064   1.658  12.563 -0.4353  0.1941  0.2528
  250MPD2    H5 3799   0.058   1.573  12.618 -2.9944 -0.8476 -1.6443
  250MPD2    N1 3800   0.148   2.140  12.589  1.3156 -0.3012  0.3537
  250MPD2    H7 3801   0.142   2.217  12.655  0.4552 -1.1008  1.1952
  251TMC3    C1 3802   0.217   2.309  12.432 -0.0101  0.7398 -0.2491
  251TMC3    C2 3803   0.179   2.406  12.518  0.0914  0.0598 -0.4295
  251TMC3    C3 3804   0.256   2.517  12.510 -0.4993 -0.2948  0.2220
  251TMC3    C4 3805   0.327   2.317  12.347 -1.0449  0.2497 -0.1936
  251TMC3    C5 3806   0.410   2.420  12.373  0.3257  0.4915  1.0134
  251TMC3    C6 3807   0.369   2.527  12.446 -0.5368  0.2876 -0.1137
  251TMC3     C 3808   0.180   2.170  12.456  0.6786 -0.0464 -0.0458
  251TMC3     O 3809   0.204   2.084  12.372 -0.3800 -0.7322  0.3297
  251TMC3     H 3810   0.088   2.405  12.578  1.0525  0.6683  1.0492
  251TMC3    H1 3811   0.359   2.236  12.282 -1.3763  1.9393 -2.4677
  251TMC3    H2 3812   0.433   2.614  12.444  1.0108 -0.8885 -1.8482
  251TMC3    C7 3813   0.541   2.422  12.313  0.3331 -0.0147 -0.5480
  251TMC3    C8 3814   0.244   2.602  12.622  0.4897 -0.0219  0.2369
  251TMC3    O1 3815   0.580   2.527  12.271  0.2808  0.4257  0.7683
  251TMC3    O2 3816   0.213   2.552  12.732  0.2751 -0.5819 -0.1253
  252TMC3    C1 3817   0.849   2.983   9.465  0.3799  0.0871  0.3598
  252TMC3    C2 3818   0.943   3.079   9.460 -0.2775  0.7239 -0.3763
  252TMC3    C3 3819   0.941   3.151   9.347  0.2084 -0.1833 -0.5116
  252TMC3    C4 3820   0.745   2.972   9.366 -0.9673  0.2715 -0.1518
  252TMC3    C5 3821   0.749   3.060   9.256 -0.3398 -0.0889 -0.3769
  252TMC3    C6 3822   0.855   3.144   9.242  0.3336 -0.5583  0.3201
  252TMC3     C 3823   0.806   2.918   9.586 -0.3025 -0.6785 -0.2858
  252TMC3     O 3824   0.734   2.818   9.570  0.1188  0.0026 -0.3686
  252TMC3     H 3825   1.024   3.074   9.532 -1.1994 -0.5091  0.5662
  252TMC3    H1 3826   0.668   2.897   9.375  1.3443 -2.3079 -1.9774
  252TMC3    H2 3827   0.857   3.214   9.159  1.7221 -1.1980 -0.1744
  252TMC3    C7 3828   0.704   3.016   9.127  0.3043 -0.5657  0.1906
  252TMC3    C8 3829   1.060   3.236   9.326  0.2418 -0.5918  0.2416
  252TMC3    O1 3830   0.777   3.039   9.029 -0.5764 -0.3723 -0.2464
  252TMC3    O2 3831   1.076   3.272   9.210 -0.0974  0.1230 -0.3688
  253MPD2     C 3832   1.921   1.619  15.482  0.2778 -1.4014  0.2467
  253MPD2    C1 3833   1.796   1.585  15.438 -0.0089  0.4893 -0.1889
  253MPD2    C2 3834   1.700   1.535  15.523 -0.2354  0.8442 -0.1310
  253MPD2    C3 3835   1.728   1.516  15.656  0.0771  0.1536 -0.5015
  253MPD2    C4 3836   1.851   1.555  15.705  0.3773  0.1165  0.0765
  253MPD2    C5 3837   1.942   1.604  15.619 -0.0923 -0.4651 -0.2937
  253MPD2     H 3838   1.613   1.489  15.478  0.9176 -0.4369 -1.0429
  253MPD2    H1 3839   1.872   1.555  15.811  3.5351 -0.1326 -0.5488
  253MPD2    H2 3840   1.996   1.673  15.425  1.5276 -2.8977  0.4741
  253MPD2    H3 3841   2.034   1.648  15.656 -0.4992 -0.6700  0.9664
  253MPD2     N 3842   1.641   1.450  15.750 -0.7196 -0.5677 -0.2384
  253MPD2    H5 3843   1.673   1.402  15.833 -1.4795 -0.8623 -0.1172
  253MPD2    N1 3844   1.744   1.608  15.310 -0.2173 -0.5814  0.2633
  253MPD2    H7 3845   1.649   1.586  15.280 -0.6928 -0.0119  1.3526
  254TMC3    C1 3846   1.442   1.356  15.829  0.4580 -0.1737  0.3274
  254TMC3    C2 3847   1.324   1.400  15.883  0.0604 -0.6812  0.6635
  254TMC3    C3 3848   1.243   1.314  15.955  0.6710 -0.6676 -0.6015
  254TMC3    C4 3849   1.483   1.227  15.848 -0.0071 -0.2596 -0.2673
  254TMC3    C5 3850   1.402   1.143  15.926 -0.2061 -0.2452  0.0778
  254TMC3    C6 3851   1.277   1.183  15.964 -0.4273  0.2151 -0.1731
  254TMC3     C 3852   1.505   1.439  15.730  0.0719 -0.1631  0.4091
  254TMC3     O 3853   1.442   1.500  15.647 -0.6602  0.5212 -0.2285
  254TMC3     H 3854   1.284   1.498  15.859 -1.9967 -1.4056  1.0609
  254TMC3    H1 3855   1.579   1.202  15.805 -0.4522 -1.3973 -0.6171
  254TMC3    H2 3856   1.205   1.113  16.006 -1.3595  0.7004 -0.9705
  254TMC3    C7 3857   1.481   1.086  16.032  0.0822  0.6666  1.1004
  254TMC3    C8 3858   1.139   1.367  16.040 -0.1722  0.4333  0.4804
  254TMC3    O1 3859   1.602   1.083  16.009  0.4833 -0.2550 -0.1607
  254TMC3    O2 3860   1.047   1.284  16.068 -0.1887  0.1407  1.0749
  255MPD2     C 3861   0.611   4.371  10.306 -0.2047  0.0898  0.1162
  255MPD2    C1 3862   0.499   4.427  10.257 -0.0955 -0.9636 -0.4662
  255MPD2    C2 3863   0.444   4.379  10.138 -0.0419 -0.0398 -0.1561
  255MPD2    C3 3864   0.499   4.266  10.077 -0.0573 -0.3449  0.2900
  255MPD2    C4 3865   0.617   4.210  10.132  0.3846 -0.0626 -0.8326
  255MPD2    C5 3866   0.670   4.261  10.241 -0.2649 -0.4344  0.3086
  255MPD2     H 3867   0.366   4.435  10.088  0.5826  2.0494  1.2409
  255MPD2    H1 3868   0.670   4.126  10.089 -0.3882 -0.8226 -0.3087
  255MPD2    H2 3869   0.659   4.406  10.396 -2.1537  0.5565  0.9590
  255MPD2    H3 3870   0.760   4.215  10.280 -0.7691 -0.5966  1.2731
  255MPD2     N 3871   0.461   4.236   9.946  1.4810  0.0614  0.3520
  255MPD2    H5 3872   0.399   4.296   9.893  1.9217  0.0212 -0.2073
  255MPD2    N1 3873   0.454   4.545  10.325  0.5866 -0.0492  0.1092
  255MPD2    H7 3874   0.513   4.577  10.402  1.2592  0.0741 -0.4509
  256TMC3    C1 3875   0.350   0.045  10.325 -0.0069  0.3846  0.5345
  256TMC3    C2 3876   0.471   0.097  10.307  0.3967  0.1409  0.0398
  256TMC3    C3 3877   0.472   0.233  10.284 -0.1189 -0.2222  0.5419
  256TMC3    C4 3878   0.231   0.108  10.306 -0.1526 -0.0885  0.0855
  256TMC3    C5 3879   0.235   0.241  10.282  0.1344  0.0074 -0.0203
  256TMC3    C6 3880   0.356   0.308  10.264  0.2865 -0.0047  0.3689
  256TMC3     C 3881   0.344   4.620  10.292  0.0705  1.2296 -0.3835
  256TMC3     O 3882   0.255   4.585  10.215  0.1510 -0.1260  0.2921
  256TMC3     H 3883   0.560   0.037  10.301  1.8063  2.2972 -0.6434
  256TMC3    H1 3884   0.141   0.050  10.327 -1.2631  1.4099 -0.5497
  256TMC3    H2 3885   0.355   0.413  10.235 -2.4500 -0.7221 -2.1122
  256TMC3    C7 3886   0.118   0.284  10.213  0.1229  0.1507  0.5496
  256TMC3    C8 3887   0.591   0.283  10.213  0.8440  0.5973 -0.6783
  256TMC3    O1 3888   0.044   0.197  10.177  0.7398 -0.0872  0.2921
  256TMC3    O2 3889   0.701   0.239  10.243 -0.1518 -0.0414 -0.0080
  257MPD2     C 3890   4.147   2.059  12.888  0.1449 -0.3429  0.4054
  257MPD2    C1 3891   4.144   1.936  12.831  0.2534 -0.2468  0.3889
  257MPD2    C2 3892   4.180   1.829  12.919  0.6727  0.1109 -0.0222
  257MPD2    C3 3893   4.226   1.848  13.049 -0.1496 -0.2853  0.1570
  257MPD2    C4 3894   4.232   1.980  13.103  0.2650  0.1908 -0.4201
  257MPD2    C5 3895   4.192   2.075  13.014 -0.2841  0.0407 -0.2045
  257MPD2     H 3896   4.178   1.730  12.875 -0.1919  0.4828 -0.8365
  257MPD2    H1 3897   4.259   2.010  13.204  2.0155 -0.6637 -0.6473
  257MPD2    H2 3898   4.120   2.149  12.833  0.3033 -0.3520  0.3109
  257MPD2    H3 3899   4.201   2.177  13.049  0.5327 -0.7109  1.7589
  257MPD2     N 3900   4.258   1.736  13.127 -0.1619  0.4989  0.1829
  257MPD2    H5 3901   4.272   1.647  13.081 -1.5018 -1.2356  3.1377
  257MPD2    N1 3902   4.097   1.918  12.703 -0.1555 -0.2237 -0.1355
  257MPD2    H7 3903   4.073   2.007  12.660  2.9989 -0.2800 -1.9845
  258TMC3    C1 3904   4.309   1.603  13.317 -0.3368 -0.0730 -0.3521
  258TMC3    C2 3905   4.320   1.490  13.243 -0.0969 -0.3477  0.4623
  258TMC3    C3 3906   4.355   1.374  13.308  0.2467 -0.1451 -0.0831
  258TMC3    C4 3907   4.314   1.598  13.454 -0.2878 -0.6167  0.4753
  258TMC3    C5 3908   4.333   1.477  13.509 -0.5627 -0.6416  0.1151
  258TMC3    C6 3909   4.347   1.359  13.441  0.1053  0.3556 -1.0293
  258TMC3     C 3910   4.284   1.738  13.259  0.4513  0.6542 -0.2105
  258TMC3     O 3911   4.271   1.829  13.337  0.0972  0.1140 -0.0351
  258TMC3     H 3912   4.329   1.501  13.136 -2.0509  0.2078  0.3641
  258TMC3    H1 3913   4.313   1.689  13.512 -1.0301 -1.1868  1.3500
  258TMC3    H2 3914   4.362   1.266  13.494 -0.6220  1.9375  1.9354
  258TMC3    C7 3915   4.315   1.463  13.655  0.4846  0.4981  0.5830
  258TMC3    C8 3916   4.321   1.251  13.234  0.0398 -0.2134 -0.4758
  258TMC3    O1 3917   4.260   1.555  13.709 -0.3855  0.1235 -0.3288
  258TMC3    O2 3918   4.316   1.261  13.109 -0.2972 -0.4334  0.0664
  259MPD2     C 3919   3.282   3.099   1.240  0.4279  0.4124  0.2040
  259MPD2    C1 3920   3.247   2.965   1.259  0.2180  0.0231 -0.4260
  259MPD2    C2 3921   3.264   2.875   1.156 -0.7761 -0.3515  0.2122
  259MPD2    C3 3922   3.331   2.914   1.046 -0.1587 -0.0345 -0.9823
  259MPD2    C4 3923   3.373   3.051   1.028  0.5217 -0.3105 -0.0113
  259MPD2    C5 3924   3.341   3.140   1.119 -0.0697  0.3505  0.9359
  259MPD2     H 3925   3.227   2.773   1.165 -2.0499  0.2323  1.5091
  259MPD2    H1 3926   3.419   3.085   0.936 -0.9146  1.2745 -0.1481
  259MPD2    H2 3927   3.262   3.174   1.315  0.7377 -0.3326  1.0256
  259MPD2    H3 3928   3.358   3.247   1.112  2.0411 -0.0068  0.4825
  259MPD2     N 3929   3.349   2.815   0.940 -0.0058  0.4831 -0.2550
  259MPD2    H5 3930   3.310   2.722   0.957  0.0678  0.6792  0.9343
  259MPD2    N1 3931   3.199   2.932   1.388 -0.3502  0.0056 -0.5350
  259MPD2    H7 3932   3.178   3.013   1.447  0.3549 -1.0706  1.2036
  260TMC3    C1 3933   3.423   2.700   0.752  0.1700 -0.5982 -0.4836
  260TMC3    C2 3934   3.525   2.690   0.659  0.0591  0.5930  0.3286
  260TMC3    C3 3935   3.531   2.572   0.584  0.2288  0.5984 -0.3791
  260TMC3    C4 3936   3.350   2.592   0.789 -0.0401  0.1879 -0.3640
  260TMC3    C5 3937   3.369   2.474   0.729  0.1602 -0.7856 -0.1709
  260TMC3    C6 3938   3.456   2.457   0.622 -0.1303  0.3383 -0.2125
  260TMC3     C 3939   3.403   2.825   0.816 -0.9624 -0.1164  0.6542
  260TMC3     O 3940   3.450   2.929   0.771 -0.2243 -0.2600 -0.4048
  260TMC3     H 3941   3.600   2.765   0.640  0.0059  0.5489 -0.0539
  260TMC3    H1 3942   3.257   2.594   0.845 -0.0645 -1.9910 -0.3216
  260TMC3    H2 3943   3.449   2.375   0.551  2.1840  0.6194 -0.7838
  260TMC3    C7 3944   3.288   2.359   0.754  0.5853 -0.0960  0.1999
  260TMC3    C8 3945   3.600   2.574   0.458  0.3162 -0.1703 -0.8825
  260TMC3    O1 3946   3.335   2.245   0.744 -0.1841 -0.2795  0.0045
  260TMC3    O2 3947   3.614   2.677   0.403  0.0639  0.1663 -0.1446
  261MPD2     C 3948   0.353   1.317  11.842 -0.3558  0.3024 -0.0704
  261MPD2    C1 3949   0.251   1.388  11.880  0.1694 -0.2990  0.0247
  261MPD2    C2 3950   0.210   1.500  11.798  0.5182 -0.6472 -0.3032
  261MPD2    C3 3951   0.272   1.525  11.683 -0.2193 -0.0581 -0.2097
  261MPD2    C4 3952   0.373   1.442  11.644  0.5152 -0.3216 -0.7054
  261MPD2    C5 3953   0.413   1.340  11.724 -0.1537 -0.1430 -0.3315
  261MPD2     H 3954   0.125   1.564  11.820  0.8563 -0.3919  0.2516
  261MPD2    H1 3955   0.439   1.456  11.559  0.3225  1.5813 -0.5370
  261MPD2    H2 3956   0.403   1.250  11.911  1.2407 -1.1733 -2.6708
  261MPD2    H3 3957   0.506   1.292  11.697  2.1748  3.1291  1.8819
  261MPD2     N 3958   0.226   1.633  11.602 -0.0708  0.6070 -0.0770
  261MPD2    H5 3959   0.151   1.692  11.636  0.3929  0.1753  1.6485
  261MPD2    N1 3960   0.187   1.358  12.000 -0.4322 -0.1962  0.3194
  261MPD2    H7 3961   0.243   1.304  12.065  0.8704 -0.7208 -1.2391
  262TMC3    C1 3962   0.255   1.806  11.438  0.4639 -0.2220 -0.0056
  262TMC3    C2 3963   0.138   1.873  11.474  0.6564  0.4041 -0.6520
  262TMC3    C3 3964   0.070   1.952  11.379 -0.6488 -0.2375  0.8046
  262TMC3    C4 3965   0.298   1.819  11.315  0.0141  0.1305 -0.0131
  262TMC3    C5 3966   0.232   1.896  11.219 -0.2747  0.4942 -0.1418
  262TMC3    C6 3967   0.108   1.948  11.245 -0.1122  0.0774 -0.0839
  262TMC3     C 3968   0.298   1.681  11.494 -0.2070  0.2618  0.3275
  262TMC3     O 3969   0.392   1.632  11.434 -0.6851  0.1282  0.3537
  262TMC3     H 3970   0.099   1.866  11.575 -2.7623  0.9113 -1.9616
  262TMC3    H1 3971   0.397   1.792  11.280  0.6235  1.4778  0.6571
  262TMC3    H2 3972   0.059   2.011  11.172 -0.6996  0.6853  0.8359
  262TMC3    C7 3973   0.297   1.920  11.085 -0.2641  0.1066  0.4589
  262TMC3    C8 3974   0.003   2.073  11.412  0.1245 -0.5625 -0.6269
  262TMC3    O1 3975   0.387   1.842  11.061 -0.5153  0.0564 -0.2348
  262TMC3    O2 3976   0.001   2.153  11.321 -0.7385 -0.3559  0.6956
  263MPD2     C 3977   1.286   1.285  11.082  0.6873 -0.0212  0.0818
  263MPD2    C1 3978   1.346   1.401  11.129  0.2608  0.2482  0.0440
  263MPD2    C2 3979   1.323   1.514  11.051  0.4022 -0.7799 -0.1934
  263MPD2    C3 3980   1.255   1.504  10.926  0.6933  0.2608  0.4441
  263MPD2    C4 3981   1.191   1.386  10.891  0.2124  0.6019  0.0776
  263MPD2    C5 3982   1.209   1.281  10.974  0.0589  1.0525  0.2565
  263MPD2     H 3983   1.374   1.609  11.067 -0.6229 -0.9103  3.7153
  263MPD2    H1 3984   1.139   1.371  10.797  0.5022  3.9359 -0.6398
  263MPD2    H2 3985   1.298   1.191  11.134 -2.3507 -0.1708  0.5023
  263MPD2    H3 3986   1.165   1.185  10.951 -1.4935  1.9379 -0.4842
  263MPD2     N 3987   1.251   1.619  10.838 -0.6491  0.3350 -0.6186
  263MPD2    H5 3988   1.267   1.714  10.871 -1.2876 -0.6527  2.5806
  263MPD2    N1 3989   1.429   1.409  11.240 -0.1656  0.6208  0.0697
  263MPD2    H7 3990   1.412   1.333  11.305  0.4999  0.1654 -0.2938
  264TMC3    C1 3991   1.223   1.754  10.635  0.9502  0.4167  0.2735
  264TMC3    C2 3992   1.191   1.867  10.703 -0.3412 -0.5432 -0.2459
  264TMC3    C3 3993   1.181   1.981  10.630 -0.0283 -0.9428  0.3958
  264TMC3    C4 3994   1.247   1.754  10.503 -0.0403 -0.2624 -0.3491
  264TMC3    C5 3995   1.247   1.873  10.435 -0.2884  0.0588  0.1111
  264TMC3    C6 3996   1.210   1.989  10.495  0.7882 -0.3046 -0.2915
  264TMC3     C 3997   1.231   1.619  10.700  0.0218 -0.6259  0.2864
  264TMC3     O 3998   1.229   1.521  10.626  0.0208  0.1451  0.1657
  264TMC3     H 3999   1.150   1.868  10.803 -1.2813  5.0205 -0.6447
  264TMC3    H1 4000   1.274   1.658  10.462  1.0838  0.4661 -1.3350
  264TMC3    H2 4001   1.200   2.077  10.433 -2.9916 -0.2083  0.4572
  264TMC3    C7 4002   1.362   1.899  10.353  0.1529  0.5874 -0.1938
  264TMC3    C8 4003   1.239   2.091  10.701 -0.1555  0.0297 -0.0065
  264TMC3    O1 4004   1.399   1.803  10.285  0.2889 -0.5821  0.0855
  264TMC3    O2 4005   1.292   2.169  10.628  0.9139  0.3790 -0.2926
  265MPD2     C 4006   3.225   1.704  15.233  0.0554  0.1943  0.5065
  265MPD2    C1 4007   3.345   1.768  15.233  0.2377 -0.0288 -0.0587
  265MPD2    C2 4008   3.444   1.727  15.151 -0.2368  0.2079  0.3156
  265MPD2    C3 4009   3.429   1.610  15.070 -0.4122  0.2573  0.2781
  265MPD2    C4 4010   3.308   1.552  15.066 -1.1038 -0.7664 -0.4589
  265MPD2    C5 4011   3.210   1.591  15.152  0.3197 -0.4631  0.0353
  265MPD2     H 4012   3.537   1.780  15.159 -0.0941 -0.0674  0.4627
  265MPD2    H1 4013   3.297   1.473  14.993 -0.4895  0.9664 -2.3991
  265MPD2    H2 4014   3.143   1.734  15.297 -1.5375  2.6493 -2.6968
  265MPD2    H3 4015   3.119   1.534  15.165  0.3101 -0.1239  1.4808
  265MPD2     N 4016   3.525   1.556  14.981  0.6882  0.5816  0.1819
  265MPD2    H5 4017   3.494   1.483  14.917  0.0085 -0.1514  1.3490
  265MPD2    N1 4018   3.361   1.883  15.324 -0.2422  0.1264  0.1674
  265MPD2    H7 4019   3.434   1.953  15.314  0.4282 -0.7704 -1.0947
  266TMC3    C1 4020   3.327   2.004  15.530 -0.0280 -0.0612  0.4176
  266TMC3    C2 4021   3.314   1.962  15.662 -0.0237 -0.5051 -0.1635
  266TMC3    C3 4022   3.297   2.061  15.753  0.5995  0.3354  0.1507
  266TMC3    C4 4023   3.295   2.131  15.489  0.1624 -0.1987 -0.4236
  266TMC3    C5 4024   3.294   2.228  15.578 -0.2915 -0.1293 -0.2814
  266TMC3    C6 4025   3.304   2.197  15.713 -0.8104 -0.0001  0.0052
  266TMC3     C 4026   3.287   1.897  15.440  0.1455 -0.0563  0.3988
  266TMC3     O 4027   3.217   1.818  15.496 -0.0651  0.5123 -0.5841
  266TMC3     H 4028   3.330   1.857  15.683  1.6093 -0.2798 -0.2748
  266TMC3    H1 4029   3.296   2.143  15.381 -0.2176 -0.7097 -0.4883
  266TMC3    H2 4030   3.322   2.281  15.779  1.0155  0.5914 -1.2814
  266TMC3    C7 4031   3.234   2.356  15.541 -0.0410  0.3032 -0.3558
  266TMC3    C8 4032   3.342   2.029  15.886  0.0155 -0.1962  0.1713
  266TMC3    O1 4033   3.222   2.377  15.417  0.4476  0.1936  0.3692
  266TMC3    O2 4034   3.382   1.917  15.898  0.1272 -0.1485  0.0916
  267MPD2     C 4035   1.551   2.920  17.409 -0.3585 -0.4162 -0.5105
  267MPD2    C1 4036   1.471   3.028  17.433  1.0777 -0.5751  0.3174
  267MPD2    C2 4037   1.360   3.056  17.354 -0.3518 -0.2784  0.3560
  267MPD2    C3 4038   1.325   2.966  17.250 -0.4305  0.0325 -0.6426
  267MPD2    C4 4039   1.399   2.849  17.237 -0.7257 -0.2188  0.7704
  267MPD2    C5 4040   1.517   2.833  17.308 -0.0841 -0.3009 -0.5765
  267MPD2     H 4041   1.289   3.137  17.368  0.1648  0.2330  0.0071
  267MPD2    H1 4042   1.378   2.772  17.163  1.7264  0.9566 -1.1730
  267MPD2    H2 4043   1.642   2.896  17.462  0.1056  0.2325 -1.0171
  267MPD2    H3 4044   1.571   2.741  17.288 -0.6621 -0.4961 -1.2566
  267MPD2     N 4045   1.221   2.977  17.157  0.3909 -0.2293 -0.0912
  267MPD2    H5 4046   1.219   2.916  17.077  1.2296  0.0068 -0.2963
  267MPD2    N1 4047   1.490   3.110  17.544  0.3770 -0.3935  0.1919
  267MPD2    H7 4048   1.434   3.194  17.552  0.1677 -0.4549 -0.6909
  268TMC3    C1 4049   1.564   3.178   0.092 -0.3003  0.4080  0.6865
  268TMC3    C2 4050   1.525   3.308   0.074  0.0264  0.1517  0.3452
  268TMC3    C3 4051   1.489   3.378   0.181 -0.8978  0.2077 -0.3819
  268TMC3    C4 4052   1.564   3.121   0.214  1.2281  0.5927 -0.1719
  268TMC3    C5 4053   1.522   3.194   0.321 -0.2271 -0.6091  0.0667
  268TMC3    C6 4054   1.491   3.321   0.306  0.1386  0.1253  1.1470
  268TMC3     C 4055   1.574   3.083  17.652 -0.2912  0.7579  0.0537
  268TMC3     O 4056   1.641   2.984   0.010 -0.0331  0.7489  0.1030
  268TMC3     H 4057   1.536   3.351  17.645  2.2944 -3.2386 -0.9013
  268TMC3    H1 4058   1.607   3.021   0.224 -2.1036 -0.7039  1.1085
  268TMC3    H2 4059   1.455   3.379   0.390 -0.9928 -0.2708  0.9354
  268TMC3    C7 4060   1.545   3.130   0.449 -0.3237 -0.5269 -0.8181
  268TMC3    C8 4061   1.427   3.508   0.175  0.5571 -0.1901 -0.2620
  268TMC3    O1 4062   1.562   3.011   0.453 -0.1498  0.0454 -0.1241
  268TMC3    O2 4063   1.409   3.566   0.282  0.0011  0.5466 -0.7002
  269MPD2     C 4064   1.129   1.983  15.374  0.2235  0.3029  0.4460
  269MPD2    C1 4065   1.006   2.037  15.395  0.7227  0.1330  0.2673
  269MPD2    C2 4066   0.994   2.177  15.376 -0.1289  0.2234 -0.4819
  269MPD2    C3 4067   1.103   2.258  15.330 -0.1779 -0.0618  0.8482
  269MPD2    C4 4068   1.223   2.195  15.318  0.1389  0.4831 -0.1040
  269MPD2    C5 4069   1.232   2.061  15.331 -0.2865  0.2771  0.5069
  269MPD2     H 4070   0.902   2.235  15.381 -0.2522  0.0610 -0.8423
  269MPD2    H1 4071   1.306   2.254  15.283  2.3617 -1.0987  2.5664
  269MPD2    H2 4072   1.140   1.877  15.395 -0.4991  0.8932  3.8237
  269MPD2    H3 4073   1.320   2.006  15.299 -1.6977 -1.3434 -0.5473
  269MPD2     N 4074   1.077   2.395  15.316 -0.1057  0.4613 -0.6447
  269MPD2    H5 4075   0.983   2.429  15.329  0.2321  1.8335 -1.7168
  269MPD2    N1 4076   0.897   1.957  15.449 -0.7646  0.1100 -0.3994
  269MPD2    H7 4077   0.923   1.859  15.462 -0.2658  0.4635  1.2865
  270TMC3    C1 4078   0.669   1.912  15.498  0.1256 -0.8631  0.0042
  270TMC3    C2 4079   0.541   1.935  15.452  0.4691  0.2470 -0.3630
  270TMC3    C3 4080   0.441   1.850  15.487  0.5436  0.1590 -0.1519
  270TMC3    C4 4081   0.699   1.815  15.589 -0.5104 -0.6719 -0.0376
  270TMC3    C5 4082   0.585   1.736  15.629  0.1947  0.0165 -0.5247
  270TMC3    C6 4083   0.461   1.758  15.580 -0.5286  0.3276  0.6222
  270TMC3     C 4084   0.770   2.009  15.460 -0.6293 -0.3762  0.3663
  270TMC3     O 4085   0.730   2.120  15.439 -0.4010 -0.1112 -0.0493
  270TMC3     H 4086   0.524   1.997  15.366  1.9919 -0.2203 -0.9975
  270TMC3    H1 4087   0.803   1.789  15.601 -0.6110 -1.1378 -0.1777
  270TMC3    H2 4088   0.372   1.705  15.612  0.7664 -1.3526  1.3991
  270TMC3    C7 4089   0.608   1.594  15.624  0.8130 -0.3927 -0.3558
  270TMC3    C8 4090   0.332   1.816  15.400  0.3156 -0.0698 -0.2744
  270TMC3    O1 4091   0.522   1.521  15.673  0.1226 -0.0269 -0.6028
  270TMC3    O2 4092   0.220   1.800  15.439 -0.2639  0.1119  0.0299
  271MPD2     C 4093   0.146   2.140  13.649 -0.2099  0.7118 -0.2339
  271MPD2    C1 4094   0.060   2.074  13.742  0.2503  0.1825  0.8610
  271MPD2    C2 4095   4.643   2.101  13.726 -0.1379 -0.1759  0.3269
  271MPD2    C3 4096   4.592   2.192  13.634 -0.0096  0.2422 -0.3327
  271MPD2    C4 4097   4.679   2.242  13.544  0.0759  0.3057  0.5064
  271MPD2    C5 4098   0.098   2.217  13.553  0.3491 -0.2611  0.1850
  271MPD2     H 4099   4.575   2.063  13.800  0.0922  0.0962  0.6819
  271MPD2    H1 4100   4.637   2.307  13.468  0.4159  0.5992  0.5673
  271MPD2    H2 4101   0.252   2.121  13.646 -0.0756  1.2628  0.9299
  271MPD2    H3 4102   0.164   2.280  13.494  0.1026 -0.2644 -0.0927
  271MPD2     N 4103   4.450   2.203  13.617  0.4575 -0.0942 -0.0318
  271MPD2    H5 4104   4.391   2.159  13.688  1.1575 -0.5760  0.2473
  271MPD2    N1 4105   0.097   1.970  13.829  0.3411 -0.5499  0.5739
  271MPD2    H7 4106   0.027   1.937  13.895 -0.5878  1.7230  0.7345
  272TMC3    C1 4107   0.236   1.808  13.944  0.0738 -0.5089  0.0411
  272TMC3    C2 4108   0.337   1.716  13.941  0.5506 -0.4187 -0.5025
  272TMC3    C3 4109   0.371   1.649  14.054 -0.5745 -0.6946 -0.4793
  272TMC3    C4 4110   0.178   1.847  14.063  0.2333 -0.2797  0.4115
  272TMC3    C5 4111   0.224   1.790  14.174  0.5057 -0.2350 -0.4622
  272TMC3    C6 4112   0.309   1.684  14.169 -0.3596 -0.3633  1.0095
  272TMC3     C 4113   0.220   1.908  13.831  1.2499  0.1370  0.9653
  272TMC3     O 4114   0.315   1.920  13.763 -0.1966 -0.3106 -0.3351
  272TMC3     H 4115   0.368   1.686  13.842 -2.8239  2.9982 -2.6090
  272TMC3    H1 4116   0.105   1.927  14.063 -0.4709 -0.9120 -1.3213
  272TMC3    H2 4117   0.334   1.637  14.263  1.6611  1.9439  1.6395
  272TMC3    C7 4118   0.143   1.819  14.292 -1.2330  0.4770  0.5005
  272TMC3    C8 4119   0.509   1.601  14.062 -0.0426  0.1157  0.1316
  272TMC3    O1 4120   0.031   1.867  14.284  0.0659  0.2823  0.3599
  272TMC3    O2 4121   0.585   1.616  13.963  0.0521 -0.3522 -0.5173
  273MPD2     C 4122   1.369   0.221  11.460  0.5306 -0.3565  0.2424
  273MPD2    C1 4123   1.445   0.333  11.473  0.0281 -0.5361  0.7112
  273MPD2    C2 4124   1.485   0.404  11.361  0.1566 -0.4771  0.2273
  273MPD2    C3 4125   1.467   0.358  11.233  0.7600  0.1016 -0.0619
  273MPD2    C4 4126   1.379   0.249  11.214 -0.2291 -0.4323  0.5295
  273MPD2    C5 4127   1.333   0.183  11.333 -0.0732  0.5849  0.0643
  273MPD2     H 4128   1.545   0.492  11.378  0.1705 -0.6753  1.2669
  273MPD2    H1 4129   1.361   0.194  11.122  0.6506 -1.1279  0.7718
  273MPD2    H2 4130   1.334   0.158  11.541  1.0719  1.0292  1.5441
  273MPD2    H3 4131   1.266   0.098  11.321 -1.6274  1.6417  1.2574
  273MPD2     N 4132   1.526   0.420  11.119  0.1195 -0.0122  0.1228
  273MPD2    H5 4133   1.494   0.394  11.027  0.3174  0.3673 -0.0548
  273MPD2    N1 4134   1.477   0.375  11.604  0.3125 -0.2538  0.0450
  273MPD2    H7 4135   1.464   0.303  11.674 -0.7446  1.5871  1.7159
  274TMC3    C1 4136   1.652   0.575  10.999  0.0810  0.2310 -0.1748
  274TMC3    C2 4137   1.600   0.537  10.881 -0.3091  0.5964 -0.5103
  274TMC3    C3 4138   1.647   0.599  10.768 -0.5444 -0.0455 -0.2613
  274TMC3    C4 4139   1.762   0.658  11.005  0.0531  0.3336 -0.4889
  274TMC3    C5 4140   1.818   0.696  10.888  0.3444  0.5258 -0.1124
  274TMC3    C6 4141   1.753   0.680  10.770  0.7673 -0.4079  0.8634
  274TMC3     C 4142   1.616   0.523  11.126  0.7059 -0.4553  0.2220
  274TMC3     O 4143   1.694   0.544  11.214  0.2484 -0.2853 -0.2077
  274TMC3     H 4144   1.512   0.474  10.885 -2.3680  3.4184 -1.4309
  274TMC3    H1 4145   1.813   0.672  11.100  0.8746 -1.3664 -0.6729
  274TMC3    H2 4146   1.805   0.719  10.684 -0.2431 -0.9958 -0.0015
  274TMC3    C7 4147   1.914   0.802  10.880 -0.4354 -0.0379  0.4759
  274TMC3    C8 4148   1.599   0.556  10.641  0.3591 -0.7715 -0.2769
  274TMC3    O1 4149   1.975   0.824  10.775  0.4035  0.1530 -0.7772
  274TMC3    O2 4150   1.515   0.466  10.641 -0.4773 -0.0343 -0.3734
  275MPD2     C 4151   1.644   2.898  14.222  0.0433 -0.1977 -0.1382
  275MPD2    C1 4152   1.631   2.785  14.304  1.1474 -0.3174 -0.1412
  275MPD2    C2 4153   1.523   2.701  14.274 -0.8095  0.4728 -0.5958
  275MPD2    C3 4154   1.445   2.719  14.165  0.5368 -0.1135 -0.1739
  275MPD2    C4 4155   1.463   2.833  14.085 -0.1447  0.1763 -0.2588
  275MPD2    C5 4156   1.567   2.922  14.110  0.3802 -0.0034 -0.2579
  275MPD2     H 4157   1.506   2.616  14.339  1.0665  0.5035 -0.0882
  275MPD2    H1 4158   1.409   2.839  13.991 -1.4186  0.4747  0.4891
  275MPD2    H2 4159   1.726   2.965  14.245  1.8896 -2.7319  0.6181
  275MPD2    H3 4160   1.585   3.003  14.040  1.7821 -0.7699 -0.7764
  275MPD2     N 4161   1.322   2.646  14.145 -0.0726  0.0781 -0.2602
  275MPD2    H5 4162   1.244   2.686  14.093  1.2775  2.2211 -0.6175
  275MPD2    N1 4163   1.699   2.746  14.420 -0.0167  0.4127  0.5825
  275MPD2    H7 4164   1.675   2.657  14.462  1.8107  0.0146  0.8121
  276TMC3    C1 4165   1.814   2.800  14.624 -0.4546  0.3066  0.8247
  276TMC3    C2 4166   1.709   2.736  14.684  0.5984 -0.2240  0.1482
  276TMC3    C3 4167   1.700   2.745  14.820 -0.4012  0.3308  0.4434
  276TMC3    C4 4168   1.901   2.868  14.697 -0.0583  0.0886 -0.2855
  276TMC3    C5 4169   1.899   2.861  14.831  1.2076 -0.4756 -1.2331
  276TMC3    C6 4170   1.795   2.803  14.896 -0.3576  0.0777  0.6052
  276TMC3     C 4171   1.795   2.826  14.483  0.4105  0.1406  0.0348
  276TMC3     O 4172   1.839   2.929  14.443 -0.2136 -0.8288  0.3853
  276TMC3     H 4173   1.628   2.680  14.638  0.3415  1.9540 -2.0686
  276TMC3    H1 4174   1.987   2.910  14.645  0.4731 -0.6681 -0.0263
  276TMC3    H2 4175   1.796   2.790  15.003  0.7918 -1.4630  0.3924
  276TMC3    C7 4176   2.016   2.884  14.914 -0.0632 -0.4792  0.2880
  276TMC3    C8 4177   1.607   2.657  14.891  0.3427  0.1969  0.3630
  276TMC3    O1 4178   2.010   2.855  15.032 -0.0727 -0.3387 -0.0156
  276TMC3    O2 4179   1.537   2.715  14.970 -0.5702 -0.5587 -0.3059
  277MPD2     C 4180   3.350   2.001  12.991  0.0067  0.5396 -0.0327
  277MPD2    C1 4181   3.224   1.986  13.048 -0.4269  0.8590 -0.5115
  277MPD2    C2 4182   3.220   1.896  13.148 -0.4839  0.0101  0.0499
  277MPD2    C3 4183   3.323   1.818  13.202  0.3648  0.0278 -0.1673
  277MPD2    C4 4184   3.447   1.833  13.141 -0.4989 -0.4012  0.0680
  277MPD2    C5 4185   3.456   1.929  13.039 -0.1476  0.1120  0.2884
  277MPD2     H 4186   3.128   1.896  13.204  0.0108 -3.1466  0.8981
  277MPD2    H1 4187   3.536   1.782  13.177 -0.8214 -0.4022  0.8423
  277MPD2    H2 4188   3.372   2.070  12.911  0.9546 -0.5144 -0.6820
  277MPD2    H3 4189   3.549   1.957  12.990 -0.6236  0.9782 -0.1121
  277MPD2     N 4190   3.308   1.726  13.305  0.6127 -0.0287 -0.1936
  277MPD2    H5 4191   3.386   1.663  13.322  1.1556  0.2338 -1.7143
  277MPD2    N1 4192   3.117   2.070  13.018  0.4268  0.9122  0.0100
  277MPD2    H7 4193   3.139   2.138  12.946 -0.6966 -1.4741 -2.5763
  278TMC3    C1 4194   3.220   1.598  13.479 -0.2868  0.6260 -0.3300
  278TMC3    C2 4195   3.204   1.478  13.414 -0.2484  0.0467  0.1375
  278TMC3    C3 4196   3.136   1.380  13.474 -0.2527  0.5905 -0.0637
  278TMC3    C4 4197   3.168   1.620  13.606 -0.1249  0.1599 -0.1383
  278TMC3    C5 4198   3.081   1.524  13.646  0.5438  0.0694  0.9267
  278TMC3    C6 4199   3.069   1.402  13.594 -0.4279 -0.1334  0.0095
  278TMC3     C 4200   3.209   1.722  13.397  0.3750  0.4479 -0.2671
  278TMC3     O 4201   3.105   1.791  13.404  0.0325 -0.1010 -0.0478
  278TMC3     H 4202   3.237   1.468  13.311  0.0930  0.1250  0.2381
  278TMC3    H1 4203   3.180   1.719  13.647 -0.7164 -0.2260  0.9735
  278TMC3    H2 4204   2.993   1.337  13.638 -1.0868  2.8993  3.3439
  278TMC3    C7 4205   3.038   1.540  13.786 -0.4075  0.1885 -0.2077
  278TMC3    C8 4206   3.077   1.299  13.376  1.2282  0.5538  0.3760
  278TMC3    O1 4207   3.097   1.623  13.853  0.4957  0.4592 -0.2054
  278TMC3    O2 4208   2.962   1.315  13.335  0.3466 -0.7792 -0.3941
  279MPD2     C 4209   2.420   1.132  17.342 -0.5897  0.4794 -0.9486
  279MPD2    C1 4210   2.432   1.246  17.412  0.1148  0.0306  0.1792
  279MPD2    C2 4211   2.483   1.356  17.341  0.3430  0.3482 -0.0825
  279MPD2    C3 4212   2.534   1.351  17.214  0.5986  0.8903 -0.5108
  279MPD2    C4 4213   2.510   1.235  17.146 -0.6499 -0.9841 -0.4643
  279MPD2    C5 4214   2.458   1.122  17.207 -0.3721  0.3431 -0.5287
  279MPD2     H 4215   2.496   1.452  17.389  0.4142  0.5472 -0.4951
  279MPD2    H1 4216   2.529   1.218  17.041  0.4413 -0.3806 -0.3630
  279MPD2    H2 4217   2.375   1.044  17.385  0.8112  0.8662  1.2672
  279MPD2    H3 4218   2.447   1.031  17.150  0.6358  0.2821 -0.6174
  279MPD2     N 4219   2.582   1.465  17.141  0.2415 -0.6197 -0.2250
  279MPD2    H5 4220   2.591   1.459  17.040 -0.0257 -2.0215 -0.1678
  279MPD2    N1 4221   2.396   1.246  17.549 -0.4553 -0.0199  0.1817
  279MPD2    H7 4222   2.368   1.156  17.587  0.2479 -1.2524 -2.2546
  280TMC3    C1 4223   2.363   1.317   0.099  0.1970 -0.4479  0.3391
  280TMC3    C2 4224   2.290   1.204   0.124 -0.0394  0.0119  0.3924
  280TMC3    C3 4225   2.218   1.187   0.237  0.1384 -0.4487 -0.6643
  280TMC3    C4 4226   2.369   1.417   0.195 -0.2937  0.3880 -0.4843
  280TMC3    C5 4227   2.284   1.404   0.302 -0.1609  0.2189  0.1457
  280TMC3    C6 4228   2.207   1.294   0.324  0.4339  0.0713  0.4500
  280TMC3     C 4229   2.409   1.353  17.635  0.0443 -0.7695 -0.6811
  280TMC3     O 4230   2.466   1.459  17.623 -0.1190  0.2785  0.1419
  280TMC3     H 4231   2.262   1.127   0.053  1.6887 -1.3044  1.1327
  280TMC3    H1 4232   2.434   1.503   0.181  1.0401 -0.6000 -0.3401
  280TMC3    H2 4233   2.122   1.303   0.390  0.1507  1.4233 -0.0990
  280TMC3    C7 4234   2.250   1.521   0.367 -0.1209 -0.2642 -0.3249
  280TMC3    C8 4235   2.104   1.090   0.226 -0.6660  0.0783  0.6159
  280TMC3    O1 4236   2.238   1.503   0.485 -0.2768  0.1777  0.1741
  280TMC3    O2 4237   2.072   1.048   0.116  0.3343 -0.6019 -0.1252
  281TMC3    C1 4238   0.627   2.192  13.086  0.7069 -0.3883  0.7621
  281TMC3    C2 4239   0.575   2.225  12.957  0.6046 -0.3421 -0.6011
  281TMC3    C3 4240   0.464   2.152  12.921 -0.5964 -0.4131 -0.3206
  281TMC3    C4 4241   0.571   2.091  13.163 -0.5556  0.9222 -0.5068
  281TMC3    C5 4242   0.465   2.020  13.109  0.1587  0.3971  0.0951
  281TMC3    C6 4243   0.405   2.050  12.991  0.8906 -0.0722  0.3388
  281TMC3     C 4244   0.718   2.286  13.157 -0.5181  0.1129  0.2627
  281TMC3     O 4245   0.781   2.242  13.250 -0.8275 -0.1831  0.2353
  281TMC3     H 4246   0.612   2.306  12.895 -0.1895 -0.2760 -0.9789
  281TMC3    H1 4247   0.591   2.095  13.269  0.4078  0.9794 -0.6952
  281TMC3    H2 4248   0.333   1.981  12.948  1.4806 -1.2160  1.1796
  281TMC3    C7 4249   0.419   1.896  13.176 -0.3942  0.1525 -0.0725
  281TMC3    C8 4250   0.435   2.177  12.784 -0.0559  0.2752  0.1929
  281TMC3    O1 4251   0.307   1.849  13.149  0.3872 -0.5630  0.2638
  281TMC3    O2 4252   0.421   2.297  12.749 -0.0381 -0.3058 -0.5345
  282MPD2     C 4253   3.210   3.413  15.031  0.5527  0.1807 -0.7131
  282MPD2    C1 4254   3.118   3.512  15.003  0.2161 -0.4691  0.3864
  282MPD2    C2 4255   3.086   3.556  14.874 -0.5235 -0.0505 -0.2900
  282MPD2    C3 4256   3.147   3.488  14.766  0.5442  0.7295 -0.3005
  282MPD2    C4 4257   3.243   3.389  14.794  0.1247  0.4310 -0.6234
  282MPD2    C5 4258   3.269   3.355  14.919 -0.6754 -0.4258 -0.2845
  282MPD2     H 4259   3.011   3.631  14.849  1.1256  1.6390 -0.1746
  282MPD2    H1 4260   3.297   3.326  14.725 -1.8385 -0.7054 -1.1229
  282MPD2    H2 4261   3.239   3.378  15.129 -3.8711  0.8518  0.8446
  282MPD2    H3 4262   3.334   3.270  14.936 -0.1898 -0.1417 -0.7113
  282MPD2     N 4263   3.109   3.522  14.636 -0.7450  0.3922  0.0756
  282MPD2    H5 4264   3.034   3.590  14.630 -0.9849  0.0831 -0.4383
  282MPD2    N1 4265   3.055   3.586  15.110  0.2036  0.2461  0.2713
  282MPD2    H7 4266   2.993   3.662  15.085  1.0121  0.9111  0.2735
  283TMC3    C1 4267   2.978   3.632  15.329 -0.1095 -0.3003 -0.0790
  283TMC3    C2 4268   2.950   3.762  15.301 -0.1932 -0.1276  0.4548
  283TMC3    C3 4269   2.885   3.832  15.400 -0.3441  0.4809 -0.0300
  283TMC3    C4 4270   2.935   3.574  15.442 -0.1222 -0.8735  0.4895
  283TMC3    C5 4271   2.858   3.642  15.529  0.0976  0.1688  0.4445
  283TMC3    C6 4272   2.839   3.777  15.512 -0.7508 -0.0512  0.0826
  283TMC3     C 4273   3.073   3.558  15.244  0.4512  0.0421 -0.2737
  283TMC3     O 4274   3.134   3.472  15.306  0.7685 -0.3321  0.0221
  283TMC3     H 4275   2.977   3.811  15.209 -2.0941 -1.8896 -1.0540
  283TMC3    H1 4276   2.958   3.470  15.464  3.4722 -0.1765  0.0934
  283TMC3    H2 4277   2.788   3.834  15.589  0.3477 -0.4133  1.0878
  283TMC3    C7 4278   2.818   3.602  15.660 -0.0118 -0.1188  0.1168
  283TMC3    C8 4279   2.935   3.964  15.422  0.4233  0.1768  0.1113
  283TMC3    O1 4280   2.718   3.654  15.713 -0.1197 -0.1707 -0.2638
  283TMC3    O2 4281   2.926   4.037  15.326  0.0026 -0.0939 -0.4217
  284MPD2     C 4282   1.411   3.357  11.507 -0.8037  0.1332  0.2097
  284MPD2    C1 4283   1.545   3.382  11.526 -0.1156  0.4214 -0.3761
  284MPD2    C2 4284   1.604   3.328  11.634  0.3491  0.4207  0.8026
  284MPD2    C3 4285   1.535   3.231  11.715 -1.0923 -0.1214  0.0792
  284MPD2    C4 4286   1.405   3.207  11.688  0.2283  0.7459 -0.0015
  284MPD2    C5 4287   1.342   3.272  11.583  0.1191  0.5073  0.7222
  284MPD2     H 4288   1.709   3.356  11.639  0.8012 -0.9002 -1.0165
  284MPD2    H1 4289   1.339   3.137  11.738 -0.6959  1.4194 -0.2801
  284MPD2    H2 4290   1.352   3.401  11.428 -0.2978  0.1902 -0.1374
  284MPD2    H3 4291   1.240   3.243  11.558  0.8755  0.6542 -2.5802
  284MPD2     N 4292   1.599   3.158  11.817 -0.1728  0.3677  0.1546
  284MPD2    H5 4293   1.558   3.071  11.849 -1.4595  1.1688  0.6688
  284MPD2    N1 4294   1.625   3.451  11.437  0.8476 -0.5467 -0.5907
  284MPD2    H7 4295   1.726   3.436  11.442  0.8400 -0.7058 -0.9665
  285TMC3    C1 4296   1.689   3.508  11.219  0.2076  0.3497 -1.1562
  285TMC3    C2 4297   1.788   3.412  11.216 -1.0329 -0.1786  0.1462
  285TMC3    C3 4298   1.886   3.419  11.128 -0.1532 -0.3481 -0.0276
  285TMC3    C4 4299   1.695   3.613  11.133  0.2551 -0.5900 -0.0592
  285TMC3    C5 4300   1.797   3.620  11.043 -0.1177  0.1165 -0.6026
  285TMC3    C6 4301   1.898   3.525  11.039 -0.7170  0.4018 -0.8547
  285TMC3     C 4302   1.583   3.499  11.320 -0.0854  0.1908 -0.2336
  285TMC3     O 4303   1.475   3.554  11.295 -0.1275  0.3880  0.4259
  285TMC3     H 4304   1.778   3.326  11.281 -0.2458 -1.9322 -2.0933
  285TMC3    H1 4305   1.610   3.680  11.124  1.1627  0.3895 -1.3977
  285TMC3    H2 4306   1.972   3.516  10.960  0.0482 -0.8779  0.0232
  285TMC3    C7 4307   1.811   3.740  10.963  0.3815 -0.8279 -0.1790
  285TMC3    C8 4308   1.926   3.297  11.075  0.2964  0.4928 -0.1100
  285TMC3    O1 4309   1.926   3.777  10.939  0.7378 -0.2050 -0.9488
  285TMC3    O2 4310   1.834   3.213  11.070 -0.3211 -0.0838 -0.1981
  286MPD2     C 4311   1.519   1.329   1.788 -0.1427 -0.2024 -0.3207
  286MPD2    C1 4312   1.546   1.333   1.652  0.5190 -0.3913 -0.0943
  286MPD2    C2 4313   1.611   1.221   1.600  0.7384  0.0505 -0.1071
  286MPD2    C3 4314   1.679   1.130   1.675  0.5605  0.6149  0.1944
  286MPD2    C4 4315   1.650   1.137   1.810  0.5611 -0.0891 -0.2491
  286MPD2    C5 4316   1.567   1.229   1.866  0.5857  0.1374 -0.2621
  286MPD2     H 4317   1.616   1.217   1.492 -2.0344  1.4226 -0.2741
  286MPD2    H1 4318   1.695   1.071   1.883 -0.7043 -0.0540  0.5506
  286MPD2    H2 4319   1.474   1.416   1.836 -1.8237 -0.7660 -0.8666
  286MPD2    H3 4320   1.559   1.223   1.974 -0.1809  2.5265 -0.1844
  286MPD2     N 4321   1.763   1.032   1.624  0.1844 -0.2511  0.4341
  286MPD2    H5 4322   1.821   0.979   1.689 -0.8492 -1.2975  0.5129
  286MPD2    N1 4323   1.488   1.428   1.564 -0.2411  0.2713 -0.7228
  286MPD2    H7 4324   1.513   1.428   1.465  2.8249 -1.1285  0.0596
  287TMC3    C1 4325   1.808   0.855   1.464 -0.6616 -0.4637  0.1755
  287TMC3    C2 4326   1.761   0.797   1.343 -0.5604 -1.1315 -0.0819
  287TMC3    C3 4327   1.812   0.667   1.322  0.5556 -0.4519 -0.1761
  287TMC3    C4 4328   1.895   0.794   1.549 -0.4524 -0.5447  0.1390
  287TMC3    C5 4329   1.928   0.665   1.519 -0.1863 -0.9279 -0.2724
  287TMC3    C6 4330   1.882   0.597   1.413 -0.2764 -0.3671 -0.1288
  287TMC3     C 4331   1.757   0.988   1.491  0.7061  0.1568  0.3154
  287TMC3     O 4332   1.687   1.028   1.399  0.3459 -0.3575  0.0172
  287TMC3     H 4333   1.700   0.845   1.268 -1.9190  0.7818  2.2154
  287TMC3    H1 4334   1.924   0.850   1.637  2.5922 -1.3828 -0.3181
  287TMC3    H2 4335   1.917   0.499   1.383  1.1306  0.5308 -1.4322
  287TMC3    C7 4336   2.027   0.609   1.599  0.3102  0.4241  0.6678
  287TMC3    C8 4337   1.769   0.588   1.199  0.1813 -0.2127  0.5562
  287TMC3    O1 4338   2.036   0.643   1.717  0.3286  0.6827  0.2048
  287TMC3    O2 4339   1.800   0.467   1.191 -0.3885  0.4156 -0.3951
  288TMC3    C1 4340   3.622   1.586  14.508 -0.4737 -0.1950 -0.1972
  288TMC3    C2 4341   3.524   1.535  14.588  0.5147 -0.1484  0.4125
  288TMC3    C3 4342   3.448   1.433  14.534  0.3275 -0.1919  0.3860
  288TMC3    C4 4343   3.649   1.540  14.383 -0.4935  0.7068  0.0209
  288TMC3    C5 4344   3.569   1.443  14.333  0.0662 -0.1815 -0.2160
  288TMC3    C6 4345   3.471   1.379  14.408 -0.1094 -0.6939  0.4954
  288TMC3     C 4346   3.687   1.710  14.543 -0.5054  0.5474 -0.0111
  288TMC3     O 4347   3.793   1.736  14.487  0.2948  0.1820 -0.0540
  288TMC3     H 4348   3.512   1.579  14.686 -0.6564  0.1349  0.1419
  288TMC3    H1 4349   3.738   1.579  14.334 -0.0907 -1.6711 -1.1468
  288TMC3    H2 4350   3.409   1.295  14.381 -1.6780  0.0547  1.7767
  288TMC3    C7 4351   3.607   1.368  14.215  0.2698  0.1328  0.3146
  288TMC3    C8 4352   3.360   1.377  14.633 -0.2568 -1.0489 -0.3516
  288TMC3    O1 4353   3.613   1.247  14.235  0.6584 -0.2428  0.2719
  288TMC3    O2 4354   3.367   1.437  14.738 -0.0638  0.4365 -0.3306
  289MPD2     C 4355   3.664   0.548  14.635 -0.5813 -0.1100  0.5013
  289MPD2    C1 4356   3.694   0.620  14.524  0.0694 -0.0832 -0.8720
  289MPD2    C2 4357   3.620   0.604  14.410 -0.3988 -0.2574 -0.0063
  289MPD2    C3 4358   3.525   0.505  14.405 -0.0190 -0.6141  0.0954
  289MPD2    C4 4359   3.508   0.419  14.514 -0.3280  0.0005 -0.6089
  289MPD2    C5 4360   3.572   0.448  14.632 -0.9206  0.7135  0.3580
  289MPD2     H 4361   3.630   0.672  14.326 -2.7118  0.6306  0.4282
  289MPD2    H1 4362   3.441   0.334  14.509 -0.8969  0.5442 -2.1770
  289MPD2    H2 4363   3.731   0.565  14.719 -0.3339 -0.4793  0.3788
  289MPD2    H3 4364   3.570   0.380  14.716 -1.2677  1.9936  1.3832
  289MPD2     N 4365   3.447   0.484  14.287  0.1065  0.0720 -0.3455
  289MPD2    H5 4366   3.381   0.408  14.293  1.5376 -1.1616 -0.3287
  289MPD2    N1 4367   3.796   0.716  14.534  0.5033  0.2159 -0.0208
  289MPD2    H7 4368   3.845   0.724  14.623 -0.0172  0.0070  0.2887
  290TMC3    C1 4369   3.323   0.539  14.092  0.2248 -0.3089 -0.0464
  290TMC3    C2 4370   3.244   0.636  14.037 -0.0763  0.3047  0.0556
  290TMC3    C3 4371   3.121   0.607  13.992  0.8387 -0.0922 -0.8401
  290TMC3    C4 4372   3.267   0.409  14.117 -0.4145  0.7213  0.1496
  290TMC3    C5 4373   3.144   0.385  14.069 -0.1387 -0.4336 -0.0973
  290TMC3    C6 4374   3.069   0.483  14.008  0.0805  0.1087  0.0847
  290TMC3     C 4375   3.424   0.583  14.192  0.0928  0.3902  0.6497
  290TMC3     O 4376   3.472   0.695  14.185 -0.0303 -0.4314 -0.2303
  290TMC3     H 4377   3.282   0.737  14.026 -1.2803  0.9345  1.4934
  290TMC3    H1 4378   3.325   0.328  14.159 -0.9502 -0.3744 -1.2222
  290TMC3    H2 4379   2.967   0.468  13.976  0.2881  0.5040 -0.7799
  290TMC3    C7 4380   3.075   0.274  14.140  0.2731 -0.3118 -0.0655
  290TMC3    C8 4381   3.028   0.718  13.967  0.3404 -0.2577  0.3510
  290TMC3    O1 4382   3.129   0.211  14.226 -0.5884  0.3095  0.1464
  290TMC3    O2 4383   2.921   0.686  13.925  0.3006 -0.1159 -0.5459
  291MPD2     C 4384   2.715   0.668   0.565 -0.5457 -0.2589  0.6992
  291MPD2    C1 4385   2.819   0.575   0.556  0.0470  0.4349 -0.1078
  291MPD2    C2 4386   2.917   0.607   0.463  0.2222  0.1122  0.0078
  291MPD2    C3 4387   2.912   0.723   0.384  0.1477  0.5478  0.1861
  291MPD2    C4 4388   2.808   0.808   0.396 -0.6202 -0.3527  0.1875
  291MPD2    C5 4389   2.720   0.789   0.502 -0.1061 -0.2030  0.3174
  291MPD2     H 4390   2.987   0.527   0.444 -1.7100 -1.1597 -1.7776
  291MPD2    H1 4391   2.780   0.893   0.335  0.5652 -0.0557  0.0490
  291MPD2    H2 4392   2.626   0.644   0.622 -2.4519  1.2105 -1.6685
  291MPD2    H3 4393   2.630   0.850   0.503 -0.0093 -0.0503 -0.1665
  291MPD2     N 4394   3.001   0.760   0.285  0.2010  0.0747  0.1822
  291MPD2    H5 4395   2.973   0.844   0.235 -0.4558  0.3719  1.0413
  291MPD2    N1 4396   2.813   0.455   0.625  0.1185 -0.3410 -0.2476
  291MPD2    H7 4397   2.735   0.451   0.690 -0.5591 -1.0884 -1.0856
  292TMC3    C1 4398   2.840   0.221   0.682 -0.1031 -0.2221 -0.5744
  292TMC3    C2 4399   2.808   0.234   0.816  0.0608 -0.3292 -0.3189
  292TMC3    C3 4400   2.796   0.118   0.886 -0.8619  0.2222 -0.1345
  292TMC3    C4 4401   2.862   0.101   0.623  0.5496 -0.6592 -0.2733
  292TMC3    C5 4402   2.841   4.702   0.698  0.2795 -0.4633  0.0242
  292TMC3    C6 4403   2.810   4.704   0.834  0.0909 -0.1202  0.9073
  292TMC3     C 4404   2.882   0.341   0.605  0.5787  0.7237 -0.4448
  292TMC3     O 4405   2.971   0.312   0.525  0.5174  0.0740 -0.1655
  292TMC3     H 4406   2.780   0.327   0.863  0.8700 -0.5405  0.5861
  292TMC3    H1 4407   2.893   0.086   0.521 -1.6764  1.4480 -1.2734
  292TMC3    H2 4408   2.834   4.615   0.891  0.3493 -0.6761 -0.0806
  292TMC3    C7 4409   2.838   4.579   0.629 -0.0765  0.1305  0.6068
  292TMC3    C8 4410   2.764   0.133   1.028 -0.1342 -0.4423 -0.0285
  292TMC3    O1 4411   2.862   4.468   0.681  0.0242  0.1801 -0.1824
  292TMC3    O2 4412   2.802   0.234   1.088 -0.0141  0.2355 -0.0972
  293MPD2     C 4413   4.492   2.183  12.458  0.3340  1.0231  0.2853
  293MPD2    C1 4414   4.478   2.053  12.495 -0.4788 -0.1723 -0.1347
  293MPD2    C2 4415   4.467   2.019  12.629  0.5246  0.4716 -0.7551
  293MPD2    C3 4416   4.479   2.119  12.726 -0.2650  0.8101  0.8166
  293MPD2    C4 4417   4.485   2.252  12.688  0.3908  0.0450 -0.0047
  293MPD2    C5 4418   4.489   2.281  12.555 -0.4702 -0.0117  0.0394
  293MPD2     H 4419   4.457   1.919  12.669  1.8464  1.1982  1.4396
  293MPD2    H1 4420   4.499   2.335  12.757 -1.4429  0.5133 -0.1913
  293MPD2    H2 4421   4.512   2.206  12.354  0.0108  2.1780  0.4751
  293MPD2    H3 4422   4.494   2.383  12.520  0.8580 -0.1035 -0.0366
  293MPD2     N 4423   4.499   2.079  12.854  0.7206 -0.4685 -0.3880
  293MPD2    H5 4424   4.504   1.978  12.862 -0.5293 -0.6284 -1.4934
  293MPD2    N1 4425   4.472   1.954  12.386 -0.1158  0.3179 -0.3790
  293MPD2    H7 4426   4.480   1.989  12.291  1.0746  0.1697 -0.3379
  294TMC3    C1 4427   4.406   1.758  12.297 -0.0927 -0.1723 -0.9428
  294TMC3    C2 4428   4.364   1.630  12.327 -0.7595 -0.0820  0.0683
  294TMC3    C3 4429   4.344   1.544  12.219  0.4225  1.1022 -0.0960
  294TMC3    C4 4430   4.434   1.796  12.172  0.2378  0.3543 -0.0756
  294TMC3    C5 4431   4.432   1.705  12.074 -0.5440 -0.4187 -0.3170
  294TMC3    C6 4432   4.386   1.576  12.094  0.2206  0.1043 -0.7679
  294TMC3     C 4433   4.462   1.817  12.412 -0.2669 -0.0524  0.6068
  294TMC3     O 4434   4.446   1.760  12.517 -0.8923 -0.0815 -0.1707
  294TMC3     H 4435   4.337   1.609  12.429  0.1390  0.0403  0.3274
  294TMC3    H1 4436   4.479   1.893  12.154  1.5695 -0.6666 -2.1941
  294TMC3    H2 4437   4.379   1.505  12.012  1.9142 -2.0643  0.9370
  294TMC3    C7 4438   4.453   1.750  11.938  0.2844 -0.0083  0.2244
  294TMC3    C8 4439   4.256   1.431  12.239  0.1177 -0.7186 -0.1180
  294TMC3    O1 4440   4.458   1.871  11.917  0.3301 -0.2785 -0.6353
  294TMC3    O2 4441   4.262   1.389  12.353  0.1372  0.2572  0.5674
  295MPD2     C 4442   0.150   0.163  17.634  0.3803  0.1264 -0.1086
  295MPD2    C1 4443   0.264   0.086  17.662  0.0789  0.8036  0.3339
  295MPD2    C2 4444   0.262   4.712   0.099  0.1455  0.0079  0.2428
  295MPD2    C3 4445   0.154   4.700   0.179  0.1408 -0.0823 -0.0819
  295MPD2    C4 4446   0.043   0.058   0.143 -0.4473  0.3624 -0.1107
  295MPD2    C5 4447   0.033   0.138   0.033 -0.1008 -0.0914  0.3802
  295MPD2     H 4448   0.350   4.649   0.104 -1.1669 -1.8206 -0.0124
  295MPD2    H1 4449   4.668   0.046   0.199 -0.0912 -0.1558  0.3549
  295MPD2    H2 4450   0.150   0.237  17.556  0.8390 -0.7408 -0.9359
  295MPD2    H3 4451   4.661   0.193   0.003  2.3499  3.0811 -0.9997
  295MPD2     N 4452   0.146   4.615   0.293 -0.6540 -0.7047 -0.6720
  295MPD2    H5 4453   0.059   4.607   0.345  0.8796 -0.4047  1.9474
  295MPD2    N1 4454   0.382   0.087  17.575  0.1516 -0.5635 -0.3443
  295MPD2    H7 4455   0.460   0.025  17.592 -0.1857 -0.9624 -0.2635
  296TMC3    C1 4456   0.213   4.466   0.466 -0.1283  0.5530  0.3798
  296TMC3    C2 4457   0.291   4.475   0.579  0.1993 -0.5002 -0.2857
  296TMC3    C3 4458   0.248   4.403   0.686  0.2281  0.1465 -0.3010
  296TMC3    C4 4459   0.094   4.398   0.464 -0.1083 -0.0122  0.0321
  296TMC3    C5 4460   0.053   4.326   0.578  0.4598 -0.7285  0.3409
  296TMC3    C6 4461   0.130   4.337   0.697 -0.1846 -0.5301  0.5709
  296TMC3     C 4462   0.251   4.556   0.350  0.3564 -0.3916  0.0779
  296TMC3     O 4463   0.371   4.574   0.323  0.2937 -0.3919 -0.1996
  296TMC3     H 4464   0.394   4.508   0.575  0.0336 -0.0640 -1.1770
  296TMC3    H1 4465   0.030   4.409   0.378  1.0731  1.4141 -0.6772
  296TMC3    H2 4466   0.089   4.286   0.783  0.4068  0.6677  1.5501
  296TMC3    C7 4467   4.624   4.307   0.586 -0.4290  0.1380 -0.6197
  296TMC3    C8 4468   0.342   4.415   0.795  0.7450  0.2350 -0.4195
  296TMC3    O1 4469   4.557   4.365   0.498 -0.5226 -0.0310 -0.4585
  296TMC3    O2 4470   0.391   4.524   0.816  0.1568 -0.8070  0.1462
  297MPD2     C 4471   2.545   2.341  16.873  0.4442 -0.1921 -0.2342
  297MPD2    C1 4472   2.530   2.358  16.740 -0.1981 -0.3571  0.0618
  297MPD2    C2 4473   2.581   2.473  16.685 -0.3776 -0.4133 -0.3539
  297MPD2    C3 4474   2.652   2.566  16.762  0.0626 -0.4667  0.0235
  297MPD2    C4 4475   2.667   2.548  16.898 -0.7194  0.3219  0.7813
  297MPD2    C5 4476   2.622   2.432  16.946  0.8456 -0.0386  0.9147
  297MPD2     H 4477   2.567   2.487  16.578 -1.3624  0.3494 -0.1262
  297MPD2    H1 4478   2.714   2.617  16.968  0.1778 -0.5900  1.0843
  297MPD2    H2 4479   2.508   2.254  16.926 -2.3108  0.5738 -0.8893
  297MPD2    H3 4480   2.644   2.412  17.050  1.0560 -1.2602  0.6361
  297MPD2     N 4481   2.709   2.685  16.711 -0.3271 -0.6860  0.3086
  297MPD2    H5 4482   2.757   2.740  16.782 -0.3315 -0.6743  0.3026
  297MPD2    N1 4483   2.457   2.278  16.654 -0.0750 -0.0242  0.4425
  297MPD2    H7 4484   2.467   2.309  16.558 -1.2950  0.6419  0.5189
  298TMC3    C1 4485   2.334   2.100  16.571  0.2365 -0.2169 -0.8009
  298TMC3    C2 4486   2.286   1.976  16.594 -0.1012 -0.0547 -0.4463
  298TMC3    C3 4487   2.175   1.935  16.515 -0.5305  0.0113 -0.5043
  298TMC3    C4 4488   2.285   2.181  16.473 -0.3009 -0.2306  0.2323
  298TMC3    C5 4489   2.180   2.144  16.404  0.4903  0.0044  0.1019
  298TMC3    C6 4490   2.126   2.020  16.418 -0.4811 -0.1595  0.2696
  298TMC3     C 4491   2.403   2.152  16.682  0.4513 -0.4945  0.2721
  298TMC3     O 4492   2.393   2.093  16.787 -0.3018  0.4022  0.2808
  298TMC3     H 4493   2.317   1.908  16.672 -0.2928 -0.5454 -0.7995
  298TMC3    H1 4494   2.301   2.287  16.466  2.0404 -0.8229 -2.8655
  298TMC3    H2 4495   2.047   1.988  16.351 -0.5242  0.4966  0.0150
  298TMC3    C7 4496   2.092   2.248  16.362  0.3925  0.4053 -0.1952
  298TMC3    C8 4497   2.086   1.831  16.563  0.7084  0.4082  0.0177
  298TMC3    O1 4498   2.122   2.368  16.379  0.7369  0.0486 -0.0052
  298TMC3    O2 4499   1.966   1.847  16.543 -0.7072  0.1744 -0.5108
  299MPD2     C 4500   3.206   1.862  10.815 -0.1091  0.2288  0.5295
  299MPD2    C1 4501   3.225   1.931  10.698 -0.6891 -0.1291  0.0217
  299MPD2    C2 4502   3.125   1.926  10.600 -0.2241 -0.2664 -0.4797
  299MPD2    C3 4503   3.018   1.832  10.605 -0.3356 -0.4976 -0.2013
  299MPD2    C4 4504   3.013   1.750  10.717 -0.2651  0.2867 -0.1812
  299MPD2    C5 4505   3.105   1.764  10.819 -0.8458 -0.3512  0.0720
  299MPD2     H 4506   3.135   1.983  10.508  1.6831  1.6637  0.9477
  299MPD2    H1 4507   2.935   1.676  10.732  0.4055  0.0217  2.0855
  299MPD2    H2 4508   3.277   1.871  10.896 -0.3384 -1.1602  0.8841
  299MPD2    H3 4509   3.097   1.720  10.917 -0.9928  2.9356  1.5586
  299MPD2     N 4510   2.909   1.822  10.508  0.7084 -0.2885 -0.2144
  299MPD2    H5 4511   2.823   1.772  10.526 -0.4576  0.7516 -2.8243
  299MPD2    N1 4512   3.339   2.018  10.694 -0.0197  0.6461  0.3931
  299MPD2    H7 4513   3.401   2.021  10.774  1.7167  0.7210 -0.9523
  300TMC3    C1 4514   2.755   1.923  10.346 -0.0669  0.2205 -0.1824
  300TMC3    C2 4515   2.737   1.994  10.227  0.2772 -0.1762 -0.4019
  300TMC3    C3 4516   2.610   2.006  10.173 -0.3381  0.0247  0.1158
  300TMC3    C4 4517   2.653   1.853  10.401 -0.2483  0.2869 -0.0952
  300TMC3    C5 4518   2.533   1.867  10.343 -0.1493 -0.9401  0.0153
  300TMC3    C6 4519   2.507   1.947  10.240  0.6191  0.6353  0.3203
  300TMC3     C 4520   2.887   1.911  10.402  1.1340 -0.4857  0.2351
  300TMC3     O 4521   2.970   1.977  10.347  0.0981 -0.2736 -0.3742
  300TMC3     H 4522   2.820   2.048  10.181  0.8362 -1.2660 -0.6748
  300TMC3    H1 4523   2.653   1.793  10.492 -4.1595  0.1200 -0.2072
  300TMC3    H2 4524   2.404   1.959  10.211  0.7851 -1.4677 -1.1475
  300TMC3    C7 4525   2.415   1.841  10.422 -0.6354 -0.4544 -0.1582
  300TMC3    C8 4526   2.586   2.114  10.089  0.6659  0.4279  0.2399
  300TMC3    O1 4527   2.392   1.723  10.453  0.3395 -0.4154  0.2570
  300TMC3    O2 4528   2.653   2.217  10.108  0.0409 -0.1911  0.0731
  301MPD2     C 4529   4.055   2.587   1.666  0.0772  0.4398 -0.8272
  301MPD2    C1 4530   4.047   2.586   1.529  0.4625 -0.2903  0.0244
  301MPD2    C2 4531   4.121   2.498   1.454  0.5113 -0.6413 -0.1558
  301MPD2    C3 4532   4.224   2.423   1.516  0.0281 -0.3193  0.0797
  301MPD2    C4 4533   4.250   2.442   1.654  0.1122 -0.0617 -0.3549
  301MPD2    C5 4534   4.162   2.521   1.723 -0.0328 -0.0452  0.3820
  301MPD2     H 4535   4.101   2.485   1.348  1.2082  1.6798 -0.5669
  301MPD2    H1 4536   4.322   2.378   1.704 -1.0942 -0.9676  0.2402
  301MPD2    H2 4537   3.999   2.649   1.735  1.2126 -0.9834  1.4170
  301MPD2    H3 4538   4.179   2.530   1.830 -0.0501 -1.5204  0.5086
  301MPD2     N 4539   4.316   2.337   1.445  0.7593  0.2871 -0.8432
  301MPD2    H5 4540   4.366   2.265   1.496  0.0924 -0.5471 -1.3710
  301MPD2    N1 4541   3.945   2.655   1.458  0.2991  0.0413 -0.7377
  301MPD2    H7 4542   3.941   2.645   1.357 -0.5539  0.5063 -0.7485
  302TMC3    C1 4543   4.431   2.232   1.267 -0.1217 -0.9394  0.6229
  302TMC3    C2 4544   4.519   2.178   1.354 -0.2640 -0.0003 -0.1419
  302TMC3    C3 4545   4.601   2.071   1.321  0.0337  0.8627  0.9207
  302TMC3    C4 4546   4.419   2.185   1.135 -0.1726  0.2487 -0.6437
  302TMC3    C5 4547   4.513   2.092   1.098  0.2025 -0.8999  0.3694
  302TMC3    C6 4548   4.590   2.031   1.191 -0.3443  0.3625 -0.7036
  302TMC3     C 4549   4.330   2.328   1.311 -0.2909 -0.2557  0.2398
  302TMC3     O 4550   4.275   2.403   1.231  0.1207 -0.2447 -0.0004
  302TMC3     H 4551   4.518   2.215   1.456 -1.8132  0.8753 -0.4844
  302TMC3    H1 4552   4.344   2.230   1.070  0.0628  0.7242 -0.5846
  302TMC3    H2 4553   4.660   1.958   1.152 -2.8921 -1.8437 -1.2134
  302TMC3    C7 4554   4.506   2.035   0.969 -0.0436 -0.1845 -0.4741
  302TMC3    C8 4555   4.710   2.033   1.402  0.2804  0.1695  0.8641
  302TMC3    O1 4556   4.544   1.921   0.940  0.1793 -0.6559 -0.2741
  302TMC3    O2 4557   0.081   1.968   1.355  0.0349 -0.7319 -0.0465
  303MPD2     C 4558   0.510   1.651  10.200 -0.4930 -0.1264 -0.4858
  303MPD2    C1 4559   0.440   1.541  10.220  0.3978 -1.1133  0.1969
  303MPD2    C2 4560   0.326   1.513  10.145  0.4669 -0.2605  0.4274
  303MPD2    C3 4561   0.285   1.609  10.048  0.6852 -0.8179  0.4480
  303MPD2    C4 4562   0.362   1.714  10.033  0.6715 -0.5257 -0.2524
  303MPD2    C5 4563   0.474   1.731  10.100  0.2117 -0.6226 -0.6121
  303MPD2     H 4564   0.263   1.429  10.170  0.3497 -1.0611 -2.5173
  303MPD2    H1 4565   0.353   1.784   9.950  0.5878  0.4724  0.5967
  303MPD2    H2 4566   0.605   1.667  10.250 -1.9805  1.8297  1.7196
  303MPD2    H3 4567   0.536   1.817  10.079  2.2499 -1.9729 -0.1536
  303MPD2     N 4568   0.165   1.611   9.975  0.3496  0.3384  0.3945
  303MPD2    H5 4569   0.147   1.681   9.904 -1.1287 -1.7631 -1.2967
  303MPD2    N1 4570   0.482   1.458  10.323 -0.2585 -0.5430  0.3810
  303MPD2    H7 4571   0.560   1.489  10.381  0.2643 -2.0559  0.4889
  304TMC3    C1 4572   0.483   1.279  10.479 -0.3207  0.6582 -0.4787
  304TMC3    C2 4573   0.450   1.349  10.593  0.0059 -0.4834  0.5461
  304TMC3    C3 4574   0.423   1.278  10.708  0.5141  0.4060 -0.2634
  304TMC3    C4 4575   0.491   1.143  10.481 -0.1681  0.1269 -0.2980
  304TMC3    C5 4576   0.480   1.072  10.597  0.3699 -0.3245 -0.1809
  304TMC3    C6 4577   0.442   1.144  10.708  0.5334 -0.3552 -0.0814
  304TMC3     C 4578   0.438   1.331  10.352 -0.6209  0.7563  0.3325
  304TMC3     O 4579   0.344   1.274  10.295  0.0087 -0.4379 -0.1581
  304TMC3     H 4580   0.415   1.452  10.591 -0.1807 -0.5068  2.0787
  304TMC3    H1 4581   0.502   1.096  10.383  0.2569 -0.1991 -0.0952
  304TMC3    H2 4582   0.444   1.085  10.799  0.8437  1.2358  0.9361
  304TMC3    C7 4583   0.382   0.970  10.587 -0.5209  0.5083 -0.2916
  304TMC3    C8 4584   0.300   1.314  10.770 -0.0509  0.6804  0.6090
  304TMC3    O1 4585   0.272   1.017  10.561  0.0669  0.1206  0.1321
  304TMC3    O2 4586   0.264   1.431  10.784  0.3902 -0.0217  0.3462
  305MPD2     C 4587   3.412   4.076  14.063 -0.6135  0.2799 -0.3404
  305MPD2    C1 4588   3.423   3.940  14.088 -0.5224  0.2520  0.2808
  305MPD2    C2 4589   3.391   3.855  13.981  0.3495 -0.4627 -0.1323
  305MPD2    C3 4590   3.356   3.897  13.853  0.1771  0.0904 -0.3733
  305MPD2    C4 4591   3.363   4.032  13.831 -0.2362 -0.2053  0.7902
  305MPD2    C5 4592   3.382   4.117  13.937 -0.6774  0.0117  0.0150
  305MPD2     H 4593   3.383   3.750  14.004  1.5641 -0.7782 -1.2148
  305MPD2    H1 4594   3.342   4.070  13.732  2.3025  1.8157  1.0240
  305MPD2    H2 4595   3.425   4.149  14.142 -0.9142  0.2093 -0.2252
  305MPD2    H3 4596   3.375   4.224  13.921 -1.2338 -0.2024 -1.1701
  305MPD2     N 4597   3.315   3.813  13.743  0.5758 -0.5390  0.1588
  305MPD2    H5 4598   3.303   3.857  13.652 -2.3463 -0.7496  0.4370
  305MPD2    N1 4599   3.450   3.892  14.216 -0.7054 -0.9772  0.1134
  305MPD2    H7 4600   3.454   3.964  14.287 -3.3056 -1.4074  0.7062
  306TMC3    C1 4601   3.481   3.741  14.401  0.0205 -0.2249 -0.1674
  306TMC3    C2 4602   3.559   3.633  14.442 -0.2085 -1.1075  0.2148
  306TMC3    C3 4603   3.538   3.589  14.565  0.8456 -0.6877  0.0691
  306TMC3    C4 4604   3.392   3.810  14.480 -0.1411  0.5089 -0.3175
  306TMC3    C5 4605   3.397   3.769  14.609 -0.6554  0.1229 -0.1011
  306TMC3    C6 4606   3.449   3.652  14.649  0.1945  0.4764  0.0062
  306TMC3     C 4607   3.478   3.763  14.255  0.0604 -0.0356  0.0523
  306TMC3     O 4608   3.487   3.665  14.184 -0.1057  0.2975  0.1266
  306TMC3     H 4609   3.614   3.575  14.370  0.8339  0.8061 -0.5427
  306TMC3    H1 4610   3.337   3.897  14.446 -0.6064  0.5055  0.4273
  306TMC3    H2 4611   3.415   3.600  14.738  0.3151 -0.1247 -0.2992
  306TMC3    C7 4612   3.301   3.837  14.700  0.2621 -0.0905  0.0683
  306TMC3    C8 4613   3.641   3.500  14.600 -0.0113  0.2447 -0.2371
  306TMC3    O1 4614   3.227   3.927  14.661  0.0838 -0.3780  0.1045
  306TMC3    O2 4615   3.703   3.449  14.511  0.0011 -0.6257 -0.1308
  307MPD2     C 4616   1.062   0.570   0.061  0.1051  0.1505 -0.8961
  307MPD2    C1 4617   1.048   0.699   0.110  0.7979  0.3405  0.1034
  307MPD2    C2 4618   0.961   0.724   0.208 -1.1426  0.3795  0.1340
  307MPD2    C3 4619   0.880   0.624   0.258  0.1142  0.4726  0.5111
  307MPD2    C4 4620   0.886   0.502   0.198  0.3503 -0.9105 -0.5303
  307MPD2    C5 4621   0.972   0.475   0.094  0.0497  0.2416 -0.0833
  307MPD2     H 4622   0.962   0.827   0.241  2.2376  0.7720 -1.2868
  307MPD2    H1 4623   0.811   0.427   0.223 -0.6316  0.5232  0.8494
  307MPD2    H2 4624   1.129   0.545  17.649  1.8237 -2.2971  1.2847
  307MPD2    H3 4625   0.971   0.372   0.060 -1.6227  0.1227  0.2978
  307MPD2     N 4626   0.788   0.651   0.363  1.5515 -0.2620 -0.3737
  307MPD2    H5 4627   0.806   0.738   0.413  1.0582 -1.9875  2.8331
  307MPD2    N1 4628   1.135   0.805   0.080 -0.4779  0.5329  0.3142
  307MPD2    H7 4629   1.120   0.892   0.128 -0.6341 -0.1007  1.4101
  308TMC3    C1 4630   0.443   0.799   0.543 -0.3736  0.7887 -0.3026
  308TMC3    C2 4631   0.520   0.854   0.639  0.3981  0.2964 -0.5682
  308TMC3    C3 4632   0.642   0.798   0.665 -0.3033  0.6794 -0.1865
  308TMC3    C4 4633   0.483   0.693   0.473 -0.7286 -0.5867  0.4470
  308TMC3    C5 4634   0.607   0.635   0.506  1.0476 -0.0342  0.9799
  308TMC3    C6 4635   0.691   0.684   0.598  0.4009  0.0813 -0.8063
  308TMC3     C 4636   0.305   0.812   0.574  0.5577 -0.5713  0.5713
  308TMC3     O 4637   0.235   0.714   0.555  0.3180 -0.0014  0.6366
  308TMC3     H 4638   0.487   0.929   0.710  0.6815  0.9473 -1.1240
  308TMC3    H1 4639   0.418   0.647   0.400 -0.3822  0.5758 -0.6057
  308TMC3    H2 4640   0.797   0.660   0.606  1.0091  2.8019 -0.7202
  308TMC3    C7 4641   0.672   0.585   0.385 -0.6934 -0.3378  0.6073
  308TMC3    C8 4642   0.745   0.878   0.735 -0.1252  1.1930 -0.4612
  308TMC3    O1 4643   0.605   0.505   0.318 -0.0359  0.1766 -0.0993
  308TMC3    O2 4644   0.839   0.814   0.781  0.4149 -0.4572 -0.4132
  309MPD2     C 4645   0.283   1.591  16.677 -0.0138  0.0898  0.6527
  309MPD2    C1 4646   0.244   1.723  16.690 -0.0171 -0.3461  0.1081
  309MPD2    C2 4647   0.199   1.762  16.815  0.1318  0.0692 -0.2503
  309MPD2    C3 4648   0.209   1.672  16.925  0.1867 -0.2495 -0.1494
  309MPD2    C4 4649   0.254   1.539  16.906 -0.1589 -0.5435  0.2119
  309MPD2    C5 4650   0.293   1.499  16.775  0.5432 -0.5796 -0.3452
  309MPD2     H 4651   0.178   1.867  16.836  1.3589  0.5007 -1.2100
  309MPD2    H1 4652   0.269   1.471  16.989 -0.2348 -1.1460 -0.2590
  309MPD2    H2 4653   0.308   1.550  16.580 -1.4874  0.1074  0.2555
  309MPD2    H3 4654   0.332   1.401  16.749  1.1308 -0.8200  1.3867
  309MPD2     N 4655   0.152   1.700  17.048  0.7025  0.1287  0.1509
  309MPD2    H5 4656   0.145   1.626  17.116  2.1023 -0.9348 -0.8584
  309MPD2    N1 4657   0.246   1.814  16.584  0.1280  0.0137 -0.1098
  309MPD2    H7 4658   0.213   1.906  16.610  1.2000  0.2414  0.4338
  310TMC3    C1 4659   0.314   1.894  16.375  0.3598 -0.1440 -0.1579
  310TMC3    C2 4660   0.238   1.963  16.286 -0.0421 -1.2347 -0.7679
  310TMC3    C3 4661   0.303   2.018  16.180  0.0266 -0.8242  0.1547
  310TMC3    C4 4662   0.448   1.876  16.363  0.5715 -0.3352  0.1009
  310TMC3    C5 4663   0.501   1.926  16.249 -0.3597 -0.4201  0.3579
  310TMC3    C6 4664   0.437   2.005  16.160  0.4246  0.1832  0.2292
  310TMC3     C 4665   0.265   1.777  16.448 -0.4103  0.5468  0.3321
  310TMC3     O 4666   0.292   1.670  16.396  0.3516 -0.1277  0.4024
  310TMC3     H 4667   0.131   1.966  16.303  0.4112 -1.1377  2.1672
  310TMC3    H1 4668   0.501   1.811  16.432 -0.5671  0.2586  1.5343
  310TMC3    H2 4669   0.481   2.028  16.064  1.3812  0.1690  0.6658
  310TMC3    C7 4670   0.585   1.833  16.184  0.3217 -0.6272  0.1006
  310TMC3    C8 4671   0.244   2.118  16.099 -0.5981 -0.2505 -0.1710
  310TMC3    O1 4672   0.569   1.720  16.217  0.1490 -0.0969 -0.1660
  310TMC3    O2 4673   0.122   2.113  16.076 -0.0351 -0.0108  0.4551
  311MPD2     C 4674   1.956   3.775  12.731  0.0215 -0.3304  0.3094
  311MPD2    C1 4675   1.886   3.881  12.777  0.4861 -0.0119  0.4712
  311MPD2    C2 4676   1.776   3.859  12.863  0.2345  0.5708 -0.2005
  311MPD2    C3 4677   1.738   3.729  12.895 -0.0181 -0.2909 -0.2049
  311MPD2    C4 4678   1.817   3.622  12.853 -0.2232 -0.8337  0.5091
  311MPD2    C5 4679   1.919   3.642  12.764 -0.5775 -0.1763 -0.1852
  311MPD2     H 4680   1.733   3.947  12.909  1.8989  0.1716  2.0820
  311MPD2    H1 4681   1.796   3.520  12.884  0.9902 -2.1397 -3.0654
  311MPD2    H2 4682   2.054   3.780  12.686 -0.9327 -3.0721 -2.1030
  311MPD2    H3 4683   1.984   3.560  12.736  1.6418  0.7013  2.3691
  311MPD2     N 4684   1.617   3.696  12.961  0.3728  0.0318  0.4260
  311MPD2    H5 4685   1.613   3.604  13.002  0.1651  0.8980  2.3372
  311MPD2    N1 4686   1.935   4.012  12.758 -0.3329  0.3016  0.2297
  311MPD2    H7 4687   1.904   4.090  12.814 -1.8001 -0.8229  0.9773
  312TMC3    C1 4688   1.392   3.715  13.026  0.2192  0.0208 -0.4565
  312TMC3    C2 4689   1.297   3.696  12.932 -0.2250  0.6402  0.0417
  312TMC3    C3 4690   1.213   3.584  12.954  0.5019 -0.2485  0.0528
  312TMC3    C4 4691   1.415   3.628  13.129  0.3637  0.2454  0.0650
  312TMC3    C5 4692   1.322   3.524  13.149  0.8033  0.6058  0.3712
  312TMC3    C6 4693   1.222   3.499  13.059 -0.2900 -0.9842 -0.1726
  312TMC3     C 4694   1.513   3.786  12.992 -0.1980  0.5274 -0.3445
  312TMC3     O 4695   1.493   3.901  12.959 -0.0403  0.6142  0.0786
  312TMC3     H 4696   1.305   3.759  12.843 -1.9540  1.3235  0.3696
  312TMC3    H1 4697   1.490   3.661  13.200  2.1738 -1.5904 -0.9856
  312TMC3    H2 4698   1.159   3.412  13.077  0.3218 -1.2972  0.4522
  312TMC3    C7 4699   1.332   3.443  13.268  0.0897 -0.1591  0.6115
  312TMC3    C8 4700   1.113   3.560  12.847  0.1406 -0.1805  0.0330
  312TMC3    O1 4701   1.237   3.378  13.306  0.1522 -0.2609  0.0296
  312TMC3    O2 4702   1.052   3.455  12.863 -0.6123  0.0040 -0.4235
  313MPD2     C 4703   2.081   2.557  10.380 -0.2894  0.0501 -0.1141
  313MPD2    C1 4704   1.953   2.607  10.395  0.0288  0.3110 -0.0751
  313MPD2    C2 4705   1.850   2.556  10.311 -0.3749 -0.2674 -0.5976
  313MPD2    C3 4706   1.878   2.462  10.216  0.5157 -0.5336 -0.5818
  313MPD2    C4 4707   2.011   2.425  10.196 -0.4931  0.0264  0.1408
  313MPD2    C5 4708   2.109   2.468  10.279 -0.1587 -0.1340  0.1461
  313MPD2     H 4709   1.754   2.604  10.322 -0.9724 -1.2241 -1.5594
  313MPD2    H1 4710   2.039   2.345  10.129 -1.2351  0.4637 -0.6975
  313MPD2    H2 4711   2.165   2.592  10.438 -0.5125  1.7240 -0.8008
  313MPD2    H3 4712   2.215   2.453  10.263 -0.5513 -0.2677 -2.2935
  313MPD2     N 4713   1.768   2.414  10.141 -0.0462 -0.4230 -0.2697
  313MPD2    H5 4714   1.676   2.425  10.183  0.4608  1.2482  0.4097
  313MPD2    N1 4715   1.922   2.712  10.481 -0.0616 -0.0234  0.2151
  313MPD2    H7 4716   1.825   2.741  10.494  0.5403  2.5087 -0.9199
  314TMC3    C1 4717   1.947   2.905  10.623 -0.9326  0.3197 -0.1703
  314TMC3    C2 4718   2.016   3.022  10.626 -0.4733 -0.3966 -0.0306
  314TMC3    C3 4719   1.953   3.123  10.677 -0.2783  0.3858 -0.2362
  314TMC3    C4 4720   1.818   2.893  10.670 -0.5575  0.1023 -0.2776
  314TMC3    C5 4721   1.762   3.005  10.714 -0.9288  0.5022  0.0733
  314TMC3    C6 4722   1.827   3.122  10.724  0.7498  0.0182 -0.2217
  314TMC3     C 4723   2.014   2.797  10.546 -0.0256  0.1443  0.3169
  314TMC3     O 4724   2.133   2.818  10.517  0.3209  0.4146 -0.1296
  314TMC3     H 4725   2.111   3.033  10.576 -0.0799 -0.6254  0.6707
  314TMC3    H1 4726   1.763   2.800  10.655  0.6580 -0.6989  0.1755
  314TMC3    H2 4727   1.791   3.212  10.774  0.8072  1.1042 -2.1342
  314TMC3    C7 4728   1.616   3.007  10.699  0.2374  0.5209  0.1155
  314TMC3    C8 4729   2.017   3.255  10.692  0.6082  0.1345 -0.1341
  314TMC3    O1 4730   1.549   2.906  10.692 -0.8505 -0.5623  0.0172
  314TMC3    O2 4731   1.939   3.348  10.692  0.7246  0.2858  0.0340
  315MPD2     C 4732   1.470   1.711  17.419  0.3363  0.0830 -0.6888
  315MPD2    C1 4733   1.526   1.700  17.542 -1.0292 -0.1879 -0.3621
  315MPD2    C2 4734   1.601   1.807  17.590 -0.4399 -0.3998 -0.3818
  315MPD2    C3 4735   1.611   1.928  17.525  0.3910  0.3042  0.6481
  315MPD2    C4 4736   1.542   1.940  17.406 -0.4258 -1.0864  0.1288
  315MPD2    C5 4737   1.477   1.830  17.350 -0.6995 -0.3606  0.0122
  315MPD2     H 4738   1.653   1.798   0.016  0.7039  1.7958 -0.8011
  315MPD2    H1 4739   1.536   2.027  17.341 -0.9169 -1.5835 -0.4941
  315MPD2    H2 4740   1.411   1.639  17.364  1.8757 -1.2032 -0.6458
  315MPD2    H3 4741   1.439   1.837  17.249  0.6560  1.9934 -0.3471
  315MPD2     N 4742   1.691   2.037  17.583  0.4882  0.3402 -0.2318
  315MPD2    H5 4743   1.736   2.008  17.669  0.2206 -0.5409 -0.3834
  315MPD2    N1 4744   1.529   1.582  17.619  0.1081  0.7078 -0.8271
  315MPD2    H7 4745   1.549   1.593   0.048 -0.8174 -0.9564 -0.4600
  316TMC3    C1 4746   1.785   2.248  17.605 -0.1167 -0.3594  0.4663
  316TMC3    C2 4747   1.876   2.187   0.020  0.4931 -0.0729 -0.1806
  316TMC3    C3 4748   1.985   2.262   0.059  0.9255 -0.0569 -0.8576
  316TMC3    C4 4749   1.814   2.374  17.556  0.3980  0.0054  0.4289
  316TMC3    C5 4750   1.922   2.438  17.603  0.1693 -0.1321  0.6510
  316TMC3    C6 4751   2.009   2.392   0.030  0.3642  0.0455 -0.1459
  316TMC3     C 4752   1.697   2.166  17.536  0.4481 -0.1428 -0.7139
  316TMC3     O 4753   1.644   2.212  17.439 -0.4242 -0.5572  0.2542
  316TMC3     H 4754   1.862   2.090   0.067  1.6572 -0.2418 -0.1857
  316TMC3    H1 4755   1.744   2.414  17.484  0.6963  1.2518  0.8302
  316TMC3    H2 4756   2.096   2.447   0.063  1.2656  0.0723 -2.5939
  316TMC3    C7 4757   1.957   2.564  17.543 -0.0122  0.5398 -0.6226
  316TMC3    C8 4758   2.061   2.202   0.175 -0.4808  0.9544  0.0064
  316TMC3    O1 4759   2.043   2.629  17.602  0.3140 -0.1269 -0.0192
  316TMC3    O2 4760   2.081   2.286   0.268  0.0720 -0.1002 -0.2789
  317MPD2     C 4761   3.190   0.909  12.349  0.1468  0.6447  0.0676
  317MPD2    C1 4762   3.290   0.820  12.316  0.1314  0.1914  0.4558
  317MPD2    C2 4763   3.342   0.744  12.417  0.2885 -0.0778 -0.1252
  317MPD2    C3 4764   3.305   0.750  12.546 -0.4720 -0.6747  0.2901
  317MPD2    C4 4765   3.197   0.834  12.576  0.1270  0.7141  0.4725
  317MPD2    C5 4766   3.136   0.910  12.476  0.6682 -0.5834  0.2805
  317MPD2     H 4767   3.433   0.689  12.396  0.7976  0.3154  1.0829
  317MPD2    H1 4768   3.158   0.848  12.676 -0.0338 -1.7695  0.7525
  317MPD2    H2 4769   3.132   0.970  12.281 -0.6417 -0.3476 -0.1633
  317MPD2    H3 4770   3.045   0.966  12.496  1.1388  0.2165  0.1782
  317MPD2     N 4771   3.373   0.678  12.647  0.1537  0.2933 -0.1867
  317MPD2    H5 4772   3.461   0.636  12.620 -0.2969  0.0546 -1.2680
  317MPD2    N1 4773   3.325   0.790  12.175  0.7389 -0.1574 -0.3989
  317MPD2    H7 4774   3.365   0.699  12.154  2.5906  0.3676  0.8965
  318TMC3    C1 4775   3.432   0.599  12.843  0.0538 -0.2500  0.1827
  318TMC3    C2 4776   3.379   0.494  12.909 -0.3144  0.6417  0.1792
  318TMC3    C3 4777   3.463   0.405  12.971  0.0589  0.5200  0.2225
  318TMC3    C4 4778   3.569   0.606  12.817 -0.1839 -0.0910  0.5239
  318TMC3    C5 4779   3.652   0.510  12.876  0.6312  0.0166  0.1236
  318TMC3    C6 4780   3.597   0.412  12.956  0.4355  0.2656 -0.2821
  318TMC3     C 4781   3.333   0.664  12.776  0.0676 -0.4998 -0.4764
  318TMC3     O 4782   3.236   0.691  12.842  0.3058 -0.3029  0.2430
  318TMC3     H 4783   3.272   0.478  12.903 -0.2621  0.6955 -1.0139
  318TMC3    H1 4784   3.625   0.684  12.767 -1.7710  0.9946  0.4439
  318TMC3    H2 4785   3.649   0.321  12.985 -1.8274 -0.8627  0.1996
  318TMC3    C7 4786   3.799   0.520  12.856 -0.8672 -0.4302  0.1230
  318TMC3    C8 4787   3.402   0.276  13.010 -0.4058 -0.5474 -0.2882
  318TMC3    O1 4788   3.846   0.591  12.766 -0.1505  0.1503 -0.1168
  318TMC3    O2 4789   3.469   0.175  13.024  0.7754  0.3155  0.6359
  319MPD2     C 4790   4.264   1.841  16.851  0.9188  0.2920 -0.7012
  319MPD2    C1 4791   4.298   1.744  16.759 -0.3075 -0.2064  0.7727
  319MPD2    C2 4792   4.224   1.720  16.642  0.5011  0.6375 -0.4132
  319MPD2    C3 4793   4.122   1.806  16.605 -0.0737 -0.3011  0.8566
  319MPD2    C4 4794   4.081   1.903  16.701  0.1691  0.3243 -0.3647
  319MPD2    C5 4795   4.152   1.912  16.824  0.0339 -0.3396  0.0890
  319MPD2     H 4796   4.256   1.641  16.575 -1.9972 -1.6360  1.0597
  319MPD2    H1 4797   4.004   1.979  16.692  1.6358  1.6182 -2.0599
  319MPD2    H2 4798   4.317   1.853  16.945 -0.8028 -0.4786  0.3668
  319MPD2    H3 4799   4.115   1.992  16.887 -0.0014 -1.4379  1.4511
  319MPD2     N 4800   4.049   1.800  16.484 -0.1195  0.3743  0.8220
  319MPD2    H5 4801   3.965   1.856  16.476  1.0227  1.6670 -2.3970
  319MPD2    N1 4802   4.412   1.653  16.779  0.2930 -0.0722 -0.1166
  319MPD2    H7 4803   4.435   1.598  16.697  0.1917  1.0330 -0.8723
  320TMC3    C1 4804   3.968   1.724  16.274  0.6762  0.0114 -0.4010
  320TMC3    C2 4805   3.953   1.855  16.231  0.7862 -0.6394  0.3217
  320TMC3    C3 4806   3.901   1.867  16.098  0.6704  0.1354 -0.2952
  320TMC3    C4 4807   3.941   1.613  16.198 -0.0954  0.0480 -0.0885
  320TMC3    C5 4808   3.891   1.629  16.073 -0.3383  0.1568 -0.0221
  320TMC3    C6 4809   3.860   1.753  16.020  0.7132  0.0735  0.0902
  320TMC3     C 4810   4.051   1.695  16.394 -0.0572  0.5892 -0.6602
  320TMC3     O 4811   4.123   1.598  16.383 -0.4204 -0.1228 -0.0694
  320TMC3     H 4812   3.994   1.940  16.285 -2.1364 -0.1840  1.8508
  320TMC3    H1 4813   3.958   1.514  16.237  1.2772 -0.1614 -1.2295
  320TMC3    H2 4814   3.831   1.749  15.916 -0.6105  1.2036  0.4248
  320TMC3    C7 4815   3.868   1.502  15.990 -1.3346  0.3597  0.4498
  320TMC3    C8 4816   3.856   1.996  16.045  0.3755  0.1149  0.2693
  320TMC3    O1 4817   3.929   1.401  16.027 -0.3311 -0.5208  0.6504
  320TMC3    O2 4818   3.897   2.089  16.117 -0.2757  0.1272  0.5430
  321TMC3    C1 4819   4.590   1.533  16.870  0.4991  0.3124  0.3073
  321TMC3    C2 4820   4.627   1.495  16.742 -0.5372 -0.5472  0.4903
  321TMC3    C3 4821   4.656   1.360  16.726 -0.6237  0.2434 -0.3603
  321TMC3    C4 4822   4.610   1.451  16.983  0.6419  0.2077  0.0837
  321TMC3    C5 4823   4.639   1.318  16.960  0.2042 -0.5033 -0.7830
  321TMC3    C6 4824   4.656   1.282  16.832  0.1014  0.1036  0.0484
  321TMC3     C 4825   4.495   1.644  16.887 -0.0088  0.1657 -0.3580
  321TMC3     O 4826   4.476   1.693  16.998 -0.4974 -0.7144  0.0305
  321TMC3     H 4827   4.641   1.568  16.663 -0.9669 -0.4370  0.5195
  321TMC3    H1 4828   4.595   1.492  17.082  3.4291 -1.6372  1.2662
  321TMC3    H2 4829   4.656   1.177  16.804 -0.1553  0.2188 -0.3785
  321TMC3    C7 4830   0.022   1.255  17.045  0.5658 -0.0477  0.4230
  321TMC3    C8 4831   0.046   1.311  16.635  0.4806 -0.3677 -0.3267
  321TMC3    O1 4832   0.020   1.276  17.165  0.1896  0.3264  0.0132
  321TMC3    O2 4833   0.119   1.222  16.680 -0.4595  0.4608 -1.0385
  322MPD2     C 4834   2.604   2.532  13.857 -0.4163 -0.3995  0.6734
  322MPD2    C1 4835   2.707   2.568  13.780 -0.0534  0.0228 -0.1645
  322MPD2    C2 4836   2.750   2.488  13.680  0.5698  0.2552 -0.1658
  322MPD2    C3 4837   2.706   2.358  13.671 -0.2683  0.3114 -0.0725
  322MPD2    C4 4838   2.602   2.309  13.756 -0.2879 -0.4165  0.6130
  322MPD2    C5 4839   2.568   2.401  13.853  0.1186 -0.5646 -0.5005
  322MPD2     H 4840   2.833   2.528  13.623 -0.3797  0.3391 -1.4742
  322MPD2    H1 4841   2.574   2.206  13.775  3.5711 -1.5273  0.2984
  322MPD2    H2 4842   2.563   2.604  13.926 -2.0246 -0.4349 -0.2427
  322MPD2    H3 4843   2.499   2.373  13.932  0.2481  3.1019  0.8752
  322MPD2     N 4844   2.776   2.278  13.583 -0.2086  0.1811 -0.2437
  322MPD2    H5 4845   2.867   2.310  13.551  0.0688  0.5544  0.9136
  322MPD2    N1 4846   2.745   2.699  13.803 -0.3323  0.1825 -0.4490
  322MPD2    H7 4847   2.696   2.752  13.874  2.1962  1.2649  0.4978
  323TMC3    C1 4848   2.870   2.893  13.804 -0.4397  0.1535  0.0704
  323TMC3    C2 4849   2.923   3.001  13.736 -0.7202 -0.4498 -0.0574
  323TMC3    C3 4850   2.984   3.102  13.813  0.8346 -0.2610 -0.5331
  323TMC3    C4 4851   2.871   2.881  13.939 -0.0852 -0.4189  0.2443
  323TMC3    C5 4852   2.911   2.986  14.009  0.2638 -0.0937 -1.5660
  323TMC3    C6 4853   2.984   3.088  13.949 -0.0537 -0.4406  0.0198
  323TMC3     C 4854   2.825   2.780  13.722 -0.3661 -0.3628  0.0194
  323TMC3     O 4855   2.869   2.763  13.611 -0.2657 -0.6012 -0.6246
  323TMC3     H 4856   2.934   3.002  13.628  2.3514 -1.1152  0.2449
  323TMC3    H1 4857   2.836   2.795  13.995  0.9518 -1.3156 -0.4828
  323TMC3    H2 4858   3.044   3.158  14.006 -1.0458  0.2015  0.2799
  323TMC3    C7 4859   2.972   2.939  14.132  0.0538 -0.8401  0.2590
  323TMC3    C8 4860   3.088   3.194  13.768  0.0045 -0.2619 -0.0798
  323TMC3    O1 4861   3.018   2.826  14.126  0.0082  0.2601 -0.0307
  323TMC3    O2 4862   3.158   3.257  13.849  0.3908  0.0479  0.5179
  324MPD2     C 4863   0.100   3.747  14.311 -0.1893  1.0812 -0.1319
  324MPD2    C1 4864   0.132   3.881  14.284 -0.0905 -0.1977 -0.8171
  324MPD2    C2 4865   0.017   3.970  14.282 -0.4416  0.7819  0.6110
  324MPD2    C3 4866   4.619   3.935  14.341  0.2437  0.2417  0.3828
  324MPD2    C4 4867   4.603   3.808  14.388 -0.0655  0.4415  0.3307
  324MPD2    C5 4868   4.698   3.714  14.372 -0.1163  0.1865 -0.0814
  324MPD2     H 4869   0.029   4.077  14.272 -0.6883  0.8093  0.6247
  324MPD2    H1 4870   4.509   3.787  14.436 -0.5095 -1.3636 -1.3452
  324MPD2    H2 4871   0.174   3.668  14.305 -1.6339 -0.5559  3.5123
  324MPD2    H3 4872   4.675   3.614  14.404  1.8288 -0.5225 -0.9158
  324MPD2     N 4873   4.511   4.022  14.361  0.2449 -0.7643  0.0634
  324MPD2    H5 4874   4.432   3.988  14.415 -0.0194 -1.3072 -0.6704
  324MPD2    N1 4875   0.261   3.930  14.245 -0.5832  0.6162  0.1309
  324MPD2    H7 4876   0.258   4.024  14.207 -0.4093  0.9037  0.8211
  325TMC3    C1 4877   4.370   4.211  14.350  0.1301 -0.0386  0.4495
  325TMC3    C2 4878   4.259   4.128  14.374  0.8620 -0.2856 -0.9165
  325TMC3    C3 4879   4.138   4.192  14.382 -0.6304  0.2493  0.2659
  325TMC3    C4 4880   4.362   4.345  14.331 -0.9069  0.4061  0.3097
  325TMC3    C5 4881   4.237   4.404  14.344 -0.0650 -0.3867  0.3033
  325TMC3    C6 4882   4.127   4.325  14.379  0.1953  0.7009 -0.5216
  325TMC3     C 4883   4.499   4.152  14.328 -0.2754 -0.4303 -0.2976
  325TMC3     O 4884   4.582   4.227  14.271  0.0161  0.6637 -0.4748
  325TMC3     H 4885   4.266   4.023  14.349  1.9501 -0.4322  0.0049
  325TMC3    H1 4886   4.451   4.401  14.305  1.0125 -2.1427  1.3552
  325TMC3    H2 4887   4.028   4.368  14.377 -0.7494 -1.6951 -2.9903
  325TMC3    C7 4888   4.220   4.542  14.313 -0.5518  0.3820 -0.3986
  325TMC3    C8 4889   4.020   4.128  14.320  0.3306  0.6500 -0.3852
  325TMC3    O1 4890   4.291   4.594  14.233 -0.1992 -0.3448 -0.6459
  325TMC3    O2 4891   3.937   4.192  14.263  0.4521  0.2671  0.6990
  326MPD2     C 4892   1.128   0.478  10.700 -0.2493  0.2328 -0.5638
  326MPD2    C1 4893   1.128   0.568  10.593  0.0428  0.5614 -0.4749
  326MPD2    C2 4894   1.207   0.677  10.600 -0.1183  0.0004 -1.0370
  326MPD2    C3 4895   1.266   0.715  10.716  0.5498 -0.0897 -0.3974
  326MPD2    C4 4896   1.253   0.634  10.831  1.1589  0.3274 -0.3758
  326MPD2    C5 4897   1.185   0.516  10.821  0.2881  0.5089  0.5133
  326MPD2     H 4898   1.233   0.732  10.511  0.7119  1.1875 -0.0507
  326MPD2    H1 4899   1.290   0.657  10.930 -2.3158 -0.0784  0.9926
  326MPD2    H2 4900   1.065   0.390  10.697 -0.5353  0.5319 -3.6015
  326MPD2    H3 4901   1.180   0.444  10.902 -0.3832 -0.1694 -0.1317
  326MPD2     N 4902   1.350   0.823  10.715 -0.0635  0.3397  0.7088
  326MPD2    H5 4903   1.378   0.864  10.627 -2.3841 -0.0792 -0.2124
  326MPD2    N1 4904   1.068   0.543  10.469  0.0242 -0.1250  0.4865
  326MPD2    H7 4905   1.066   0.622  10.405 -0.2559 -0.0452  0.5961
  327TMC3    C1 4906   0.969   0.435  10.294 -0.7006  0.0274 -0.3837
  327TMC3    C2 4907   0.877   0.529  10.256  0.2955 -0.1128 -0.7260
  327TMC3    C3 4908   0.902   0.589  10.134 -0.0237  0.0721 -0.0293
  327TMC3    C4 4909   1.076   0.395  10.222 -0.6416 -0.3101  0.4320
  327TMC3    C5 4910   1.099   0.462  10.107  0.0385 -0.2058  0.4666
  327TMC3    C6 4911   1.008   0.550  10.056  0.0629  0.9717 -0.4427
  327TMC3     C 4912   0.989   0.428  10.438 -0.0666 -0.1026 -0.3419
  327TMC3     O 4913   0.976   0.320  10.494  0.0897 -0.0825 -0.4325
  327TMC3     H 4914   0.800   0.556  10.328 -0.4791 -1.5074 -1.0130
  327TMC3    H1 4915   1.141   0.318  10.261 -1.6630 -0.4108  1.9415
  327TMC3    H2 4916   1.029   0.600   9.962  0.0123  1.3000 -0.2798
  327TMC3    C7 4917   1.237   0.513  10.087  0.0834  0.7930  0.5964
  327TMC3    C8 4918   0.797   0.677  10.079 -0.7812 -0.0472 -0.1906
  327TMC3    O1 4919   1.255   0.575   9.982 -0.6037 -0.1493 -0.2693
  327TMC3    O2 4920   0.820   0.729   9.975  0.1569 -0.4888  0.4781
  328MPD2     C 4921   3.811   4.705  17.224  0.1392  0.2282 -1.1019
  328MPD2    C1 4922   3.704   4.618  17.211 -0.6381  0.4517 -0.1403
  328MPD2    C2 4923   3.630   4.628  17.099  0.3584  0.1878  0.5461
  328MPD2    C3 4924   3.656   0.006  17.003 -1.2283  0.0036 -0.3202
  328MPD2    C4 4925   3.763   0.090  17.022  0.6063 -0.1492 -0.3827
  328MPD2    C5 4926   3.845   0.076  17.127  0.5506 -0.3211 -0.0746
  328MPD2     H 4927   3.541   4.567  17.085  0.7513  0.0499 -1.3261
  328MPD2    H1 4928   3.794   0.156  16.941  1.4459  4.4228  3.6383
  328MPD2    H2 4929   3.876   4.696  17.310  0.0640  0.2445 -1.0434
  328MPD2    H3 4930   3.939   0.130  17.136 -0.4152  1.1730  1.0507
  328MPD2     N 4931   3.563   0.034  16.901  0.3725  0.4520 -0.4947
  328MPD2    H5 4932   3.594   0.112  16.845 -0.4071  1.2010  0.1201
  328MPD2    N1 4933   3.681   4.540  17.326  0.1724 -0.1310  0.2592
  328MPD2    H7 4934   3.730   4.558  17.413 -0.0533  0.9215  0.1595
  329TMC3    C1 4935   3.575   4.365  17.443  0.5419 -0.7529  0.3579
  329TMC3    C2 4936   3.498   4.453  17.514 -0.1067 -0.4678  0.8471
  329TMC3    C3 4937   3.382   4.408  17.572 -0.0538 -0.7410  0.5149
  329TMC3    C4 4938   3.542   4.236  17.430 -0.1749 -0.3558 -0.1018
  329TMC3    C5 4939   3.426   4.196  17.487 -0.3802 -0.0277  0.8442
  329TMC3    C6 4940   3.335   4.282  17.547 -0.0912 -0.0077  0.6134
  329TMC3     C 4941   3.604   4.427  17.317  0.5588 -0.3336  0.6072
  329TMC3     O 4942   3.562   4.379  17.217 -0.5396  0.1060  0.1093
  329TMC3     H 4943   3.524   4.558  17.519 -0.4616 -0.2964 -0.9287
  329TMC3    H1 4944   3.608   4.180  17.364  1.3665  1.6493 -0.2637
  329TMC3    H2 4945   3.235   4.255  17.579 -1.0472  1.7856 -0.9036
  329TMC3    C7 4946   3.385   4.059  17.458 -0.0033 -0.7380 -0.4718
  329TMC3    C8 4947   3.274   4.503  17.544  0.0285  0.9286 -0.2954
  329TMC3    O1 4948   3.470   3.991  17.401 -0.1303  0.0357 -0.4314
  329TMC3    O2 4949   3.185   4.457  17.474  0.2192  0.0942 -0.2404
  330TMC3    C1 4950   1.808   4.661   9.357  0.9157  0.7534 -0.1864
  330TMC3    C2 4951   1.802   4.557   9.274  0.3163  0.6405  0.1334
  330TMC3    C3 4952   1.805   4.431   9.327  0.0002 -0.0528 -0.9282
  330TMC3    C4 4953   1.825   4.651   9.491  0.4916 -0.5337  0.3134
  330TMC3    C5 4954   1.827   4.523   9.539  0.3949  0.2130  0.4297
  330TMC3    C6 4955   1.803   4.413   9.464  0.2599  0.3833  0.0715
  330TMC3     C 4956   1.769   0.069   9.300  0.4939 -0.4753 -0.3801
  330TMC3     O 4957   1.828   0.165   9.349 -0.3446  0.0908 -0.5576
  330TMC3     H 4958   1.797   4.575   9.168 -0.8318  0.9809  0.2516
  330TMC3    H1 4959   1.814   0.017   9.559  0.3828 -0.2468 -0.0535
  330TMC3    H2 4960   1.822   4.314   9.502 -0.1995 -0.9527 -3.1436
  330TMC3    C7 4961   1.881   4.509   9.673  0.5807  0.1435  0.0561
  330TMC3    C8 4962   1.764   4.323   9.239 -0.7158 -0.0967 -0.2527
  330TMC3    O1 4963   1.955   4.599   9.709 -0.2312 -0.1846 -0.3194
  330TMC3    O2 4964   1.780   4.358   9.122  0.6578 -0.1328  0.9482
  331MPD2     C 4965   4.064   3.718  12.763  0.4864 -0.0947  0.2011
  331MPD2    C1 4966   4.116   3.804  12.673 -0.6250  0.0515  0.3401
  331MPD2    C2 4967   4.172   3.748  12.561  0.0701  0.5576 -0.4783
  331MPD2    C3 4968   4.154   3.619  12.523  0.1718  0.9631  0.5086
  331MPD2    C4 4969   4.079   3.541  12.608 -0.2253  0.0404 -0.0114
  331MPD2    C5 4970   4.032   3.591  12.722 -0.5373  0.4341 -0.4695
  331MPD2     H 4971   4.232   3.814  12.500  2.5436 -1.0949  0.1561
  331MPD2    H1 4972   4.045   3.442  12.579  2.7407 -0.8911 -0.3708
  331MPD2    H2 4973   4.014   3.745  12.855 -0.3114  0.4837 -0.4052
  331MPD2    H3 4974   3.953   3.540  12.776  0.8545 -0.9853  0.2221
  331MPD2     N 4975   4.207   3.575  12.398  0.2012  0.5814  1.0489
  331MPD2    H5 4976   4.276   3.635  12.355 -0.4092  0.0738 -0.6368
  331MPD2    N1 4977   4.138   3.934  12.711  0.0792  0.0054  0.1693
  331MPD2    H7 4978   4.125   3.955  12.809 -2.2386  2.2049 -0.6261
  332TMC3    C1 4979   4.245   3.436  12.204  0.2297  0.3765  0.2706
  332TMC3    C2 4980   4.228   3.535  12.106  0.5885 -0.1276  0.3467
  332TMC3    C3 4981   4.233   3.503  11.976 -1.1951  0.5791  0.4790
  332TMC3    C4 4982   4.273   3.309  12.163  0.1047 -0.3180  0.0221
  332TMC3    C5 4983   4.277   3.284  12.031 -0.6634  0.4813  0.1208
  332TMC3    C6 4984   4.245   3.374  11.935 -0.5578 -0.1938 -0.8449
  332TMC3     C 4985   4.197   3.450  12.345 -0.9453 -0.0014  0.0196
  332TMC3     O 4986   4.160   3.341  12.396 -0.6221 -0.0597 -0.1820
  332TMC3     H 4987   4.204   3.637  12.132  0.7002  0.0275 -0.1472
  332TMC3    H1 4988   4.284   3.223  12.229 -3.7882  0.3063  1.5296
  332TMC3    H2 4989   4.263   3.344  11.833  1.5215  0.5735 -0.7106
  332TMC3    C7 4990   4.371   3.182  11.997  0.6537  0.1111 -0.2466
  332TMC3    C8 4991   4.293   3.612  11.894  0.1275  1.2394  0.0008
  332TMC3    O1 4992   4.355   3.130  11.885  0.3754  0.1956  0.0647
  332TMC3    O2 4993   4.340   3.703  11.962 -0.0919  0.1441 -0.5596
  333MPD2     C 4994   4.475   3.553  11.071  0.3369 -0.0840 -0.2990
  333MPD2    C1 4995   4.462   3.451  10.978  0.1054 -0.5254  0.6186
  333MPD2    C2 4996   4.373   3.349  11.003 -0.3195 -0.4403 -0.0539
  333MPD2    C3 4997   4.303   3.337  11.123  0.2026 -0.5528  0.6049
  333MPD2    C4 4998   4.317   3.435  11.211 -0.5670  0.3539 -0.6382
  333MPD2    C5 4999   4.403   3.542  11.188  0.1185  0.3045 -0.1215
  333MPD2     H 5000   4.361   3.263  10.938  0.4024  0.7374 -1.7341
  333MPD2    H1 5001   4.253   3.435  11.298  0.6517  1.0080  0.2708
  333MPD2    H2 5002   4.525   3.645  11.044 -0.5807  1.4407  3.1796
  333MPD2    H3 5003   4.410   3.620  11.263  1.0592 -0.9704  1.1458
  333MPD2     N 5004   4.220   3.219  11.142 -0.2156 -0.6999  0.3877
  333MPD2    H5 5005   4.225   3.154  11.064 -0.8520 -0.9684  0.5745
  333MPD2    N1 5006   4.533   3.465  10.858  0.0465 -0.0406 -0.2545
  333MPD2    H7 5007   4.588   3.549  10.845 -1.8782  1.5330  1.7454
  334TMC3    C1 5008   4.626   3.409  10.655  0.0029  0.0548  0.0236
  334TMC3    C2 5009   0.007   3.323  10.621 -0.2303 -0.2537 -0.0945
  334TMC3    C3 5010   0.106   3.383  10.549  0.0434 -1.0170 -0.7926
  334TMC3    C4 5011   4.608   3.537  10.612 -0.1851  0.3449  0.4861
  334TMC3    C5 5012   4.704   3.585  10.530 -0.6177  0.4592 -0.4946
  334TMC3    C6 5013   0.100   3.510  10.504 -0.0383  0.1383 -0.1532
  334TMC3     C 5014   4.540   3.362  10.763 -0.0701 -0.2822  0.7375
  334TMC3     O 5015   4.529   3.240  10.774 -0.4880 -0.5736 -0.0526
  334TMC3     H 5016   0.020   3.240  10.689  0.7455  0.1540  0.2146
  334TMC3    H1 5017   4.519   3.592  10.638 -0.7500 -0.0794 -0.5625
  334TMC3    H2 5018   0.176   3.551  10.438 -0.4851 -0.8983 -1.2932
  334TMC3    C7 5019   4.707   3.724  10.486  0.3052  0.1901  0.4834
  334TMC3    C8 5020   0.221   3.300  10.516 -0.9474 -1.0929 -0.6493
  334TMC3    O1 5021   0.084   3.757  10.418 -0.9312 -0.1480  0.1143
  334TMC3    O2 5022   0.217   3.181  10.532 -0.0425  0.1440 -0.2051
  335TMC3    C1 5023   4.342   0.371  16.892 -0.6931  0.2548  0.2023
  335TMC3    C2 5024   4.216   0.321  16.876  1.0062  0.5292 -0.7031
  335TMC3    C3 5025   4.216   0.188  16.843 -0.6155  0.5755  0.2382
  335TMC3    C4 5026   4.457   0.304  16.866 -0.3715  0.0801 -0.0792
  335TMC3    C5 5027   4.452   0.168  16.827  0.5938  0.3194 -0.6628
  335TMC3    C6 5028   4.326   0.107  16.816  0.3131 -0.4719  0.4799
  335TMC3     C 5029   4.351   0.508  16.930 -0.5828  0.7981 -0.1519
  335TMC3     O 5030   4.463   0.547  16.945 -0.5409 -0.5661 -0.3987
  335TMC3     H 5031   4.127   0.382  16.885  0.3674 -0.4466 -0.4378
  335TMC3    H1 5032   4.552   0.355  16.882 -0.9776  1.0384  0.4579
  335TMC3    H2 5033   4.318   0.002  16.793  1.5793 -0.2022 -1.1545
  335TMC3    C7 5034   4.565   0.088  16.858 -0.2536  0.0127 -0.5441
  335TMC3    C8 5035   4.085   0.119  16.868 -0.1910  0.5577  0.8627
  335TMC3    O1 5036   4.680   0.138  16.872  0.1144 -0.2146 -0.4016
  335TMC3    O2 5037   3.992   0.178  16.809 -0.4737  0.3476 -0.8568
  336MPD2     C 5038   4.327   2.896  15.799  0.1394  0.1238 -0.3483
  336MPD2    C1 5039   4.220   2.830  15.741  0.0127 -0.0720 -0.1050
  336MPD2    C2 5040   4.181   2.702  15.781 -0.5231  0.1072 -0.3966
  336MPD2    C3 5041   4.268   2.631  15.870 -0.3369  0.7241  0.1488
  336MPD2    C4 5042   4.388   2.690  15.902 -0.1752 -0.5176 -0.3343
  336MPD2    C5 5043   4.408   2.821  15.876  0.7530 -0.1867  0.7615
  336MPD2     H 5044   4.087   2.661  15.747 -0.3005  0.4920 -1.4805
  336MPD2    H1 5045   4.455   2.637  15.968  2.6659  1.1669 -1.8659
  336MPD2    H2 5046   4.365   2.992  15.767  0.5364  0.1019  0.0635
  336MPD2    H3 5047   4.493   2.867  15.924  1.0805  0.9955 -0.9356
  336MPD2     N 5048   4.240   2.500  15.917 -0.3803  0.0985 -0.1022
  336MPD2    H5 5049   4.316   2.456  15.970 -0.6207 -2.1075 -1.5888
  336MPD2    N1 5050   4.133   2.900  15.660  0.1771  0.1571 -0.8901
  336MPD2    H7 5051   4.049   2.848  15.637 -1.1534  1.8222  0.1429
  337TMC3    C1 5052   4.030   3.049  15.528  0.0797 -0.3076  0.7247
  337TMC3    C2 5053   3.906   3.034  15.584  0.2758 -0.3407  0.4247
  337TMC3    C3 5054   3.813   3.123  15.551 -0.1320 -0.2583  0.4812
  337TMC3    C4 5055   4.042   3.142  15.423 -0.2858 -0.2741  1.3343
  337TMC3    C5 5056   3.935   3.224  15.390 -0.0576  0.4801  0.3815
  337TMC3    C6 5057   3.820   3.215  15.453  0.0743 -0.4737  0.6389
  337TMC3     C 5058   4.148   3.022  15.604 -0.6644  0.1495  0.0535
  337TMC3     O 5059   4.248   3.096  15.588  0.8560  0.3542  0.2188
  337TMC3     H 5060   3.895   2.968  15.670  1.3723  0.5466  1.2427
  337TMC3    H1 5061   4.130   3.144  15.360 -1.2220  1.5518  0.0565
  337TMC3    H2 5062   3.737   3.285  15.450  0.0322 -0.6327 -1.8379
  337TMC3    C7 5063   3.955   3.321  15.286  0.2881 -0.4024  0.6266
  337TMC3    C8 5064   3.686   3.100  15.623 -0.2511  0.4337  0.7088
  337TMC3    O1 5065   4.060   3.312  15.224  0.2382  0.2813  0.2701
  337TMC3    O2 5066   3.696   3.077  15.740  0.1854  0.0506  0.4316
  338MPD2     C 5067   3.949   1.592   0.994 -0.5352  0.3919 -0.0852
  338MPD2    C1 5068   3.962   1.545   0.865 -0.0175  0.0753 -0.2723
  338MPD2    C2 5069   3.850   1.484   0.813  0.5401 -0.7084 -0.2934
  338MPD2    C3 5070   3.734   1.473   0.887 -0.1148  0.2281  0.1104
  338MPD2    C4 5071   3.728   1.520   1.014  0.0805  0.3612  0.3172
  338MPD2    C5 5072   3.833   1.584   1.062 -0.1017  0.0769  0.2650
  338MPD2     H 5073   3.841   1.446   0.712 -0.3975 -1.5500  0.0985
  338MPD2    H1 5074   3.641   1.508   1.077 -0.7603 -0.4300 -0.9987
  338MPD2    H2 5075   4.029   1.641   1.048 -0.4977 -0.0783  0.2882
  338MPD2    H3 5076   3.825   1.630   1.160  1.5279  0.3298  0.2679
  338MPD2     N 5077   3.619   1.415   0.825  0.0036 -0.2363  0.5657
  338MPD2    H5 5078   3.631   1.391   0.727 -0.9206  1.0024  0.1443
  338MPD2    N1 5079   4.077   1.557   0.791  0.1420  0.1415  0.2358
  338MPD2    H7 5080   4.083   1.497   0.709 -0.0324  0.9572 -0.3830
  339TMC3    C1 5081   3.415   1.310   0.789 -0.2188  0.2447  0.1634
  339TMC3    C2 5082   3.422   1.175   0.820  0.1379  0.0104 -0.2524
  339TMC3    C3 5083   3.419   1.087   0.713  0.1133  0.1732 -0.3727
  339TMC3    C4 5084   3.417   1.353   0.660 -0.1371  0.5574  0.4820
  339TMC3    C5 5085   3.441   1.269   0.562  0.1941 -0.0150  0.3466
  339TMC3    C6 5086   3.427   1.133   0.580 -0.6339 -0.4730 -0.1801
  339TMC3     C 5087   3.498   1.382   0.880 -0.5715 -0.1513  0.4314
  339TMC3     O 5088   3.471   1.367   0.995 -0.2329  0.2058  0.0047
  339TMC3     H 5089   3.438   1.150   0.924 -0.3769  1.4642  0.1792
  339TMC3    H1 5090   3.432   1.460   0.650 -0.1390  0.4676 -0.4259
  339TMC3    H2 5091   3.429   1.060   0.499 -0.3726  1.1612 -1.6534
  339TMC3    C7 5092   3.516   1.322   0.444  0.2235  0.7588 -0.2373
  339TMC3    C8 5093   3.418   0.942   0.736  0.2036 -0.0448  0.2919
  339TMC3    O1 5094   3.511   1.443   0.428  0.8000 -0.0387  0.0290
  339TMC3    O2 5095   3.428   0.873   0.636 -0.5767  0.0401  0.1829
  340MPD2     C 5096   4.527   0.647  10.043  0.0685  0.1710 -0.6484
  340MPD2    C1 5097   4.540   0.513  10.008 -0.7870 -0.4473 -0.3214
  340MPD2    C2 5098   4.650   0.442  10.062  0.4154 -0.5099  0.1437
  340MPD2    C3 5099   0.018   0.497  10.156  0.0572 -0.0838 -0.2873
  340MPD2    C4 5100   4.714   0.627  10.194  0.3401 -0.2171  0.0315
  340MPD2    C5 5101   4.614   0.699  10.137  0.0925  0.2547 -0.4510
  340MPD2     H 5102   4.668   0.344  10.019 -0.6726 -0.4051 -0.5586
  340MPD2    H1 5103   0.054   0.666  10.278  1.7273  0.6296 -1.3033
  340MPD2    H2 5104   4.444   0.707  10.010  1.1567  1.8815 -0.2910
  340MPD2    H3 5105   4.606   0.804  10.162  2.2470  0.0544  1.1325
  340MPD2     N 5106   0.121   0.420  10.217 -0.2162 -0.1254 -0.1740
  340MPD2    H5 5107   0.187   0.458  10.283 -0.0229  0.4924 -0.7229
  340MPD2    N1 5108   4.455   0.457   9.910 -0.3303  0.3187 -0.1500
  340MPD2    H7 5109   4.390   0.525   9.870  0.6410  0.3060 -1.7408
  341TMC3    C1 5110   4.376   0.307   9.740 -0.1516  0.3891  0.7475
  341TMC3    C2 5111   4.357   0.177   9.706  0.6029 -0.8211 -0.4081
  341TMC3    C3 5112   4.327   0.147   9.579 -0.3274 -0.0002 -0.0567
  341TMC3    C4 5113   4.338   0.404   9.655 -0.0295  0.3677 -0.0114
  341TMC3    C5 5114   4.282   0.373   9.533  0.0041 -0.3033  0.3330
  341TMC3    C6 5115   4.269   0.238   9.496 -0.0474  0.5791  0.3888
  341TMC3     C 5116   4.459   0.324   9.860 -0.0095 -0.1106 -0.2687
  341TMC3     O 5117   4.524   0.233   9.906 -0.2006 -0.2447 -0.5805
  341TMC3     H 5118   4.414   0.103   9.761  0.3166  0.6785  1.8698
  341TMC3    H1 5119   4.365   0.507   9.673  0.6319 -0.1953  2.1699
  341TMC3    H2 5120   4.229   0.216   9.398 -3.0575  2.0225  1.2958
  341TMC3    C7 5121   4.344   0.452   9.429 -0.0563 -0.1247 -0.5351
  341TMC3    C8 5122   4.315   0.010   9.544 -0.1735  0.5026  0.5086
  341TMC3    O1 5123   4.451   0.510   9.446  0.1512  0.3064 -0.2175
  341TMC3    O2 5124   4.328   4.655   9.640 -0.2067  0.1227  0.1186
  342MPD2     C 5125   2.610   3.075   0.217 -0.4444 -0.5714  0.0645
  342MPD2    C1 5126   2.684   3.123   0.112  0.3515 -0.6605 -0.6704
  342MPD2    C2 5127   2.728   3.252   0.110  0.1955  0.0678  0.3094
  342MPD2    C3 5128   2.711   3.336   0.222 -0.6657  0.3208 -0.3814
  342MPD2    C4 5129   2.640   3.285   0.329  0.6774 -0.8827 -0.0572
  342MPD2    C5 5130   2.583   3.157   0.324  0.0720 -1.2413  0.5912
  342MPD2     H 5131   2.789   3.283   0.026  1.7392  0.5810  1.6239
  342MPD2    H1 5132   2.631   3.327   0.428  2.4075  0.0943 -0.3249
  342MPD2    H2 5133   2.565   2.977   0.226  0.1481 -0.8108  0.4240
  342MPD2    H3 5134   2.521   3.117   0.403  0.1930 -3.0781 -0.2302
  342MPD2     N 5135   2.778   3.458   0.225 -0.4979 -0.1089  0.0632
  342MPD2    H5 5136   2.843   3.479   0.150  0.6985 -0.8243  0.9034
  342MPD2    N1 5137   2.688   3.045  17.665  0.3476  0.2711 -0.6548
  342MPD2    H7 5138   2.725   3.099  17.588 -1.0368  1.6924 -0.3087
  343TMC3    C1 5139   2.667   2.857  17.523 -0.1706  0.1377  0.5056
  343TMC3    C2 5140   2.722   2.923  17.414  0.9244 -0.4011  0.4746
  343TMC3    C3 5141   2.746   2.838  17.309 -0.2591 -0.4650  0.0693
  343TMC3    C4 5142   2.622   2.725  17.515 -0.2388 -0.2258 -0.2072
  343TMC3    C5 5143   2.640   2.651  17.402  0.8254  0.0257  0.0506
  343TMC3    C6 5144   2.703   2.708  17.296  0.1903 -0.1149 -0.0940
  343TMC3     C 5145   2.653   2.915  17.656 -0.6312 -0.5289  0.1162
  343TMC3     O 5146   2.617   2.842   0.079 -0.0473  0.4344  0.0515
  343TMC3     H 5147   2.771   3.020  17.412  0.6920 -0.3148 -1.0030
  343TMC3    H1 5148   2.565   2.690  17.600  2.3750 -1.3534  1.0637
  343TMC3    H2 5149   2.728   2.649  17.208  0.1683 -1.9089  1.1067
  343TMC3    C7 5150   2.597   2.513  17.389  0.0683  0.2504 -0.0511
  343TMC3    C8 5151   2.824   2.882  17.196  0.2368 -0.2719  1.0308
  343TMC3    O1 5152   2.557   2.484  17.279 -0.0793  0.0643 -0.1741
  343TMC3    O2 5153   2.798   2.991  17.143 -0.0449 -0.6785  0.3210
  344MPD2     C 5154   3.838   2.644  10.335 -0.1401 -0.3443  0.0471
  344MPD2    C1 5155   3.756   2.676  10.445 -0.2261 -0.4779 -0.0677
  344MPD2    C2 5156   3.713   2.810  10.452 -0.6146 -0.1566 -0.1314
  344MPD2    C3 5157   3.745   2.904  10.361 -0.0592  0.1757 -0.2948
  344MPD2    C4 5158   3.818   2.868  10.250  0.2077 -0.3668  0.2744
  344MPD2    C5 5159   3.866   2.741  10.243  0.0238  0.0256  0.5648
  344MPD2     H 5160   3.645   2.829  10.534 -0.1212 -0.3753  0.3244
  344MPD2    H1 5161   3.826   2.942  10.171 -1.1980 -0.6134 -0.1041
  344MPD2    H2 5162   3.868   2.544  10.306  0.1127 -0.5720  1.0583
  344MPD2    H3 5163   3.922   2.711  10.156  0.0262 -0.5213  0.7549
  344MPD2     N 5164   3.696   3.035  10.367 -0.3379  0.7346  0.2434
  344MPD2    H5 5165   3.722   3.095  10.289  0.4507 -0.0433 -0.1039
  344MPD2    N1 5166   3.705   2.584  10.535 -0.3581  0.7771  0.1342
  344MPD2    H7 5167   3.657   2.615  10.618 -0.7392 -0.3390  0.3308
  345TMC3    C1 5168   3.610   3.240  10.452  0.4578 -0.3747 -0.8357
  345TMC3    C2 5169   3.608   3.315  10.568 -0.2852  0.2784  0.1237
  345TMC3    C3 5170   3.634   3.449  10.549 -0.1344  0.1336  0.5256
  345TMC3    C4 5171   3.624   3.297  10.325 -0.4649  0.2971 -0.0154
  345TMC3    C5 5172   3.642   3.433  10.311  0.2087  0.3967  0.4366
  345TMC3    C6 5173   3.648   3.502  10.423  0.9826  0.5528 -0.6032
  345TMC3     C 5174   3.627   3.095  10.468  0.3020 -0.0496 -0.0056
  345TMC3     O 5175   3.586   3.042  10.567 -0.6190  0.6029 -0.5322
  345TMC3     H 5176   3.609   3.275  10.669 -0.3633 -0.5434 -0.2090
  345TMC3    H1 5177   3.608   3.239  10.234  0.2126 -2.2121  1.4616
  345TMC3    H2 5178   3.662   3.609  10.420 -0.3956  0.7209 -0.9690
  345TMC3    C7 5179   3.580   3.496  10.199  0.1653  0.3056  0.6934
  345TMC3    C8 5180   3.570   3.544  10.642 -0.3490 -0.2802 -0.5336
  345TMC3    O1 5181   3.583   3.618  10.212 -0.2536  0.3682  0.3597
  345TMC3    O2 5182   3.480   3.610  10.595  0.0460 -0.4814  0.4104
  346MPD2     C 5183   3.129   4.468  13.868  0.7937  1.1330  1.1238
  346MPD2    C1 5184   3.224   4.568  13.867  0.0988  0.4839  0.3672
  346MPD2    C2 5185   3.270   4.624  13.987 -0.3194 -0.4459  0.1578
  346MPD2    C3 5186   3.226   4.581  14.111  0.2787  0.5929 -0.4479
  346MPD2    C4 5187   3.141   4.472  14.117 -0.2550 -0.2500 -0.4298
  346MPD2    C5 5188   3.091   4.422  13.993 -0.0068  0.0915 -0.2420
  346MPD2     H 5189   3.339   4.707  13.987  0.3809 -1.0295 -1.4526
  346MPD2    H1 5190   3.111   4.424  14.209 -2.5275 -0.0068 -1.0520
  346MPD2    H2 5191   3.096   4.426  13.774  2.9138 -1.3880  1.4838
  346MPD2    H3 5192   3.022   4.339  14.001 -1.7520  1.5953  0.4324
  346MPD2     N 5193   3.283   4.630  14.234  0.0506 -0.0669 -0.5103
  346MPD2    H5 5194   3.367   4.683  14.210  0.4512 -0.5474 -0.1485
  346MPD2    N1 5195   3.274   4.627  13.750  0.3434 -0.2713  0.2473
  346MPD2    H7 5196   3.333   4.709  13.760 -0.7726  0.7092 -1.2800
  347TMC3    C1 5197   3.306   4.671  14.471  0.5087  0.3549  0.0407
  347TMC3    C2 5198   3.433   4.715  14.445 -0.4151  1.0952  0.4974
  347TMC3    C3 5199   3.498   0.067  14.541  0.3821  0.1602  1.1270
  347TMC3    C4 5200   3.247   4.686  14.600 -0.2946  0.5176  0.5144
  347TMC3    C5 5201   3.328   0.024  14.699  0.4368 -0.5147  0.0053
  347TMC3    C6 5202   3.453   0.078  14.670  0.3758 -0.4981 -0.1875
  347TMC3     C 5203   3.227   4.620  14.359 -0.9103  0.0175 -0.0982
  347TMC3     O 5204   3.121   4.570  14.386 -0.0091 -0.0864  0.1296
  347TMC3     H 5205   3.486   4.689  14.354 -1.3992  1.0673 -0.0663
  347TMC3    H1 5206   3.152   4.642  14.627  1.1195 -1.7363  1.7727
  347TMC3    H2 5207   3.518   0.111  14.750 -0.8122  2.0159 -0.2768
  347TMC3    C7 5208   3.281   0.048  14.838  0.6433 -0.0692  0.5750
  347TMC3    C8 5209   3.640   0.056  14.525 -0.6101  0.6988  0.3710
  347TMC3    O1 5210   3.337   0.139  14.899  0.0088  0.2436 -0.3877
  347TMC3    O2 5211   3.697   4.694  14.603 -0.0621 -0.1907  0.3351
  348MPD2     C 5212   1.837   4.473  11.887 -0.5786  0.0295  0.2051
  348MPD2    C1 5213   1.899   4.413  11.774 -0.8995  0.1211  0.6217
  348MPD2    C2 5214   1.906   4.473  11.653  0.4885 -0.9456  0.5859
  348MPD2    C3 5215   1.839   4.595  11.638  0.5751 -0.7935  0.3019
  348MPD2    C4 5216   1.775   4.652  11.744 -0.0472  0.6142 -0.0584
  348MPD2    C5 5217   1.777   4.589  11.865  0.2122 -0.6515  0.3345
  348MPD2     H 5218   1.956   4.430  11.567 -1.5019 -1.7572 -0.1770
  348MPD2    H1 5219   1.711   0.022  11.745 -2.1838 -0.9587 -1.5204
  348MPD2    H2 5220   1.833   4.434  11.988 -0.4954  1.1388  0.6370
  348MPD2    H3 5221   1.727   4.643  11.945 -1.1317 -2.1438  0.4906
  348MPD2     N 5222   1.828   4.651  11.507 -0.5790  1.0796 -0.0854
  348MPD2    H5 5223   1.858   4.605  11.421 -1.3359 -1.9081  1.2665
  348MPD2    N1 5224   1.965   4.290  11.789 -0.2137 -0.2318  0.3623
  348MPD2    H7 5225   2.021   4.269  11.708 -1.9903  1.4991 -1.3063
  349TMC3    C1 5226   2.115   4.174  11.912 -0.6754 -0.1733 -0.1811
  349TMC3    C2 5227   2.171   4.225  12.024 -0.3384  0.4615  0.7538
  349TMC3    C3 5228   2.290   4.292  12.009 -0.5556  0.3538 -0.2873
  349TMC3    C4 5229   2.176   4.186  11.790  0.3311  0.4073 -0.0488
  349TMC3    C5 5230   2.276   4.278  11.774  0.1917  0.1043  0.1851
  349TMC3    C6 5231   2.339   4.334  11.887 -0.5264  0.5964  0.2843
  349TMC3     C 5232   1.978   4.219  11.905 -0.3530  0.6207  0.3467
  349TMC3     O 5233   1.907   4.225  12.004  0.1244 -0.4958  0.1275
  349TMC3     H 5234   2.136   4.195  12.122 -0.9627 -2.1954 -0.2943
  349TMC3    H1 5235   2.129   4.141  11.703  0.7366 -0.7063  0.3203
  349TMC3    H2 5236   2.430   4.391  11.878 -0.3823  0.4210  0.6586
  349TMC3    C7 5237   2.270   4.357  11.656 -0.4316 -0.1557 -0.4350
  349TMC3    C8 5238   2.352   4.349  12.125 -0.5478  1.6980 -0.2429
  349TMC3    O1 5239   2.242   4.287  11.564 -0.4519 -0.2780 -0.2456
  349TMC3    O2 5240   2.427   4.442  12.113  0.3739 -0.3996  0.3174
  350MPD2     C 5241   1.236   2.096   9.206 -0.1192 -0.9170  0.7050
  350MPD2    C1 5242   1.199   2.019   9.313  0.2002 -0.0449  0.1152
  350MPD2    C2 5243   1.269   2.042   9.433  0.6099 -0.0958  0.9458
  350MPD2    C3 5244   1.372   2.128   9.449 -0.9426 -0.1695  0.3228
  350MPD2    C4 5245   1.402   2.209   9.342  0.2432  0.2173 -0.4560
  350MPD2    C5 5246   1.331   2.194   9.226 -0.2819  0.5234 -0.2693
  350MPD2     H 5247   1.254   1.972   9.514  1.4596 -1.3520  0.0129
  350MPD2    H1 5248   1.481   2.282   9.350  1.3563 -0.9451 -0.9585
  350MPD2    H2 5249   1.186   2.089   9.110 -0.8751 -1.2327  1.1252
  350MPD2    H3 5250   1.353   2.255   9.138  2.2637  2.0505  1.4164
  350MPD2     N 5251   1.427   2.138   9.578  0.0530 -0.2720  0.6917
  350MPD2    H5 5252   1.394   2.069   9.645 -0.3541 -2.0352 -1.3302
  350MPD2    N1 5253   1.111   1.910   9.310  0.1243 -0.4770  0.2756
  350MPD2    H7 5254   1.094   1.862   9.397 -0.7525 -1.9524 -0.7128
  351TMC3    C1 5255   1.004   1.722   9.225  0.2242 -0.3104  0.1551
  351TMC3    C2 5256   1.070   1.640   9.303 -0.3966 -0.6721  0.8338
  351TMC3    C3 5257   1.038   1.502   9.306  0.7065  0.6713  0.0876
  351TMC3    C4 5258   0.907   1.676   9.140  0.1673  0.1032  0.0971
  351TMC3    C5 5259   0.881   1.544   9.139  0.3677  0.6733 -0.1093
  351TMC3    C6 5260   0.943   1.447   9.226 -0.7584  0.4617  0.6273
  351TMC3     C 5261   1.050   1.856   9.200 -0.5162 -0.9557 -0.4896
  351TMC3     O 5262   1.031   1.893   9.084  0.0413 -1.0949 -0.7083
  351TMC3     H 5263   1.148   1.683   9.365 -0.1795  1.6485 -1.0586
  351TMC3    H1 5264   0.848   1.746   9.082  0.6319  0.6223  0.2605
  351TMC3    H2 5265   0.920   1.341   9.219 -1.2473  0.5480  1.0010
  351TMC3    C7 5266   0.781   1.496   9.043 -0.7985 -0.6976 -0.1848
  351TMC3    C8 5267   1.149   1.435   9.366 -0.0064  0.2619 -0.6357
  351TMC3    O1 5268   0.753   1.573   8.948 -0.3688 -0.1652 -0.4339
  351TMC3    O2 5269   1.261   1.485   9.355 -0.0771 -0.2203 -0.2839
  352MPD2     C 5270   3.699   3.637   1.535  0.6262 -0.4941 -0.0768
  352MPD2    C1 5271   3.737   3.595   1.405 -0.3800 -0.5198  0.3835
  352MPD2    C2 5272   3.731   3.457   1.380  0.4930  0.0456  0.5767
  352MPD2    C3 5273   3.678   3.362   1.470 -0.2536  0.7884  0.0467
  352MPD2    C4 5274   3.635   3.413   1.591 -0.2791 -0.0241  0.6720
  352MPD2    C5 5275   3.650   3.544   1.620  0.4388  0.4794 -0.3183
  352MPD2     H 5276   3.768   3.420   1.285 -0.7741  0.6486 -0.1451
  352MPD2    H1 5277   3.598   3.349   1.670  0.6993  0.6289  1.6424
  352MPD2    H2 5278   3.702   3.740   1.567 -1.0247 -0.6757  0.6696
  352MPD2    H3 5279   3.631   3.568   1.724  1.2913  0.7215 -0.2181
  352MPD2     N 5280   3.657   3.223   1.450 -0.1725  0.2438  0.3702
  352MPD2    H5 5281   3.613   3.175   1.528  1.7976 -2.9294 -0.5078
  352MPD2    N1 5282   3.777   3.685   1.310 -0.2817  0.3732 -0.0165
  352MPD2    H7 5283   3.744   3.780   1.328  2.1083  1.1865  0.0166
  353TMC3    C1 5284   3.683   3.010   1.332  0.0455 -0.1587  0.3451
  353TMC3    C2 5285   3.741   2.951   1.446 -0.9387  0.5853 -0.5296
  353TMC3    C3 5286   3.767   2.814   1.425  0.4549 -0.2325 -0.0719
  353TMC3    C4 5287   3.653   2.945   1.217  0.0567 -0.2463 -1.0454
  353TMC3    C5 5288   3.674   2.806   1.212 -0.4775 -0.1137  0.6454
  353TMC3    C6 5289   3.745   2.744   1.306 -0.0654 -0.6976 -0.2705
  353TMC3     C 5290   3.688   3.161   1.324  0.6013 -0.3561  0.6027
  353TMC3     O 5291   3.724   3.204   1.215 -0.8850 -0.1782  0.3510
  353TMC3     H 5292   3.786   3.010   1.525 -0.3429 -0.0184 -0.4140
  353TMC3    H1 5293   3.612   2.996   1.131  0.8179  0.6830 -0.8648
  353TMC3    H2 5294   3.760   2.637   1.299 -1.3695 -0.7372 -2.3762
  353TMC3    C7 5295   3.668   2.740   1.079  0.0635  0.1176 -0.8121
  353TMC3    C8 5296   3.875   2.763   1.511  0.3049  0.1814  0.3414
  353TMC3    O1 5297   3.670   2.806   0.974 -0.0340  0.2948 -0.2926
  353TMC3    O2 5298   3.879   2.825   1.617 -0.0355 -0.1388  0.2126
  354TMC3    C1 5299   1.218   0.512  13.062 -0.4608  0.0027  0.4416
  354TMC3    C2 5300   1.153   0.621  13.027  0.1461  0.1972  0.1742
  354TMC3    C3 5301   1.171   0.675  12.901 -0.1469 -0.6615 -0.1850
  354TMC3    C4 5302   1.310   0.454  12.981  0.8479 -0.4330  0.2252
  354TMC3    C5 5303   1.310   0.491  12.851 -0.3262 -0.1027 -0.3453
  354TMC3    C6 5304   1.258   0.613  12.810  0.5310  0.2904  0.4735
  354TMC3     C 5305   1.208   0.468  13.195  0.3487 -0.2977  0.0226
  354TMC3     O 5306   1.125   0.523  13.270  0.0210  0.3426  0.6891
  354TMC3     H 5307   1.077   0.657  13.095 -0.0143  0.8270 -0.3414
  354TMC3    H1 5308   1.348   0.356  13.009 -0.8973 -1.0887  0.3244
  354TMC3    H2 5309   1.254   0.636  12.705  1.2103 -0.7188  0.2239
  354TMC3    C7 5310   1.445   0.477  12.799 -0.3281 -0.7848  0.0598
  354TMC3    C8 5311   1.138   0.816  12.876  0.2708 -0.3164  0.3396
  354TMC3    O1 5312   1.503   0.371  12.823 -0.1623  0.5005  0.9643
  354TMC3    O2 5313   1.176   0.859  12.767  0.0150 -0.3282  0.1675
  355MPD2     C 5314   1.159   1.876  11.770 -0.4028  0.0921  0.5195
  355MPD2    C1 5315   1.272   1.860  11.695  0.3211 -0.3287  0.0426
  355MPD2    C2 5316   1.383   1.795  11.752 -0.3358 -0.1756 -0.7572
  355MPD2    C3 5317   1.371   1.750  11.883  0.3424  0.7177  0.3282
  355MPD2    C4 5318   1.256   1.755  11.951 -0.0824 -1.0438  0.1041
  355MPD2    C5 5319   1.146   1.821  11.892 -0.4886  0.6011  0.0790
  355MPD2     H 5320   1.480   1.792  11.703 -0.1982  1.4199 -0.6060
  355MPD2    H1 5321   1.258   1.714  12.051 -0.3955 -1.4079 -0.0387
  355MPD2    H2 5322   1.073   1.928  11.729  0.1623  1.6807  1.3233
  355MPD2    H3 5323   1.058   1.833  11.954 -0.2185  1.2333  0.3429
  355MPD2     N 5324   1.479   1.702  11.958 -0.0789  0.0133 -0.2491
  355MPD2    H5 5325   1.460   1.649  12.042 -4.1890 -3.8708 -3.6399
  355MPD2    N1 5326   1.275   1.912  11.565  0.4775 -0.2217 -0.0141
  355MPD2    H7 5327   1.194   1.964  11.532  0.2424  0.0779  1.0097
  356TMC3    C1 5328   1.711   1.658  11.999  0.3806  0.8796 -0.0736
  356TMC3    C2 5329   1.776   1.566  11.928  0.0613 -0.6875  0.5061
  356TMC3    C3 5330   1.912   1.563  11.943  0.5379 -0.8503  0.0735
  356TMC3    C4 5331   1.766   1.726  12.108  0.1008 -0.0615  0.5603
  356TMC3    C5 5332   1.901   1.703  12.123  0.0580 -0.8207  0.2830
  356TMC3    C6 5333   1.974   1.618  12.052  0.7286 -0.3132  0.1732
  356TMC3     C 5334   1.609   1.724  11.922  0.1175  0.3368 -0.1900
  356TMC3     O 5335   1.660   1.764  11.821  0.4608  0.1135 -0.0095
  356TMC3     H 5336   1.730   1.531  11.837  1.1339  0.8474 -0.6436
  356TMC3    H1 5337   1.714   1.816  12.140  0.5451  0.5208 -0.3638
  356TMC3    H2 5338   2.081   1.617  12.072  0.6954  0.8368  0.3720
  356TMC3    C7 5339   1.978   1.795  12.202  0.6100  0.3982  0.5495
  356TMC3    C8 5340   1.984   1.570  11.813  0.4180 -0.1767 -0.4803
  356TMC3    O1 5341   2.101   1.803  12.184 -0.2813  0.5403 -0.2597
  356TMC3    O2 5342   1.932   1.508  11.724 -0.5491 -0.1209  0.2701
  357MPD2     C 5343   1.471   1.347   1.174 -0.5084  0.1054 -0.7937
  357MPD2    C1 5344   1.375   1.271   1.241 -0.9620 -0.0887 -0.1402
  357MPD2    C2 5345   1.250   1.315   1.243 -0.3301 -0.0345  0.0973
  357MPD2    C3 5346   1.215   1.431   1.160 -1.2168  0.2043  0.2770
  357MPD2    C4 5347   1.311   1.508   1.103  0.5759 -0.0753 -0.2575
  357MPD2    C5 5348   1.440   1.463   1.104  0.2810 -0.3107 -0.3565
  357MPD2     H 5349   1.170   1.279   1.307  0.6360  0.7913  1.7655
  357MPD2    H1 5350   1.289   1.602   1.054 -0.9796 -0.8184 -1.0085
  357MPD2    H2 5351   1.573   1.314   1.161 -0.1620  1.5565 -1.7492
  357MPD2    H3 5352   1.512   1.530   1.058 -0.2552  0.4396 -0.1024
  357MPD2     N 5353   1.078   1.473   1.139  0.4603  0.5691  0.2568
  357MPD2    H5 5354   1.068   1.556   1.081 -0.0298 -1.1338 -2.0843
  357MPD2    N1 5355   1.415   1.161   1.317  0.2572 -0.0107 -0.8273
  357MPD2    H7 5356   1.505   1.116   1.304 -0.5995 -1.6204 -1.2390
  358TMC3    C1 5357   1.397   0.972   1.450  0.3138  0.3329 -0.8413
  358TMC3    C2 5358   1.398   0.892   1.338  0.0794  0.3309  0.4052
  358TMC3    C3 5359   1.382   0.761   1.357  0.6639  0.4130  0.1424
  358TMC3    C4 5360   1.386   0.926   1.577  0.5948 -0.0785  0.5512
  358TMC3    C5 5361   1.388   0.790   1.587  0.0503  0.2512 -0.3150
  358TMC3    C6 5362   1.389   0.704   1.483  0.0279 -0.3706 -0.0161
  358TMC3     C 5363   1.346   1.104   1.419 -0.3739 -0.1434 -0.0779
  358TMC3     O 5364   1.277   1.160   1.503  0.1084  0.3643  0.4466
  358TMC3     H 5365   1.394   0.933   1.238  0.5754  0.5431  0.4730
  358TMC3    H1 5366   1.378   0.990   1.664 -0.4101 -1.2977  1.3399
  358TMC3    H2 5367   1.357   0.600   1.493 -0.4999 -0.0348  1.8136
  358TMC3    C7 5368   1.500   0.749   1.681 -0.4461 -0.7785 -0.2425
  358TMC3    C8 5369   1.342   0.679   1.243  0.5778 -0.2357  0.2704
  358TMC3    O1 5370   1.565   0.655   1.635 -0.2456  0.1072 -0.0197
  358TMC3    O2 5371   1.276   0.737   1.155 -0.4654 -0.1102 -0.2289
  359MPD2     C 5372   1.761   0.068  12.193  1.0625  0.3504  0.0220
  359MPD2    C1 5373   1.659   0.112  12.106 -0.2409  0.5231 -0.1169
  359MPD2    C2 5374   1.549   0.035  12.095  0.0001  0.0911  0.5051
  359MPD2    C3 5375   1.517   4.643  12.180  0.0890  0.1351 -0.5652
  359MPD2    C4 5376   1.615   4.599  12.270  0.3398  0.1668  0.0869
  359MPD2    C5 5377   1.734   4.675  12.275 -0.1888  0.0912 -0.2477
  359MPD2     H 5378   1.473   0.076  12.029 -2.1237  1.0531  3.5510
  359MPD2    H1 5379   1.604   4.505  12.322  1.4178  1.1805  2.1467
  359MPD2    H2 5380   1.855   0.122  12.202  0.6165  1.1169  0.0839
  359MPD2    H3 5381   1.808   4.645  12.348 -0.6413  2.7556  1.3269
  359MPD2     N 5382   1.393   4.574  12.183 -0.8486  0.3182 -0.4141
  359MPD2    H5 5383   1.379   4.494  12.244  1.3868  1.3037  1.4244
  359MPD2    N1 5384   1.668   0.228  12.023 -0.4727 -0.0452  0.7809
  359MPD2    H7 5385   1.585   0.246  11.968  1.1999  1.4063 -1.2332
  360TMC3    C1 5386   1.744   0.411  11.897 -0.2215 -0.2296  0.2169
  360TMC3    C2 5387   1.808   0.527  11.900  0.4149 -0.4235 -0.4669
  360TMC3    C3 5388   1.730   0.632  11.871  0.4746  0.2310 -0.4773
  360TMC3    C4 5389   1.628   0.392  11.831  0.0143 -0.4702  0.0866
  360TMC3    C5 5390   1.555   0.497  11.780 -0.2995 -0.3460  0.8452
  360TMC3    C6 5391   1.606   0.622  11.815 -0.6465 -0.2740  0.9193
  360TMC3     C 5392   1.776   0.318  12.007  0.2602 -0.6100  0.2789
  360TMC3     O 5393   1.877   0.328  12.079 -0.2750  0.2252 -0.3619
  360TMC3     H 5394   1.880   0.549  11.978  1.2667 -0.0870 -1.3537
  360TMC3    H1 5395   1.592   0.294  11.801  1.9634 -1.6975  1.7690
  360TMC3    H2 5396   1.554   0.714  11.789 -0.7411 -0.5228  0.2337
  360TMC3    C7 5397   1.521   0.497  11.635  0.0925  0.1953 -0.7400
  360TMC3    C8 5398   1.805   0.730  11.800 -0.4348  0.3203  0.3135
  360TMC3    O1 5399   1.554   0.595  11.574 -0.0546  0.2923 -0.0784
  360TMC3    O2 5400   1.756   0.840  11.785  0.1246  0.6980 -0.5870
  361MPD2     C 5401   4.070   3.109  16.502  0.4093 -0.3070  0.0665
  361MPD2    C1 5402   3.991   3.150  16.609  0.2671  0.2787 -0.8079
  361MPD2    C2 5403   3.988   3.066  16.718 -0.1293  0.2916 -0.8242
  361MPD2    C3 5404   4.074   2.962  16.733  0.9005  0.2684 -0.2820
  361MPD2    C4 5405   4.154   2.922  16.629 -0.1329  0.6259  0.4828
  361MPD2    C5 5406   4.150   2.999  16.515 -0.4642 -0.9637 -0.2338
  361MPD2     H 5407   3.914   3.090  16.794  1.1674 -0.6518  0.7366
  361MPD2    H1 5408   4.227   2.847  16.656  1.9381  2.1405 -0.8274
  361MPD2    H2 5409   4.090   3.160  16.408  0.4722 -0.0806  0.2035
  361MPD2    H3 5410   4.220   2.973  16.437 -1.3029  0.0291 -1.3199
  361MPD2     N 5411   4.075   2.878  16.847 -0.3920 -0.6228 -0.6819
  361MPD2    H5 5412   4.132   2.794  16.848  2.3049  1.2189  1.2393
  361MPD2    N1 5413   3.894   3.252  16.595  0.2542 -0.1500 -0.1261
  361MPD2    H7 5414   3.826   3.254  16.670 -0.5139 -1.4813 -0.7886
  362TMC3    C1 5415   3.789   3.454  16.507  0.4376 -0.1442  0.0095
  362TMC3    C2 5416   3.770   3.494  16.636 -0.4293  0.2485 -0.2393
  362TMC3    C3 5417   3.703   3.616  16.649  0.0359 -0.3252  0.1179
  362TMC3    C4 5418   3.754   3.531  16.398 -0.2702 -0.3371  0.4285
  362TMC3    C5 5419   3.694   3.656  16.418  0.7027  0.3105  0.4810
  362TMC3    C6 5420   3.671   3.698  16.548 -0.4837 -0.0188 -0.2426
  362TMC3     C 5421   3.884   3.342  16.483 -0.4704 -0.1819  0.6847
  362TMC3     O 5422   3.959   3.362  16.388 -0.0251  0.1452  0.1913
  362TMC3     H 5423   3.772   3.439  16.729 -0.4661  0.3122 -0.2008
  362TMC3    H1 5424   3.785   3.508  16.297  0.7418 -0.9686  0.8852
  362TMC3    H2 5425   3.621   3.792  16.567 -2.9903 -1.2898 -0.4390
  362TMC3    C7 5426   3.587   3.702  16.334  0.5268  0.3491 -0.2060
  362TMC3    C8 5427   3.645   3.639  16.779 -0.7325  0.4677  0.3561
  362TMC3    O1 5428   3.509   3.790  16.379 -0.0497 -0.1495 -0.0823
  362TMC3    O2 5429   3.704   3.599  16.882  0.6240 -0.6112  0.3838
  363TMC3    C1 5430   2.112   1.685   9.588 -0.1779  0.3524  0.0800
  363TMC3    C2 5431   2.125   1.576   9.669  0.0803 -0.4046 -0.6607
  363TMC3    C3 5432   2.027   1.486   9.666 -0.2672  0.3471 -0.3662
  363TMC3    C4 5433   1.997   1.717   9.517 -0.4558 -1.0481 -0.3444
  363TMC3    C5 5434   1.892   1.636   9.538 -0.0885  0.3013 -0.4279
  363TMC3    C6 5435   1.910   1.520   9.604 -0.3162 -0.3419  0.1377
  363TMC3     C 5436   2.221   1.780   9.590  0.1380  0.2187  0.2600
  363TMC3     O 5437   2.326   1.737   9.631 -0.0892  0.0024 -0.3243
  363TMC3     H 5438   2.214   1.556   9.727 -1.5591 -0.9637  1.6693
  363TMC3    H1 5439   1.985   1.804   9.454 -1.2032 -2.0863 -1.6386
  363TMC3    H2 5440   1.824   1.454   9.613 -1.3770  0.9220 -0.6600
  363TMC3    C7 5441   1.774   1.645   9.447  0.6611  0.1825  0.7289
  363TMC3    C8 5442   2.041   1.356   9.736 -0.4850 -0.5619 -0.1323
  363TMC3    O1 5443   1.670   1.587   9.482  0.0051  0.6464  0.1235
  363TMC3    O2 5444   1.939   1.294   9.749 -0.3103 -0.1661  0.2649
  364MPD2     C 5445   0.381   0.951  10.123 -0.1045 -0.2831 -0.1022
  364MPD2    C1 5446   0.466   0.944  10.019 -0.0827 -0.1943  0.3348
  364MPD2    C2 5447   0.575   0.865  10.042  0.0782  0.6052  0.7816
  364MPD2    C3 5448   0.599   0.799  10.154  0.0922  0.2366  0.3594
  364MPD2    C4 5449   0.509   0.810  10.254 -0.4702  0.2020 -0.4224
  364MPD2    C5 5450   0.400   0.884  10.237  0.0023 -0.7114 -0.0604
  364MPD2     H 5451   0.652   0.866   9.967 -2.3963 -2.3612 -1.8083
  364MPD2    H1 5452   0.531   0.758  10.346  0.8865 -1.8557 -1.9198
  364MPD2    H2 5453   0.290   1.011  10.116 -0.0843 -0.4808 -1.8946
  364MPD2    H3 5454   0.320   0.888  10.310 -1.1226  1.1810 -1.3889
  364MPD2     N 5455   0.700   0.703  10.170 -0.1822  0.1056 -0.1518
  364MPD2    H5 5456   0.709   0.656  10.259  1.2270 -2.1166 -1.4861
  364MPD2    N1 5457   0.444   1.022   9.899 -0.9870  0.9204 -0.4073
  364MPD2    H7 5458   0.374   1.095   9.894 -1.2632  0.8400  1.8842
  365TMC3    C1 5459   0.500   1.112   9.696 -0.5714  0.9192 -0.0435
  365TMC3    C2 5460   0.567   1.081   9.586 -0.1523  0.0416 -0.3278
  365TMC3    C3 5461   0.647   1.173   9.526  0.2479  0.6293 -0.0962
  365TMC3    C4 5462   0.514   1.230   9.757 -0.2104  0.2429  0.4094
  365TMC3    C5 5463   0.592   1.322   9.689  0.4531  0.2844  0.3952
  365TMC3    C6 5464   0.658   1.295   9.574  0.1206  0.1760 -0.6855
  365TMC3     C 5465   0.511   1.004   9.781  0.5600  0.5396 -0.1037
  365TMC3     O 5466   0.586   0.911   9.751  0.0454  0.6135 -0.2165
  365TMC3     H 5467   0.549   0.984   9.540  0.4073  0.6778 -1.8800
  365TMC3    H1 5468   0.448   1.268   9.833  0.5931  1.8908  0.2839
  365TMC3    H2 5469   0.731   1.364   9.534  0.5846  0.3839  0.5106
  365TMC3    C7 5470   0.661   1.407   9.772  0.7380 -0.3666 -0.8620
  365TMC3    C8 5471   0.766   1.133   9.456  0.5711  0.1482 -0.3884
  365TMC3    O1 5472   0.712   1.510   9.727 -0.5456 -0.2411  0.5287
  365TMC3    O2 5473   0.826   1.218   9.391  0.5680 -0.1456  0.3996
  366MPD2     C 5474   3.731   1.979  15.263  0.5969 -0.1522 -0.1330
  366MPD2    C1 5475   3.779   2.095  15.204  0.3535 -0.0887 -0.3011
  366MPD2    C2 5476   3.893   2.087  15.122 -0.1307  0.0894  0.3379
  366MPD2    C3 5477   3.958   1.966  15.097  0.6416 -0.1742  0.0526
  366MPD2    C4 5478   3.915   1.851  15.155  0.4291 -0.0311 -0.3390
  366MPD2    C5 5479   3.799   1.859  15.239 -0.2343  0.0819 -0.0778
  366MPD2     H 5480   3.941   2.176  15.082  1.7005 -1.0699 -0.0444
  366MPD2    H1 5481   3.950   1.750  15.140 -0.0520 -0.2421 -0.0288
  366MPD2    H2 5482   3.643   1.985  15.326  0.7021  0.4799 -0.0485
  366MPD2    H3 5483   3.758   1.767  15.281  1.0147 -0.9355 -1.0825
  366MPD2     N 5484   4.062   1.970  14.996  0.6668  0.1220 -0.2784
  366MPD2    H5 5485   4.094   2.060  14.963  0.5712 -0.7123 -2.6182
  366MPD2    N1 5486   3.709   2.221  15.214 -0.2715 -0.4771  0.0737
  366MPD2    H7 5487   3.751   2.305  15.175 -0.9440 -0.1420  0.0609
  367TMC3    C1 5488   3.560   2.372  15.319 -0.0473 -0.4723 -0.1739
  367TMC3    C2 5489   3.667   2.430  15.383 -0.6372 -0.0133 -0.6411
  367TMC3    C3 5490   3.680   2.569  15.380  0.7551  0.1175 -0.0002
  367TMC3    C4 5491   3.483   2.447  15.236 -0.2641 -0.2214 -0.0236
  367TMC3    C5 5492   3.486   2.584  15.251 -0.4438  0.2541  0.4076
  367TMC3    C6 5493   3.588   2.649  15.320 -0.4401 -0.1212 -0.3052
  367TMC3     C 5494   3.586   2.238  15.276 -0.5024  0.4420  0.0123
  367TMC3     O 5495   3.496   2.156  15.269 -0.4281 -0.0186 -0.2880
  367TMC3     H 5496   3.727   2.369  15.450  0.4082  0.3288 -1.2652
  367TMC3    H1 5497   3.408   2.394  15.180  0.0808 -2.1487  1.3424
  367TMC3    H2 5498   3.598   2.756  15.321  0.3937 -0.1886 -0.9337
  367TMC3    C7 5499   3.387   2.671  15.184 -0.6473 -0.1814  0.2845
  367TMC3    C8 5500   3.806   2.623  15.428  0.6978  0.2117 -0.0282
  367TMC3    O1 5501   3.363   2.780  15.228  0.3916  0.2025  0.2951
  367TMC3    O2 5502   3.875   2.547  15.493 -0.4095  0.1898 -0.2210
  368MPD2     C 5503   0.245   3.837  13.202 -0.7174  0.5183 -0.5874
  368MPD2    C1 5504   0.232   3.932  13.112 -0.0296 -0.5181 -0.5115
  368MPD2    C2 5505   0.346   3.993  13.064  0.1588 -0.2418  0.4658
  368MPD2    C3 5506   0.462   3.981  13.133 -0.1461  0.9061  0.0363
  368MPD2    C4 5507   0.478   3.889  13.236  0.1133 -0.0636  0.6528
  368MPD2    C5 5508   0.371   3.810  13.268  0.0250  0.6418  0.4270
  368MPD2     H 5509   0.337   4.077  12.996  1.7151 -1.7502 -1.6128
  368MPD2    H1 5510   0.570   3.872  13.290  0.6196 -1.4430 -0.6479
  368MPD2    H2 5511   0.156   3.783  13.233 -0.4384  0.7021  0.5171
  368MPD2    H3 5512   0.375   3.731  13.341  0.3761  0.5254  0.2825
  368MPD2     N 5513   0.580   4.058  13.108 -0.4089 -0.1076  0.6702
  368MPD2    H5 5514   0.662   4.034  13.162  0.2891 -0.0620 -0.3774
  368MPD2    N1 5515   0.107   3.967  13.052 -0.5005 -0.3078 -0.2101
  368MPD2    H7 5516   0.030   3.921  13.099  0.5410 -1.9050 -0.0668
  369TMC3    C1 5517   4.656   4.092  12.949 -0.6373  0.1584 -0.4259
  369TMC3    C2 5518   4.634   4.207  12.884 -0.2851 -0.0872 -0.8607
  369TMC3    C3 5519   4.506   4.251  12.877 -0.0986 -0.6721  0.2641
  369TMC3    C4 5520   4.556   4.010  12.998 -0.0093 -0.4775 -0.2717
  369TMC3    C5 5521   4.431   4.053  12.958  0.9077 -0.4789  0.1675
  369TMC3    C6 5522   4.403   4.168  12.896  0.1230  0.5589 -0.3882
  369TMC3     C 5523   0.085   4.053  12.949  0.2625 -0.5362 -0.3472
  369TMC3     O 5524   0.162   4.107  12.865 -0.7312 -0.3475  0.0786
  369TMC3     H 5525   0.000   4.259  12.838  0.1430  1.5271  1.7184
  369TMC3    H1 5526   4.570   3.916  13.051  1.3541  1.2443  2.4365
  369TMC3    H2 5527   4.304   4.210  12.884 -0.6588 -1.6068 -1.5465
  369TMC3    C7 5528   4.321   3.985  13.022  0.5772  0.2674  0.6396
  369TMC3    C8 5529   4.491   4.379  12.810  0.7018  0.0949 -0.5492
  369TMC3    O1 5530   4.235   4.065  13.052 -0.0407  0.3629 -0.0745
  369TMC3    O2 5531   4.422   4.393  12.712  0.2761  0.3421  0.3957
  370TMC3    C1 5532   4.320   4.293  16.140 -0.2545  0.6777 -0.0745
  370TMC3    C2 5533   4.329   4.210  16.253 -0.5595 -1.2182 -0.2390
  370TMC3    C3 5534   4.345   4.070  16.242  0.4733 -0.3563  0.0017
  370TMC3    C4 5535   4.338   4.229  16.020  0.3051  0.6028 -0.2057
  370TMC3    C5 5536   4.357   4.094  16.012  0.0389  0.0373  0.5056
  370TMC3    C6 5537   4.359   4.009  16.120 -0.2844 -0.1967  0.2350
  370TMC3     C 5538   4.326   4.439  16.153  0.2687 -0.7371  0.4086
  370TMC3     O 5539   4.331   4.475  16.269  0.2715  0.3089 -0.7062
  370TMC3     H 5540   4.325   4.264  16.347 -1.8404 -1.4298 -0.1825
  370TMC3    H1 5541   4.315   4.279  15.927  2.0734  1.2250 -0.3128
  370TMC3    H2 5542   4.374   3.902  16.113  0.4553  0.0374 -1.7279
  370TMC3    C7 5543   4.393   4.043  15.884 -0.0582 -0.1799 -0.3027
  370TMC3    C8 5544   4.351   3.983  16.361  0.1207 -0.3113 -0.0552
  370TMC3    O1 5545   4.334   4.078  15.784  0.4568 -0.5807  0.3606
  370TMC3    O2 5546   4.366   3.861  16.347  0.3771  0.7200 -0.2269
  371TMC3    C1 5547   1.086   2.620  15.249  0.0551 -0.4805 -0.0572
  371TMC3    C2 5548   0.954   2.630  15.305  0.5144 -0.5874  0.3536
  371TMC3    C3 5549   0.893   2.745  15.285 -1.2953  0.7797 -0.1412
  371TMC3    C4 5550   1.151   2.715  15.177 -0.0097  0.4831 -0.6634
  371TMC3    C5 5551   1.073   2.825  15.150  0.9700 -0.4124  0.6328
  371TMC3    C6 5552   0.950   2.846  15.208 -0.4113  0.1384 -0.3199
  371TMC3     C 5553   1.159   2.492  15.261  0.3561  0.1526  0.5663
  371TMC3     O 5554   1.279   2.488  15.236 -0.3422  0.5747  0.1899
  371TMC3     H 5555   0.915   2.556  15.374 -1.3773  1.6115  1.6350
  371TMC3    H1 5556   1.252   2.714  15.138  1.2701  1.8401  2.5492
  371TMC3    H2 5557   0.897   2.934  15.176  2.0768  1.4894 -0.7737
  371TMC3    C7 5558   1.119   2.919  15.051  0.1040 -0.3123 -0.0133
  371TMC3    C8 5559   0.761   2.755  15.348 -0.2055  1.0231 -0.6285
  371TMC3    O1 5560   1.058   3.023  15.032 -0.3566  0.5826  0.1930
  371TMC3    O2 5561   0.707   2.649  15.379  0.4036 -0.1461 -0.0600
  372MPD2     C 5562   4.582   4.185  13.320  0.0439  0.0505 -0.2945
  372MPD2    C1 5563   4.707   4.137  13.364 -0.0209 -0.4138  0.7806
  372MPD2    C2 5564   0.008   4.022  13.438  0.0108  0.3935 -0.4780
  372MPD2    C3 5565   4.606   3.956  13.485 -0.1818 -0.4435 -0.4603
  372MPD2    C4 5566   4.480   4.009  13.453 -0.4753  0.2930 -0.2837
  372MPD2    C5 5567   4.472   4.121  13.369 -0.5793 -0.2665 -0.3556
  372MPD2     H 5568   0.103   3.977  13.463  0.0418  1.3409  1.1074
  372MPD2    H1 5569   4.393   3.954  13.488  0.9087 -2.2798 -0.9075
  372MPD2    H2 5570   4.570   4.281  13.270 -0.5303 -0.5001 -1.2084
  372MPD2    H3 5571   4.380   4.169  13.336 -0.8325 -1.2145 -1.0169
  372MPD2     N 5572   4.620   3.827  13.557 -0.5174  1.0753 -0.0628
  372MPD2    H5 5573   4.712   3.785  13.553 -0.5127  1.0255  0.5582
  372MPD2    N1 5574   0.108   4.213  13.331  0.5130  0.1942  0.0478
  372MPD2    H7 5575   0.191   4.173  13.374  1.2386  1.4217 -0.2064
  373TMC3    C1 5576   4.535   3.623  13.647 -0.2362  0.4617  0.1905
  373TMC3    C2 5577   4.490   3.566  13.766 -0.1711 -0.4359 -0.3963
  373TMC3    C3 5578   4.504   3.432  13.789  0.5116  0.4063  0.5178
  373TMC3    C4 5579   4.608   3.559  13.552  0.1494  0.1787 -0.6669
  373TMC3    C5 5580   4.613   3.425  13.573  0.3474  0.0433  0.0555
  373TMC3    C6 5581   4.555   3.357  13.685 -0.2115 -0.2628 -0.0647
  373TMC3     C 5582   4.517   3.764  13.615 -0.6073 -0.5492  0.2380
  373TMC3     O 5583   4.417   3.816  13.661  0.2457  0.3193 -0.2429
  373TMC3     H 5584   4.441   3.629  13.839 -0.7837 -1.2411 -0.1126
  373TMC3    H1 5585   4.637   3.593  13.454 -0.2009  0.0761 -0.8060
  373TMC3    H2 5586   4.543   3.250  13.678 -1.6338  0.0319 -2.1571
  373TMC3    C7 5587   0.001   3.362  13.493  0.3279 -0.3332  0.9874
  373TMC3    C8 5588   4.589   3.409  13.902  0.1708 -0.5176  0.0265
  373TMC3    O1 5589   0.064   3.430  13.411  0.4311  0.6195  0.1285
  373TMC3    O2 5590   4.664   3.506  13.932 -0.1245  0.0805  0.1249
  374TMC3    C1 5591   1.077   4.124   9.331  0.4002  0.4230  0.5380
  374TMC3    C2 5592   1.142   4.236   9.373 -0.5528 -0.9799 -0.4341
  374TMC3    C3 5593   1.202   4.312   9.282 -1.1548 -0.6839  0.2728
  374TMC3    C4 5594   1.065   4.085   9.201 -0.6942  0.4420 -0.7559
  374TMC3    C5 5595   1.126   4.170   9.110  0.1387 -0.6147  0.0137
  374TMC3    C6 5596   1.197   4.278   9.151 -0.1038  0.0763  0.0996
  374TMC3     C 5597   0.991   4.055   9.430  0.4856 -0.0903 -1.1006
  374TMC3     O 5598   1.012   4.076   9.547  0.3451 -0.8040 -0.8218
  374TMC3     H 5599   1.131   4.268   9.476  1.8270  0.5159 -0.6618
  374TMC3    H1 5600   1.029   3.989   9.166  0.3595  0.8907 -3.0536
  374TMC3    H2 5601   1.248   4.331   9.071  0.2661  0.6317  0.6953
  374TMC3    C7 5602   1.127   4.130   8.966 -0.2882 -0.6775 -0.0604
  374TMC3    C8 5603   1.253   4.440   9.307 -0.6369 -0.5009  0.6200
  374TMC3    O1 5604   1.198   4.194   8.889  0.0859  0.5725  0.0363
  374TMC3    O2 5605   1.292   4.508   9.211  0.2115  0.8389  0.1376
  375MPD2     C 5606   1.047   4.164  16.877  0.2765  0.4882 -0.3306
  375MPD2    C1 5607   0.979   4.192  16.760  0.1442 -0.2685  0.0064
  375MPD2    C2 5608   1.031   4.172  16.635  0.1701 -0.0931  0.5181
  375MPD2    C3 5609   1.155   4.130  16.622 -0.5872 -0.3206 -0.1789
  375MPD2    C4 5610   1.222   4.086  16.736  0.9460 -0.5324  0.4615
  375MPD2    C5 5611   1.167   4.102  16.857  0.1979 -0.4862  0.4848
  375MPD2     H 5612   0.980   4.214  16.548  0.8634 -2.4776 -1.0420
  375MPD2    H1 5613   1.313   4.029  16.724  0.4689 -0.9992 -0.8824
  375MPD2    H2 5614   1.006   4.182  16.975  0.5369 -0.1599 -0.1056
  375MPD2    H3 5615   1.229   4.068  16.940  1.8157 -1.2407 -1.0429
  375MPD2     N 5616   1.216   4.117  16.498  0.0245 -0.3739  0.3270
  375MPD2    H5 5617   1.314   4.093  16.492  0.2204  0.5805 -0.3579
  375MPD2    N1 5618   0.849   4.257  16.761 -0.1497  0.1366  0.3204
  375MPD2    H7 5619   0.802   4.281  16.674  0.3788 -1.6483 -0.4577
  376TMC3    C1 5620   1.250   4.168  16.270 -0.5543 -0.2724  0.5430
  376TMC3    C2 5621   1.363   4.235  16.305  0.2936  0.8752  0.1065
  376TMC3    C3 5622   1.446   4.281  16.208 -0.9552 -0.4247 -0.3754
  376TMC3    C4 5623   1.208   4.157  16.145  0.1013 -0.0411 -0.0397
  376TMC3    C5 5624   1.291   4.213  16.051  0.0196  0.3614  0.0432
  376TMC3    C6 5625   1.415   4.271  16.079 -0.6798 -0.5244 -0.6527
  376TMC3     C 5626   1.153   4.136  16.376  0.7050  0.3430  0.3958
  376TMC3     O 5627   1.035   4.124  16.351 -0.0937  0.4349 -0.3385
  376TMC3     H 5628   1.387   4.245  16.411 -1.7297 -3.7173  1.0169
  376TMC3    H1 5629   1.114   4.110  16.120  1.2381 -1.7091 -1.1924
  376TMC3    H2 5630   1.487   4.301  16.004  0.2722 -0.7639  0.1593
  376TMC3    C7 5631   1.236   4.235  15.918 -0.4005  0.0929  0.7095
  376TMC3    C8 5632   1.556   4.366  16.243 -0.0984  0.5950 -0.8551
  376TMC3    O1 5633   1.113   4.233  15.907 -0.6397  0.9932  0.0026
  376TMC3    O2 5634   1.587   4.438  16.152  0.0240  0.1681 -0.4132
  377MPD2     C 5635   3.686   0.006  12.122 -0.0739  0.0537  0.7933
  377MPD2    C1 5636   3.756   4.629  12.199 -0.3598  0.6039  0.5296
  377MPD2    C2 5637   3.714   4.613  12.334 -0.5308 -0.3709  0.3881
  377MPD2    C3 5638   3.601   4.678  12.389  0.2848  0.6691  0.0949
  377MPD2    C4 5639   3.543   0.053  12.309  0.5774 -0.4678  0.5777
  377MPD2    C5 5640   3.585   0.077  12.180 -0.3262 -0.5916 -0.5246
  377MPD2     H 5641   3.764   4.538  12.395  2.3024  0.7307 -0.5535
  377MPD2    H1 5642   3.463   0.118  12.344  2.4008  1.8522  0.4261
  377MPD2    H2 5643   3.715   0.037  12.022  0.9251 -1.1235  0.7091
  377MPD2    H3 5644   3.538   0.153  12.120  1.8370  0.4806 -0.8630
  377MPD2     N 5645   3.550   4.647  12.519  0.2693  0.2604  0.6688
  377MPD2    H5 5646   3.475   4.708  12.550 -1.1865 -0.5094 -1.3410
  377MPD2    N1 5647   3.862   4.555  12.148  0.0521 -0.2759 -0.6402
  377MPD2    H7 5648   3.874   4.567  12.048  1.0378  0.1071 -0.4717
  378TMC3    C1 5649   3.988   4.289  11.902  0.1557 -0.1034  0.0807
  378TMC3    C2 5650   3.936   4.333  12.021 -0.1299  0.4979  0.7347
  378TMC3    C3 5651   4.018   4.387  12.115 -0.9132  0.2161  0.1468
  378TMC3    C4 5652   4.119   4.306  11.876 -0.3073  0.1463  0.1479
  378TMC3    C5 5653   4.196   4.376  11.963 -0.4191  0.5634 -0.3338
  378TMC3    C6 5654   4.150   4.412  12.085 -0.3259  0.3375 -0.2064
  378TMC3     C 5655   3.899   4.340  11.800 -0.1162 -0.1411 -0.0625
  378TMC3     O 5656   3.785   4.353  11.843 -0.5842  0.0199  0.3549
  378TMC3     H 5657   3.834   4.314  12.049  0.2205  0.2710  1.8459
  378TMC3    H1 5658   4.154   4.260  11.784  0.7483  0.6226  0.3041
  378TMC3    H2 5659   4.208   4.461  12.163 -1.2572 -1.2392  1.4869
  378TMC3    C7 5660   4.324   4.421  11.919 -0.9445 -0.1393  0.3670
  378TMC3    C8 5661   3.942   4.463  12.211 -0.0163  0.0727 -0.3008
  378TMC3    O1 5662   4.358   4.531  11.959  0.0671  0.1279  0.4165
  378TMC3    O2 5663   3.940   4.428  12.330  0.9499 -0.6374  0.0167
  379MPD2     C 5664   0.273   2.462  15.720 -0.1958 -0.5590 -0.5168
  379MPD2    C1 5665   0.167   2.387  15.763 -0.1040 -0.1249  0.3971
  379MPD2    C2 5666   0.180   2.302  15.876  0.0114  0.0287 -0.1473
  379MPD2    C3 5667   0.301   2.293  15.941  0.0315 -0.0207  0.1208
  379MPD2    C4 5668   0.402   2.381  15.898 -0.0629 -0.6879 -0.2435
  379MPD2    C5 5669   0.388   2.458  15.789 -0.2567 -0.1014  0.4638
  379MPD2     H 5670   0.097   2.239  15.903 -2.2585  2.3067 -1.7637
  379MPD2    H1 5671   0.499   2.385  15.945  0.3668  1.0894 -1.3000
  379MPD2    H2 5672   0.264   2.535  15.640  1.1801  0.0245 -0.1291
  379MPD2    H3 5673   0.473   2.513  15.750  0.3288 -0.6951  0.8946
  379MPD2     N 5674   0.334   2.208  16.050 -0.1597 -0.0587 -0.1487
  379MPD2    H5 5675   0.425   2.206  16.096  0.3467 -2.6119 -1.2279
  379MPD2    N1 5676   0.047   2.408  15.695  0.0261  0.1875 -0.1768
  379MPD2    H7 5677   0.057   2.466  15.612 -3.2709 -0.0508 -0.7422
  380TMC3    C1 5678   4.570   2.347  15.588 -0.0225 -0.4928  0.1470
  380TMC3    C2 5679   4.646   2.271  15.496 -0.6686 -0.2147 -0.3604
  380TMC3    C3 5680   4.633   2.304  15.362  0.4320  0.1575  0.0144
  380TMC3    C4 5681   4.508   2.460  15.554  0.1187 -0.1300 -0.2767
  380TMC3    C5 5682   4.498   2.481  15.419  0.6861  1.3427 -0.1547
  380TMC3    C6 5683   4.554   2.407  15.323  1.1160  0.4794  0.3557
  380TMC3     C 5684   4.641   2.348  15.712 -0.2790 -0.4620 -0.6024
  380TMC3     O 5685   4.601   2.291  15.813  0.1466 -0.2825  0.2580
  380TMC3     H 5686   4.690   2.178  15.531  2.1230  0.9657 -0.6839
  380TMC3    H1 5687   4.460   2.512  15.636  1.7188  0.8913  0.0092
  380TMC3    H2 5688   4.540   2.423  15.217  0.5171 -1.8210  0.0798
  380TMC3    C7 5689   4.435   2.598  15.363  0.1013 -0.0982 -0.3122
  380TMC3    C8 5690   0.029   2.276  15.274  0.6197  0.1132 -0.6715
  380TMC3    O1 5691   4.511   2.655  15.280 -0.0194 -0.0464 -0.2444
  380TMC3    O2 5692   0.015   2.311  15.159 -0.4908 -0.3625  0.2368
  381TMC3    C1 5693   4.536   3.237  16.167  0.3598 -0.3277 -0.3595
  381TMC3    C2 5694   4.591   3.356  16.139 -0.6879 -0.3296  0.2432
  381TMC3    C3 5695   4.563   3.460  16.220 -0.3726 -0.7431  0.2112
  381TMC3    C4 5696   4.468   3.218  16.288 -0.6713 -0.1388  0.0791
  381TMC3    C5 5697   4.432   3.333  16.357  0.2319 -0.2982 -0.3459
  381TMC3    C6 5698   4.487   3.456  16.335  0.0950  0.6447  0.0128
  381TMC3     C 5699   4.583   3.126  16.097 -0.2439 -0.4038 -0.1666
  381TMC3     O 5700   4.567   3.022  16.158  0.6180 -0.2223  0.0293
  381TMC3     H 5701   4.660   3.364  16.057  1.6374  1.4998  2.3834
  381TMC3    H1 5702   4.422   3.125  16.320 -1.7388  0.1793 -0.5222
  381TMC3    H2 5703   4.459   3.543  16.393 -1.6131  0.7603 -1.0090
  381TMC3    C7 5704   4.383   3.304  16.490  0.6255 -0.7256  0.0237
  381TMC3    C8 5705   4.631   3.582  16.180  0.3694 -0.6897 -0.4112
  381TMC3    O1 5706   4.422   3.191  16.534  0.7971  0.6883  0.0325
  381TMC3    O2 5707   4.687   3.587  16.068  0.0891  0.6225  0.3776
  382MPD2     C 5708   3.674   1.020  16.979 -0.1620 -0.2100  0.3744
  382MPD2    C1 5709   3.691   0.986  17.110 -0.4942 -0.6952 -0.9143
  382MPD2    C2 5710   3.673   0.858  17.146  0.4177  0.1404 -0.2685
  382MPD2    C3 5711   3.616   0.768  17.062 -0.0344  0.5302  0.3172
  382MPD2    C4 5712   3.594   0.807  16.929 -0.2033 -0.0441  1.0101
  382MPD2    C5 5713   3.619   0.935  16.892 -0.0854  0.4690  0.2448
  382MPD2     H 5714   3.706   0.830  17.245 -0.7273  0.3817  0.1723
  382MPD2    H1 5715   3.551   0.741  16.854  1.3940 -2.0753  1.8853
  382MPD2    H2 5716   3.694   1.122  16.947  0.8115 -0.8749 -1.1372
  382MPD2    H3 5717   3.615   0.959  16.786  0.0520  3.5809  0.9495
  382MPD2     N 5718   3.585   0.638  17.098  0.7176 -0.2421  0.4103
  382MPD2    H5 5719   3.555   0.572  17.027 -1.5210  0.7924  0.3947
  382MPD2    N1 5720   3.741   1.073  17.209  0.0876  0.8722  0.7683
  382MPD2    H7 5721   3.738   1.039  17.304  0.2896 -0.9983  0.0937
  383TMC3    C1 5722   3.575   0.451  17.241  0.1842  0.0864  0.2564
  383TMC3    C2 5723   3.486   0.383  17.161  0.1870  0.1043  0.2804
  383TMC3    C3 5724   3.456   0.253  17.180  0.0314 -0.3091 -0.0199
  383TMC3    C4 5725   3.637   0.380  17.341 -0.6736  0.1954  0.1520
  383TMC3    C5 5726   3.606   0.248  17.363  0.0285  0.5983 -0.2490
  383TMC3    C6 5727   3.515   0.186  17.284  0.2949 -0.7391  0.3134
  383TMC3     C 5728   3.615   0.588  17.227  0.0675 -0.5554  0.5112
  383TMC3     O 5729   3.675   0.635  17.321  0.2889  0.5959 -0.3791
  383TMC3     H 5730   3.425   0.443  17.093  0.8017  1.5141  0.9631
  383TMC3    H1 5731   3.704   0.434  17.408  1.3148 -1.8606 -0.1964
  383TMC3    H2 5732   3.493   0.082  17.305 -2.5509 -0.6055 -2.1183
  383TMC3    C7 5733   3.654   0.173  17.477 -0.2043 -0.3665  0.1912
  383TMC3    C8 5734   3.327   0.212  17.130  0.5668 -0.2147  0.3190
  383TMC3    O1 5735   3.597   0.068  17.507  0.2054 -0.2692 -0.0185
  383TMC3    O2 5736   3.268   0.294  17.063 -0.1249  0.0875  0.5609
  384MPD2     C 5737   0.285   2.245  11.481  0.2832  0.1867  0.0584
  384MPD2    C1 5738   0.301   2.176  11.595  0.4682 -0.7214 -0.3870
  384MPD2    C2 5739   0.390   2.081  11.600 -0.0070  0.1540 -0.1403
  384MPD2    C3 5740   0.463   2.041  11.489 -0.2389 -0.5832  0.4196
  384MPD2    C4 5741   0.435   2.105  11.370  0.2210 -0.3974 -0.2270
  384MPD2    C5 5742   0.352   2.207  11.366  1.0449  0.3733 -0.6169
  384MPD2     H 5743   0.403   2.032  11.695  1.8261  2.2668  0.6864
  384MPD2    H1 5744   0.477   2.079  11.273  1.3136  0.7404 -0.0480
  384MPD2    H2 5745   0.226   2.336  11.478 -1.2889 -0.8946 -2.0301
  384MPD2    H3 5746   0.355   2.267  11.276 -1.2185 -1.7451 -2.0943
  384MPD2     N 5747   0.558   1.940  11.500  0.0194  0.2572  0.3516
  384MPD2    H5 5748   0.577   1.903  11.592  2.0752 -2.1148 -1.0092
  384MPD2    N1 5749   0.241   2.208  11.720  0.3189 -0.1004 -0.2099
  384MPD2    H7 5750   0.261   2.142  11.794  0.9360  0.1308 -0.1715
  385TMC3    C1 5751   0.740   1.796  11.463  0.4595 -0.1206 -0.3627
  385TMC3    C2 5752   0.721   1.673  11.407  0.2295  0.1841 -0.3086
  385TMC3    C3 5753   0.684   1.567  11.484  0.1375  0.2173 -0.4211
  385TMC3    C4 5754   0.733   1.801  11.602 -0.8132  0.2416 -0.0436
  385TMC3    C5 5755   0.696   1.692  11.677  0.6144 -0.2699 -0.0343
  385TMC3    C6 5756   0.671   1.570  11.620  0.9553  0.1165 -0.3129
  385TMC3     C 5757   0.646   1.888  11.405  0.2123  0.1985  0.2002
  385TMC3     O 5758   0.646   1.909  11.286 -0.0044  0.4627 -0.9544
  385TMC3     H 5759   0.724   1.681  11.299  1.8985  0.4880 -0.2415
  385TMC3    H1 5760   0.757   1.897  11.645  0.7748 -0.6300  1.0068
  385TMC3    H2 5761   0.656   1.478  11.674 -0.3966  0.2254 -0.4923
  385TMC3    C7 5762   0.616   1.737  11.785 -0.6114  0.3176  0.0349
  385TMC3    C8 5763   0.706   1.430  11.430  0.4559  0.1849  0.2351
  385TMC3    O1 5764   0.576   1.851  11.769  0.1993 -0.2782 -0.4135
  385TMC3    O2 5765   0.709   1.338  11.508  0.1842 -0.4331  0.8644
  386TMC3    C1 5766   0.684   4.301  11.696  0.1590 -0.1770 -0.3652
  386TMC3    C2 5767   0.639   4.251  11.570  0.0263 -0.6135 -0.3880
  386TMC3    C3 5768   0.531   4.313  11.520 -0.4135 -0.2988 -0.0071
  386TMC3    C4 5769   0.619   4.397  11.763 -0.1471  0.0005 -0.3510
  386TMC3    C5 5770   0.509   4.455  11.709  0.8191 -0.3354  0.1236
  386TMC3    C6 5771   0.469   4.412  11.584  0.2404 -0.1163  0.2079
  386TMC3     C 5772   0.796   4.240  11.753  0.0040 -0.1346 -0.6969
  386TMC3     O 5773   0.852   4.318  11.830  0.0142  0.0015  0.3716
  386TMC3     H 5774   0.694   4.172  11.521 -0.0329 -1.6596  1.2651
  386TMC3    H1 5775   0.658   4.438  11.856 -1.6388 -1.7544  1.0466
  386TMC3    H2 5776   0.376   4.453  11.545  0.1031 -0.8450 -0.2143
  386TMC3    C7 5777   0.429   4.551  11.784 -0.2703  0.3342  0.8886
  386TMC3    C8 5778   0.487   4.284  11.387  0.3359  0.1889  0.2283
  386TMC3    O1 5779   0.320   4.577  11.739  0.7328  0.2798 -0.5852
  386TMC3    O2 5780   0.397   4.353  11.342  0.0111  0.1798  0.1743
  387MPD2     C 5781   3.024   0.041   9.487  0.0695 -0.6416  0.4951
  387MPD2    C1 5782   3.159   0.018   9.519  1.0300  0.0689 -0.1231
  387MPD2    C2 5783   3.198   4.605   9.519  0.9850 -0.3570  0.2395
  387MPD2    C3 5784   3.106   4.513   9.528  0.0597  0.5932 -0.4867
  387MPD2    C4 5785   2.972   4.536   9.518  0.8012 -0.1256  0.1693
  387MPD2    C5 5786   2.932   4.656   9.484 -0.4705  0.1067  0.7452
  387MPD2     H 5787   3.303   4.578   9.521  1.1183  0.1710  0.3225
  387MPD2    H1 5788   2.898   4.457   9.526  0.4407  0.3529  1.4328
  387MPD2    H2 5789   2.991   0.143   9.471  1.6813 -0.2850 -0.5657
  387MPD2    H3 5790   2.827   4.676   9.465 -0.2353  0.5880 -0.0232
  387MPD2     N 5791   3.168   4.392   9.576 -0.2999 -0.0210 -0.0790
  387MPD2    H5 5792   3.269   4.391   9.586 -0.5253  1.0978  2.3914
  387MPD2    N1 5793   3.258   0.117   9.538  0.0488  0.4950  0.3424
  387MPD2    H7 5794   3.347   0.073   9.557  0.2529 -0.2548 -2.4086
  388TMC3    C1 5795   3.358   0.317   9.588  0.3328 -0.0471  0.3558
  388TMC3    C2 5796   3.393   0.438   9.526 -0.6372  0.0728 -0.1920
  388TMC3    C3 5797   3.523   0.480   9.536 -0.4239 -0.6270 -0.0622
  388TMC3    C4 5798   3.440   0.241   9.649 -0.2179  0.4161 -0.0137
  388TMC3    C5 5799   3.571   0.280   9.654  0.0663  0.4428 -0.7339
  388TMC3    C6 5800   3.613   0.401   9.598 -0.1145  0.2186  0.9690
  388TMC3     C 5801   3.243   0.253   9.542 -0.5707 -0.3287 -0.8871
  388TMC3     O 5802   3.148   0.316   9.499 -0.5139 -0.4792 -0.1194
  388TMC3     H 5803   3.316   0.483   9.466 -2.1636 -0.9245  1.0176
  388TMC3    H1 5804   3.420   0.149   9.704  1.6074 -0.9875 -1.6899
  388TMC3    H2 5805   3.717   0.433   9.603  0.3119 -0.6838 -2.2432
  388TMC3    C7 5806   3.666   0.206   9.740 -0.0242  0.1524 -0.3318
  388TMC3    C8 5807   3.558   0.610   9.483  0.1790  0.3349  0.1749
  388TMC3    O1 5808   3.707   0.264   9.839 -0.2033  0.1445  0.3641
  388TMC3    O2 5809   3.674   0.634   9.476  0.4619  0.3226 -0.2528
  389MPD2     C 5810   2.781   2.879  10.716  0.0877 -0.8034  0.0074
  389MPD2    C1 5811   2.679   2.801  10.668 -0.0154 -0.5110 -0.7094
  389MPD2    C2 5812   2.625   2.713  10.764 -0.6617 -0.1480  0.2025
  389MPD2    C3 5813   2.647   2.728  10.900  0.2640 -0.4974 -0.6590
  389MPD2    C4 5814   2.730   2.828  10.939 -0.0075  0.0690 -0.0954
  389MPD2    C5 5815   2.805   2.899  10.849 -0.5693  0.0730  0.5232
  389MPD2     H 5816   2.553   2.637  10.738 -2.9476  1.7243  1.0945
  389MPD2    H1 5817   2.741   2.838  11.046 -1.2119 -0.4501  0.0815
  389MPD2    H2 5818   2.832   2.942  10.644  1.1258 -0.2665  1.2192
  389MPD2    H3 5819   2.874   2.973  10.885 -0.1635  0.3015 -0.7251
  389MPD2     N 5820   2.585   2.652  11.003  0.5899 -0.7067 -0.0682
  389MPD2    H5 5821   2.601   2.684  11.098  0.8264  0.4965 -0.5115
  389MPD2    N1 5822   2.642   2.801  10.531 -0.9998 -0.2920 -0.1407
  389MPD2    H7 5823   2.706   2.850  10.469  0.1171  0.0893  1.3221
  390TMC3    C1 5824   2.437   2.515  11.129  0.0992  1.1453  0.0350
  390TMC3    C2 5825   2.304   2.476  11.123 -0.4480 -0.3596  0.0037
  390TMC3    C3 5826   2.212   2.517  11.224  0.2516 -0.1641 -0.4523
  390TMC3    C4 5827   2.478   2.602  11.226 -0.3554  0.5939 -0.2976
  390TMC3    C5 5828   2.386   2.634  11.326  0.3335 -0.4877 -0.0760
  390TMC3    C6 5829   2.258   2.592  11.328 -0.0840 -1.4475  0.2663
  390TMC3     C 5830   2.496   2.545  11.002  0.8301 -0.4550 -0.0425
  390TMC3     O 5831   2.436   2.501  10.903 -0.3805  0.6119 -0.3211
  390TMC3     H 5832   2.275   2.421  11.034  0.1618  0.1565 -0.5170
  390TMC3    H1 5833   2.581   2.617  11.256 -1.4904  1.9767  2.8836
  390TMC3    H2 5834   2.192   2.627  11.407 -0.6282  1.9919 -1.7272
  390TMC3    C7 5835   2.440   2.724  11.421 -0.0665  0.6755  0.2695
  390TMC3    C8 5836   2.065   2.494  11.206 -0.3394  0.9585  0.7042
  390TMC3    O1 5837   2.547   2.769  11.392  0.0258 -0.0074 -0.3073
  390TMC3    O2 5838   2.030   2.411  11.124 -0.3372 -0.5919 -0.2767
  391MPD2     C 5839   1.441   4.474  10.858 -0.2338  0.6620  0.4406
  391MPD2    C1 5840   1.534   4.576  10.833  0.3309  0.1809  0.7476
  391MPD2    C2 5841   1.579   4.605  10.704 -1.2329  0.1757 -0.3353
  391MPD2    C3 5842   1.514   4.537  10.598 -0.5244  0.4294  0.1349
  391MPD2    C4 5843   1.431   4.430  10.626  0.7072  0.2525 -0.1587
  391MPD2    C5 5844   1.404   4.389  10.755  0.2222  0.0120 -0.2316
  391MPD2     H 5845   1.649   4.680  10.671 -1.8342  0.0674 -1.8690
  391MPD2    H1 5846   1.398   4.357  10.552 -0.3547 -0.5359  1.0923
  391MPD2    H2 5847   1.396   4.445  10.952 -2.2357  0.7897 -0.4750
  391MPD2    H3 5848   1.341   4.303  10.771  0.0054 -0.0979 -1.6465
  391MPD2     N 5849   1.554   4.563  10.466  0.0952  0.2054 -0.2376
  391MPD2    H5 5850   1.632   4.626  10.456  1.0857 -1.0014 -0.0396
  391MPD2    N1 5851   1.598   4.652  10.936  0.0420 -0.1072 -0.5675
  391MPD2    H7 5852   1.645   0.019  10.903 -0.0121  0.3238  0.4150
  392TMC3    C1 5853   1.597   4.522  10.246  0.7924 -0.4434 -0.1429
  392TMC3    C2 5854   1.539   4.503  10.126 -0.1131  0.2362 -0.0790
  392TMC3    C3 5855   1.608   4.544  10.013 -0.2157  0.3277 -0.2398
  392TMC3    C4 5856   1.705   4.604  10.263  0.0932 -0.2098 -0.0518
  392TMC3    C5 5857   1.772   4.648  10.149  0.3100  0.1874 -0.0038
  392TMC3    C6 5858   1.722   4.616  10.025 -1.1651  0.1508 -0.1611
  392TMC3     C 5859   1.507   4.495  10.357 -0.6998  0.1398  0.1353
  392TMC3     O 5860   1.403   4.434  10.334  0.3539  0.1455  0.7415
  392TMC3     H 5861   1.441   4.456  10.126 -0.7456  1.5518  0.8169
  392TMC3    H1 5862   1.757   4.619  10.357 -1.6961  2.1414  0.5723
  392TMC3    H2 5863   1.765   4.654   9.933 -0.8159  0.9063  0.3144
  392TMC3    C7 5864   1.894   0.014  10.167 -0.3382 -0.3365 -0.2765
  392TMC3    C8 5865   1.528   4.537   9.894  0.0982  0.4881  0.5827
  392TMC3    O1 5866   1.928   0.047  10.282  0.1253 -0.5611 -0.5176
  392TMC3    O2 5867   1.437   4.453   9.892 -0.0415  0.3999  0.0238
  393TMC3    C1 5868   0.451   2.158  10.123 -0.0844  0.1531 -0.3656
  393TMC3    C2 5869   0.349   2.128  10.208 -0.1531  0.8405  0.1542
  393TMC3    C3 5870   0.386   2.062  10.321 -0.2619 -0.5913  0.6725
  393TMC3    C4 5871   0.580   2.133  10.151  0.2979 -0.2204 -0.2203
  393TMC3    C5 5872   0.614   2.075  10.272 -0.0844  0.9535 -0.3541
  393TMC3    C6 5873   0.511   2.028  10.355  0.0366  0.5231 -0.6302
  393TMC3     C 5874   0.425   2.252  10.018  0.0747  0.2326  0.1733
  393TMC3     O 5875   0.333   2.329  10.045 -0.1446  0.1097  0.3919
  393TMC3     H 5876   0.249   2.155  10.175  0.4656  1.5239 -1.1794
  393TMC3    H1 5877   0.655   2.173  10.084  1.1049 -1.0956  0.1581
  393TMC3    H2 5878   0.532   1.987  10.453 -0.4017  0.1237 -0.7065
  393TMC3    C7 5879   0.710   2.160  10.340 -0.1609 -0.5891 -0.1887
  393TMC3    C8 5880   0.292   2.061  10.421  0.3420  0.2506 -0.2587
  393TMC3    O1 5881   0.679   2.227  10.437 -0.5211  0.8609  0.6421
  393TMC3    O2 5882   0.295   1.965  10.491 -0.0025 -0.2522  0.4826
  394TMC3    C1 5883   2.508   2.769  10.336  0.1293 -0.2100 -0.4971
  394TMC3    C2 5884   2.410   2.708  10.273 -0.0164  0.1391 -0.0499
  394TMC3    C3 5885   2.350   2.773  10.168  1.2606 -0.0110 -0.0640
  394TMC3    C4 5886   2.556   2.895  10.301  0.9295  0.1093  0.2845
  394TMC3    C5 5887   2.486   2.964  10.198  0.2621 -0.0645  0.0767
  394TMC3    C6 5888   2.378   2.906  10.135 -0.4424  0.2267 -0.4208
  394TMC3     C 5889   2.533   2.734  10.474  0.1199  0.1913 -0.2227
  394TMC3     O 5890   2.453   2.659  10.526 -0.1224  0.6457 -0.1374
  394TMC3     H 5891   2.378   2.607  10.299  0.8016 -0.8599 -2.8896
  394TMC3    H1 5892   2.639   2.941  10.354  1.5059  1.1514 -1.5249
  394TMC3    H2 5893   2.322   2.967  10.066 -0.3504  1.8610  0.9549
  394TMC3    C7 5894   2.535   3.088  10.157 -0.4289  0.2861 -0.3447
  394TMC3    C8 5895   2.295   2.686  10.062 -0.6961  0.6255 -0.1872
  394TMC3    O1 5896   2.455   3.174  10.125  0.3336 -0.4550  0.1590
  394TMC3    O2 5897   2.202   2.720   9.985  0.4999 -0.2699  0.1207
  395TMC3    C1 5898   1.730   0.317  14.870  0.4144  0.3075 -0.4679
  395TMC3    C2 5899   1.653   0.281  14.766  0.3606 -0.7040 -0.5173
  395TMC3    C3 5900   1.692   0.305  14.638 -0.3445 -0.3766 -0.5904
  395TMC3    C4 5901   1.841   0.387  14.852  0.4452  0.4552 -0.6292
  395TMC3    C5 5902   1.879   0.420  14.723 -0.3997  0.6016  1.0157
  395TMC3    C6 5903   1.803   0.382  14.615  0.1762 -0.4184 -0.1217
  395TMC3     C 5904   1.718   0.257  15.000  0.6580 -0.0145 -0.5366
  395TMC3     O 5905   1.766   0.320  15.090 -0.5331  0.0363  0.6131
  395TMC3     H 5906   1.562   0.226  14.784  0.3911 -0.4743  0.3241
  395TMC3    H1 5907   1.912   0.413  14.930  0.0033 -0.1992 -0.0197
  395TMC3    H2 5908   1.831   0.386  14.510 -0.9138  0.1195 -0.3924
  395TMC3    C7 5909   2.009   0.468  14.705 -0.3998  0.0261  0.7272
  395TMC3    C8 5910   1.613   0.250  14.533 -0.1916 -0.4566  0.4858
  395TMC3    O1 5911   2.084   0.449  14.802  0.5080  0.0301 -0.0516
  395TMC3    O2 5912   1.602   0.320  14.429 -0.0205  0.3225  0.7291
  396MPD2     C 5913   2.137   0.741  17.176 -0.7891  0.6500  0.3871
  396MPD2    C1 5914   2.041   0.697  17.084 -0.4491  0.2053 -0.3310
  396MPD2    C2 5915   2.049   0.745  16.953  0.2490  0.6721  0.0108
  396MPD2    C3 5916   2.146   0.836  16.916  0.5221 -0.3564  0.6997
  396MPD2    C4 5917   2.235   0.881  17.009 -0.4016 -0.1798  0.0036
  396MPD2    C5 5918   2.235   0.827  17.135 -0.6597  0.0777 -0.2819
  396MPD2     H 5919   1.966   0.724  16.886 -0.0203  0.1052  0.5186
  396MPD2    H1 5920   2.315   0.950  16.986  0.0552 -1.3397 -1.8735
  396MPD2    H2 5921   2.133   0.722  17.282 -2.1318 -1.9483 -0.1289
  396MPD2    H3 5922   2.316   0.851  17.204 -1.2978 -0.6415  0.7148
  396MPD2     N 5923   2.132   0.886  16.784 -0.1437 -0.2899  0.7276
  396MPD2    H5 5924   2.054   0.848  16.731 -0.1119  0.2698  0.2776
  396MPD2    N1 5925   1.945   0.595  17.115  0.3431 -0.5341 -0.2904
  396MPD2    H7 5926   1.892   0.555  17.038  0.0620  0.4211 -0.5930
  397TMC3    C1 5927   1.807   0.453  17.254 -1.0432 -0.9593 -0.1047
  397TMC3    C2 5928   1.733   0.450  17.135 -0.5168  0.0346  0.2426
  397TMC3    C3 5929   1.705   0.333  17.074 -0.2715 -0.1841  0.0132
  397TMC3    C4 5930   1.831   0.339  17.322  0.2812  0.0307  0.6792
  397TMC3    C5 5931   1.794   0.218  17.259  0.1187 -0.0404 -0.3704
  397TMC3    C6 5932   1.732   0.216  17.135  0.2655 -0.6200  0.1467
  397TMC3     C 5933   1.921   0.544  17.243 -0.2922  0.1755  0.0393
  397TMC3     O 5934   1.986   0.564  17.346  0.3088 -0.1436 -0.1830
  397TMC3     H 5935   1.716   0.545  17.085 -2.1745 -0.2201  0.3276
  397TMC3    H1 5936   1.883   0.340  17.418  1.6426  1.9322 -0.0794
  397TMC3    H2 5937   1.710   0.115  17.100 -0.3452 -0.0120 -1.2195
  397TMC3    C7 5938   1.804   0.089  17.334  0.3688  0.3045  0.0447
  397TMC3    C8 5939   1.714   0.333  16.930 -0.6167 -0.3875  0.2242
  397TMC3    O1 5940   1.821   4.699  17.272  0.5964 -0.3965  0.2994
  397TMC3    O2 5941   1.737   0.442  16.875 -0.0270 -0.5743 -0.1140
  398MPD2     C 5942   0.090   1.512   0.381 -0.4486 -1.1902  0.4913
  398MPD2    C1 5943   0.206   1.435   0.358 -0.2808  0.8667  0.5918
  398MPD2    C2 5944   0.325   1.501   0.363  0.0752  0.0784 -0.0660
  398MPD2    C3 5945   0.333   1.636   0.409  0.1048 -0.5401  0.6232
  398MPD2    C4 5946   0.214   1.707   0.422 -0.4637  0.2728 -0.2595
  398MPD2    C5 5947   0.095   1.642   0.404 -0.6379 -0.3370 -0.6042
  398MPD2     H 5948   0.413   1.440   0.351  0.7445  0.6899  1.6800
  398MPD2    H1 5949   0.218   1.814   0.434 -1.0118  0.2270  0.3267
  398MPD2    H2 5950   4.705   1.477   0.363  0.5205 -3.4247 -0.5800
  398MPD2    H3 5951   4.715   1.691   0.406 -0.3860  0.0186  3.1537
  398MPD2     N 5952   0.453   1.698   0.431 -0.1738 -0.1332 -0.8511
  398MPD2    H5 5953   0.541   1.658   0.399 -0.1980  0.3465 -1.5093
  398MPD2    N1 5954   0.207   1.301   0.317  0.4218 -0.4155 -0.0881
  398MPD2    H7 5955   0.292   1.270   0.271  0.1387 -1.2459 -0.0621
  399TMC3    C1 5956   0.125   1.093   0.257 -0.0198 -0.2258 -0.1899
  399TMC3    C2 5957   0.209   1.084   0.147 -0.0690 -0.0471 -0.2191
  399TMC3    C3 5958   0.216   0.963   0.088  0.4949 -0.2848 -0.0505
  399TMC3    C4 5959   0.071   0.984   0.314 -0.0849  0.1680 -0.4223
  399TMC3    C5 5960   0.074   0.867   0.245  0.3190  0.9933 -0.1085
  399TMC3    C6 5961   0.155   0.853   0.138 -0.6323  0.0777  0.4673
  399TMC3     C 5962   0.100   1.220   0.314 -0.5500 -0.2637 -0.1627
  399TMC3     O 5963   4.712   1.218   0.383 -0.2790  1.0399 -0.0753
  399TMC3     H 5964   0.255   1.169   0.097  1.5584 -1.0640 -0.4690
  399TMC3    H1 5965   0.020   0.995   0.409  0.9091 -0.4090  0.1799
  399TMC3    H2 5966   0.159   0.761   0.081  3.5912 -1.2632  2.9009
  399TMC3    C7 5967   0.000   0.746   0.282  0.0562 -1.0794  0.9599
  399TMC3    C8 5968   0.325   0.946  17.661 -0.0546 -0.4365  0.1741
  399TMC3    O1 5969   0.022   0.649   0.211 -0.0313  0.4700  0.0258
  399TMC3    O2 5970   0.416   1.029   0.007  0.7756  0.4893  0.8794
  400TMC3    C1 5971   3.364   0.013  16.774 -0.2376 -1.0804  0.2277
  400TMC3    C2 5972   3.281   4.640  16.714  0.6749 -0.2616  0.6590
  400TMC3    C3 5973   3.182   4.690  16.639  0.8032 -0.3219  1.1631
  400TMC3    C4 5974   3.343   0.148  16.773  0.7146  0.0379  0.9334
  400TMC3    C5 5975   3.234   0.190  16.695  0.5949 -0.1959  0.2384
  400TMC3    C6 5976   3.155   0.105  16.626  0.0505 -0.0389 -0.6326
  400TMC3     C 5977   3.448   4.675  16.871 -0.7820 -0.2478  0.1344
  400TMC3     O 5978   3.420   4.556  16.890 -0.7660 -0.4740 -0.4914
  400TMC3     H 5979   3.315   4.539  16.697 -0.2007 -0.6706  1.3577
  400TMC3    H1 5980   3.399   0.223  16.828  1.4722  0.8759 -0.9615
  400TMC3    H2 5981   3.072   0.139  16.565  0.0993  0.4257 -0.4381
  400TMC3    C7 5982   3.207   0.330  16.687 -0.0723 -0.0761 -0.9430
  400TMC3    C8 5983   3.086   4.599  16.588  0.1047  0.6439 -0.6104
  400TMC3    O1 5984   3.152   0.364  16.584  0.8261 -0.7367  0.4564
  400TMC3    O2 5985   3.015   4.626  16.492 -0.1560 -0.0379  0.7044
  401MPD2     C 5986   2.138   3.684   1.176 -0.4919  0.1968 -1.1087
  401MPD2    C1 5987   2.243   3.671   1.265  0.4475  0.0529  0.7848
  401MPD2    C2 5988   2.294   3.554   1.309  0.1517  0.8033  0.0218
  401MPD2    C3 5989   2.243   3.432   1.266 -0.2160 -0.4302 -1.0690
  401MPD2    C4 5990   2.145   3.443   1.169  0.0182 -0.1568  0.3905
  401MPD2    C5 5991   2.090   3.564   1.126 -0.5969 -0.4349 -0.0964
  401MPD2     H 5992   2.377   3.548   1.379  0.3439  0.0534 -0.2724
  401MPD2    H1 5993   2.116   3.351   1.120  0.0402  0.2204 -0.3214
  401MPD2    H2 5994   2.105   3.779   1.136  1.7224  0.7108 -1.7170
  401MPD2    H3 5995   2.012   3.569   1.051 -1.7429 -0.0359  1.1159
  401MPD2     N 5996   2.302   3.306   1.302  0.3473 -0.2728  0.2955
  401MPD2    H5 5997   2.363   3.305   1.383  0.7830  1.0443 -0.0165
  401MPD2    N1 5998   2.315   3.780   1.322  0.0225  0.3331  0.4519
  401MPD2    H7 5999   2.407   3.763   1.361  0.1669  0.7484  0.2983
  402TMC3    C1 6000   2.367   3.082   1.273 -0.0597 -0.7817  0.5025
  402TMC3    C2 6001   2.334   3.031   1.399 -0.6777  0.0467  0.1358
  402TMC3    C3 6002   2.361   2.898   1.420 -0.0943  0.3029 -0.0200
  402TMC3    C4 6003   2.431   3.002   1.178  0.0619 -0.5169 -0.0128
  402TMC3    C5 6004   2.449   2.875   1.219  0.1350  0.2609  0.1817
  402TMC3    C6 6005   2.420   2.814   1.332 -0.9968  0.5606 -0.0225
  402TMC3     C 6006   2.296   3.195   1.223 -0.2138  0.0983 -0.2527
  402TMC3     O 6007   2.263   3.177   1.104  0.6259 -0.0834  0.3929
  402TMC3     H 6008   2.295   3.097   1.475  2.2952 -0.6799  2.2796
  402TMC3    H1 6009   2.438   3.036   1.075 -1.8257  0.6941  0.2453
  402TMC3    H2 6010   2.448   2.713   1.358 -0.2154  0.7395 -0.1885
  402TMC3    C7 6011   2.510   2.785   1.118  0.7376 -0.3331 -0.4991
  402TMC3    C8 6012   2.304   2.834   1.540  0.2924 -0.1105 -0.0581
  402TMC3    O1 6013   2.492   2.662   1.135  0.3079 -0.4612  0.4042
  402TMC3    O2 6014   2.330   2.719   1.561  0.0057  0.2445  0.4529
  403MPD2     C 6015   0.347   2.479  13.071  0.1492 -0.3634  0.5010
  403MPD2    C1 6016   0.331   2.384  13.167 -0.3269 -0.4039 -0.5828
  403MPD2    C2 6017   0.387   2.398  13.293  0.5728 -0.3543  0.7996
  403MPD2    C3 6018   0.474   2.504  13.320 -0.6459 -0.3174 -0.2135
  403MPD2    C4 6019   0.487   2.600  13.222 -0.4886  0.1620  0.0988
  403MPD2    C5 6020   0.422   2.585  13.100  0.0134 -0.3225 -0.0479
  403MPD2     H 6021   0.372   2.326  13.373  0.9944 -0.6289  0.6281
  403MPD2    H1 6022   0.553   2.685  13.234 -0.3330  0.4230 -2.5774
  403MPD2    H2 6023   0.310   2.475  12.969 -0.1284  0.4223  0.5700
  403MPD2    H3 6024   0.450   2.653  13.022 -1.5841  1.3743  0.8463
  403MPD2     N 6025   0.544   2.505  13.445 -0.3990  0.1284  0.3620
  403MPD2    H5 6026   0.553   2.417  13.494  0.7397  0.4907  0.8129
  403MPD2    N1 6027   0.224   2.295  13.139  0.3998  0.3858  0.8360
  403MPD2    H7 6028   0.159   2.322  13.066  2.5255  2.3960 -0.3211
  404TMC3    C1 6029   0.061   2.136  13.201 -0.3874 -0.8185 -0.6422
  404TMC3    C2 6030   0.031   2.013  13.252  0.9453  0.2164 -0.2118
  404TMC3    C3 6031   4.639   1.940  13.210  0.4394 -0.2901  0.4336
  404TMC3    C4 6032   4.689   2.196  13.115 -0.3179  0.2317 -0.3032
  404TMC3    C5 6033   4.593   2.115  13.067 -0.4175  0.0409 -0.2635
  404TMC3    C6 6034   4.567   1.984  13.104  0.1089 -0.1604 -0.2884
  404TMC3     C 6035   0.192   2.194  13.226 -0.5425 -0.9568 -1.0655
  404TMC3     O 6036   0.256   2.136  13.312  0.0582  0.2797 -0.1173
  404TMC3     H 6037   0.104   1.969  13.319 -0.6613 -0.5752  1.0308
  404TMC3    H1 6038   4.691   2.302  13.092  1.2983  0.3713  0.5390
  404TMC3    H2 6039   4.484   1.924  13.068  0.6395 -1.6807  1.0392
  404TMC3    C7 6040   4.524   2.169  12.953  0.1743 -0.2423  0.1948
  404TMC3    C8 6041   4.615   1.809  13.257  0.3842  0.4795  0.6087
  404TMC3    O1 6042   4.499   2.290  12.963 -0.2473  0.4637  0.1917
  404TMC3    O2 6043   4.618   1.731  13.165  0.5882  0.2153 -0.1051
  405MPD2     C 6044   0.393   2.650  14.345 -0.0650  0.8297 -0.4047
  405MPD2    C1 6045   0.319   2.537  14.312 -0.2760  0.1867 -0.5054
  405MPD2    C2 6046   0.252   2.533  14.194 -0.1231  0.2869 -0.3841
  405MPD2    C3 6047   0.262   2.625  14.089 -0.0510  0.5144 -0.3167
  405MPD2    C4 6048   0.337   2.732  14.128 -0.5987  0.1368 -0.3372
  405MPD2    C5 6049   0.397   2.745  14.250  1.0570  0.1455  0.2469
  405MPD2     H 6050   0.188   2.446  14.185 -0.2530  0.4201 -0.7476
  405MPD2    H1 6051   0.361   2.818  14.066 -1.1367 -0.0312 -0.7826
  405MPD2    H2 6052   0.430   2.666  14.445  1.3369 -2.8575 -0.3662
  405MPD2    H3 6053   0.424   2.845  14.282  2.3534  0.3166 -1.3487
  405MPD2     N 6054   0.183   2.608  13.977 -0.9089  0.0252  0.3973
  405MPD2    H5 6055   0.130   2.522  13.967 -1.6842  0.4633  0.7567
  405MPD2    N1 6056   0.303   2.420  14.394  0.4053  0.4520  0.0366
  405MPD2    H7 6057   0.250   2.344  14.353  0.2218  0.5729  0.0508
  406TMC3    C1 6058   4.559   2.803  13.751  0.5660  0.1394  0.1384
  406TMC3    C2 6059   4.496   2.683  13.771 -1.0921  1.1045  0.2233
  406TMC3    C3 6060   4.560   2.567  13.794 -0.4170 -0.5342 -0.3952
  406TMC3    C4 6061   4.697   2.802  13.784 -0.0771 -0.0628 -0.2964
  406TMC3    C5 6062   0.046   2.683  13.808  0.1286  0.5732 -0.5604
  406TMC3    C6 6063   4.698   2.563  13.813  0.4751 -0.5809 -0.0166
  406TMC3     C 6064   4.489   2.919  13.790 -0.0321  0.1346  0.9322
  406TMC3     O 6065   4.542   3.021  13.757  0.6778  0.1692 -0.5600
  406TMC3     H 6066   4.391   2.673  13.747 -0.9053 -3.1354  1.2306
  406TMC3    H1 6067   0.024   2.901  13.797  0.8005 -0.5092  0.1318
  406TMC3    H2 6068   0.048   2.478  13.806  0.3222 -0.6470 -0.6782
  406TMC3    C7 6069   0.175   2.701  13.880 -0.3378 -0.0800 -0.2394
  406TMC3    C8 6070   4.490   2.458  13.857 -0.0152 -1.0106  0.5196
  406TMC3    O1 6071   0.238   2.803  13.858  0.1812  0.0325 -0.1553
  406TMC3    O2 6072   4.370   2.465  13.862 -0.5141 -0.0877  0.2579
  407MPD2     C 6073   3.024   4.055  10.053 -0.4721  0.6199  0.5860
  407MPD2    C1 6074   2.988   4.157   9.975  0.2432  0.1761  0.4960
  407MPD2    C2 6075   3.051   4.282   9.985  0.5348 -0.3307 -0.0541
  407MPD2    C3 6076   3.156   4.295  10.073  0.1525  0.1005 -0.5410
  407MPD2    C4 6077   3.193   4.177  10.145 -0.1078  0.2021  0.0086
  407MPD2    C5 6078   3.134   4.060  10.127  0.4984 -0.4508 -1.0763
  407MPD2     H 6079   3.014   4.364   9.925 -0.5398 -1.6629 -1.2054
  407MPD2    H1 6080   3.255   4.178  10.234  0.4691 -2.3849 -0.3701
  407MPD2    H2 6081   2.981   3.955  10.050 -1.6798  1.1312  1.1081
  407MPD2    H3 6082   3.156   3.977  10.194 -0.7600 -1.0078 -1.3432
  407MPD2     N 6083   3.223   4.419  10.108 -0.7110  0.2644 -0.2675
  407MPD2    H5 6084   3.299   4.416  10.175  0.0036 -1.4483 -1.1719
  407MPD2    N1 6085   2.889   4.139   9.874 -0.1754  0.4695  1.0135
  407MPD2    H7 6086   2.869   4.224   9.823 -0.7778 -0.6974 -0.6869
  408TMC3    C1 6087   2.755   4.034   9.705 -0.1289 -0.1987 -0.3503
  408TMC3    C2 6088   2.811   3.954   9.608  1.1675 -0.5927 -0.4094
  408TMC3    C3 6089   2.788   3.998   9.477  0.5610  0.2578  0.1143
  408TMC3    C4 6090   2.693   4.156   9.679 -0.1001 -0.0963 -0.1614
  408TMC3    C5 6091   2.681   4.195   9.555  0.0167 -0.4052 -0.4109
  408TMC3    C6 6092   2.722   4.114   9.449  0.0310 -0.3900  0.8453
  408TMC3     C 6093   2.835   4.021   9.829  1.0613  0.0774 -0.1667
  408TMC3     O 6094   2.854   3.907   9.872 -0.1164 -0.6894 -0.2899
  408TMC3     H 6095   2.879   3.874   9.636  0.8661 -0.8028 -0.2781
  408TMC3    H1 6096   2.674   4.216   9.767  0.2195  1.6252 -1.2872
  408TMC3    H2 6097   2.717   4.155   9.349 -0.3759  2.4904  2.0468
  408TMC3    C7 6098   2.637   4.332   9.525 -0.5601 -0.1894 -0.0994
  408TMC3    C8 6099   2.885   3.957   9.375  0.8036 -0.0229  0.4649
  408TMC3    O1 6100   2.636   4.361   9.408 -0.1232 -0.5601  0.7977
  408TMC3    O2 6101   2.858   3.977   9.257  0.3757  0.2569 -0.0401
  409MPD2     C 6102   2.548   4.038  16.439 -0.5482 -0.2273  0.2484
  409MPD2    C1 6103   2.570   4.090  16.562  0.5628  0.5375  0.7941
  409MPD2    C2 6104   2.600   4.224  16.583 -0.4361 -0.0717  0.6308
  409MPD2    C3 6105   2.605   4.306  16.475  0.5989  0.0363 -0.2884
  409MPD2    C4 6106   2.570   4.257  16.352 -0.0744  0.3118 -0.0709
  409MPD2    C5 6107   2.550   4.124  16.329  0.4919 -0.1539  0.1874
  409MPD2     H 6108   2.602   4.264  16.684  4.1013 -0.1698  0.5882
  409MPD2    H1 6109   2.568   4.325  16.267 -0.1730  1.0579  0.5331
  409MPD2    H2 6110   2.523   3.933  16.428 -1.0670 -0.0952  0.1637
  409MPD2    H3 6111   2.526   4.084  16.231  0.4753  1.0967 -0.3178
  409MPD2     N 6112   2.614   4.452  16.499  0.3043 -0.3051  0.8534
  409MPD2    H5 6113   2.583   4.499  16.415  0.2539 -1.7555  0.0644
  409MPD2    N1 6114   2.582   4.010  16.681 -0.3438 -0.3563 -0.4078
  409MPD2    H7 6115   2.596   4.062  16.767  2.0576  1.4180 -1.8943
  410TMC3    C1 6116   2.632   4.656  16.613 -0.0219 -0.0843  0.2893
  410TMC3    C2 6117   2.685   4.705  16.726 -0.1572  0.3137 -0.1790
  410TMC3    C3 6118   2.762   0.105  16.720  0.2566 -0.1553  0.5768
  410TMC3    C4 6119   2.660   4.709  16.492  0.5232 -1.0979  0.1199
  410TMC3    C5 6120   2.727   0.112  16.496  0.4396 -0.3124  0.2407
  410TMC3    C6 6121   2.789   0.168  16.604 -0.3893 -0.2953 -0.0928
  410TMC3     C 6122   2.645   4.514  16.617 -0.8251  0.0828  0.0317
  410TMC3     O 6123   2.699   4.475  16.719  0.2696 -0.0916 -0.1655
  410TMC3     H 6124   2.658   4.661  16.821 -3.1074 -0.7027 -1.5136
  410TMC3    H1 6125   2.615   4.674  16.400  3.2571 -2.1277 -0.8367
  410TMC3    H2 6126   2.855   0.254  16.596  0.1297 -0.5033  1.9953
  410TMC3    C7 6127   2.745   0.171  16.374  0.4010 -0.3662 -0.4191
  410TMC3    C8 6128   2.865   0.133  16.822  0.0924  0.2575 -0.1649
  410TMC3    O1 6129   2.754   0.100  16.273  0.1506  0.5093  0.5876
  410TMC3    O2 6130   2.938   0.230  16.818 -0.2099 -0.7966  0.0733
  411MPD2     C 6131   2.880   0.992  14.418 -0.4193 -0.3039 -0.2074
  411MPD2    C1 6132   2.776   1.041  14.344 -0.1202 -0.0632  0.5064
  411MPD2    C2 6133   2.713   0.961  14.255  0.0779 -0.1366 -0.5253
  411MPD2    C3 6134   2.749   0.833  14.245 -0.4384  0.4055  0.5244
  411MPD2    C4 6135   2.847   0.781  14.328  0.0378 -0.3652 -0.3833
  411MPD2    C5 6136   2.924   0.865  14.409  0.4811 -0.1626 -0.5690
  411MPD2     H 6137   2.636   1.001  14.191  1.1539  2.0558 -0.4649
  411MPD2    H1 6138   2.875   0.676  14.325 -1.7082 -0.8061 -1.5284
  411MPD2    H2 6139   2.917   1.058  14.497 -0.8895 -0.9017  0.5133
  411MPD2    H3 6140   3.001   0.829  14.477  0.6510 -0.1308 -0.7460
  411MPD2     N 6141   2.672   0.731  14.176  0.5531 -0.5572  0.7337
  411MPD2    H5 6142   2.694   0.633  14.185  0.2044 -0.5738  1.4577
  411MPD2    N1 6143   2.734   1.174  14.361 -0.3501 -0.1648  0.4135
  411MPD2    H7 6144   2.788   1.214  14.437  0.3467  0.4492 -0.4066
  412TMC3    C1 6145   2.525   0.631  14.022 -0.0699  0.4439 -0.2066
  412TMC3    C2 6146   2.405   0.636  13.949 -0.1058  0.1118 -0.3896
  412TMC3    C3 6147   2.367   0.524  13.872 -0.0473 -0.9776  0.5614
  412TMC3    C4 6148   2.610   0.520  14.007  0.2054  0.2229 -0.8366
  412TMC3    C5 6149   2.571   0.417  13.928  0.2471  0.0805 -0.7426
  412TMC3    C6 6150   2.452   0.412  13.864 -0.1793  0.2233 -0.0910
  412TMC3     C 6151   2.575   0.754  14.084 -1.0167  0.0073 -0.0587
  412TMC3     O 6152   2.510   0.858  14.069 -0.0670 -0.1425 -0.4290
  412TMC3     H 6153   2.345   0.726  13.955  1.3718  0.9904  1.2693
  412TMC3    H1 6154   2.715   0.529  14.031  0.0350  0.3615 -0.1252
  412TMC3    H2 6155   2.411   0.329  13.808 -1.0457  0.1313  0.6953
  412TMC3    C7 6156   2.678   0.377  13.840  0.1198  0.7751  0.2578
  412TMC3    C8 6157   2.294   0.553  13.750 -0.3253  0.5513 -0.3002
  412TMC3    O1 6158   2.786   0.349  13.895 -0.1149  0.1941 -0.2476
  412TMC3    O2 6159   2.329   0.489  13.651 -0.1232 -0.0194 -0.5029
  413MPD2     C 6160   4.080   3.682  15.801 -0.7979  0.0963  0.4310
  413MPD2    C1 6161   3.999   3.637  15.700  0.2639  0.2720 -0.0144
  413MPD2    C2 6162   4.055   3.562  15.597  0.2184 -0.0849 -0.1102
  413MPD2    C3 6163   4.190   3.532  15.598 -0.3646  0.0761 -0.6401
  413MPD2    C4 6164   4.266   3.590  15.700 -0.5008 -0.1623  0.0215
  413MPD2    C5 6165   4.217   3.661  15.803  0.2057 -0.1859 -0.4005
  413MPD2     H 6166   3.984   3.534  15.519  2.0144 -1.5619 -1.2309
  413MPD2    H1 6167   4.374   3.584  15.700 -0.4337  1.2625  0.6214
  413MPD2    H2 6168   4.033   3.750  15.872  1.5536  1.6079  0.5506
  413MPD2    H3 6169   4.280   3.697  15.884  2.0006 -2.0901 -0.9437
  413MPD2     N 6170   4.245   3.461  15.487  0.1728 -0.3175  0.1840
  413MPD2    H5 6171   4.183   3.424  15.416  0.3376 -1.3081  0.5565
  413MPD2    N1 6172   3.860   3.660  15.706 -0.1798  0.2352 -0.4336
  413MPD2    H7 6173   3.840   3.739  15.767  1.0644  0.7288 -0.6653
  414TMC3    C1 6174   4.405   3.362  15.350  0.2213  0.2139  0.4025
  414TMC3    C2 6175   4.489   3.256  15.361 -0.0066 -0.3098  0.6893
  414TMC3    C3 6176   4.520   3.180  15.251  0.4729 -0.8762 -0.6829
  414TMC3    C4 6177   4.354   3.398  15.227  0.9003 -0.9310 -0.0003
  414TMC3    C5 6178   4.373   3.313  15.126 -0.7044  0.2904  0.8774
  414TMC3    C6 6179   4.451   3.204  15.138  0.0934 -0.1669  0.5102
  414TMC3     C 6180   4.380   3.430  15.474 -0.2315  1.0343  0.0187
  414TMC3     O 6181   4.468   3.433  15.558 -0.1620 -0.0890 -0.5148
  414TMC3     H 6182   4.528   3.234  15.459 -0.4211 -3.4818  0.1285
  414TMC3    H1 6183   4.310   3.497  15.235 -0.9801 -1.7279 -0.4338
  414TMC3    H2 6184   4.461   3.133  15.056  1.9130  0.0747  0.5159
  414TMC3    C7 6185   4.384   3.390  14.999 -0.4253 -0.0538  0.0152
  414TMC3    C8 6186   4.660   3.147  15.229 -0.2693 -0.4244  0.4163
  414TMC3    O1 6187   4.312   3.488  14.990  0.1660 -0.5711  0.4241
  414TMC3    O2 6188   4.682   3.063  15.148 -0.8455 -0.2614 -0.0022
  415TMC3    C1 6189   4.657   1.538   9.949  0.3073  0.2305 -0.1291
  415TMC3    C2 6190   4.616   1.667   9.914 -0.2766  0.3574 -0.1747
  415TMC3    C3 6191   4.484   1.697   9.907 -0.2786 -0.7305  0.4106
  415TMC3    C4 6192   4.560   1.441   9.971 -0.2866  0.2361  0.2691
  415TMC3    C5 6193   4.428   1.474   9.956 -0.5718  0.5421  0.6038
  415TMC3    C6 6194   4.392   1.594   9.924  0.2937  0.3201 -0.3924
  415TMC3     C 6195   0.077   1.505   9.986 -0.0920 -0.0306 -0.4912
  415TMC3     O 6196   0.083   1.396  10.041 -0.4208  0.3818 -0.0069
  415TMC3     H 6197   4.687   1.749   9.915 -0.6723  0.6908  0.4063
  415TMC3    H1 6198   4.587   1.337   9.983  3.0200  0.7177 -2.8756
  415TMC3    H2 6199   4.288   1.623   9.924  0.2644  0.2148  0.9999
  415TMC3    C7 6200   4.322   1.370   9.973  0.7494 -0.1093  0.2823
  415TMC3    C8 6201   4.441   1.827   9.865 -0.1853 -0.9275 -0.6483
  415TMC3    O1 6202   4.219   1.374   9.908 -1.0263 -0.0683  0.4375
  415TMC3    O2 6203   4.337   1.864   9.914  0.1744 -0.0240  0.7136
  416MPD2     C 6204   2.084   1.247  11.101 -0.3666  0.4392  0.1131
  416MPD2    C1 6205   1.987   1.187  11.183  0.0712 -0.0149 -0.8530
  416MPD2    C2 6206   1.931   1.065  11.150 -0.1465 -0.0648  0.5687
  416MPD2    C3 6207   1.970   0.998  11.033 -0.4766  0.6907  0.1488
  416MPD2    C4 6208   2.080   1.050  10.961  0.0832  1.0465 -0.1347
  416MPD2    C5 6209   2.122   1.179  10.985  0.4605 -0.2441 -0.4182
  416MPD2     H 6210   1.848   1.028  11.209 -0.4889  1.5125  1.0838
  416MPD2    H1 6211   2.117   0.982  10.884 -0.3497  0.7049 -0.0423
  416MPD2    H2 6212   2.118   1.347  11.125  0.8533 -0.4892  2.2416
  416MPD2    H3 6213   2.202   1.224  10.927  0.4650  1.2245  0.7229
  416MPD2     N 6214   1.918   0.866  11.011 -0.0171  0.5072 -0.2417
  416MPD2    H5 6215   1.868   0.830  11.092  0.4727 -1.6238 -0.9037
  416MPD2    N1 6216   1.937   1.264  11.293 -0.2199  0.0412  0.2393
  416MPD2    H7 6217   1.967   1.361  11.297 -3.0360  0.9127  0.8208
  417TMC3    C1 6218   1.765   1.335  11.442  0.3158  0.2239 -0.1140
  417TMC3    C2 6219   1.713   1.323  11.568 -0.0848 -0.0967 -0.0633
  417TMC3    C3 6220   1.596   1.388  11.602  0.4832  0.0865  0.2182
  417TMC3    C4 6221   1.706   1.421  11.353  0.1999  0.1239  0.1852
  417TMC3    C5 6222   1.587   1.481  11.387 -0.1043 -0.4901  0.4928
  417TMC3    C6 6223   1.531   1.464  11.510 -0.4462 -0.1834  0.8245
  417TMC3     C 6224   1.847   1.226  11.392  0.1790 -0.1615  0.5751
  417TMC3     O 6225   1.822   1.111  11.427  0.6582 -0.3365  0.6010
  417TMC3     H 6226   1.768   1.251  11.628 -0.3982  0.4516  0.8829
  417TMC3    H1 6227   1.737   1.435  11.250  0.4210 -2.1304 -0.0639
  417TMC3    H2 6228   1.445   1.519  11.549 -0.4697 -0.3836  1.0518
  417TMC3    C7 6229   1.518   1.515  11.266 -0.6458  0.8152  0.1670
  417TMC3    C8 6230   1.534   1.357  11.732  0.2915 -1.0223 -0.1471
  417TMC3    O1 6231   1.557   1.603  11.194  0.0640 -0.0043  1.1845
  417TMC3    O2 6232   1.433   1.420  11.763  0.3252  0.5518 -0.5866
  418TMC3    C1 6233   0.797   1.766   0.414  0.5118 -0.5471 -0.3366
  418TMC3    C2 6234   0.678   1.842   0.430  0.2508  0.0978 -0.6180
  418TMC3    C3 6235   0.602   1.834   0.540 -0.6066  0.5008 -0.1414
  418TMC3    C4 6236   0.839   1.682   0.522 -0.3296  0.4222 -0.1161
  418TMC3    C5 6237   0.762   1.678   0.629 -0.1025 -0.1794 -0.1866
  418TMC3    C6 6238   0.640   1.749   0.636  0.3752  0.0291  0.7139
  418TMC3     C 6239   0.883   1.790   0.300 -0.1457  0.1246 -0.0159
  418TMC3     O 6240   0.883   1.900   0.244 -0.3935 -0.3292 -0.1619
  418TMC3     H 6241   0.639   1.900   0.348 -0.1414  2.7120  1.4178
  418TMC3    H1 6242   0.925   1.619   0.502 -0.6125 -0.4461  1.3705
  418TMC3    H2 6243   0.563   1.737   0.712 -0.8290  0.4516 -0.4312
  418TMC3    C7 6244   0.752   1.543   0.679  0.1976 -0.9757  0.2296
  418TMC3    C8 6245   0.464   1.804   0.516 -0.7126  0.5601  0.1689
  418TMC3    O1 6246   0.641   1.504   0.700 -0.1604 -0.0314 -0.1023
  418TMC3    O2 6247   0.392   1.841   0.605  0.4444 -0.5001 -0.5242
  419MPD2     C 6248   3.723   0.685  12.027  0.3397 -0.2281  0.4747
  419MPD2    C1 6249   3.665   0.813  12.004  0.2010 -0.5797 -0.0399
  419MPD2    C2 6250   3.651   0.903  12.103  0.1086 -0.1935  0.7937
  419MPD2    C3 6251   3.697   0.885  12.230 -0.1446  0.0364  1.5464
  419MPD2    C4 6252   3.743   0.763  12.262 -0.6594  0.4062 -0.0089
  419MPD2    C5 6253   3.761   0.667  12.162  0.4141  0.3963 -0.1238
  419MPD2     H 6254   3.608   0.998  12.074  0.9942 -0.0323 -0.0045
  419MPD2    H1 6255   3.797   0.747  12.355 -0.4642 -0.4394 -0.2642
  419MPD2    H2 6256   3.752   0.613  11.952 -3.2904 -1.2144  0.0455
  419MPD2    H3 6257   3.819   0.577  12.181 -0.7984  0.2692  2.7973
  419MPD2     N 6258   3.677   0.995  12.321  0.1176 -0.1398  0.2230
  419MPD2    H5 6259   3.656   1.089  12.290  1.5972  0.5607  1.3503
  419MPD2    N1 6260   3.626   0.858  11.870  0.4196  0.6716  0.5251
  419MPD2    H7 6261   3.591   0.953  11.868 -1.6248 -0.0846  0.9725
  420TMC3    C1 6262   3.720   1.110  12.520 -0.2198 -0.1339 -0.3577
  420TMC3    C2 6263   3.632   1.208  12.495  0.2127 -0.8491 -0.5034
  420TMC3    C3 6264   3.616   1.311  12.575 -0.1109  0.5725 -0.6378
  420TMC3    C4 6265   3.801   1.118  12.629 -0.9186  0.2667  0.4027
  420TMC3    C5 6266   3.792   1.226  12.713 -0.1811 -0.5390 -0.1718
  420TMC3    C6 6267   3.693   1.323  12.689 -0.0395 -0.1038  0.8454
  420TMC3     C 6268   3.698   0.986  12.454 -1.2447  0.4596  0.0183
  420TMC3     O 6269   3.731   0.882  12.520  0.5858  0.0968  0.1044
  420TMC3     H 6270   3.560   1.195  12.414  0.2936 -1.0925 -0.5366
  420TMC3    H1 6271   3.878   1.042  12.637 -1.9476 -0.7214  0.8780
  420TMC3    H2 6272   3.669   1.394  12.768 -2.9620  0.0568 -0.1818
  420TMC3    C7 6273   3.857   1.210  12.846 -0.3769  0.7224 -0.1033
  420TMC3    C8 6274   3.486   1.390  12.556 -0.5197 -0.3574  0.0095
  420TMC3    O1 6275   3.904   1.102  12.876  0.3535  0.0328 -0.0570
  420TMC3    O2 6276   3.504   1.505  12.512 -0.2167 -0.0959  0.2278
  421TMC3    C1 6277   0.741   2.558  13.570  0.5717 -0.0748 -0.5134
  421TMC3    C2 6278   0.790   2.647  13.665 -0.4681 -0.4474  0.0833
  421TMC3    C3 6279   0.897   2.604  13.742 -0.1447  0.3123 -0.0861
  421TMC3    C4 6280   0.792   2.432  13.560  0.4045  0.5894  0.1363
  421TMC3    C5 6281   0.909   2.403  13.632 -0.5142  1.3394 -0.4184
  421TMC3    C6 6282   0.958   2.482  13.733  0.4799 -0.1820  0.3686
  421TMC3     C 6283   0.636   2.606  13.480  0.0036  0.4702 -0.4813
  421TMC3     O 6284   0.630   2.727  13.455 -0.1704  0.5808 -0.5928
  421TMC3     H 6285   0.737   2.741  13.675  0.1828 -0.1149  0.4588
  421TMC3    H1 6286   0.765   2.366  13.478 -2.4196  2.1349 -0.1847
  421TMC3    H2 6287   1.048   2.461  13.789  0.9429 -0.1939 -0.3747
  421TMC3    C7 6288   0.941   2.262  13.656 -0.0237  0.0029  0.7528
  421TMC3    C8 6289   0.940   2.686  13.849  0.1977  0.0594 -0.0693
  421TMC3    O1 6290   1.054   2.235  13.679  0.1059 -0.3316  0.4799
  421TMC3    O2 6291   1.054   2.675  13.892  0.1770  0.1131 -0.1277
  422TMC3    C1 6292   2.064   4.377  12.505  0.2597  0.6770 -0.0803
  422TMC3    C2 6293   2.055   4.464  12.617 -0.3065  0.1486 -0.2478
  422TMC3    C3 6294   2.027   4.399  12.735  0.2172 -0.5618  0.8195
  422TMC3    C4 6295   2.058   4.244  12.521  0.3461 -0.0394  0.8020
  422TMC3    C5 6296   2.039   4.190  12.647 -0.1511 -0.3749 -0.1984
  422TMC3    C6 6297   2.020   4.267  12.755  0.2734  0.3739  0.5368
  422TMC3     C 6298   2.073   4.429  12.373  0.5149  0.1432  0.4500
  422TMC3     O 6299   2.028   4.352  12.289 -0.0114  0.4655  0.1585
  422TMC3     H 6300   2.075   4.570  12.619 -1.3140  0.3263  0.5147
  422TMC3    H1 6301   2.064   4.182  12.433  3.7501  0.0361  0.9845
  422TMC3    H2 6302   2.022   4.227  12.856  3.0902 -0.6986  0.0693
  422TMC3    C7 6303   2.007   4.048  12.643  0.3338  0.0855 -0.3237
  422TMC3    C8 6304   2.070   4.478  12.853  0.4340  0.2137  0.0036
  422TMC3    O1 6305   2.043   3.981  12.550  0.1104 -0.3597 -0.1101
  422TMC3    O2 6306   2.149   4.568  12.834  0.2464  0.4304 -0.5473
  423MPD2     C 6307   3.950   4.044   0.471  0.9140 -0.3306  0.0500
  423MPD2    C1 6308   3.978   3.926   0.530  0.2344  0.4247  0.2580
  423MPD2    C2 6309   4.067   3.843   0.462  0.0429 -0.2189 -0.7374
  423MPD2    C3 6310   4.131   3.886   0.344  0.3834  0.0853  0.0701
  423MPD2    C4 6311   4.097   4.006   0.290  0.3159  0.4875 -0.3520
  423MPD2    C5 6312   4.005   4.083   0.350  0.2790  0.4009  0.2432
  423MPD2     H 6313   4.103   3.749   0.503 -1.9887  0.5975  2.9986
  423MPD2    H1 6314   4.155   4.036   0.203  0.8419  0.4797 -0.0041
  423MPD2    H2 6315   3.883   4.113   0.521  1.2081  0.5618 -0.7897
  423MPD2    H3 6316   3.985   4.186   0.320  0.9511  0.6463  0.6282
  423MPD2     N 6317   4.236   3.812   0.274  0.1486 -0.3377 -0.3852
  423MPD2    H5 6318   4.268   3.848   0.185  2.0618 -1.8466 -0.3121
  423MPD2    N1 6319   3.931   3.912   0.660 -0.1094  0.0384 -0.1972
  423MPD2    H7 6320   3.863   3.980   0.692 -0.4953  0.2096 -1.3701
  424TMC3    C1 6321   3.912   3.848   0.883  0.6926  0.1368  0.7850
  424TMC3    C2 6322   3.909   3.745   0.974 -0.6044  0.6226  0.2023
  424TMC3    C3 6323   3.839   3.762   1.092 -0.5062  0.3926 -0.0055
  424TMC3    C4 6324   3.852   3.970   0.906 -0.7167  0.3690 -0.0573
  424TMC3    C5 6325   3.786   3.983   1.024  0.4850  0.0400 -0.4323
  424TMC3    C6 6326   3.770   3.880   1.110 -0.3477  0.4222  0.2220
  424TMC3     C 6327   3.969   3.817   0.749 -0.7297  0.3179 -0.4546
  424TMC3     O 6328   4.046   3.726   0.727 -0.0295 -0.4630 -0.5443
  424TMC3     H 6329   3.936   3.644   0.943  1.2217  1.1034  0.2277
  424TMC3    H1 6330   3.857   4.055   0.840 -0.2832 -1.2143 -2.0506
  424TMC3    H2 6331   3.709   3.887   1.199 -2.4685  2.4191 -1.3747
  424TMC3    C7 6332   3.705   4.100   1.040  0.3178  0.0083 -0.6202
  424TMC3    C8 6333   3.848   3.657   1.199  0.3483  0.3459  0.0814
  424TMC3    O1 6334   3.677   4.160   0.935 -0.0753 -0.5709 -0.1620
  424TMC3    O2 6335   3.908   3.558   1.165  0.4799  0.1207  0.0122
  425MPD2     C 6336   3.505   3.574  17.594  0.5982  0.6911  0.5120
  425MPD2    C1 6337   3.437   3.479  17.653 -0.2374 -0.1835  0.1054
  425MPD2    C2 6338   3.337   3.518   0.072 -0.2420  0.4634  0.3572
  425MPD2    C3 6339   3.320   3.645   0.116  0.6925  0.3082 -0.2962
  425MPD2    C4 6340   3.399   3.741   0.060 -0.0276  0.1740  0.2554
  425MPD2    C5 6341   3.489   3.710  17.634 -0.1318  0.6889 -0.5448
  425MPD2     H 6342   3.269   3.448   0.120 -0.0355 -1.3785 -2.0431
  425MPD2    H1 6343   3.392   3.847   0.080 -2.0355  0.7478 -3.4070
  425MPD2    H2 6344   3.575   3.554  17.514  0.7909  0.8188  0.6485
  425MPD2    H3 6345   3.543   3.788  17.581  2.0563 -0.1497  0.4203
  425MPD2     N 6346   3.223   3.669   0.219 -0.1919  0.3221 -0.7468
  425MPD2    H5 6347   3.193   3.584   0.265 -0.1629  1.3366  1.1347
  425MPD2    N1 6348   3.454   3.349  17.606  0.3770 -0.4914 -0.4421
  425MPD2    H7 6349   3.510   3.344  17.522  0.8664  2.1622 -0.2842
  426TMC3    C1 6350   3.457   3.114  17.636  0.5449  0.8569  0.4242
  426TMC3    C2 6351   3.455   3.101  17.503  0.4438  1.2512  0.9876
  426TMC3    C3 6352   3.476   2.967  17.452  0.1560 -0.8137 -0.4460
  426TMC3    C4 6353   3.466   3.009   0.050 -0.6717 -0.6936  0.1404
  426TMC3    C5 6354   3.478   2.883   0.001 -0.2740 -0.2273 -1.1325
  426TMC3    C6 6355   3.493   2.856  17.536  0.1444 -0.0938  0.0765
  426TMC3     C 6356   3.416   3.244   0.016 -0.2504 -0.8709  0.2597
  426TMC3     O 6357   3.377   3.239   0.132  0.3304 -0.5841  0.2565
  426TMC3     H 6358   3.447   3.184  17.433 -1.8206 -0.9701 -1.4010
  426TMC3    H1 6359   3.475   3.037   0.155 -0.0545  0.6081 -0.2559
  426TMC3    H2 6360   3.487   2.755  17.498 -0.8233 -0.1263  0.3106
  426TMC3    C7 6361   3.415   2.780   0.079 -0.2494 -0.1133 -0.4412
  426TMC3    C8 6362   3.455   2.935  17.314 -0.2783  0.6951  0.5970
  426TMC3    O1 6363   3.405   2.672   0.025  0.1963  0.3169  0.3739
  426TMC3    O2 6364   3.485   2.822  17.286 -0.4383 -0.0930  0.1455
  427MPD2     C 6365   1.593   1.092  14.655 -0.1627 -0.0787 -0.0833
  427MPD2    C1 6366   1.543   0.992  14.741 -0.6705 -0.4499 -0.3334
  427MPD2    C2 6367   1.407   0.972  14.751  0.2096 -0.5229  0.2430
  427MPD2    C3 6368   1.322   1.037  14.654  1.5164 -0.0930 -0.4830
  427MPD2    C4 6369   1.377   1.122  14.556  0.2690  0.3553  0.4217
  427MPD2    C5 6370   1.510   1.151  14.562  0.0673  0.0194 -0.1306
  427MPD2     H 6371   1.372   0.907  14.830  0.7647 -1.5711 -0.3651
  427MPD2    H1 6372   1.320   1.178  14.484 -1.9961  1.0697  2.7760
  427MPD2    H2 6373   1.695   1.128  14.663  0.4948 -1.7419 -0.9545
  427MPD2    H3 6374   1.551   1.234  14.505  1.6927 -1.6109 -1.3028
  427MPD2     N 6375   1.187   1.023  14.649  0.0096 -0.7281  0.2034
  427MPD2    H5 6376   1.143   1.079  14.577  2.0372 -0.3306 -0.7301
  427MPD2    N1 6377   1.632   0.922  14.833  0.4606 -0.0703 -0.3365
  427MPD2    H7 6378   1.589   0.861  14.901  0.4345 -0.3043 -0.5639
  428TMC3    C1 6379   1.830   0.841  14.920 -0.1823  0.0947 -0.0165
  428TMC3    C2 6380   1.797   0.861  15.048 -0.2176 -0.2983 -0.0579
  428TMC3    C3 6381   1.886   0.832  15.150  0.0816 -0.1934  0.3435
  428TMC3    C4 6382   1.953   0.790  14.891 -0.5202  0.0632  0.0011
  428TMC3    C5 6383   2.038   0.758  14.992 -0.0630 -0.3762  0.4415
  428TMC3    C6 6384   2.007   0.774  15.125  0.3686  0.0261  0.5191
  428TMC3     C 6385   1.762   0.908  14.813 -0.4194  0.5757 -0.0697
  428TMC3     O 6386   1.819   0.931  14.712  0.0525 -0.4314 -0.4315
  428TMC3     H 6387   1.708   0.918  15.072 -0.1374 -0.0861 -0.2635
  428TMC3    H1 6388   1.984   0.758  14.792  2.7603  2.8388  0.1600
  428TMC3    H2 6389   2.080   0.741  15.198  1.1089  0.4916 -0.0108
  428TMC3    C7 6390   2.174   0.706  14.971  0.0652  0.1183  0.1958
  428TMC3    C8 6391   1.829   0.820  15.279 -0.5200  0.0996 -0.9025
  428TMC3    O1 6392   2.216   0.642  15.062 -0.4162 -0.0007 -0.5304
  428TMC3    O2 6393   1.710   0.784  15.288 -0.2618  0.0944  0.6938
  429MPD2     C 6394   2.784   0.469   0.099 -0.4042  0.3737 -0.6351
  429MPD2    C1 6395   2.844   0.409  17.659  0.1255 -0.2721 -0.6389
  429MPD2    C2 6396   2.864   0.487  17.550 -0.0749  0.6258  0.1630
  429MPD2    C3 6397   2.828   0.619  17.546  0.9276 -0.1161  0.3537
  429MPD2    C4 6398   2.765   0.679  17.659 -0.0307 -0.4664  0.9557
  429MPD2    C5 6399   2.732   0.599   0.096 -0.5438  0.3324  0.4709
  429MPD2     H 6400   2.912   0.438  17.465 -1.6664 -0.8323  0.1092
  429MPD2    H1 6401   2.752   0.785   0.004  1.0579 -0.0487 -1.1734
  429MPD2    H2 6402   2.786   0.419   0.196  0.6343  1.5630 -0.0378
  429MPD2    H3 6403   2.691   0.635   0.189 -0.7337 -1.0285  0.9257
  429MPD2     N 6404   2.864   0.695  17.436  0.3496  0.0683  0.1393
  429MPD2    H5 6405   2.928   0.645  17.375  2.1812  1.3589  0.9863
  429MPD2    N1 6406   2.882   0.271  17.654  0.1347  0.3611 -0.3090
  429MPD2    H7 6407   2.909   0.223  17.568 -3.8531 -0.3096 -1.1792
  430TMC3    C1 6408   2.910   0.882  17.288 -0.0952  0.2507  0.4201
  430TMC3    C2 6409   2.850   0.997  17.245 -0.1032 -0.1979 -0.2160
  430TMC3    C3 6410   2.920   1.106  17.195  0.5888  0.0759  0.4359
  430TMC3    C4 6411   3.044   0.875  17.273  0.5334  0.8952  0.4539
  430TMC3    C5 6412   3.112   0.980  17.205  0.8928 -0.1428 -0.6903
  430TMC3    C6 6413   3.053   1.102  17.185 -0.1927 -0.2515  0.6980
  430TMC3     C 6414   2.842   0.828  17.410 -0.5251 -0.1264  0.2683
  430TMC3     O 6415   2.750   0.894  17.455 -0.0695  0.1118 -0.2421
  430TMC3     H 6416   2.742   1.008  17.239 -0.2962 -0.6941  2.3295
  430TMC3    H1 6417   3.095   0.782  17.297  1.7904  1.2867 -0.7012
  430TMC3    H2 6418   3.089   1.182  17.122 -0.5179 -0.9720 -0.4105
  430TMC3    C7 6419   3.183   0.939  17.082  0.1831  0.8872 -0.9605
  430TMC3    C8 6420   2.852   1.141  17.067  0.0562  0.2168 -0.4507
  430TMC3    O1 6421   3.224   1.033  17.015  0.0405 -0.6248  0.0648
  430TMC3    O2 6422   2.793   1.044  17.015  0.0299  0.0426 -0.0019
  431MPD2     C 6423   4.114   1.184  12.221 -0.6529 -0.1314 -0.1644
  431MPD2    C1 6424   4.110   1.277  12.117 -0.7283  0.4476 -0.1888
  431MPD2    C2 6425   4.053   1.248  11.990  0.6454  0.4451 -0.3800
  431MPD2    C3 6426   4.010   1.117  11.972  0.0555 -0.1508  0.0702
  431MPD2    C4 6427   4.012   1.019  12.074 -0.2111 -0.4770  0.3438
  431MPD2    C5 6428   4.069   1.050  12.198 -0.0955  0.0170 -0.2641
  431MPD2     H 6429   4.050   1.319  11.908 -1.0842  1.6959  0.7940
  431MPD2    H1 6430   3.967   0.921  12.060 -0.9377 -0.1621  0.4553
  431MPD2    H2 6431   4.162   1.205  12.315 -3.0270  0.1613  0.9787
  431MPD2    H3 6432   4.051   0.988  12.285  2.9503 -2.1932 -1.1909
  431MPD2     N 6433   3.941   1.078  11.853  0.4416 -0.4905 -0.5688
  431MPD2    H5 6434   3.889   0.991  11.861 -1.6172  0.8394  0.4781
  431MPD2    N1 6435   4.185   1.400  12.123 -0.3666 -0.2955  0.7425
  431MPD2    H7 6436   4.181   1.461  12.042  0.4142 -1.2273  0.0033
  432TMC3    C1 6437   3.842   1.081  11.644 -0.7541 -0.6373 -0.1667
  432TMC3    C2 6438   3.907   1.024  11.533 -0.5490  0.2723  0.2171
  432TMC3    C3 6439   3.850   0.909  11.490  0.7805  0.6281 -0.4277
  432TMC3    C4 6440   3.727   1.025  11.693  0.3018  0.4058  0.1177
  432TMC3    C5 6441   3.675   0.906  11.654  0.0713 -0.4761 -0.7739
  432TMC3    C6 6442   3.728   0.862  11.540 -0.4533 -0.1162  1.0806
  432TMC3     C 6443   3.923   1.153  11.739  0.2619 -0.2358 -0.5940
  432TMC3     O 6444   3.964   1.265  11.704  0.0709  0.0130  0.0031
  432TMC3     H 6445   4.000   1.061  11.492 -0.5456 -0.2272 -0.2296
  432TMC3    H1 6446   3.697   1.087  11.776 -0.2565  1.3183 -0.7560
  432TMC3    H2 6447   3.687   0.776  11.488  0.5954  0.2143 -0.3025
  432TMC3    C7 6448   3.663   0.803  11.754  0.2159  0.1738 -0.4103
  432TMC3    C8 6449   3.937   0.810  11.428  0.4995 -0.2945  0.1112
  432TMC3    O1 6450   3.722   0.698  11.730 -0.2489  0.1008 -0.7820
  432TMC3    O2 6451   3.887   0.705  11.397 -0.1882 -0.1017  0.0794
  433MPD2     C 6452   2.748   0.349  10.661  0.6562 -0.3523  0.7180
  433MPD2    C1 6453   2.666   0.243  10.697 -0.7603  0.0679 -0.8218
  433MPD2    C2 6454   2.571   0.263  10.797 -0.0299 -0.5441  0.2911
  433MPD2    C3 6455   2.596   0.367  10.884  0.7213  0.1679  0.3873
  433MPD2    C4 6456   2.682   0.478  10.853 -0.4627  0.1312  0.8810
  433MPD2    C5 6457   2.763   0.461  10.743  0.3199 -0.5317 -0.2431
  433MPD2     H 6458   2.495   0.187  10.813 -0.3660 -0.4338 -0.8503
  433MPD2    H1 6459   2.690   0.568  10.912 -2.0435  0.3038  0.8280
  433MPD2    H2 6460   2.814   0.333  10.577 -0.1392  2.1782 -0.3940
  433MPD2    H3 6461   2.844   0.525  10.711 -1.3042  1.2595 -0.7519
  433MPD2     N 6462   2.521   0.357  11.002  0.1713  0.0795  0.1876
  433MPD2    H5 6463   2.480   0.267  11.020  0.3977 -0.0739 -0.0523
  433MPD2    N1 6464   2.673   0.134  10.609  0.3355  0.0092  0.0013
  433MPD2    H7 6465   2.753   0.122  10.549  0.9348 -2.2522  1.2814
  434TMC3    C1 6466   2.657   4.629  10.555 -0.5502 -0.5821  0.1005
  434TMC3    C2 6467   2.759   4.576  10.618  0.8809 -0.2011 -0.6594
  434TMC3    C3 6468   2.759   4.440  10.637 -0.7809  0.4759  0.1726
  434TMC3    C4 6469   2.559   4.550  10.496 -0.6254  0.3672 -0.3982
  434TMC3    C5 6470   2.570   4.413  10.507 -0.0950  0.1494  0.1985
  434TMC3    C6 6471   2.673   4.358  10.580  0.5826 -0.6629  0.5776
  434TMC3     C 6472   2.602   0.021  10.624 -0.8425  0.1808  0.0224
  434TMC3     O 6473   2.517   4.712  10.705  0.0049  0.0407  0.2845
  434TMC3     H 6474   2.824   4.636  10.681  1.4057  0.5049 -1.8798
  434TMC3    H1 6475   2.468   4.601  10.467  0.6556  2.4581 -0.7041
  434TMC3    H2 6476   2.674   4.251  10.601 -2.1780 -0.7206  0.4510
  434TMC3    C7 6477   2.462   4.340  10.449  0.0710  0.0260 -0.1499
  434TMC3    C8 6478   2.828   4.390  10.755 -0.9739 -0.3999 -0.4374
  434TMC3    O1 6479   2.405   4.410  10.362  0.0832 -0.1527  0.1515
  434TMC3    O2 6480   2.764   4.312  10.825  0.2391 -0.1184  0.2028
  435MPD2     C 6481   4.447   4.242  15.344  0.3005 -0.7176 -0.2414
  435MPD2    C1 6482   4.435   4.213  15.475 -0.0585 -0.5990 -0.3279
  435MPD2    C2 6483   4.534   4.153  15.547  0.1029  0.1296  0.2812
  435MPD2    C3 6484   4.658   4.137  15.490  0.0997  0.0422  0.1853
  435MPD2    C4 6485   4.675   4.160  15.352  0.0763 -0.7899 -0.0423
  435MPD2    C5 6486   4.568   4.213  15.285 -0.5883 -0.6990  0.0729
  435MPD2     H 6487   4.508   4.138  15.651  0.0741 -0.3143  0.2101
  435MPD2    H1 6488   0.052   4.147  15.300  1.4727 -0.1255  2.2763
  435MPD2    H2 6489   4.362   4.266  15.281 -0.2106 -1.0202  0.3370
  435MPD2    H3 6490   4.573   4.233  15.179  1.9874  0.3679  0.4136
  435MPD2     N 6491   0.045   4.093  15.580  0.5559 -0.3587 -0.4550
  435MPD2    H5 6492   0.028   4.095  15.680 -1.4684  0.5288 -0.8286
  435MPD2    N1 6493   4.310   4.212  15.536  0.2509  0.1902 -0.3820
  435MPD2    H7 6494   4.298   4.155  15.619 -2.4023  2.8475  1.0474
  436TMC3    C1 6495   3.964   4.069  15.679  0.7419  0.1816  0.4509
  436TMC3    C2 6496   4.067   4.157  15.661  0.1004  0.2762 -0.0469
  436TMC3    C3 6497   4.076   4.208  15.535  0.1709  0.9739 -0.2765
  436TMC3    C4 6498   3.871   4.035  15.588  0.2349 -0.1747  0.0547
  436TMC3    C5 6499   3.878   4.087  15.463 -0.3729  0.6300 -0.3539
  436TMC3    C6 6500   3.978   4.179  15.440  0.4138 -0.5938  1.1332
  436TMC3     C 6501   3.930   4.032  15.813 -0.8905  1.0922  0.3132
  436TMC3     O 6502   3.865   3.932  15.818  0.3964  0.7589  0.6157
  436TMC3     H 6503   4.130   4.193  15.742 -1.1764 -0.9521  1.4909
  436TMC3    H1 6504   3.783   3.979  15.616  1.8555 -0.8901  3.7873
  436TMC3    H2 6505   4.005   4.210  15.340 -0.2673 -2.2463  0.4414
  436TMC3    C7 6506   3.773   4.067  15.370 -0.0632  0.1011  0.2549
  436TMC3    C8 6507   4.196   4.266  15.487 -0.5650  0.0862  0.5847
  436TMC3    O1 6508   3.670   4.021  15.409  0.6955 -0.3561 -0.0298
  436TMC3    O2 6509   4.176   4.347  15.398  0.2164 -0.8330  0.2414
  437TMC3    C1 6510   3.010   1.665  12.826  0.2895  0.2310 -0.0057
  437TMC3    C2 6511   2.872   1.671  12.850  0.3614  0.5998 -0.3934
  437TMC3    C3 6512   2.814   1.784  12.820 -0.5609  0.2218 -0.0249
  437TMC3    C4 6513   3.079   1.777  12.771  0.6029 -0.2070  0.2991
  437TMC3    C5 6514   3.007   1.892  12.739  0.1066  0.2863 -0.6090
  437TMC3    C6 6515   2.874   1.891  12.768  0.3464  0.6665 -0.3889
  437TMC3     C 6516   3.079   1.544  12.850  0.2145 -0.3189  0.4949
  437TMC3     O 6517   3.014   1.458  12.906 -0.1840 -0.1703  0.3469
  437TMC3     H 6518   2.813   1.588  12.887  0.7244  0.5069 -0.0100
  437TMC3    H1 6519   3.178   1.755  12.733  0.5532  2.0516 -1.1352
  437TMC3    H2 6520   2.823   1.986  12.764 -4.2183 -1.7745  0.2892
  437TMC3    C7 6521   3.071   2.012  12.695  0.0571  0.3767 -0.0479
  437TMC3    C8 6522   2.689   1.808  12.889  0.8611  0.0818 -0.5156
  437TMC3    O1 6523   3.016   2.118  12.707  0.6095 -0.4577  0.0481
  437TMC3    O2 6524   2.611   1.884  12.834 -0.2142  0.2795 -0.1230
  438MPD2     C 6525   0.889   2.220  16.955  0.7233  0.7396 -0.1048
  438MPD2    C1 6526   0.942   2.095  16.913 -0.2231 -0.9515  0.5109
  438MPD2    C2 6527   0.911   1.979  16.982 -0.3782  0.0477  0.3270
  438MPD2    C3 6528   0.832   1.987  17.097  0.0167  1.0730  0.4520
  438MPD2    C4 6529   0.778   2.105  17.130 -0.5254  0.2210 -0.4328
  438MPD2    C5 6530   0.798   2.217  17.056 -0.1688 -0.2877 -0.5196
  438MPD2     H 6531   0.947   1.880  16.955  1.6337  0.0090  3.1223
  438MPD2    H1 6532   0.711   2.115  17.215  0.5064  3.6532 -0.0360
  438MPD2    H2 6533   0.908   2.315  16.907  1.5729  0.6973  0.1408
  438MPD2    H3 6534   0.743   2.307  17.082  1.7040  0.6538  0.1889
  438MPD2     N 6535   0.819   1.880  17.192  0.5716 -0.1265  0.4140
  438MPD2    H5 6536   0.784   1.913  17.281 -2.7307  0.3653 -1.0822
  438MPD2    N1 6537   1.029   2.084  16.808  0.1755 -0.2308 -0.7879
  438MPD2    H7 6538   1.058   1.989  16.787 -1.4819 -0.9887  0.2821
  439TMC3    C1 6539   1.198   2.149  16.661 -0.0282 -0.1161 -0.2535
  439TMC3    C2 6540   1.187   2.035  16.585  0.4888 -0.1296  0.5441
  439TMC3    C3 6541   1.302   1.977  16.536 -0.6657  0.0831  0.4117
  439TMC3    C4 6542   1.324   2.203  16.687  0.0747 -0.1112 -0.6850
  439TMC3    C5 6543   1.434   2.150  16.624 -0.3989 -0.0213 -0.0562
  439TMC3    C6 6544   1.429   2.034  16.553  0.0974 -0.3453 -0.1962
  439TMC3     C 6545   1.085   2.184  16.744 -0.0783 -0.5334 -0.1354
  439TMC3     O 6546   1.068   2.304  16.768 -0.2971  0.4160 -0.3943
  439TMC3     H 6547   1.087   1.999  16.565  0.4225  0.7105 -0.6419
  439TMC3    H1 6548   1.335   2.280  16.762  0.8903 -1.5283  0.6622
  439TMC3    H2 6549   1.515   2.000  16.495  0.0430 -1.9101  0.6323
  439TMC3    C7 6550   1.566   2.209  16.655  0.5677 -0.1628 -0.0743
  439TMC3    C8 6551   1.291   1.864  16.441  0.3226  0.1472 -0.0754
  439TMC3    O1 6552   1.558   2.328  16.686  0.0981  0.5617  0.2332
  439TMC3    O2 6553   1.366   1.857  16.341 -0.3680  0.1978 -0.1987
  440MPD2     C 6554   0.316   3.243  14.341  0.3088  0.1991 -0.1663
  440MPD2    C1 6555   0.231   3.168  14.425  0.1729 -0.1566  0.5130
  440MPD2    C2 6556   0.287   3.067  14.503  0.5202 -0.1532 -0.3430
  440MPD2    C3 6557   0.427   3.051  14.507 -0.3042  0.0088  0.3502
  440MPD2    C4 6558   0.502   3.121  14.413  0.1827 -0.2359 -0.3929
  440MPD2    C5 6559   0.449   3.218  14.325  0.2451 -0.0313  0.5487
  440MPD2     H 6560   0.223   3.006  14.565  0.6929  2.0235  1.9871
  440MPD2    H1 6561   0.605   3.094  14.395 -0.0356 -0.2010 -1.6805
  440MPD2    H2 6562   0.275   3.328  14.289 -0.0187 -0.5113 -1.0798
  440MPD2    H3 6563   0.502   3.271  14.246  1.7770 -0.9468  0.9497
  440MPD2     N 6564   0.500   2.973  14.609 -0.5228 -0.2681 -0.4049
  440MPD2    H5 6565   0.601   2.976  14.617 -0.3682 -2.1743 -1.4462
  440MPD2    N1 6566   0.095   3.202  14.445  0.6441  0.2854 -0.1324
  440MPD2    H7 6567   0.035   3.137  14.494 -1.4347  1.8233 -0.6544
  441TMC3    C1 6568   0.514   2.821  14.790  0.0100 -0.1898  0.6202
  441TMC3    C2 6569   0.600   2.904  14.865 -0.6714 -0.1165  0.4098
  441TMC3    C3 6570   0.588   2.876  15.003  0.0130  0.6455 -0.4633
  441TMC3    C4 6571   0.456   2.717  14.851 -0.1422  0.2453 -0.0796
  441TMC3    C5 6572   0.484   2.670  14.979 -0.7924  0.1073 -0.2447
  441TMC3    C6 6573   0.540   2.762  15.059  0.3943 -0.1515 -0.5498
  441TMC3     C 6574   0.437   2.880  14.688  0.1086 -0.1756 -0.9472
  441TMC3     O 6575   0.320   2.841  14.682  0.1645  0.4221  0.4936
  441TMC3     H 6576   0.630   3.000  14.825 -1.1882  0.0545  0.4379
  441TMC3    H1 6577   0.402   2.642  14.795  1.1253 -0.8323  0.1578
  441TMC3    H2 6578   0.532   2.754  15.166  0.6589 -0.1471 -0.5303
  441TMC3    C7 6579   0.421   2.552  15.036  0.3296  0.7187 -0.0083
  441TMC3    C8 6580   0.571   2.998  15.079  0.2845 -0.1196  0.0293
  441TMC3    O1 6581   0.342   2.492  14.972 -0.1224 -0.8873  0.4301
  441TMC3    O2 6582   0.671   3.070  15.096 -0.1688 -0.1340  0.0085
  442MPD2     C 6583   2.865   3.556  17.105  0.1421  0.1094  0.1613
  442MPD2    C1 6584   2.746   3.493  17.077  0.0981  0.6768  1.0883
  442MPD2    C2 6585   2.738   3.384  16.984 -0.3412  0.1585  0.1575
  442MPD2    C3 6586   2.855   3.340  16.909 -0.0303 -0.2396 -0.2449
  442MPD2    C4 6587   2.978   3.401  16.945  0.2133  0.2306  0.4205
  442MPD2    C5 6588   2.974   3.504  17.036  0.0255 -0.1282  0.0210
  442MPD2     H 6589   2.647   3.336  16.953 -0.0265 -0.9985  1.0468
  442MPD2    H1 6590   3.074   3.379  16.901  0.9206  4.2381 -0.0295
  442MPD2    H2 6591   2.879   3.633  17.180  0.9019 -0.2017  0.3394
  442MPD2    H3 6592   3.074   3.543  17.049  0.1482  0.1204 -1.6813
  442MPD2     N 6593   2.859   3.233  16.820  0.0791  0.4399 -0.5725
  442MPD2    H5 6594   2.946   3.216  16.772 -0.3935 -0.3750 -1.1493
  442MPD2    N1 6595   2.627   3.523  17.147  0.3776  0.4987  0.0219
  442MPD2    H7 6596   2.542   3.470  17.130  1.1784 -1.1379  1.0911
  443TMC3    C1 6597   2.472   3.636  17.284  0.1138 -0.0334  0.5016
  443TMC3    C2 6598   2.402   3.686  17.172 -0.0837 -0.0314 -0.2314
  443TMC3    C3 6599   2.276   3.637  17.147  0.5600  0.3221 -0.0068
  443TMC3    C4 6600   2.405   3.558  17.369  0.1564  0.0578 -0.1143
  443TMC3    C5 6601   2.285   3.502  17.339  0.3703 -0.4558  0.2088
  443TMC3    C6 6602   2.216   3.543  17.225  0.4832 -0.2870 -0.6884
  443TMC3     C 6603   2.611   3.610  17.255  0.2408 -0.3215 -0.5574
  443TMC3     O 6604   2.686   3.665  17.331 -0.1849  0.5979  0.5134
  443TMC3     H 6605   2.449   3.750  17.098 -1.4529 -0.7920 -1.7344
  443TMC3    H1 6606   2.457   3.511  17.451 -0.4917 -0.5266 -0.0412
  443TMC3    H2 6607   2.118   3.504  17.203 -0.3104  0.1546  2.0732
  443TMC3    C7 6608   2.267   3.360  17.366  0.6381 -0.0408  0.0573
  443TMC3    C8 6609   2.232   3.645  17.012 -0.2339 -0.5751  0.4877
  443TMC3    O1 6610   2.207   3.300  17.274  0.8519  0.2826 -0.2805
  443TMC3    O2 6611   2.175   3.547  16.962  0.3718  0.2267  0.1356
  444MPD2     C 6612   2.972   2.846  16.944  0.1635 -0.6395 -0.1517
  444MPD2    C1 6613   2.989   2.763  17.047 -0.4262  0.6477  0.1373
  444MPD2    C2 6614   3.086   2.662  17.047  0.1854  0.7386  0.3781
  444MPD2    C3 6615   3.158   2.638  16.933 -0.2491  0.3459  0.4366
  444MPD2    C4 6616   3.128   2.703  16.815  0.5266 -0.1767 -0.1211
  444MPD2    C5 6617   3.046   2.811  16.825 -0.4017 -0.1144 -0.4757
  444MPD2     H 6618   3.093   2.599  17.135  2.2659  0.5571  0.0602
  444MPD2    H1 6619   3.176   2.687  16.719  0.6358 -1.2925  0.1247
  444MPD2    H2 6620   2.894   2.921  16.938  0.5035 -0.4534 -2.4281
  444MPD2    H3 6621   3.035   2.868  16.734 -0.4873 -0.1638 -0.4964
  444MPD2     N 6622   3.253   2.533  16.927 -0.4566  0.6752  0.1716
  444MPD2    H5 6623   3.284   2.517  17.023 -0.7234  1.2759  0.3637
  444MPD2    N1 6624   2.911   2.776  17.162 -0.7008  0.3711 -0.6043
  444MPD2    H7 6625   2.913   2.700  17.229 -2.3310 -1.9308 -3.1409
  445TMC3    C1 6626   3.442   2.411  16.860 -0.4006 -0.0449  0.1020
  445TMC3    C2 6627   3.443   2.319  16.963  0.2541 -0.9502 -0.1436
  445TMC3    C3 6628   3.556   2.250  16.986  0.3535 -0.0006  0.1570
  445TMC3    C4 6629   3.552   2.425  16.778 -0.4955 -0.2386 -0.1211
  445TMC3    C5 6630   3.664   2.360  16.818 -0.5220  0.6345  0.5024
  445TMC3    C6 6631   3.665   2.267  16.910  0.1076 -0.3420  0.6902
  445TMC3     C 6632   3.326   2.488  16.816  0.0676 -0.8744  0.3372
  445TMC3     O 6633   3.320   2.527  16.701  0.2296  0.1357  0.6366
  445TMC3     H 6634   3.350   2.299  17.015 -0.2157 -0.5291 -0.8380
  445TMC3    H1 6635   3.543   2.500  16.700 -0.4384 -3.1591 -2.9287
  445TMC3    H2 6636   3.753   2.211  16.940 -1.2147 -1.3061  2.8125
  445TMC3    C7 6637   3.752   2.336  16.709 -0.0339 -0.0811 -0.3726
  445TMC3    C8 6638   3.546   2.133  17.072  0.1992 -0.3420  0.2772
  445TMC3    O1 6639   3.714   2.323  16.594 -0.0453 -0.6063  0.1128
  445TMC3    O2 6640   3.460   2.130  17.163  0.1065  0.2575  0.2166
  446MPD2     C 6641   2.292   4.343  11.062  0.4825 -0.6582  0.6296
  446MPD2    C1 6642   2.304   4.385  10.931 -1.0280  0.0288 -0.1862
  446MPD2    C2 6643   2.389   4.488  10.904  0.6389 -0.1607  0.0860
  446MPD2    C3 6644   2.476   4.526  11.008 -0.4033  0.5004 -0.2355
  446MPD2    C4 6645   2.448   4.486  11.139  0.0840 -0.0641 -0.2593
  446MPD2    C5 6646   2.355   4.395  11.160  0.0704 -0.0137 -0.0614
  446MPD2     H 6647   2.401   4.536  10.808  0.3762  0.6298  0.4543
  446MPD2    H1 6648   2.502   4.524  11.226  0.7551 -0.1485 -0.6339
  446MPD2    H2 6649   2.213   4.272  11.083 -0.6085  0.3500 -0.0897
  446MPD2    H3 6650   2.339   4.357  11.260  1.3918  1.8667  0.8621
  446MPD2     N 6651   2.590   4.616  10.993  0.2433  0.7861 -0.0939
  446MPD2    H5 6652   2.586   4.681  10.915 -1.0152 -0.9691 -1.4964
  446MPD2    N1 6653   2.221   4.324  10.825 -0.4085 -0.4112 -0.0342
  446MPD2    H7 6654   2.229   4.371  10.735  1.0269 -1.1129 -0.2637
  447TMC3    C1 6655   2.780   0.023  11.075 -0.0135 -0.5600  0.0582
  447TMC3    C2 6656   2.844   0.057  10.954 -0.7183  0.6533  0.0521
  447TMC3    C3 6657   2.966   0.122  10.956  0.4314  0.2624  0.4448
  447TMC3    C4 6658   2.839   0.051  11.196 -0.5671  0.4574 -0.3782
  447TMC3    C5 6659   2.964   0.108  11.191  0.6098 -0.0960 -0.5207
  447TMC3    C6 6660   3.022   0.150  11.076 -0.3970  0.0818  0.0994
  447TMC3     C 6661   2.694   4.620  11.083 -0.1547 -0.0232  0.8157
  447TMC3     O 6662   2.734   4.534  11.163  0.2065  0.0957  0.1150
  447TMC3     H 6663   2.803   0.029  10.858  0.1634 -0.6305  0.0444
  447TMC3    H1 6664   2.808   0.005  11.289  1.2821 -0.6676 -0.3183
  447TMC3    H2 6665   3.115   0.206  11.087 -0.0565 -0.8000  1.6204
  447TMC3    C7 6666   3.059   0.043  11.279  0.7562 -0.1337  0.2375
  447TMC3    C8 6667   3.045   0.101  10.839  0.0528  0.3975  0.0812
  447TMC3    O1 6668   3.169   0.023  11.228 -0.3231  0.4416 -0.3344
  447TMC3    O2 6669   3.001   0.075  10.731 -0.4486  0.2912  0.3176
  448TMC3    C1 6670   1.033   3.803  16.997 -0.1709 -0.1116 -0.4760
  448TMC3    C2 6671   1.062   3.707  16.905  0.0840 -0.3798 -0.8661
  448TMC3    C3 6672   1.172   3.635  16.926  0.2919 -0.6529  0.4580
  448TMC3    C4 6673   1.095   3.820  17.112 -0.0745  0.3679 -0.0708
  448TMC3    C5 6674   1.210   3.749  17.125 -0.4902 -1.3032  0.1421
  448TMC3    C6 6675   1.247   3.658  17.035  0.5303 -0.0996 -0.3321
  448TMC3     C 6676   0.903   3.864  17.007  0.2887 -0.1957  0.5897
  448TMC3     O 6677   0.877   3.916  17.112  0.4762 -0.0150 -0.1842
  448TMC3     H 6678   1.005   3.684  16.816 -1.3120 -0.0104 -0.0626
  448TMC3    H1 6679   1.061   3.880  17.196 -0.3553 -1.5309  1.1755
  448TMC3    H2 6680   1.332   3.592  17.053  1.8571  2.3393  2.4011
  448TMC3    C7 6681   1.270   3.735  17.258  0.0431 -0.0632  0.6269
  448TMC3    C8 6682   1.187   3.501  16.871  0.1136  1.0022 -0.1814
  448TMC3    O1 6683   1.352   3.648  17.270  0.2397  0.6724 -0.0657
  448TMC3    O2 6684   1.233   3.410  16.942  0.3485 -0.7464 -0.0287
  449MPD2     C 6685   2.130   2.711  13.573  0.4485 -0.4645  0.1906
  449MPD2    C1 6686   2.036   2.607  13.576  0.1125 -0.4625 -0.6411
  449MPD2    C2 6687   2.045   2.522  13.683 -0.5522 -0.0387 -0.3182
  449MPD2    C3 6688   2.137   2.542  13.787  0.4885 -0.6871 -0.3210
  449MPD2    C4 6689   2.220   2.656  13.782 -0.3881 -0.1297  0.0394
  449MPD2    C5 6690   2.220   2.735  13.668  0.1104  0.3608 -0.2203
  449MPD2     H 6691   1.976   2.439  13.687 -0.1780 -0.3623 -0.6819
  449MPD2    H1 6692   2.285   2.674  13.867  0.3291  2.0569 -0.9795
  449MPD2    H2 6693   2.116   2.788  13.497  0.5923 -0.3296  0.3010
  449MPD2    H3 6694   2.291   2.816  13.653 -0.5341  0.5373 -2.3512
  449MPD2     N 6695   2.148   2.445  13.887  0.1712  0.0283 -0.4066
  449MPD2    H5 6696   2.082   2.368  13.886 -0.4205  0.5208  1.0726
  449MPD2    N1 6697   1.947   2.570  13.476 -0.0653 -0.1394 -0.1778
  449MPD2    H7 6698   1.890   2.488  13.489  1.4704 -1.2842 -0.6536
  450TMC3    C1 6699   1.842   2.551  13.277  0.1627  0.1105 -0.0365
  450TMC3    C2 6700   1.887   2.478  13.167 -0.0308 -0.2377 -0.4833
  450TMC3    C3 6701   1.859   2.343  13.175 -0.2039  0.3392 -0.0367
  450TMC3    C4 6702   1.752   2.494  13.368 -0.8650 -0.1700  0.3381
  450TMC3    C5 6703   1.708   2.369  13.353 -0.2288 -0.6513  0.4108
  450TMC3    C6 6704   1.761   2.289  13.256  0.4764 -0.2500 -0.6319
  450TMC3     C 6705   1.948   2.617  13.352 -0.2483 -0.0587  0.0536
  450TMC3     O 6706   2.032   2.685  13.290  0.3022  0.3175 -0.0323
  450TMC3     H 6707   1.959   2.515  13.095 -0.4043  3.2246  0.8841
  450TMC3    H1 6708   1.718   2.558  13.448 -2.0033 -0.6870  0.2775
  450TMC3    H2 6709   1.750   2.181  13.252 -1.9743 -0.0112 -0.8936
  450TMC3    C7 6710   1.715   2.306  13.486  0.4587  0.2941 -0.1729
  450TMC3    C8 6711   1.921   2.253  13.080  0.8118 -0.4098  0.3496
  450TMC3    O1 6712   1.764   2.370  13.574  0.1795  0.5353  0.2005
  450TMC3    O2 6713   1.855   2.160  13.044 -0.1313 -0.2346  0.1387
  451MPD2     C 6714   3.418   0.057   1.693  0.5305  0.2568  0.0601
  451MPD2    C1 6715   3.402   0.070   1.555 -0.1215 -0.3521 -0.2420
  451MPD2    C2 6716   3.493   0.009   1.470  0.6746 -0.3429 -0.2882
  451MPD2    C3 6717   3.594   4.641   1.522 -0.7183 -0.0636  0.5403
  451MPD2    C4 6718   3.607   4.630   1.660  0.0442 -0.6317  0.3675
  451MPD2    C5 6719   3.524   4.699   1.747  0.4823  0.3162 -0.7589
  451MPD2     H 6720   3.469   0.021   1.365  0.8465 -1.7146 -0.4782
  451MPD2    H1 6721   3.698   4.581   1.694  0.1198 -1.0395 -0.4321
  451MPD2    H2 6722   3.355   0.109   1.765  0.5366 -0.3578  0.5061
  451MPD2    H3 6723   3.539   4.685   1.854 -2.4636  0.4844 -0.3243
  451MPD2     N 6724   3.689   4.572   1.447 -0.0378  0.5361 -0.0915
  451MPD2    H5 6725   3.741   4.504   1.501 -0.9936 -0.8182 -0.8743
  451MPD2    N1 6726   3.286   0.135   1.506 -0.0435  0.3496  0.3356
  451MPD2    H7 6727   3.228   0.181   1.576 -0.8762 -1.7880  1.0635
  452TMC3    C1 6728   3.816   4.496   1.261  0.4660 -0.3560 -0.4459
  452TMC3    C2 6729   3.923   4.472   1.345  0.1359  0.0028 -0.1064
  452TMC3    C3 6730   4.036   4.411   1.297  0.3010  0.7011 -0.0695
  452TMC3    C4 6731   3.821   4.462   1.124  0.3024  0.4743  0.0000
  452TMC3    C5 6732   3.937   4.416   1.074  0.3373 -0.6258  0.0222
  452TMC3    C6 6733   4.045   4.389   1.156  0.2506 -0.1644  0.1924
  452TMC3     C 6734   3.704   4.579   1.311 -0.1258 -0.5889 -0.4312
  452TMC3     O 6735   3.652   4.652   1.228 -0.4095 -0.0442 -0.1490
  452TMC3     H 6736   3.916   4.501   1.449  1.5719 -1.5440  0.4235
  452TMC3    H1 6737   3.741   4.505   1.065 -0.2478 -0.0695  0.3482
  452TMC3    H2 6738   4.131   4.344   1.106 -0.4313 -1.7159  0.4227
  452TMC3    C7 6739   3.957   4.444   0.930  0.1962 -0.0684  0.6792
  452TMC3    C8 6740   4.114   4.327   1.378 -0.2773 -0.5953  0.6064
  452TMC3    O1 6741   4.064   4.505   0.899  0.0701  0.8082 -0.0953
  452TMC3    O2 6742   4.065   4.298   1.486  0.6979 -0.0415  0.1742
  453TMC3    C1 6743   4.480   3.021  11.537  0.9605 -0.2411  0.0137
  453TMC3    C2 6744   4.509   2.903  11.607 -0.2154 -0.2258 -0.0016
  453TMC3    C3 6745   4.488   2.785  11.533 -0.0145  0.3863  0.0802
  453TMC3    C4 6746   4.470   3.020  11.402 -0.2121  0.0743 -0.0710
  453TMC3    C5 6747   4.467   2.902  11.331 -0.1787 -0.4975 -0.2620
  453TMC3    C6 6748   4.474   2.786  11.398 -0.3584 -0.2450  0.2509
  453TMC3     C 6749   4.506   3.149  11.600 -0.1459 -0.4747 -0.0047
  453TMC3     O 6750   4.445   3.245  11.554  0.4394  0.3846  0.6471
  453TMC3     H 6751   4.517   2.901  11.715 -1.4755  3.5799  0.1805
  453TMC3    H1 6752   4.476   3.119  11.358 -0.8634  0.6955  1.2362
  453TMC3    H2 6753   4.439   2.695  11.349 -0.8574  0.1096 -0.0519
  453TMC3    C7 6754   4.528   2.913  11.200  0.5405 -0.8805 -0.5580
  453TMC3    C8 6755   4.478   2.658  11.604  0.6812 -0.4399 -0.3829
  453TMC3    O1 6756   4.554   3.023  11.156  0.2164 -0.3906  0.6581
  453TMC3    O2 6757   4.447   2.665  11.726 -0.4216  0.0138 -0.5181
  454MPD2     C 6758   4.091   2.728  16.176 -0.2405 -0.0155 -0.8446
  454MPD2    C1 6759   3.969   2.776  16.228  0.2743  0.2789 -0.3818
  454MPD2    C2 6760   3.940   2.750  16.359  0.0447 -0.3326  0.1965
  454MPD2    C3 6761   4.015   2.660  16.433  0.1947  0.0817 -0.0104
  454MPD2    C4 6762   4.136   2.615  16.384  0.3931 -0.0917 -0.2365
  454MPD2    C5 6763   4.172   2.646  16.257  0.1861  0.9460  0.4535
  454MPD2     H 6764   3.853   2.803  16.396  0.4301  0.8937 -0.6713
  454MPD2    H1 6765   4.197   2.563  16.458  0.0365 -2.0154 -1.2895
  454MPD2    H2 6766   4.122   2.737  16.073  0.5104 -0.2691 -0.6407
  454MPD2    H3 6767   4.271   2.621  16.220 -1.0360 -0.7217 -1.6692
  454MPD2     N 6768   3.987   2.622  16.569 -0.4106 -0.5119  0.5484
  454MPD2    H5 6769   4.068   2.598  16.626 -0.4605  1.1687  1.3550
  454MPD2    N1 6770   3.875   2.849  16.153  0.0748 -0.0465 -0.0657
  454MPD2    H7 6771   3.793   2.893  16.191  0.2043 -0.2526  0.4494
  455TMC3    C1 6772   3.750   2.674  16.574  0.8470  1.0307 -0.6037
  455TMC3    C2 6773   3.671   2.774  16.624  0.0262 -0.7567  1.0054
  455TMC3    C3 6774   3.549   2.791  16.553  0.0903  0.6546  0.2329
  455TMC3    C4 6775   3.708   2.576  16.483  0.0171 -0.1553  0.4604
  455TMC3    C5 6776   3.583   2.595  16.426 -0.1839 -0.3426  0.1856
  455TMC3    C6 6777   3.509   2.714  16.449 -0.1874  0.2292 -0.2457
  455TMC3     C 6778   3.871   2.655  16.639  0.2232  0.1735  0.9297
  455TMC3     O 6779   3.858   2.663  16.760  0.0602 -0.0968 -0.1009
  455TMC3     H 6780   3.714   2.844  16.694  1.3344 -0.1663 -0.3856
  455TMC3    H1 6781   3.780   2.501  16.452  0.8824  0.8294  0.0620
  455TMC3    H2 6782   3.423   2.733  16.385 -1.7956  0.4403  1.9859
  455TMC3    C7 6783   3.540   2.506  16.320  0.2943 -0.2732  0.0806
  455TMC3    C8 6784   3.443   2.847  16.639 -0.1270 -0.4722 -0.2750
  455TMC3    O1 6785   3.462   2.543  16.239  0.2856 -0.3156 -0.0712
  455TMC3    O2 6786   3.338   2.880  16.578 -0.2015 -0.6109  0.0077
  456MPD2     C 6787   1.742   2.197  16.286  0.0044 -0.2588  0.1509
  456MPD2    C1 6788   1.849   2.262  16.333  0.3206 -0.3382 -0.1527
  456MPD2    C2 6789   1.831   2.387  16.393 -0.6231  0.1821  0.3244
  456MPD2    C3 6790   1.707   2.438  16.415 -0.2221  0.6247  0.7506
  456MPD2    C4 6791   1.602   2.374  16.359 -0.4465 -0.0333  0.9830
  456MPD2    C5 6792   1.618   2.259  16.294 -0.0508  0.2764  0.1607
  456MPD2     H 6793   1.916   2.434  16.442  0.5805 -2.2884  0.6592
  456MPD2    H1 6794   1.498   2.404  16.367 -0.6112  0.5390 -3.1966
  456MPD2    H2 6795   1.747   2.101  16.237  1.3906  0.5584 -1.3023
  456MPD2    H3 6796   1.529   2.209  16.255  1.1450 -0.7032 -1.2867
  456MPD2     N 6797   1.695   2.558  16.490  0.0554 -0.1316 -0.0535
  456MPD2    H5 6798   1.782   2.594  16.528 -0.7277  2.3496 -0.5609
  456MPD2    N1 6799   1.973   2.196  16.332 -0.4129 -0.5379  0.2247
  456MPD2    H7 6800   1.969   2.099  16.301 -0.2781 -0.1108 -1.1392
  457TMC3    C1 6801   1.577   2.735  16.613 -0.0358 -0.3670 -0.6526
  457TMC3    C2 6802   1.475   2.824  16.623 -0.4892  0.7171  0.0572
  457TMC3    C3 6803   1.454   2.878  16.748  0.3062 -0.3367 -0.3161
  457TMC3    C4 6804   1.649   2.699  16.719 -0.0777  0.5281 -0.7042
  457TMC3    C5 6805   1.645   2.769  16.835  0.3075 -0.7328 -0.2367
  457TMC3    C6 6806   1.547   2.864  16.848  0.7528  0.1479 -0.1493
  457TMC3     C 6807   1.575   2.635  16.511  0.3359  0.5466  0.3932
  457TMC3     O 6808   1.468   2.624  16.450  0.9133  0.0878  0.0876
  457TMC3     H 6809   1.412   2.836  16.536  3.1650 -1.9195 -2.9272
  457TMC3    H1 6810   1.722   2.619  16.718  0.1311  0.7140 -0.2511
  457TMC3    H2 6811   1.525   2.914  16.942 -1.0707  0.3132 -0.6662
  457TMC3    C7 6812   1.717   2.731  16.952  0.0258  0.6842  0.1601
  457TMC3    C8 6813   1.364   2.993  16.756  0.1201  0.0885  0.6777
  457TMC3    O1 6814   1.745   2.614  16.956 -1.0596 -0.1280 -0.1219
  457TMC3    O2 6815   1.362   3.051  16.862  0.0063  0.3999 -0.1371
  458MPD2     C 6816   3.462   2.249  12.473  0.7878  0.1276 -0.2552
  458MPD2    C1 6817   3.497   2.113  12.488  0.6485  0.0875 -0.2193
  458MPD2    C2 6818   3.406   2.036  12.554  0.0928  0.2300 -0.4312
  458MPD2    C3 6819   3.293   2.083  12.607  0.3086 -0.4137  0.2698
  458MPD2    C4 6820   3.266   2.220  12.599  0.6405 -0.1453  0.4669
  458MPD2    C5 6821   3.353   2.308  12.543  0.1133  0.0551  0.5114
  458MPD2     H 6822   3.428   1.933  12.580  0.5263  0.4184 -0.0515
  458MPD2    H1 6823   3.178   2.261  12.647  0.6382 -0.0229  0.3594
  458MPD2    H2 6824   3.529   2.318  12.424  1.4242 -0.0520  0.3613
  458MPD2    H3 6825   3.328   2.410  12.516 -1.5964 -0.4408  0.2604
  458MPD2     N 6826   3.197   1.984  12.655 -0.3158 -0.2452 -0.2467
  458MPD2    H5 6827   3.229   1.888  12.656 -0.0154 -0.1583 -1.4107
  458MPD2    N1 6828   3.614   2.071  12.435 -0.2668  0.3141  0.2923
  458MPD2    H7 6829   3.685   2.140  12.413  0.0939 -0.3661 -0.7343
  459TMC3    C1 6830   3.792   1.913  12.429  0.3045 -0.5999 -0.5228
  459TMC3    C2 6831   3.858   1.995  12.340  0.3982  0.0391  0.7972
  459TMC3    C3 6832   3.998   1.996  12.343 -0.3917  0.3048  0.1942
  459TMC3    C4 6833   3.847   1.831  12.518  0.1262  0.1140  0.3292
  459TMC3    C5 6834   3.991   1.841  12.519 -0.1607 -0.0222 -0.2419
  459TMC3    C6 6835   4.065   1.919  12.435 -0.4908  0.2321 -0.1040
  459TMC3     C 6836   3.657   1.937  12.439  0.1303  0.3130  0.0960
  459TMC3     O 6837   3.597   1.838  12.476 -0.0302  0.4140  0.5932
  459TMC3     H 6838   3.802   2.049  12.265  1.6265  1.7842  1.1376
  459TMC3    H1 6839   3.797   1.765  12.588 -0.1698 -0.1802 -0.1600
  459TMC3    H2 6840   4.173   1.922  12.449 -0.8236  1.7392  2.1355
  459TMC3    C7 6841   4.061   1.802  12.640  0.2112 -0.9538  0.1769
  459TMC3    C8 6842   4.088   2.061  12.254 -0.1859  0.6692  0.3700
  459TMC3    O1 6843   4.048   1.688  12.689 -0.5936 -0.3578  0.8827
  459TMC3    O2 6844   4.186   1.998  12.208 -0.3816  0.6192 -0.1879
  460MPD2     C 6845   3.415   0.129  10.834 -0.1978 -0.8681 -0.5783
  460MPD2    C1 6846   3.294   0.097  10.782  0.2100  0.4723  0.5721
  460MPD2    C2 6847   3.288   0.083  10.647  0.8788 -0.4286 -0.0289
  460MPD2    C3 6848   3.410   0.080  10.578 -0.3035 -0.9755 -0.0411
  460MPD2    C4 6849   3.532   0.094  10.634  0.0769  0.2778 -0.1067
  460MPD2    C5 6850   3.533   0.131  10.764 -0.6026 -0.3108 -0.1714
  460MPD2     H 6851   3.198   0.069  10.588  0.2815 -0.1932  0.8265
  460MPD2    H1 6852   3.625   0.103  10.579  0.1571 -2.8696 -0.5105
  460MPD2    H2 6853   3.409   0.157  10.938 -0.2690 -0.0306 -0.8076
  460MPD2    H3 6854   3.628   0.157  10.810 -1.4040  4.1765 -1.0282
  460MPD2     N 6855   3.395   0.053  10.442  0.1651 -0.7622  0.3373
  460MPD2    H5 6856   3.314   4.711  10.423  0.3259 -0.8515 -0.0611
  460MPD2    N1 6857   3.179   0.109  10.872 -0.3079  0.8041  0.5255
  460MPD2    H7 6858   3.206   0.129  10.968 -1.8769  0.9178  0.9396
  461TMC3    C1 6859   3.429   0.059  10.215  0.2498  0.3722  0.0896
  461TMC3    C2 6860   3.366   4.656  10.188  0.2036  0.3292 -0.7474
  461TMC3    C3 6861   3.288   4.645  10.073 -0.5176  0.0586  0.6914
  461TMC3    C4 6862   3.426   0.166  10.126 -0.2155 -0.0314  0.1608
  461TMC3    C5 6863   3.351   0.154  10.010 -0.4005 -0.0016 -0.3576
  461TMC3    C6 6864   3.273   0.043   9.990 -0.2797  0.6010  0.1423
  461TMC3     C 6865   3.483   0.082  10.347 -0.1613 -0.5000  0.3618
  461TMC3     O 6866   3.573   0.164  10.348  0.3438 -0.0889  0.1650
  461TMC3     H 6867   3.358   4.576  10.261 -1.8895  1.0535 -0.1846
  461TMC3    H1 6868   3.469   0.261  10.154 -1.0565  0.0678  1.1009
  461TMC3    H2 6869   3.233   0.035   9.890  0.6431 -0.8564 -0.1189
  461TMC3    C7 6870   3.300   0.273   9.944  0.7963  0.3170 -0.4564
  461TMC3    C8 6871   3.203   4.532  10.026 -0.0791  0.5155 -0.3550
  461TMC3    O1 6872   3.194   0.281   9.887 -0.6093  0.0978 -0.1112
  461TMC3    O2 6873   3.129   4.554   9.930 -0.0898  0.3088  0.2923
  462TMC3    C1 6874   3.191   0.876  17.623  0.6140  0.2524 -0.5970
  462TMC3    C2 6875   3.236   0.769  17.548 -0.1155 -0.2040 -0.3132
  462TMC3    C3 6876   3.236   0.643  17.600 -0.8202 -0.0601 -0.3763
  462TMC3    C4 6877   3.140   0.852   0.075 -0.2604  0.5570  0.4274
  462TMC3    C5 6878   3.148   0.722   0.120 -0.1359  0.6196 -0.1532
  462TMC3    C6 6879   3.195   0.614   0.054 -0.4887 -0.1143 -0.8144
  462TMC3     C 6880   3.206   1.008  17.573 -0.2201  0.2541  1.2564
  462TMC3     O 6881   3.131   1.087  17.632  0.0964 -0.2850 -0.3289
  462TMC3     H 6882   3.269   0.782  17.445 -1.5626  1.0689 -0.6276
  462TMC3    H1 6883   3.129   0.935   0.145 -0.9020  0.3203  0.6102
  462TMC3    H2 6884   3.182   0.514   0.095 -3.1770  0.2548 -0.7471
  462TMC3    C7 6885   3.119   0.701   0.261  0.6761 -0.2289  0.0290
  462TMC3    C8 6886   3.248   0.528  17.507  0.1023 -0.1517 -0.5481
  462TMC3    O1 6887   3.179   0.610   0.320 -0.3794  0.1496  0.2018
  462TMC3    O2 6888   3.230   0.554  17.391 -0.1644 -0.1537 -0.0953
  463MPD2     C 6889   3.937   3.539   1.930  0.4401 -0.8753 -0.1323
  463MPD2    C1 6890   3.884   3.654   1.876 -0.1278 -0.5957  0.1737
  463MPD2    C2 6891   3.933   3.709   1.760  0.8273 -0.4390  0.5101
  463MPD2    C3 6892   4.048   3.653   1.702 -0.5779  0.2405 -0.4659
  463MPD2    C4 6893   4.106   3.547   1.761 -0.1967  0.4602 -0.0143
  463MPD2    C5 6894   4.048   3.490   1.871  0.4181 -0.5690  0.3187
  463MPD2     H 6895   3.881   3.787   1.706  0.1833 -1.4181 -0.2795
  463MPD2    H1 6896   4.186   3.495   1.710 -1.8824 -0.8219 -1.3722
  463MPD2    H2 6897   3.889   3.479   2.007  0.9233  0.5736  1.3058
  463MPD2    H3 6898   4.093   3.402   1.916  1.9091  0.1353  0.1849
  463MPD2     N 6899   4.105   3.695   1.580  0.1303  0.6199 -0.5854
  463MPD2    H5 6900   4.169   3.630   1.536 -0.7267 -0.6606  0.0958
  463MPD2    N1 6901   3.758   3.709   1.918 -0.3252  0.0150 -0.1700
  463MPD2    H7 6902   3.734   3.800   1.880  0.7954  0.3173 -0.1460
  464TMC3    C1 6903   3.534   3.707   2.003  0.4261  0.5111 -0.0466
  464TMC3    C2 6904   3.487   3.802   1.920  0.0472  0.2713  0.9038
  464TMC3    C3 6905   3.363   3.857   1.946 -0.0725 -0.0631 -0.3154
  464TMC3    C4 6906   3.460   3.670   2.116 -0.2928 -0.2112  0.9481
  464TMC3    C5 6907   3.335   3.732   2.135  0.2563  0.5404  0.3756
  464TMC3    C6 6908   3.288   3.824   2.050  0.7066  0.0065  0.0613
  464TMC3     C 6909   3.667   3.648   2.001  0.3807  0.2779 -0.7080
  464TMC3     O 6910   3.680   3.546   2.072 -0.4616  0.1352 -0.0329
  464TMC3     H 6911   3.541   3.833   1.831  1.3481  0.7333  1.8486
  464TMC3    H1 6912   3.491   3.590   2.183  1.8505  0.1549  0.3896
  464TMC3    H2 6913   3.192   3.867   2.075 -0.6243 -2.3035 -1.0818
  464TMC3    C7 6914   3.232   3.634   2.183 -1.1989 -0.4806  0.5716
  464TMC3    C8 6915   3.309   3.948   1.842  0.2741 -0.3797  0.1339
  464TMC3    O1 6916   3.148   3.670   2.261  0.3752  0.3850  0.6315
  464TMC3    O2 6917   3.374   3.948   1.740 -0.2387 -0.1624 -0.3590
  465MPD2     C 6918   0.735   1.990  16.606  0.5934  0.0597 -0.2017
  465MPD2    C1 6919   0.614   2.001  16.673  0.1775  0.1197 -0.2768
  465MPD2    C2 6920   0.522   2.100  16.633 -1.0869 -0.1828 -0.0497
  465MPD2    C3 6921   0.545   2.178  16.526 -0.4886 -0.4923  0.0245
  465MPD2    C4 6922   0.664   2.169  16.463 -0.2149 -0.6370 -0.7894
  465MPD2    C5 6923   0.754   2.074  16.497 -0.2569 -0.6951 -0.1377
  465MPD2     H 6924   0.425   2.099  16.681 -1.7867 -1.2966 -1.4883
  465MPD2    H1 6925   0.694   2.231  16.380 -0.9257  0.0707 -0.5150
  465MPD2    H2 6926   0.812   1.925  16.645  1.5628  1.0174 -0.5034
  465MPD2    H3 6927   0.847   2.072  16.443 -0.4178 -1.3339 -0.3950
  465MPD2     N 6928   0.440   2.263  16.487 -0.0540  0.3165 -0.4932
  465MPD2    H5 6929   0.364   2.276  16.554  1.1249  1.4569  0.6177
  465MPD2    N1 6930   0.581   1.916  16.782  0.0815  0.2155 -0.1537
  465MPD2    H7 6931   0.497   1.948  16.828 -0.0313 -2.8776  1.7771
  466TMC3    C1 6932   0.095   2.465  16.424  0.4655  0.1978  0.5795
  466TMC3    C2 6933   0.111   2.591  16.370 -0.4069 -0.5497  0.2846
  466TMC3    C3 6934   0.218   2.618  16.289  0.1741  0.9017  0.2608
  466TMC3    C4 6935   0.201   2.376  16.418 -0.0009  0.1813  0.2216
  466TMC3    C5 6936   0.317   2.413  16.349  0.2119  0.3606 -0.7052
  466TMC3    C6 6937   0.318   2.525  16.266  0.0333  0.6406 -0.1022
  466TMC3     C 6938   4.709   2.446  16.533  0.6551 -0.2612  1.0405
  466TMC3     O 6939   4.678   2.543  16.599 -0.2222  0.4640  0.2811
  466TMC3     H 6940   0.028   2.659  16.389 -0.0368 -0.4496  1.5335
  466TMC3    H1 6941   0.184   2.275  16.454  1.2364 -0.3022 -0.5416
  466TMC3    H2 6942   0.404   2.550  16.206  0.7448  1.7146  1.3597
  466TMC3    C7 6943   0.434   2.334  16.362 -0.5565 -0.7242  0.3294
  466TMC3    C8 6944   0.237   2.753  16.241 -0.1392 -0.1167  0.7565
  466TMC3    O1 6945   0.517   2.329  16.275 -0.2720  0.2293  0.2586
  466TMC3    O2 6946   0.287   2.776  16.131 -0.3938  0.3731 -0.3457
  467TMC3    C1 6947   1.161   1.457  13.693  0.3848 -0.5509  0.0921
  467TMC3    C2 6948   1.075   1.496  13.590 -0.3064  0.1995 -0.8163
  467TMC3    C3 6949   0.945   1.456  13.595 -1.0899  0.0705  0.3587
  467TMC3    C4 6950   1.122   1.385  13.797  1.3827  0.1020  0.0546
  467TMC3    C5 6951   0.990   1.342  13.804 -0.8192  0.1620  1.1567
  467TMC3    C6 6952   0.898   1.375  13.705  0.5876 -0.6166  0.1410
  467TMC3     C 6953   1.299   1.485  13.690  0.0265 -0.4340  0.2420
  467TMC3     O 6954   1.344   1.534  13.790 -0.3145 -0.4241  0.3766
  467TMC3     H 6955   1.105   1.568  13.515  4.1009 -1.4647 -0.6689
  467TMC3    H1 6956   1.205   1.350  13.857  0.9396 -1.6634 -0.3590
  467TMC3    H2 6957   0.803   1.325  13.708 -0.8098  2.0231 -0.0683
  467TMC3    C7 6958   0.958   1.233  13.890  0.1517 -0.0662  0.7419
  467TMC3    C8 6959   0.854   1.507  13.492  0.0789  0.4190 -0.5892
  467TMC3    O1 6960   1.056   1.171  13.925  0.2803  0.6897  0.6278
  467TMC3    O2 6961   0.906   1.566  13.394 -0.2417 -0.9445  0.9651
  468MPD2     C 6962   4.541   4.203  10.525  0.0012  0.5439 -0.1396
  468MPD2    C1 6963   4.659   4.151  10.502 -0.1550 -0.8566  0.5859
  468MPD2    C2 6964   4.676   4.018  10.504 -0.0596 -0.1439 -0.4768
  468MPD2    C3 6965   4.572   3.924  10.512 -0.5275 -0.4347  0.5369
  468MPD2    C4 6966   4.446   3.972  10.523 -0.1261 -0.0589  0.9033
  468MPD2    C5 6967   4.440   4.109  10.537  0.3821 -0.4119 -0.1973
  468MPD2     H 6968   0.060   3.984  10.482 -0.1645 -0.7743 -0.0023
  468MPD2    H1 6969   4.358   3.912  10.544 -1.9828  2.8043  1.2641
  468MPD2    H2 6970   4.520   4.308  10.542 -0.8885  0.2778  0.4073
  468MPD2    H3 6971   4.343   4.153  10.554  0.1209 -1.5744  1.3472
  468MPD2     N 6972   4.592   3.782  10.514 -0.6717 -0.3856  0.6410
  468MPD2    H5 6973   4.519   3.719  10.545  0.5406 -2.7204 -1.2805
  468MPD2    N1 6974   0.058   4.232  10.485 -0.3236  0.0088 -0.0528
  468MPD2    H7 6975   0.149   4.194  10.463 -1.1687 -2.8101  1.3040
  469TMC3    C1 6976   0.201   4.409  10.542 -0.6273 -0.0567  0.5940
  469TMC3    C2 6977   0.296   4.312  10.575 -0.0965 -0.7424 -0.6088
  469TMC3    C3 6978   0.392   4.353  10.660 -0.5282  0.7127 -0.1332
  469TMC3    C4 6979   0.208   4.538  10.587  0.5015  0.7859  0.8434
  469TMC3    C5 6980   0.307   4.570  10.675  0.4327  0.1708 -0.1396
  469TMC3    C6 6981   0.405   4.482  10.712 -0.1660  0.1337  0.2591
  469TMC3     C 6982   0.065   4.370  10.504  0.2268 -0.5020  0.3988
  469TMC3     O 6983   4.687   4.451  10.492  0.0053 -0.5136 -0.5244
  469TMC3     H 6984   0.291   4.210  10.538  2.0710  0.0834 -3.1755
  469TMC3    H1 6985   0.124   4.602  10.563 -0.7113 -1.3161 -0.4926
  469TMC3    H2 6986   0.494   4.515  10.765 -0.5867 -0.1133  1.1139
  469TMC3    C7 6987   0.319   4.708  10.714 -0.6020 -0.4743 -0.6414
  469TMC3    C8 6988   0.429   4.242  10.742  0.5050 -0.6223  0.2149
  469TMC3    O1 6989   0.244   0.069  10.653 -0.3537 -0.3350 -0.0216
  469TMC3    O2 6990   0.442   4.138  10.679 -0.2634  0.1285  0.5881
  470TMC3    C1 6991   2.008   0.239   0.733 -0.1095  0.3814 -0.9522
  470TMC3    C2 6992   2.035   0.376   0.738  0.6293 -0.0177 -0.0719
  470TMC3    C3 6993   2.018   0.428   0.860 -0.0220 -0.3680  0.0744
  470TMC3    C4 6994   2.004   0.154   0.837 -0.2420  0.4400  0.5632
  470TMC3    C5 6995   2.003   0.213   0.961  0.6357  0.0111  0.3686
  470TMC3    C6 6996   2.012   0.351   0.974 -0.0605  0.0187  0.3266
  470TMC3     C 6997   2.001   0.182   0.603 -0.0501  0.2188  0.9628
  470TMC3     O 6998   2.028   0.262   0.517 -0.4728 -0.0532 -0.1664
  470TMC3     H 6999   2.042   0.445   0.654  0.2334 -1.0499 -0.9604
  470TMC3    H1 7000   1.992   0.046   0.828  0.1728  0.5389 -1.2092
  470TMC3    H2 7001   2.005   0.405   1.068 -2.0192 -0.6767  0.5794
  470TMC3    C7 7002   2.039   0.129   1.073 -0.2417  0.1489 -0.6688
  470TMC3    C8 7003   2.069   0.565   0.879  0.6818  0.0373 -0.7778
  470TMC3    O1 7004   2.072   0.010   1.051 -0.4484 -0.7709 -0.0827
  470TMC3    O2 7005   2.144   0.569   0.977 -0.2248 -0.4173 -0.3937
  471MPD2     C 7006   2.783   1.445  16.671 -0.9676 -0.4569  0.2929
  471MPD2    C1 7007   2.746   1.317  16.694  0.1193  0.0634 -0.5270
  471MPD2    C2 7008   2.760   1.263  16.815 -0.1687 -0.2821 -0.0736
  471MPD2    C3 7009   2.826   1.334  16.917  0.2257 -0.2085  0.6632
  471MPD2    C4 7010   2.868   1.461  16.891 -0.6277 -0.0332 -0.3986
  471MPD2    C5 7011   2.831   1.519  16.774  0.4144  0.4788 -0.2951
  471MPD2     H 7012   2.738   1.158  16.828 -0.6949 -0.4475 -2.2452
  471MPD2    H1 7013   2.914   1.517  16.972  1.4650 -0.9581 -0.9466
  471MPD2    H2 7014   2.793   1.490  16.573  0.0316  2.8658  1.9116
  471MPD2    H3 7015   2.859   1.623  16.763  1.4253  0.0841 -1.4243
  471MPD2     N 7016   2.866   1.272  17.033  0.1282 -0.4140  0.0273
  471MPD2    H5 7017   2.930   1.331  17.086 -0.2434 -0.8437  0.9517
  471MPD2    N1 7018   2.708   1.230  16.592  0.1568 -0.3128 -0.0792
  471MPD2    H7 7019   2.669   1.143  16.624  0.7129 -1.0482 -1.4059
  472TMC3    C1 7020   2.625   1.168  16.390 -0.6241 -0.0400  0.2503
  472TMC3    C2 7021   2.551   1.208  16.290  0.4277  0.2067 -0.0718
  472TMC3    C3 7022   2.483   1.120  16.213 -0.1059 -0.1204 -0.0361
  472TMC3    C4 7023   2.643   1.039  16.418  0.2342 -0.0192  0.1920
  472TMC3    C5 7024   2.562   0.947  16.353 -0.1695 -1.0951 -0.5222
  472TMC3    C6 7025   2.488   0.983  16.241  0.6263  0.0252 -0.6129
  472TMC3     C 7026   2.698   1.265  16.462 -0.5325  0.1516  0.0931
  472TMC3     O 7027   2.733   1.366  16.406 -0.1029  0.3055  0.7098
  472TMC3     H 7028   2.534   1.314  16.277  2.1244  0.3864 -0.8148
  472TMC3    H1 7029   2.727   1.014  16.482  1.1083 -1.5018 -1.5263
  472TMC3    H2 7030   2.430   0.908  16.189  2.5679 -2.4831  0.8098
  472TMC3    C7 7031   2.613   0.815  16.350 -0.0508  0.2605 -0.0682
  472TMC3    C8 7032   2.366   1.176  16.152  0.1903 -0.5527  1.0785
  472TMC3    O1 7033   2.664   0.770  16.455  0.0813  0.0078 -0.0199
  472TMC3    O2 7034   2.358   1.292  16.116 -0.2474  0.6832 -0.6104
  473MPD2     C 7035   2.919   3.545  13.844 -0.2103 -0.5093 -0.1622
  473MPD2    C1 7036   2.813   3.630  13.851  0.2059  0.5039  0.3345
  473MPD2    C2 7037   2.828   3.741  13.932  0.8048 -0.3877  0.1965
  473MPD2    C3 7038   2.943   3.762  14.009 -0.2474  0.4454 -0.2836
  473MPD2    C4 7039   3.044   3.671  14.003 -0.0979 -0.2594 -1.4669
  473MPD2    C5 7040   3.033   3.570  13.920 -0.4062  0.4351  0.2326
  473MPD2     H 7041   2.750   3.814  13.913 -0.3920 -1.4362  1.0607
  473MPD2    H1 7042   3.138   3.677  14.056 -0.5697 -0.4381 -0.6089
  473MPD2    H2 7043   2.906   3.461  13.776  1.7282 -1.3626  0.5191
  473MPD2    H3 7044   3.117   3.502  13.914 -1.2464 -0.6900  1.1928
  473MPD2     N 7045   2.969   3.886  14.075  0.8024 -0.2027 -0.0454
  473MPD2    H5 7046   3.048   3.892  14.138  0.1151  0.2347  0.7764
  473MPD2    N1 7047   2.692   3.613  13.773 -0.2067  0.0917 -0.1140
  473MPD2    H7 7048   2.615   3.673  13.803  0.2243  1.2868 -1.3925
  474TMC3    C1 7049   2.912   4.091  14.181 -0.0786 -0.3898 -0.0370
  474TMC3    C2 7050   2.827   4.194  14.207 -0.2173  0.8136 -0.2911
  474TMC3    C3 7051   2.852   4.296  14.295  0.0084  0.1225  0.3910
  474TMC3    C4 7052   3.030   4.099  14.254 -0.5816  0.6400  0.2293
  474TMC3    C5 7053   3.043   4.183  14.356  0.0089  0.4489 -0.0998
  474TMC3    C6 7054   2.961   4.289  14.379  0.2934 -0.3399 -0.4484
  474TMC3     C 7055   2.888   4.000  14.070  0.8211 -0.7888 -0.2558
  474TMC3     O 7056   2.808   4.032  13.986  0.4352 -0.6296  0.5174
  474TMC3     H 7057   2.739   4.206  14.146 -0.9342  0.0059  0.5930
  474TMC3    H1 7058   3.093   4.011  14.249 -0.5443  0.7508 -1.4265
  474TMC3    H2 7059   2.979   4.366  14.453  3.4959 -0.6476 -0.9359
  474TMC3    C7 7060   3.180   4.185  14.409 -0.3383 -1.0366 -0.2078
  474TMC3    C8 7061   2.779   4.416  14.272 -0.7997 -0.4278  0.1745
  474TMC3    O1 7062   3.264   4.110  14.365 -0.8480  0.2942 -0.2043
  474TMC3    O2 7063   2.668   4.404  14.229  0.1440  0.2913  0.7060
  475MPD2     C 7064   1.183   2.389  10.337  0.4482 -0.5056  0.8941
  475MPD2    C1 7065   1.185   2.271  10.253 -0.0827  0.4780  0.6759
  475MPD2    C2 7066   1.063   2.201  10.235 -0.0715  1.0387  0.1578
  475MPD2    C3 7067   0.946   2.229  10.298 -0.5041  0.1513  0.0486
  475MPD2    C4 7068   0.949   2.340  10.388  0.2385 -0.0165 -0.2305
  475MPD2    C5 7069   1.064   2.413  10.407  0.6604  0.2779  0.6938
  475MPD2     H 7070   1.060   2.127  10.156  0.6290 -0.6975  1.7851
  475MPD2    H1 7071   0.858   2.361  10.443 -0.2177  0.1350 -1.0345
  475MPD2    H2 7072   1.272   2.448  10.350  1.0614 -0.8877 -1.6838
  475MPD2    H3 7073   1.062   2.504  10.467  0.1527 -0.0848  1.2291
  475MPD2     N 7074   0.832   2.150  10.276 -0.1574 -0.8623 -0.1697
  475MPD2    H5 7075   0.836   2.076  10.207  1.1845 -1.4502  0.5280
  475MPD2    N1 7076   1.306   2.241  10.182  0.8946  0.0065  0.0473
  475MPD2    H7 7077   1.385   2.303  10.200  2.3049 -2.0244  0.9133
  476TMC3    C1 7078   1.439   2.196   9.984 -0.3911  0.2819 -0.5163
  476TMC3    C2 7079   1.430   2.180   9.849 -0.2658  0.5238 -0.2389
  476TMC3    C3 7080   1.528   2.230   9.768 -0.9341 -0.0678 -0.2456
  476TMC3    C4 7081   1.545   2.257  10.044  0.2417 -0.4465 -0.3254
  476TMC3    C5 7082   1.646   2.303   9.966  0.5194  0.1637  0.7328
  476TMC3    C6 7083   1.633   2.299   9.829 -0.4523  0.3266 -0.1649
  476TMC3     C 7084   1.319   2.163  10.063  0.6770  0.0446 -0.1805
  476TMC3     O 7085   1.230   2.098  10.013  0.2769 -0.2235 -0.1209
  476TMC3     H 7086   1.350   2.127   9.798 -0.7529 -0.2716  1.3504
  476TMC3    H1 7087   1.567   2.239  10.149  2.5541 -1.6196 -1.0241
  476TMC3    H2 7088   1.715   2.334   9.769  1.2247 -0.3774  1.6973
  476TMC3    C7 7089   1.777   2.356  10.014 -0.2857  0.5370 -1.3539
  476TMC3    C8 7090   1.516   2.233   9.621 -0.3927  0.5359 -0.2451
  476TMC3    O1 7091   1.874   2.348   9.937  0.4817 -0.7457 -0.4625
  476TMC3    O2 7092   1.568   2.320   9.559  0.4543  0.2623 -0.5501
  477MPD2     C 7093   2.964   3.657  11.767  0.2935  0.4756  0.1640
  477MPD2    C1 7094   3.071   3.742  11.788  0.6555 -0.2763 -0.2261
  477MPD2    C2 7095   3.189   3.701  11.854 -0.1270 -0.3412 -0.3978
  477MPD2    C3 7096   3.196   3.569  11.887 -0.1682  0.4334 -0.6239
  477MPD2    C4 7097   3.084   3.492  11.874 -0.1887 -1.0998 -0.4888
  477MPD2    C5 7098   2.969   3.533  11.816  0.4788  0.0729  0.0790
  477MPD2     H 7099   3.272   3.768  11.870  1.5458 -2.8598  1.3856
  477MPD2    H1 7100   3.068   3.395  11.921 -0.9660 -1.0120 -0.5753
  477MPD2    H2 7101   2.877   3.692  11.713 -0.3752  0.1178  1.0164
  477MPD2    H3 7102   2.885   3.466  11.802 -0.6304  1.2278  1.2074
  477MPD2     N 7103   3.310   3.523  11.960  0.0777  0.0700  0.0135
  477MPD2    H5 7104   3.377   3.594  11.989 -0.9062  1.0946 -0.2525
  477MPD2    N1 7105   3.062   3.867  11.725 -0.4202 -0.2497 -0.7310
  477MPD2    H7 7106   2.968   3.898  11.704 -0.1164  0.2545 -1.3356
  478TMC3    C1 7107   3.125   4.064  11.623  0.9607 -0.4344 -0.2478
  478TMC3    C2 7108   3.022   4.134  11.684  0.2065  0.2139  0.3840
  478TMC3    C3 7109   2.970   4.241  11.616  0.0536  0.5364  0.1450
  478TMC3    C4 7110   3.162   4.090  11.494 -0.0296 -0.5435  0.3455
  478TMC3    C5 7111   3.099   4.189  11.427  0.2958 -0.3124 -0.3306
  478TMC3    C6 7112   3.007   4.274  11.485 -0.1980  0.0372 -0.1090
  478TMC3     C 7113   3.169   3.939  11.681  0.3419 -0.1405 -0.1224
  478TMC3     O 7114   3.280   3.897  11.660  0.1046 -0.4747 -0.1703
  478TMC3     H 7115   3.003   4.105  11.787  2.0931  0.5192  0.8041
  478TMC3    H1 7116   3.238   4.030  11.447  1.5623  0.7035  1.3236
  478TMC3    H2 7117   2.962   4.359  11.437 -0.8727 -1.1089 -1.4985
  478TMC3    C7 7118   3.170   4.236  11.302  0.0186  0.4728 -0.1102
  478TMC3    C8 7119   2.873   4.321  11.694 -0.4427  0.1197 -1.0568
  478TMC3    O1 7120   3.290   4.225  11.308  0.2778  0.1720 -0.0743
  478TMC3    O2 7121   2.875   4.305  11.813  0.0895  0.3812  0.0421
  479MPD2     C 7122   2.406   0.902  14.767  0.0772 -0.5262  0.4252
  479MPD2    C1 7123   2.373   0.804  14.862 -0.8511 -0.3443  0.2033
  479MPD2    C2 7124   2.473   0.763  14.952  0.2419  0.2222  0.4536
  479MPD2    C3 7125   2.600   0.819  14.949  0.3229  0.0049 -0.3016
  479MPD2    C4 7126   2.630   0.908  14.848 -0.2628  0.7110 -0.3156
  479MPD2    C5 7127   2.534   0.942  14.761  1.3007 -0.1274 -0.1200
  479MPD2     H 7128   2.445   0.688  15.025  0.0848  1.0034  1.1933
  479MPD2    H1 7129   2.729   0.950  14.831 -1.6684  3.3148 -2.0673
  479MPD2    H2 7130   2.330   0.938  14.698  1.6087  2.6719  0.3932
  479MPD2    H3 7131   2.561   0.999  14.673  0.7737  2.6033  1.4904
  479MPD2     N 7132   2.698   0.801  15.052  0.0660 -0.4383  0.1495
  479MPD2    H5 7133   2.786   0.845  15.027 -0.0535 -0.1054  0.3089
  479MPD2    N1 7134   2.239   0.765  14.865 -0.5633  0.2882  0.5619
  479MPD2    H7 7135   2.185   0.810  14.792  2.9751  1.8625 -1.0569
  480TMC3    C1 7136   2.420   0.694  15.425 -0.2964 -0.2892 -0.6003
  480TMC3    C2 7137   2.353   0.807  15.400 -0.4291 -0.0780 -0.3873
  480TMC3    C3 7138   2.390   0.897  15.305 -0.0551 -0.3164 -0.1790
  480TMC3    C4 7139   2.522   0.657  15.340 -0.7389 -0.0831 -0.0973
  480TMC3    C5 7140   2.556   0.749  15.246  0.3879 -0.3554  0.4593
  480TMC3    C6 7141   2.496   0.873  15.227 -0.3111  0.8568 -1.0320
  480TMC3     C 7142   2.419   0.630  15.555 -0.5475  0.1324  0.5750
  480TMC3     O 7143   2.474   0.518  15.556  0.1778  0.1456 -0.0258
  480TMC3     H 7144   2.264   0.831  15.457 -1.0770 -1.0134 -1.0188
  480TMC3    H1 7145   2.578   0.565  15.347  0.8645  0.9717  1.0057
  480TMC3    H2 7146   2.549   0.954  15.178  0.5586  0.4927 -0.6874
  480TMC3    C7 7147   2.686   0.738  15.175  0.5917 -0.1981  0.7046
  480TMC3    C8 7148   2.293   0.992  15.259 -0.4118 -0.8710 -0.1357
  480TMC3    O1 7149   2.773   0.706  15.252  0.1995 -0.2380  0.8920
  480TMC3    O2 7150   2.188   1.002  15.321  0.3563 -0.1309  0.2617
  481MPD2     C 7151   4.324   0.579  13.876  0.1664 -0.2444  0.5386
  481MPD2    C1 7152   4.209   0.622  13.942  0.0889 -0.1946  0.3310
  481MPD2    C2 7153   4.183   0.575  14.070  0.4240 -0.1284  0.2179
  481MPD2    C3 7154   4.264   0.471  14.120  0.7168  0.0565  0.7359
  481MPD2    C4 7155   4.366   0.415  14.047 -0.7542 -0.3388 -0.1465
  481MPD2    C5 7156   4.393   0.465  13.923  0.1781 -0.0669 -0.5871
  481MPD2     H 7157   4.112   0.615  14.141 -0.6846  1.1277 -1.6028
  481MPD2    H1 7158   4.429   0.335  14.086 -0.3390  0.3549  0.5863
  481MPD2    H2 7159   4.351   0.626  13.783  0.6911 -2.9729 -0.6860
  481MPD2    H3 7160   4.485   0.426  13.882  0.3250  0.4890 -0.7816
  481MPD2     N 7161   4.248   0.421  14.254  0.6274 -0.3894  0.8579
  481MPD2    H5 7162   4.328   0.367  14.289  0.7690 -0.3886  0.5333
  481MPD2    N1 7163   4.122   0.724  13.888 -0.1395 -0.6364 -0.1090
  481MPD2    H7 7164   4.037   0.745  13.939  0.5099  2.0184 -0.1036
  482TMC3    C1 7165   4.037   0.866  13.730  1.0222  0.2894  0.5550
  482TMC3    C2 7166   3.920   0.797  13.726  0.9368  0.5263  0.3216
  482TMC3    C3 7167   3.819   0.838  13.641  0.2734  0.7454  0.0927
  482TMC3    C4 7168   4.060   0.972  13.641 -0.0470 -0.1922 -0.9683
  482TMC3    C5 7169   3.963   1.005  13.549 -0.4780  0.0186  0.0451
  482TMC3    C6 7170   3.841   0.940  13.541 -0.4144 -0.5636 -0.2531
  482TMC3     C 7171   4.153   0.797  13.773 -1.2362 -0.4875 -0.2607
  482TMC3     O 7172   4.263   0.816  13.720  0.6330  0.0315  0.4719
  482TMC3     H 7173   3.898   0.715  13.793 -4.1576  1.3674 -0.3276
  482TMC3    H1 7174   4.156   1.019  13.656 -0.3028 -0.4098  1.2715
  482TMC3    H2 7175   3.761   0.992  13.489  0.8170  1.0861 -0.5034
  482TMC3    C7 7176   3.994   1.125  13.468 -0.1277  0.7232 -0.2768
  482TMC3    C8 7177   3.716   0.745  13.611  0.2071  0.4431  0.0180
  482TMC3    O1 7178   4.080   1.199  13.507 -0.3119  0.1605 -0.4008
  482TMC3    O2 7179   3.719   0.635  13.661  0.9918 -0.4764 -0.2412
  483TMC3    C1 7180   2.361   4.006   1.373  0.0577 -1.0897 -0.4202
  483TMC3    C2 7181   2.360   4.135   1.331 -0.1262  0.0882  0.6748
  483TMC3    C3 7182   2.438   4.229   1.397  0.2966  0.4108 -0.1178
  483TMC3    C4 7183   2.433   3.968   1.479  0.0520  0.1825 -0.1095
  483TMC3    C5 7184   2.517   4.062   1.536  0.4505 -0.4018  0.6329
  483TMC3    C6 7185   2.530   4.189   1.497 -0.1573 -0.2991  0.4261
  483TMC3     C 7186   2.274   3.911   1.306  0.2187  0.3430 -0.0038
  483TMC3     O 7187   2.167   3.950   1.263  0.4063 -0.2969 -0.0866
  483TMC3     H 7188   2.315   4.171   1.239 -0.2115  2.3747  1.5979
  483TMC3    H1 7189   2.438   3.866   1.516 -0.4345 -0.1227 -0.8958
  483TMC3    H2 7190   2.600   4.257   1.545 -0.0098 -2.2294  2.9345
  483TMC3    C7 7191   2.616   4.003   1.625  0.2016 -0.1044  0.4703
  483TMC3    C8 7192   2.473   4.347   1.326 -0.1851 -0.1244 -0.0970
  483TMC3    O1 7193   2.651   3.887   1.606 -0.4215 -0.0733 -0.4164
  483TMC3    O2 7194   2.451   4.346   1.208 -0.0282 -0.4386 -0.4354
  484MPD2     C 7195   4.097   2.420  12.164  0.3337 -0.4934  0.3973
  484MPD2    C1 7196   4.141   2.289  12.177 -0.1535 -0.4707 -0.1671
  484MPD2    C2 7197   4.275   2.265  12.149 -0.4475 -0.0793 -0.1157
  484MPD2    C3 7198   4.355   2.361  12.088 -0.4893  0.3410 -0.8003
  484MPD2    C4 7199   4.293   2.487  12.052 -0.3603  0.2093  0.1106
  484MPD2    C5 7200   4.166   2.511  12.090  0.3320 -0.1207  0.3525
  484MPD2     H 7201   4.324   2.171  12.172 -1.8008 -0.9910 -0.9422
  484MPD2    H1 7202   4.351   2.562  12.000  0.5771 -0.8183 -0.3469
  484MPD2    H2 7203   4.002   2.451  12.206  0.6526 -1.6114  1.9357
  484MPD2    H3 7204   4.123   2.611  12.082  2.0332  0.7731  2.5777
  484MPD2     N 7205   4.492   2.340  12.054  0.3544  0.7942 -0.0247
  484MPD2    H5 7206   4.540   2.411  12.000 -0.1308  1.1379 -0.0063
  484MPD2    N1 7207   4.063   2.194  12.240 -0.4318  0.6869  0.5600
  484MPD2    H7 7208   3.971   2.226  12.267 -0.6297  1.0899 -0.5940
  485TMC3    C1 7209   4.706   2.228  12.035  0.9647  0.1517 -0.2876
  485TMC3    C2 7210   0.072   2.139  12.097 -0.5515 -0.2897 -0.2029
  485TMC3    C3 7211   0.201   2.158  12.066  0.4752 -0.2052 -0.4553
  485TMC3    C4 7212   0.025   2.322  11.943  0.6189 -0.2523  0.4974
  485TMC3    C5 7213   0.158   2.326  11.905 -1.0187  0.5940 -0.1023
  485TMC3    C6 7214   0.242   2.254  11.979  0.2161 -0.3417  0.1636
  485TMC3     C 7215   4.564   2.223  12.076 -0.0181 -0.7895  0.2898
  485TMC3     O 7216   4.537   2.122  12.142  0.4355  0.3564 -0.0703
  485TMC3     H 7217   0.033   2.074  12.175 -0.8550 -1.8502 -1.6441
  485TMC3    H1 7218   4.666   2.385  11.897  1.6242 -0.5497 -1.5640
  485TMC3    H2 7219   0.343   2.261  11.940 -0.5030 -1.2922 -1.8811
  485TMC3    C7 7220   0.183   2.328  11.760  0.0687  0.2501  1.0500
  485TMC3    C8 7221   0.268   2.032  12.026  0.2717 -0.0925  0.9479
  485TMC3    O1 7222   0.175   2.437  11.704  0.2470  0.2572 -0.3910
  485TMC3    O2 7223   0.324   2.036  11.917 -0.6074  0.3979 -0.4705
  486MPD2     C 7224   1.344   1.574  12.941 -0.1376 -0.5821 -0.0255
  486MPD2    C1 7225   1.427   1.592  12.837 -0.3236  0.1320  0.0407
  486MPD2    C2 7226   1.432   1.715  12.776 -0.0458  0.3357 -0.0275
  486MPD2    C3 7227   1.344   1.812  12.803 -0.1657  0.4359 -0.2394
  486MPD2    C4 7228   1.243   1.780  12.891  0.5562 -0.3011 -0.7379
  486MPD2    C5 7229   1.247   1.666  12.964  0.0812 -0.2143  0.4742
  486MPD2     H 7230   1.494   1.738  12.690  0.6049  1.2019  0.6711
  486MPD2    H1 7231   1.160   1.849  12.897  1.1413  0.3971 -0.6270
  486MPD2    H2 7232   1.340   1.479  12.993 -0.9968 -0.3026  0.4170
  486MPD2    H3 7233   1.167   1.633  13.029  0.5591 -2.1887  0.0751
  486MPD2     N 7234   1.357   1.938  12.740 -0.0583 -0.1998  0.2844
  486MPD2    H5 7235   1.439   1.951  12.681 -0.4439 -0.3170 -0.2798
  486MPD2    N1 7236   1.516   1.484  12.807 -0.5495  0.0528 -0.1252
  486MPD2    H7 7237   1.517   1.402  12.867  0.2255  0.8354  0.9253
  487TMC3    C1 7238   1.696   1.368  12.698  0.3240 -0.2043 -0.3860
  487TMC3    C2 7239   1.651   1.265  12.624  0.2630  0.0090 -0.4572
  487TMC3    C3 7240   1.734   1.184  12.558 -0.4363 -0.0054 -0.2816
  487TMC3    C4 7241   1.829   1.388  12.724 -0.1430  0.4035 -0.3137
  487TMC3    C5 7242   1.913   1.299  12.662 -1.0406  0.3469 -0.2646
  487TMC3    C6 7243   1.864   1.189  12.594 -0.4141 -0.0442 -0.1986
  487TMC3     C 7244   1.603   1.480  12.705  0.1847  0.3404 -0.1961
  487TMC3     O 7245   1.586   1.532  12.595  0.1400  0.6991 -0.2454
  487TMC3     H 7246   1.545   1.264  12.600  0.5571 -0.1540 -1.7321
  487TMC3    H1 7247   1.864   1.479  12.771  1.2198  1.1055 -2.7163
  487TMC3    H2 7248   1.941   1.135  12.539 -1.8239  0.2044 -2.3999
  487TMC3    C7 7249   2.045   1.281  12.721  0.3074 -0.2463 -0.0195
  487TMC3    C8 7250   1.688   1.044  12.558 -0.7884  0.8542  0.2126
  487TMC3    O1 7251   2.084   1.168  12.702 -0.2368  0.5432 -0.5687
  487TMC3    O2 7252   1.565   1.042  12.562  0.4293 -0.6036 -0.4904
  488MPD2     C 7253   2.368   2.771  16.453  0.3912  0.2328 -0.0589
  488MPD2    C1 7254   2.387   2.868  16.547 -0.8220  0.1587  0.1879
  488MPD2    C2 7255   2.360   2.835  16.672 -0.7761  0.6737  0.4626
  488MPD2    C3 7256   2.308   2.711  16.709  0.1618 -0.5871 -0.0868
  488MPD2    C4 7257   2.285   2.615  16.619  0.3260 -0.4816  0.4831
  488MPD2    C5 7258   2.316   2.650  16.487 -0.3027 -0.2522  0.3386
  488MPD2     H 7259   2.381   2.899  16.757  0.6263  1.4909 -0.5022
  488MPD2    H1 7260   2.252   2.513  16.640  0.9603 -0.5054  1.3613
  488MPD2    H2 7261   2.386   2.786  16.347  1.1681 -4.1237 -0.5216
  488MPD2    H3 7262   2.312   2.578  16.406  0.9417 -0.5463  0.5413
  488MPD2     N 7263   2.294   2.688  16.848  0.2580 -0.1671 -0.1945
  488MPD2    H5 7264   2.331   2.761  16.907  0.4951  0.2451 -0.8582
  488MPD2    N1 7265   2.417   3.007  16.512 -0.0581 -0.0273 -0.0859
  488MPD2    H7 7266   2.422   3.070  16.591  0.2782  0.0944 -0.2054
  489TMC3    C1 7267   2.258   2.586  17.054 -0.4686  0.8436  0.1120
  489TMC3    C2 7268   2.249   2.711  17.115  0.0196  0.5245 -0.7339
  489TMC3    C3 7269   2.248   2.709  17.251 -0.4404 -0.9372  0.6876
  489TMC3    C4 7270   2.262   2.468  17.118 -0.5418 -0.1469 -0.0449
  489TMC3    C5 7271   2.251   2.473  17.254 -0.0524 -0.1981  0.0461
  489TMC3    C6 7272   2.249   2.591  17.324 -0.0800  0.6206 -0.2204
  489TMC3     C 7273   2.257   2.571  16.909  0.6896  0.3308 -0.4727
  489TMC3     O 7274   2.222   2.465  16.860  0.0054 -0.1279  0.4239
  489TMC3     H 7275   2.249   2.805  17.060  0.8933  0.6833 -0.4723
  489TMC3    H1 7276   2.290   2.374  17.071  0.0851  0.5099 -1.0079
  489TMC3    H2 7277   2.242   2.589  17.432  3.1827  2.5973  0.0379
  489TMC3    C7 7278   2.206   2.354  17.329  0.6046  0.1954 -0.2970
  489TMC3    C8 7279   2.279   2.838  17.310  0.8124 -0.0973 -0.4477
  489TMC3    O1 7280   2.202   2.358  17.449 -0.1753 -0.5966 -0.5061
  489TMC3    O2 7281   2.316   2.924  17.238  0.0946 -0.2644 -0.6708
  490MPD2     C 7282   2.922   2.231  17.109 -0.1632  0.1587  0.1296
  490MPD2    C1 7283   2.843   2.154  17.198 -1.4888  0.7849 -0.2746
  490MPD2    C2 7284   2.894   2.145  17.330  0.4197 -0.0402 -0.0298
  490MPD2    C3 7285   3.011   2.204  17.374 -0.6449  0.4483 -1.1432
  490MPD2    C4 7286   3.088   2.275  17.285 -0.5207 -0.1367  0.0326
  490MPD2    C5 7287   3.036   2.289  17.154  0.0950  0.4130  0.1725
  490MPD2     H 7288   2.844   2.077  17.399 -1.1092  0.1530 -0.9535
  490MPD2    H1 7289   3.181   2.320  17.318  0.5715 -0.1560 -3.0028
  490MPD2    H2 7290   2.901   2.253  17.005 -2.4240 -1.0527  0.3203
  490MPD2    H3 7291   3.098   2.357  17.096  0.3069  0.0427 -0.0379
  490MPD2     N 7292   3.061   2.192  17.505 -0.9879 -0.5452  0.3413
  490MPD2    H5 7293   3.150   2.237  17.526 -0.9398 -0.3477 -0.2847
  490MPD2    N1 7294   2.734   2.072  17.160 -0.2963  0.0228 -0.5753
  490MPD2    H7 7295   2.698   2.008  17.231 -0.1024  0.7036  0.1395
  491TMC3    C1 7296   2.640   1.914  17.008  0.2849  0.5399 -0.0733
  491TMC3    C2 7297   2.647   1.819  17.109  1.1330 -0.1196  0.3859
  491TMC3    C3 7298   2.621   1.689  17.076  0.2068  0.4777  0.4458
  491TMC3    C4 7299   2.617   1.881  16.878  0.0359 -0.1584  0.5280
  491TMC3    C5 7300   2.601   1.745  16.852  0.4199  0.2374  0.0019
  491TMC3    C6 7301   2.612   1.647  16.947 -0.2597  0.3221  0.1687
  491TMC3     C 7302   2.699   2.044  17.028 -0.4467  0.8267 -0.9063
  491TMC3     O 7303   2.750   2.099  16.932  0.1327  0.0861 -0.0261
  491TMC3     H 7304   2.649   1.843  17.215  0.2154 -1.5697  0.7277
  491TMC3    H1 7305   2.605   1.951  16.797 -2.0894 -0.7414  0.3482
  491TMC3    H2 7306   2.608   1.543  16.918  0.8455  0.4050 -0.2825
  491TMC3    C7 7307   2.516   1.705  16.745  0.0567 -0.5156  0.6267
  491TMC3    C8 7308   2.595   1.595  17.189  0.2984  0.4793  0.2406
  491TMC3    O1 7309   2.428   1.630  16.782  0.1669 -0.3245  0.0455
  491TMC3    O2 7310   2.582   1.643  17.300  0.2858 -0.2375 -0.0331
  492MPD2     C 7311   3.504   2.709  11.119 -0.0351  0.0287  0.2693
  492MPD2    C1 7312   3.473   2.578  11.094 -0.3351 -0.3572  0.6939
  492MPD2    C2 7313   3.383   2.509  11.175  0.4207  0.2327  0.3866
  492MPD2    C3 7314   3.336   2.557  11.295  0.6097 -0.3915 -1.5045
  492MPD2    C4 7315   3.378   2.686  11.330 -1.2355 -0.6095 -0.0944
  492MPD2    C5 7316   3.454   2.762  11.234 -0.0858  0.2548  0.8509
  492MPD2     H 7317   3.372   2.402  11.162 -0.9340  0.4678 -0.3577
  492MPD2    H1 7318   3.349   2.732  11.424  0.7452  0.4991 -0.0164
  492MPD2    H2 7319   3.571   2.763  11.053  1.1655 -0.1789  1.3209
  492MPD2    H3 7320   3.486   2.866  11.243  0.4274  0.2707 -1.3491
  492MPD2     N 7321   3.242   2.485  11.382  0.1487 -0.0797  0.1247
  492MPD2    H5 7322   3.221   2.527  11.473  0.6890 -0.4995  0.4400
  492MPD2    N1 7323   3.538   2.520  10.978  0.6226 -0.0963  0.6369
  492MPD2    H7 7324   3.571   2.580  10.903 -0.4335 -0.0618  0.1981
  493TMC3    C1 7325   3.536   2.343  10.815  0.3310 -0.1539  0.3406
  493TMC3    C2 7326   3.615   2.414  10.727 -1.2403  0.0706 -0.2888
  493TMC3    C3 7327   3.603   2.387  10.594  0.3916  0.3139 -0.4431
  493TMC3    C4 7328   3.453   2.248  10.782 -0.5578 -0.0390 -0.0543
  493TMC3    C5 7329   3.455   2.208  10.647  0.4232  0.2014  0.3397
  493TMC3    C6 7330   3.527   2.280  10.550 -1.1290  0.0597 -0.5414
  493TMC3     C 7331   3.530   2.388  10.954  0.2269 -0.2839  0.1587
  493TMC3     O 7332   3.507   2.300  11.035  0.3034  0.3235  0.4966
  493TMC3     H 7333   3.688   2.487  10.760 -1.5202 -0.9088  2.5644
  493TMC3    H1 7334   3.397   2.195  10.858 -0.4112  0.2445  0.2471
  493TMC3    H2 7335   3.531   2.242  10.448  0.8280 -0.3572 -0.3062
  493TMC3    C7 7336   3.350   2.121  10.600  0.7881  0.5983 -0.3415
  493TMC3    C8 7337   3.698   2.449  10.502  0.3030 -0.4848  0.0204
  493TMC3    O1 7338   3.288   2.147  10.499 -0.8243  0.4922 -0.9997
  493TMC3    O2 7339   3.714   2.383  10.398  0.2902 -0.4165  0.4650
  494TMC3    C1 7340   3.706   3.651   0.474  0.2279 -0.7940  0.8307
  494TMC3    C2 7341   3.706   3.511   0.451  0.1285  0.5065 -0.7877
  494TMC3    C3 7342   3.716   3.480   0.320  1.1935  0.1490  0.2602
  494TMC3    C4 7343   3.726   3.744   0.375 -0.6480  0.3179 -0.0235
  494TMC3    C5 7344   3.744   3.699   0.246 -0.5491  0.4945 -0.0314
  494TMC3    C6 7345   3.735   3.569   0.213 -0.1709 -0.6739 -0.2356
  494TMC3     C 7346   3.632   3.697   0.586 -0.1143 -0.4537  0.2827
  494TMC3     O 7347   3.554   3.793   0.571 -0.3814  0.1526 -0.3966
  494TMC3     H 7348   3.691   3.437   0.528  2.4500  1.3959  0.5062
  494TMC3    H1 7349   3.711   3.848   0.402 -1.3078 -0.0878  1.1647
  494TMC3    H2 7350   3.738   3.544   0.107 -0.6899 -0.2020 -0.3589
  494TMC3    C7 7351   3.789   3.786   0.139 -0.3397 -0.7885 -0.0460
  494TMC3    C8 7352   3.754   3.336   0.295  0.2825 -0.1027  0.4800
  494TMC3    O1 7353   3.838   3.728   0.046  0.0848 -0.2830 -0.6924
  494TMC3    O2 7354   3.771   3.273   0.400  0.4076 -0.0681 -0.3890
  495TMC3    C1 7355   2.593   1.360  14.374  1.4205  0.0743  0.0228
  495TMC3    C2 7356   2.489   1.404  14.300 -0.3894  0.0836  0.8623
  495TMC3    C3 7357   2.360   1.403  14.346 -0.0872  0.0816  0.4508
  495TMC3    C4 7358   2.558   1.328  14.509  0.2079 -0.8290  0.5886
  495TMC3    C5 7359   2.428   1.318  14.549  0.1626 -1.1613 -0.8960
  495TMC3    C6 7360   2.320   1.356  14.468  0.1379  0.8830  0.2413
  495TMC3     C 7361   2.630   1.247  14.303  0.1937  0.5129  0.7332
  495TMC3     O 7362   2.546   1.211  14.213 -0.5331 -0.4064 -0.2558
  495TMC3     H 7363   2.511   1.443  14.201  1.0412 -0.8525  0.8172
  495TMC3    H1 7364   2.638   1.305  14.578  0.1273  0.5192  1.1276
  495TMC3    H2 7365   2.213   1.343  14.477  0.4081  0.4419  2.9553
  495TMC3    C7 7366   2.411   1.308  14.693  0.4060  0.3593  0.1213
  495TMC3    C8 7367   2.257   1.399  14.244  0.0452 -0.0142  0.1260
  495TMC3    O1 7368   2.515   1.277  14.750 -0.0082 -0.0445 -0.4259
  495TMC3    O2 7369   2.145   1.437  14.271 -0.2625  0.7707  0.0967
  496MPD2     C 7370   4.177   1.044  15.473 -0.9940 -0.4772  0.2132
  496MPD2    C1 7371   4.086   0.990  15.385 -0.3491 -0.0528  0.4216
  496MPD2    C2 7372   3.960   1.048  15.378  0.2651 -0.3576 -0.7072
  496MPD2    C3 7373   3.942   1.165  15.446  0.1738 -0.0393 -0.2343
  496MPD2    C4 7374   4.040   1.217  15.528 -0.8588 -0.4302  0.2380
  496MPD2    C5 7375   4.158   1.158  15.541 -0.0276 -0.5108 -1.2191
  496MPD2     H 7376   3.880   1.008  15.316 -0.3253 -1.3919  0.7031
  496MPD2    H1 7377   4.009   1.295  15.597  0.0000  0.1615 -0.0452
  496MPD2    H2 7378   4.273   0.993  15.473 -0.6242  0.2325 -1.1423
  496MPD2    H3 7379   4.236   1.187  15.610 -0.3651 -0.2488 -0.9481
  496MPD2     N 7380   3.826   1.246  15.438  0.0910 -0.3085  0.5628
  496MPD2    H5 7381   3.818   1.316  15.510 -0.9290 -0.5037  0.6508
  496MPD2    N1 7382   4.121   0.863  15.326  0.1734  0.1865 -0.4281
  496MPD2    H7 7383   4.213   0.823  15.342  0.3946 -0.4040 -3.1457
  497TMC3    C1 7384   3.629   1.344  15.372  0.1526  0.6106 -0.3898
  497TMC3    C2 7385   3.494   1.332  15.380 -0.1135  0.6192  1.0249
  497TMC3    C3 7386   3.422   1.445  15.416 -0.5606 -0.1187 -0.1228
  497TMC3    C4 7387   3.681   1.469  15.411  0.1836  0.2312  0.2680
  497TMC3    C5 7388   3.605   1.580  15.432 -0.2234 -0.8026 -0.1962
  497TMC3    C6 7389   3.469   1.572  15.447  0.2738  0.9656  0.2112
  497TMC3     C 7390   3.712   1.220  15.368  0.3791 -0.3821 -0.0663
  497TMC3     O 7391   3.676   1.139  15.282 -0.5096 -0.6068 -0.2460
  497TMC3     H 7392   3.447   1.239  15.354 -2.5799  2.7079 -1.9760
  497TMC3    H1 7393   3.781   1.490  15.373  0.6874 -3.1136 -0.2168
  497TMC3    H2 7394   3.414   1.664  15.465 -0.0593  0.5878  1.1411
  497TMC3    C7 7395   3.673   1.689  15.506 -0.2622  0.2335  0.4361
  497TMC3    C8 7396   3.284   1.412  15.469 -0.1584 -0.5497 -0.0540
  497TMC3    O1 7397   3.602   1.793  15.509 -0.5527 -0.1199 -0.8334
  497TMC3    O2 7398   3.268   1.295  15.492 -0.1781 -0.1844  0.6928
  498MPD2     C 7399   4.466   2.264   9.617  0.6366 -0.2794 -0.0924
  498MPD2    C1 7400   4.541   2.170   9.548  0.4790  0.2901  0.3808
  498MPD2    C2 7401   4.568   2.050   9.617  0.1443 -0.7076  0.0491
  498MPD2    C3 7402   4.508   2.023   9.739 -0.2208 -0.0480  0.0134
  498MPD2    C4 7403   4.434   2.118   9.807 -0.0563  0.8782 -0.2014
  498MPD2    C5 7404   4.419   2.242   9.746 -0.2613 -0.2363  0.5553
  498MPD2     H 7405   4.632   1.980   9.564  0.1207  0.7044 -1.8423
  498MPD2    H1 7406   4.391   2.102   9.905  1.0158 -1.4020 -0.1087
  498MPD2    H2 7407   4.446   2.358   9.565  0.6443 -1.4934 -2.2819
  498MPD2    H3 7408   4.373   2.324   9.799 -0.8228 -0.2409  0.0658
  498MPD2     N 7409   4.526   1.889   9.782  0.7209 -0.4730  0.0958
  498MPD2    H5 7410   4.599   1.830   9.743  0.6728 -0.2100 -0.3782
  498MPD2    N1 7411   4.606   2.197   9.429  0.0802  0.1437  0.0064
  498MPD2    H7 7412   4.673   2.131   9.389  1.6632  0.9491  1.3204
  499TMC3    C1 7413   4.694   2.325   9.247  0.2621  0.2174 -0.0031
  499TMC3    C2 7414   0.037   2.213   9.193 -1.0042 -0.0863 -0.2615
  499TMC3    C3 7415   0.138   2.232   9.102 -0.6513  0.6593 -0.7310
  499TMC3    C4 7416   0.016   2.457   9.210  0.3580  0.6770 -0.9588
  499TMC3    C5 7417   0.121   2.468   9.119  0.0891  0.3777 -0.0418
  499TMC3    C6 7418   0.179   2.358   9.065  0.3356  0.3223 -1.0094
  499TMC3     C 7419   4.588   2.309   9.351 -0.4459 -0.6189  0.1057
  499TMC3     O 7420   4.503   2.396   9.363 -0.2529  0.0904 -0.2645
  499TMC3     H 7421   4.708   2.115   9.204  1.9663 -1.4354 -0.1425
  499TMC3    H1 7422   4.689   2.545   9.256 -0.4718  1.8407 -3.9792
  499TMC3    H2 7423   0.261   2.370   8.996  1.4031 -1.1631 -0.0071
  499TMC3    C7 7424   0.185   2.600   9.109 -0.5375 -0.5903 -0.3087
  499TMC3    C8 7425   0.190   2.122   9.026 -1.0205 -0.8110  0.5168
  499TMC3    O1 7426   0.199   2.655   9.217 -0.4257 -0.3996 -0.0559
  499TMC3    O2 7427   0.179   2.011   9.083 -0.0096  0.1255  0.3137
  500MPD2     C 7428   2.051   3.127  10.297  0.3547  0.7591 -0.0296
  500MPD2    C1 7429   2.079   3.263  10.314  0.3729  0.1110 -0.2522
  500MPD2    C2 7430   1.988   3.349  10.267  0.0107  0.1782 -0.2761
  500MPD2    C3 7431   1.872   3.308  10.207 -0.6353 -0.2063  0.5009
  500MPD2    C4 7432   1.850   3.174  10.185  0.4460  0.4663 -0.8245
  500MPD2    C5 7433   1.937   3.086  10.235 -0.2179 -0.2036  0.1914
  500MPD2     H 7434   2.000   3.454  10.294  0.6439 -0.3498  1.5316
  500MPD2    H1 7435   1.757   3.139  10.142  0.1489 -0.3359  0.4382
  500MPD2    H2 7436   2.123   3.055  10.334 -0.6257  0.7816  1.9230
  500MPD2    H3 7437   1.929   2.980  10.217 -0.8010 -0.2259  0.5798
  500MPD2     N 7438   1.772   3.400  10.156 -0.7905 -0.3406 -0.5005
  500MPD2    H5 7439   1.701   3.363  10.093 -0.2006 -1.6348 -0.4049
  500MPD2    N1 7440   2.201   3.325  10.350  0.5132  0.1161 -0.2406
  500MPD2    H7 7441   2.198   3.425  10.336 -1.2910  0.0964  0.0127
  501TMC3    C1 7442   2.416   3.348  10.422  1.2223 -0.0026  0.4798
  501TMC3    C2 7443   2.393   3.486  10.435 -0.1310 -0.2850  0.3404
  501TMC3    C3 7444   2.503   3.561  10.476 -0.2565 -0.2619  0.0084
  501TMC3    C4 7445   2.524   3.287  10.468  0.2938 -0.0482  1.0759
  501TMC3    C5 7446   2.622   3.369  10.517  0.8206  0.4556 -0.5530
  501TMC3    C6 7447   2.620   3.504  10.516  0.4871  0.1896  0.8073
  501TMC3     C 7448   2.304   3.258  10.402  0.5032  0.7583 -0.9724
  501TMC3     O 7449   2.319   3.137  10.420 -0.3591 -0.2215  0.4426
  501TMC3     H 7450   2.303   3.534  10.398  0.8204  0.9465 -0.4002
  501TMC3    H1 7451   2.529   3.180  10.486 -1.1494 -0.4522 -0.9601
  501TMC3    H2 7452   2.709   3.562  10.535  0.9112 -0.6384  1.3873
  501TMC3    C7 7453   2.728   3.315  10.601 -0.9458 -0.3347 -0.2252
  501TMC3    C8 7454   2.503   3.711  10.469  0.1658  0.2131  0.4609
  501TMC3    O1 7455   2.773   3.199  10.577 -0.1945 -0.2269  0.4356
  501TMC3    O2 7456   2.581   3.780  10.531 -0.1816  0.0941  0.5199
  502TMC3    C1 7457   1.746   1.692  15.086 -0.3670 -0.1689 -0.2987
  502TMC3    C2 7458   1.768   1.812  15.026  0.4022 -0.0875 -0.1402
  502TMC3    C3 7459   1.664   1.849  14.950  0.4144  0.4627 -0.5149
  502TMC3    C4 7460   1.628   1.625  15.070 -0.6331 -0.5325 -0.5566
  502TMC3    C5 7461   1.522   1.679  15.003 -0.2498  0.1505  0.2049
  502TMC3    C6 7462   1.544   1.784  14.926  0.0080 -0.3422  0.6336
  502TMC3     C 7463   1.821   1.672  15.212 -0.5821 -0.3068 -0.0666
  502TMC3     O 7464   1.926   1.727  15.217 -0.3777 -0.6870  0.2848
  502TMC3     H 7465   1.852   1.878  15.046  0.3165 -0.2808  0.8406
  502TMC3    H1 7466   1.610   1.526  15.109  0.2025 -0.7994 -0.8568
  502TMC3    H2 7467   1.467   1.818  14.857  3.8630  0.1497 -3.4483
  502TMC3    C7 7468   1.386   1.659  15.058 -0.1250  0.1958 -0.1496
  502TMC3    C8 7469   1.666   1.991  14.916  0.1751 -0.9373  0.2511
  502TMC3    O1 7470   1.386   1.581  15.156 -0.1291  0.1463  0.4582
  502TMC3    O2 7471   1.774   2.049  14.908 -0.2395 -0.6188 -0.7722
  503MPD2     C 7472   3.988   2.149  17.159 -0.4041  0.3237  1.2924
  503MPD2    C1 7473   4.100   2.226  17.194 -0.3641  0.8273  0.5248
  503MPD2    C2 7474   4.217   2.169  17.226  0.5778 -0.1154  0.7767
  503MPD2    C3 7475   4.221   2.028  17.228 -0.6429  0.0800 -0.3242
  503MPD2    C4 7476   4.108   1.954  17.203 -0.1999 -0.1246  0.5889
  503MPD2    C5 7477   3.992   2.013  17.164 -0.2534 -0.1602  0.3099
  503MPD2     H 7478   4.299   2.233  17.256  1.7956 -1.3935  0.1728
  503MPD2    H1 7479   4.118   1.846  17.200 -0.1236 -0.1089  0.1841
  503MPD2    H2 7480   3.901   2.199  17.119  0.3174 -0.0722 -0.7737
  503MPD2    H3 7481   3.908   1.949  17.139  0.7993 -1.0142 -1.0003
  503MPD2     N 7482   4.348   1.958  17.257 -0.0665  0.2548  0.2965
  503MPD2    H5 7483   4.330   1.862  17.285 -1.5519  1.1417  2.3786
  503MPD2    N1 7484   4.108   2.367  17.186 -0.4357 -0.3017  0.6909
  503MPD2    H7 7485   4.194   2.414  17.212  0.5834 -0.4263 -2.3671
  504TMC3    C1 7486   4.566   1.934  17.319 -0.2426 -0.1405  0.9484
  504TMC3    C2 7487   4.531   1.821  17.379 -0.1514 -0.9952 -0.0505
  504TMC3    C3 7488   4.596   1.704  17.347  0.0771 -0.1595 -0.5179
  504TMC3    C4 7489   4.675   1.938  17.237 -0.4674 -0.0282 -0.3482
  504TMC3    C5 7490   0.026   1.820  17.212  0.4585  0.3782  0.7567
  504TMC3    C6 7491   4.702   1.698  17.269 -0.3082 -0.7739 -0.0978
  504TMC3     C 7492   4.465   2.027  17.276 -0.8152  0.2565  0.5948
  504TMC3     O 7493   4.497   2.123  17.209 -0.1905 -0.1005  0.2465
  504TMC3     H 7494   4.441   1.819  17.438 -0.8908  3.3562 -0.9857
  504TMC3    H1 7495   4.702   2.035  17.198  0.9795  0.5874  2.1815
  504TMC3    H2 7496   0.046   1.609  17.254 -1.2577 -1.0295 -2.4701
  504TMC3    C7 7497   0.107   1.823  17.091  0.0747  0.0109  0.3196
  504TMC3    C8 7498   4.561   1.583  17.415 -0.0624  0.3785 -0.0177
  504TMC3    O1 7499   0.119   1.933  17.037  0.0340 -0.1254  0.3020
  504TMC3    O2 7500   4.592   1.482  17.351 -0.0359 -1.0147 -0.2367
  505MPD2     C 7501   4.543   1.181  10.866  0.0209  0.4917 -0.1643
  505MPD2    C1 7502   4.607   1.080  10.797  0.0326 -0.2091  0.5806
  505MPD2    C2 7503   0.026   1.082  10.784  0.3237 -0.3215  0.4551
  505MPD2    C3 7504   0.097   1.188  10.825  0.8351 -0.3204  0.6934
  505MPD2    C4 7505   0.034   1.292  10.890 -0.0085  0.1549  0.1457
  505MPD2    C5 7506   4.615   1.289  10.908  0.7124  0.3258  0.0050
  505MPD2     H 7507   0.084   1.008  10.730  0.9593  2.1597 -2.2235
  505MPD2    H1 7508   0.076   1.391  10.901 -2.0996  1.1363 -0.6149
  505MPD2    H2 7509   4.435   1.179  10.874  0.0210  0.3407 -0.2027
  505MPD2    H3 7510   4.572   1.382  10.945 -1.7589 -0.7486 -0.2106
  505MPD2     N 7511   0.232   1.195  10.793 -0.0266  0.1227  0.8838
  505MPD2    H5 7512   0.264   1.113  10.742  1.6123  0.0652  2.0078
  505MPD2    N1 7513   4.549   0.969  10.738 -0.0665 -0.6265 -0.0459
  505MPD2    H7 7514   4.605   0.903  10.685 -0.5586 -0.2108 -1.0776
  506TMC3    C1 7515   4.397   0.813  10.657 -0.4891 -0.1625  0.2017
  506TMC3    C2 7516   4.300   0.818  10.562 -0.7179 -0.0194  0.7160
  506TMC3    C3 7517   4.290   0.707  10.473  0.8643 -0.3153 -0.0285
  506TMC3    C4 7518   4.492   0.716  10.652  0.0456  0.5656 -0.4923
  506TMC3    C5 7519   4.484   0.611  10.559 -0.1986  0.7730  0.0739
  506TMC3    C6 7520   4.381   0.600  10.469 -0.3547  0.0585 -0.5020
  506TMC3     C 7521   4.419   0.937  10.728 -0.1072  0.1504  0.1446
  506TMC3     O 7522   4.326   1.008  10.756  0.0470  0.0989  0.0395
  506TMC3     H 7523   4.241   0.908  10.550  0.6269  0.6837 -0.6137
  506TMC3    H1 7524   4.564   0.720  10.733  0.1198  0.5123 -0.5559
  506TMC3    H2 7525   4.381   0.526  10.390 -1.4421 -0.5009  0.0144
  506TMC3    C7 7526   4.611   0.539  10.533 -0.0715  0.1608  0.1248
  506TMC3    C8 7527   4.251   0.748  10.340  0.8129  0.3102 -0.9810
  506TMC3    O1 7528   4.631   0.418  10.522  0.1966  1.3011 -0.3956
  506TMC3    O2 7529   4.207   0.662  10.261  0.2108  0.1435 -0.1324
  507TMC3    C1 7530   0.084   2.289  14.665 -0.1342 -0.6096  0.1581
  507TMC3    C2 7531   0.038   2.206  14.565 -0.6374  0.6671  0.3439
  507TMC3    C3 7532   0.129   2.163  14.469 -0.3255  0.1995 -0.2363
  507TMC3    C4 7533   0.217   2.335  14.666 -1.1958 -0.3215 -0.1974
  507TMC3    C5 7534   0.302   2.278  14.572 -0.2436 -0.3684  0.0605
  507TMC3    C6 7535   0.258   2.197  14.476 -0.1542 -0.1023  0.5554
  507TMC3     C 7536   4.714   2.361  14.750 -0.2497  0.0530 -0.0785
  507TMC3     O 7537   4.603   2.309  14.768  0.5025 -0.1386 -0.1961
  507TMC3     H 7538   4.648   2.187  14.556 -0.9926  1.1421  3.8860
  507TMC3    H1 7539   0.259   2.394  14.746  0.2750 -0.7219 -0.6621
  507TMC3    H2 7540   0.331   2.174  14.398  1.0489  1.5269  1.1803
  507TMC3    C7 7541   0.374   2.390  14.510  0.3132 -0.7497  0.1177
  507TMC3    C8 7542   0.081   2.166  14.332  0.4719  0.1863 -0.4239
  507TMC3    O1 7543   0.439   2.467  14.575 -0.0770 -0.5639  0.4676
  507TMC3    O2 7544   0.156   2.226  14.257  0.0681  0.6772  0.3637
  508MPD2     C 7545   1.390   4.293  15.584  0.3659 -0.4916 -0.0372
  508MPD2    C1 7546   1.298   4.306  15.686  0.4393  0.1630 -0.2558
  508MPD2    C2 7547   1.178   4.370  15.651 -0.7188 -0.3263 -0.5593
  508MPD2    C3 7548   1.150   4.420  15.525 -0.8884 -0.1382 -0.0263
  508MPD2    C4 7549   1.247   4.402  15.424 -0.2494  0.7099 -0.0085
  508MPD2    C5 7550   1.360   4.345  15.458  0.1244  0.2219  0.9127
  508MPD2     H 7551   1.105   4.383  15.730  2.8373 -0.0598  2.6621
  508MPD2    H1 7552   1.239   4.442  15.323  1.7666  1.7943  0.2581
  508MPD2    H2 7553   1.494   4.265  15.601  0.8416  0.1789 -1.8773
  508MPD2    H3 7554   1.436   4.353  15.381 -0.6686  0.0592  0.1149
  508MPD2     N 7555   1.031   4.498  15.498  0.2147  0.5418  1.0798
  508MPD2    H5 7556   0.978   4.528  15.578  0.5407  2.8048  0.4407
  508MPD2    N1 7557   1.333   4.256  15.814 -0.1252  0.0271  0.2522
  508MPD2    H7 7558   1.426   4.225  15.841  0.2172  1.9170  1.2579
  509TMC3    C1 7559   0.812   0.062  15.201  0.2823  0.4173 -0.8296
  509TMC3    C2 7560   0.876   0.170  15.258 -0.1901  0.2422  0.5047
  509TMC3    C3 7561   0.946   0.145  15.374  0.1177 -0.3438  0.4932
  509TMC3    C4 7562   0.825   4.654  15.255  0.3127 -0.1697  0.3078
  509TMC3    C5 7563   0.891   4.635  15.373 -0.0277 -0.2883 -0.3056
  509TMC3    C6 7564   0.946   0.025  15.435  0.4826 -0.5863 -0.5814
  509TMC3     C 7565   0.717   0.091  15.088 -0.0983  0.5004 -0.1489
  509TMC3     O 7566   0.627   0.013  15.061  1.2905 -0.5848 -0.6025
  509TMC3     H 7567   0.876   0.273  15.227 -1.4351 -0.2036 -1.0168
  509TMC3    H1 7568   0.801   4.572  15.188  1.2820 -0.5124  0.3835
  509TMC3    H2 7569   0.997   0.013  15.530 -0.0766 -2.1531 -0.4795
  509TMC3    C7 7570   0.986   4.529  15.374  0.1103 -1.0384 -0.2504
  509TMC3    C8 7571   1.081   0.196  15.374  0.7866 -0.2700 -0.0360
  509TMC3    O1 7572   1.023   4.492  15.262 -0.0957  0.4862 -0.5611
  509TMC3    O2 7573   1.170   0.111  15.382 -0.3260  0.2052  0.2085
  510MPD2     C 7574   4.086   1.868  14.524 -0.7370  0.1742  0.4306
  510MPD2    C1 7575   4.133   1.745  14.575  0.2067  0.1697  1.1733
  510MPD2    C2 7576   4.242   1.693  14.515  0.5553  0.1790  0.0458
  510MPD2    C3 7577   4.310   1.750  14.410 -0.4321  0.7501 -0.1981
  510MPD2    C4 7578   4.254   1.856  14.354  0.7975 -1.0386 -0.6520
  510MPD2    C5 7579   4.138   1.916  14.411  0.5620 -0.7864  0.0795
  510MPD2     H 7580   4.275   1.602  14.565 -0.9154 -0.7207 -0.5848
  510MPD2    H1 7581   4.289   1.893  14.259 -1.0395 -2.0976 -1.7366
  510MPD2    H2 7582   3.991   1.907  14.559 -1.5666 -1.2138 -0.2666
  510MPD2    H3 7583   4.083   2.001  14.374  1.5968 -0.8666 -1.6725
  510MPD2     N 7584   4.420   1.675  14.357  0.5131 -1.3714  0.2891
  510MPD2    H5 7585   4.453   1.597  14.413  1.8441 -0.1644  1.1788
  510MPD2    N1 7586   4.051   1.684  14.678 -0.4582  0.5065  0.1796
  510MPD2    H7 7587   3.962   1.727  14.701 -2.1819 -2.3624 -1.1541
  511TMC3    C1 7588   3.954   1.505  14.783 -0.0183  0.7805  0.3841
  511TMC3    C2 7589   3.853   1.586  14.834 -0.0445 -0.1160  0.7606
  511TMC3    C3 7590   3.737   1.526  14.875  0.4706 -0.5431  0.2231
  511TMC3    C4 7591   3.923   1.381  14.739 -0.0262  0.3986  0.9877
  511TMC3    C5 7592   3.802   1.329  14.769 -0.1872 -0.1685  0.4446
  511TMC3    C6 7593   3.714   1.393  14.846  0.3653  0.4484 -0.4971
  511TMC3     C 7594   4.079   1.564  14.739  0.3542 -0.4805  0.0265
  511TMC3     O 7595   4.179   1.492  14.739 -0.2699 -0.5287 -0.5656
  511TMC3     H 7596   3.876   1.688  14.862  0.9004 -0.0431 -0.2771
  511TMC3    H1 7597   3.995   1.332  14.674 -0.8663  1.1707 -0.5297
  511TMC3    H2 7598   3.625   1.341  14.881 -0.8500  2.2720 -0.9099
  511TMC3    C7 7599   3.764   1.228  14.679  0.3324  0.3812  0.3418
  511TMC3    C8 7600   3.652   1.596  14.971  0.5868  0.1945 -0.0765
  511TMC3    O1 7601   3.815   1.221  14.568  0.1222 -0.4917 -0.2148
  511TMC3    O2 7602   3.718   1.656  15.051  0.5678  0.1425 -0.2949
  512TMC3    C1 7603   2.648   1.235  12.659  0.2204  0.7284 -0.0356
  512TMC3    C2 7604   2.771   1.206  12.715 -0.3743 -0.1047 -0.2749
  512TMC3    C3 7605   2.780   1.076  12.751 -0.0621  0.2322 -0.4423
  512TMC3    C4 7606   2.540   1.140  12.647 -0.1638 -0.5657  0.9584
  512TMC3    C5 7607   2.567   1.011  12.690 -0.2348 -0.0105 -0.0294
  512TMC3    C6 7608   2.686   0.981  12.755  0.0405 -0.1867  0.7091
  512TMC3     C 7609   2.631   1.368  12.611  0.1203 -0.1216  0.1318
  512TMC3     O 7610   2.728   1.443  12.639  0.2237 -0.7882 -0.0493
  512TMC3     H 7611   2.855   1.275  12.718  0.8915 -1.6957  0.7556
  512TMC3    H1 7612   2.439   1.167  12.617  0.6057  0.0462 -1.0435
  512TMC3    H2 7613   2.701   0.881  12.794  1.0327  0.4748  2.0199
  512TMC3    C7 7614   2.446   0.940  12.729  0.1382 -0.2139 -0.3139
  512TMC3    C8 7615   2.906   1.033  12.811 -0.3231 -0.0185  0.3519
  512TMC3    O1 7616   2.345   1.001  12.724 -0.5914  0.3735 -0.4551
  512TMC3    O2 7617   2.934   0.914  12.793  0.1202 -0.1078  0.0083
  513MPD2     C 7618   4.584   0.777  13.076 -0.8305  0.8313 -0.3245
  513MPD2    C1 7619   4.694   0.819  13.010  0.0431  0.3303 -0.2087
  513MPD2    C2 7620   0.064   0.908  13.074  0.0161  0.0386  0.2174
  513MPD2    C3 7621   0.038   0.955  13.192  0.0730 -0.6390 -0.4623
  513MPD2    C4 7622   4.639   0.919  13.256 -0.7791 -0.2144  0.2552
  513MPD2    C5 7623   4.557   0.824  13.199 -0.1681 -0.4725 -0.1444
  513MPD2     H 7624   0.153   0.931  13.018  1.3681 -0.8467  2.0027
  513MPD2    H1 7625   4.607   0.953  13.354 -1.2491 -0.8182  0.3096
  513MPD2    H2 7626   4.524   0.696  13.036 -0.9842  0.8830 -0.1942
  513MPD2    H3 7627   4.467   0.788  13.247  0.9032 -1.6139  1.0054
  513MPD2     N 7628   0.126   1.057  13.245 -0.3955  0.3033  0.1971
  513MPD2    H5 7629   0.199   1.088  13.182 -0.6903 -0.6876 -0.6295
  513MPD2    N1 7630   0.018   0.766  12.889  0.3266 -0.4726 -0.7924
  513MPD2    H7 7631   0.106   0.803  12.854  0.2779  1.4348  1.0513
  514TMC3    C1 7632   0.006   0.679  12.676 -0.2039 -0.3480 -0.2576
  514TMC3    C2 7633   4.660   0.754  12.589  0.7118 -0.0369 -0.8633
  514TMC3    C3 7634   0.026   0.826  12.499  0.7910 -0.3323 -0.7083
  514TMC3    C4 7635   0.142   0.680  12.695  0.1677  0.0988  0.3919
  514TMC3    C5 7636   0.223   0.762  12.616  0.2623 -0.3812 -0.7373
  514TMC3    C6 7637   0.162   0.834  12.514 -0.6095 -0.3811  0.0104
  514TMC3     C 7638   4.656   0.689  12.799  0.1930 -0.1256  0.2782
  514TMC3     O 7639   4.536   0.667  12.802  0.2957  0.0350 -0.2432
  514TMC3     H 7640   4.553   0.768  12.594  0.4962 -2.7021  1.5215
  514TMC3    H1 7641   0.180   0.617  12.774  3.2730 -0.0087 -1.1662
  514TMC3    H2 7642   0.213   0.918  12.468  0.7317 -0.5150  1.2710
  514TMC3    C7 7643   0.315   0.826  12.704 -0.4070 -0.6021  0.1459
  514TMC3    C8 7644   4.678   0.926  12.422 -0.1453  0.2654 -0.4394
  514TMC3    O1 7645   0.300   0.798  12.822 -0.2892 -0.0028  0.3283
  514TMC3    O2 7646   4.572   0.974  12.463  0.1581  1.2484 -0.5970
  515MPD2     C 7647   2.289   2.662  15.508  0.1597  0.4275  0.0291
  515MPD2    C1 7648   2.319   2.666  15.375 -0.8644 -0.2593 -0.1249
  515MPD2    C2 7649   2.422   2.756  15.334 -0.3138  0.3482 -0.1595
  515MPD2    C3 7650   2.501   2.828  15.417  0.3591  0.2941  0.4170
  515MPD2    C4 7651   2.470   2.818  15.553 -1.0434  0.5363  0.8623
  515MPD2    C5 7652   2.358   2.747  15.592  0.4681 -0.4851 -0.1434
  515MPD2     H 7653   2.434   2.767  15.227 -1.4514 -1.7010 -0.4925
  515MPD2    H1 7654   2.518   2.886  15.623  1.2539 -0.7472  0.5489
  515MPD2    H2 7655   2.215   2.597  15.554 -0.3978  0.3629 -0.9547
  515MPD2    H3 7656   2.326   2.751  15.696  0.8827  3.5192 -0.1887
  515MPD2     N 7657   2.599   2.920  15.378  0.8234  0.4099 -0.3193
  515MPD2    H5 7658   2.636   2.979  15.451  0.5894 -1.4759  1.3167
  515MPD2    N1 7659   2.263   2.592  15.270 -0.8245 -0.2956 -0.4743
  515MPD2    H7 7660   2.303   2.594  15.177  1.6003  1.4276  0.6222
  516TMC3    C1 7661   2.102   2.448  15.175 -0.0598 -0.3244 -0.0727
  516TMC3    C2 7662   2.103   2.515  15.060  0.0721  0.3041  0.1885
  516TMC3    C3 7663   2.032   2.453  14.955  0.6583  0.0696  0.3721
  516TMC3    C4 7664   2.044   2.324  15.190 -0.1509  0.1562 -0.3683
  516TMC3    C5 7665   1.984   2.266  15.081  1.0677 -0.2201  0.0609
  516TMC3    C6 7666   1.974   2.326  14.961  0.2866  0.7204 -0.8579
  516TMC3     C 7667   2.164   2.498  15.293  0.4878 -0.5591  0.1529
  516TMC3     O 7668   2.116   2.450  15.397  0.0781 -0.5604  0.2872
  516TMC3     H 7669   2.136   2.618  15.062 -1.3282  0.7584  0.2111
  516TMC3    H1 7670   2.051   2.262  15.279  1.1638 -0.1175 -0.6610
  516TMC3    H2 7671   1.925   2.287  14.872  1.7337 -0.4772 -1.1369
  516TMC3    C7 7672   2.011   2.127  15.082  0.2530  0.2428  0.1023
  516TMC3    C8 7673   2.032   2.510  14.821 -0.0489 -0.3731 -0.2232
  516TMC3    O1 7674   2.015   2.064  15.190  0.5141 -0.5829  0.1948
  516TMC3    O2 7675   1.933   2.488  14.753  0.1036 -0.6088 -0.0001
  517MPD2     C 7676   2.685   4.306   0.226 -0.4235  0.7443 -0.4053
  517MPD2    C1 7677   2.768   4.268   0.330  1.1392 -0.0773  0.1865
  517MPD2    C2 7678   2.822   4.364   0.414 -0.5166  0.3574  0.4189
  517MPD2    C3 7679   2.766   4.494   0.403 -0.4994  0.2783  0.0919
  517MPD2    C4 7680   2.691   4.531   0.295 -0.2616 -0.0360  0.1730
  517MPD2    C5 7681   2.659   4.435   0.202 -0.7665 -0.2120 -0.0193
  517MPD2     H 7682   2.873   4.327   0.502  0.3935  0.8840  0.1166
  517MPD2    H1 7683   2.660   4.634   0.279 -2.1762 -0.8193 -1.2234
  517MPD2    H2 7684   2.645   4.239   0.152  0.7066  1.7604 -1.9242
  517MPD2    H3 7685   2.590   4.453   0.120 -2.3194  0.2552  1.3976
  517MPD2     N 7686   2.791   4.599   0.497 -0.7640 -0.1507 -0.8110
  517MPD2    H5 7687   2.773   4.695   0.469 -0.5255  0.6533  1.8105
  517MPD2    N1 7688   2.807   4.133   0.351  0.0011 -0.2704  0.2095
  517MPD2    H7 7689   2.885   4.125   0.416 -0.8462 -1.5177  1.0875
  518TMC3    C1 7690   2.827   3.896   0.320  0.2241 -0.6115  0.2002
  518TMC3    C2 7691   2.756   3.784   0.321 -0.0450 -0.0220 -0.2760
  518TMC3    C3 7692   2.828   3.668   0.305 -0.2103  0.1839  0.0729
  518TMC3    C4 7693   2.968   3.892   0.323 -0.0863  0.0930  0.0320
  518TMC3    C5 7694   3.041   3.778   0.329 -0.2094  0.6648 -0.0631
  518TMC3    C6 7695   2.964   3.664   0.306 -0.5117  0.3103 -0.3391
  518TMC3     C 7696   2.756   4.024   0.292  0.3036 -0.5874  0.5397
  518TMC3     O 7697   2.650   4.014   0.225  0.0952 -0.1902  0.1258
  518TMC3     H 7698   2.648   3.778   0.307  0.1065  0.6861 -1.7846
  518TMC3    H1 7699   3.028   3.982   0.324 -0.0099  0.0374  1.3685
  518TMC3    H2 7700   3.007   3.565   0.299 -2.8978 -0.9109  2.1605
  518TMC3    C7 7701   3.168   3.785   0.256 -0.2135  0.0049 -0.4873
  518TMC3    C8 7702   2.757   3.549   0.330 -0.2256 -0.1981  0.2850
  518TMC3    O1 7703   3.196   3.899   0.225 -0.3635  0.0742 -0.7354
  518TMC3    O2 7704   2.660   3.551   0.405  0.0718 -0.1352  0.2301
  519MPD2     C 7705   3.684   2.629  14.107  0.3727 -0.3011  1.1750
  519MPD2    C1 7706   3.662   2.661  13.967  0.1839 -0.6442  0.3932
  519MPD2    C2 7707   3.740   2.594  13.872  0.1533 -0.4730 -0.3711
  519MPD2    C3 7708   3.820   2.492  13.906 -0.5165  0.3680 -0.1352
  519MPD2    C4 7709   3.841   2.457  14.036 -0.0845  0.0503 -0.0533
  519MPD2    C5 7710   3.774   2.529  14.136 -0.8194  0.5237  0.6957
  519MPD2     H 7711   3.737   2.620  13.767 -1.6789  0.7614 -0.0109
  519MPD2    H1 7712   3.897   2.368  14.063 -1.4518 -0.5669  0.7228
  519MPD2    H2 7713   3.632   2.681  14.186  1.9350  1.9304  0.7499
  519MPD2    H3 7714   3.790   2.504  14.240 -1.7141  0.2330  0.7676
  519MPD2     N 7715   3.887   2.430  13.796  0.3522 -0.4850  0.7652
  519MPD2    H5 7716   3.845   2.463  13.710 -1.5201 -1.4119  1.3325
  519MPD2    N1 7717   3.564   2.750  13.919  0.1903 -0.3238 -0.0740
  519MPD2    H7 7718   3.565   2.764  13.818  0.3909 -0.1404 -0.0469
  520TMC3    C1 7719   4.050   2.308  13.680  0.9484  0.4319  0.5236
  520TMC3    C2 7720   3.965   2.300  13.575 -0.1358 -0.2112  0.6685
  520TMC3    C3 7721   4.016   2.284  13.447  1.2138 -0.7122  0.2329
  520TMC3    C4 7722   4.187   2.295  13.667  0.3455  0.6401 -0.6706
  520TMC3    C5 7723   4.236   2.270  13.540 -0.0721 -0.0680 -0.0655
  520TMC3    C6 7724   4.153   2.277  13.430  0.4605  0.1242 -0.0223
  520TMC3     C 7725   4.003   2.361  13.806 -0.5726  0.0320  0.8105
  520TMC3     O 7726   4.076   2.354  13.903  0.0642  0.2548  0.1340
  520TMC3     H 7727   3.859   2.301  13.595 -0.5718 -1.4698 -1.6122
  520TMC3    H1 7728   4.258   2.310  13.747  0.8100 -0.5976 -0.8530
  520TMC3    H2 7729   4.196   2.262  13.331  2.0001  1.1625  0.4971
  520TMC3    C7 7730   4.384   2.285  13.524  0.5600  0.1837  0.8307
  520TMC3    C8 7731   3.920   2.278  13.342 -0.1922 -0.3039 -0.3402
  520TMC3    O1 7732   4.415   2.339  13.422 -0.0862 -0.6943  0.2298
  520TMC3    O2 7733   3.958   2.313  13.229 -0.1349  0.1588 -0.2633
  521MPD2     C 7734   4.550   4.516  17.087 -0.1352  0.5421  0.9036
  521MPD2    C1 7735   4.612   4.599  16.998  0.9370 -1.0074  0.0956
  521MPD2    C2 7736   0.028   4.570  16.952 -0.0205 -0.0783  0.2064
  521MPD2    C3 7737   0.108   4.480  17.015  0.6573 -0.1215  0.8552
  521MPD2    C4 7738   0.044   4.404  17.112 -0.0473 -0.2322  0.3340
  521MPD2    C5 7739   4.632   4.421  17.149  0.0503 -0.2217 -0.3988
  521MPD2     H 7740   0.055   4.640  16.874 -0.8768 -1.3682 -1.2596
  521MPD2    H1 7741   0.109   4.333  17.164 -2.0118 -1.8511  0.5725
  521MPD2    H2 7742   4.445   4.516  17.113 -0.5083  0.2392 -0.6116
  521MPD2    H3 7743   4.587   4.361  17.227 -0.7966  3.8931  2.2589
  521MPD2     N 7744   0.228   4.457  16.946 -0.5236  0.1891 -0.6276
  521MPD2    H5 7745   0.243   4.517  16.865 -1.5480 -1.2216 -1.8516
  521MPD2    N1 7746   4.525   4.700  16.944  0.0162 -0.5118  0.1822
  521MPD2    H7 7747   4.433   4.693  16.987 -0.4294 -3.8605 -1.3105
  522TMC3    C1 7748   0.416   4.350  16.868  0.6463  0.3875 -0.1840
  522TMC3    C2 7749   0.538   4.319  16.915 -0.0849 -0.6362  0.0236
  522TMC3    C3 7750   0.649   4.350  16.847  0.7250  0.2940  0.2675
  522TMC3    C4 7751   0.395   4.431  16.757 -0.4349 -0.1086 -0.0188
  522TMC3    C5 7752   0.511   4.470  16.692 -0.6373  0.2835  0.9976
  522TMC3    C6 7753   0.633   4.416  16.726  0.0274 -0.1496 -0.4204
  522TMC3     C 7754   0.319   4.356  16.968 -0.2975 -0.6016  0.4701
  522TMC3     O 7755   0.317   4.275  17.060 -0.3122  0.2787 -0.3673
  522TMC3     H 7756   0.550   4.266  17.009 -1.2322  0.0059  0.5378
  522TMC3    H1 7757   0.295   4.447  16.717 -1.3396 -2.6508  1.2856
  522TMC3    H2 7758   0.718   4.447  16.668 -0.4231  0.9606 -0.4735
  522TMC3    C7 7759   0.505   4.523  16.556  0.4180 -0.3064  0.5010
  522TMC3    C8 7760   0.776   4.287  16.877 -0.2790 -0.3925 -0.6124
  522TMC3    O1 7761   0.591   4.476  16.484 -0.0631 -0.5843  0.4126
  522TMC3    O2 7762   0.804   4.277  16.997  0.1869  0.8616  0.1792
  523MPD2     C 7763   3.521   0.565   9.885 -0.8651  0.4751  0.3638
  523MPD2    C1 7764   3.395   0.497   9.900  0.3342 -0.2599  0.5590
  523MPD2    C2 7765   3.275   0.564   9.875 -0.5622 -0.2555 -0.0052
  523MPD2    C3 7766   3.282   0.697   9.844  0.5759 -0.7727 -1.2435
  523MPD2    C4 7767   3.406   0.761   9.833 -0.0145 -0.6350  0.6705
  523MPD2    C5 7768   3.524   0.697   9.848  0.4622 -0.0459  0.0551
  523MPD2     H 7769   3.179   0.515   9.889 -0.8712  1.1228  2.8340
  523MPD2    H1 7770   3.420   0.856   9.782 -0.5968 -0.9902 -0.1372
  523MPD2    H2 7771   3.610   0.506   9.898  0.2503  1.8812 -0.8236
  523MPD2    H3 7772   3.618   0.742   9.819  1.5239 -2.9255 -0.8611
  523MPD2     N 7773   3.171   0.779   9.818  0.6351  0.2021  0.1434
  523MPD2    H5 7774   3.188   0.875   9.790  0.0986  0.4211  0.5639
  523MPD2    N1 7775   3.400   0.365   9.950  0.4231 -0.4656  0.4828
  523MPD2    H7 7776   3.493   0.339   9.984  0.5082 -0.0007  0.5999
  524TMC3    C1 7777   2.954   0.836   9.747  0.0787  1.2520  0.0546
  524TMC3    C2 7778   3.005   0.951   9.694 -0.1565  0.2910 -0.9420
  524TMC3    C3 7779   2.910   1.047   9.656  1.0041  0.1476 -0.0959
  524TMC3    C4 7780   2.824   0.811   9.772 -0.5791  0.1967  0.0962
  524TMC3    C5 7781   2.737   0.906   9.736 -0.3447 -0.0394 -0.1399
  524TMC3    C6 7782   2.779   1.022   9.676 -0.3298 -0.2038 -0.4859
  524TMC3     C 7783   3.045   0.735   9.796 -0.4156 -0.2340  0.7916
  524TMC3     O 7784   3.003   0.619   9.795  0.0286 -0.5461  0.0021
  524TMC3     H 7785   3.106   0.956   9.655 -0.4620 -1.0013 -1.8855
  524TMC3    H1 7786   2.791   0.721   9.822 -0.0985  1.2697  2.3597
  524TMC3    H2 7787   2.701   1.086   9.636 -0.4710  0.9607  1.6745
  524TMC3    C7 7788   2.595   0.893   9.774  0.8710 -0.4199  0.2626
  524TMC3    C8 7789   2.945   1.154   9.564 -0.5650  0.4023 -0.0848
  524TMC3    O1 7790   2.559   0.797   9.842  0.2688 -0.6660  0.4618
  524TMC3    O2 7791   2.880   1.152   9.458 -0.5697  0.1724  0.2496
  525MPD2     C 7792   0.598   1.893  14.158 -0.3680 -0.1069  0.0675
  525MPD2    C1 7793   0.716   1.888  14.219 -0.6947 -0.0397  0.1638
  525MPD2    C2 7794   0.830   1.947  14.164 -0.0733  0.7514  0.2928
  525MPD2    C3 7795   0.825   2.026  14.053  0.4906  0.1983  0.1705
  525MPD2    C4 7796   0.704   2.022  13.985  0.0186 -0.3646 -0.3049
  525MPD2    C5 7797   0.600   1.947  14.032  0.0363  0.0227 -0.5568
  525MPD2     H 7798   0.919   1.959  14.224  0.7395 -0.1928 -0.7397
  525MPD2    H1 7799   0.674   2.058  13.887 -0.9191 -1.4651 -0.4197
  525MPD2    H2 7800   0.502   1.849  14.180 -0.2314 -0.1380  0.6133
  525MPD2    H3 7801   0.516   1.926  13.967 -1.3636 -3.3854  2.3246
  525MPD2     N 7802   0.921   2.122  14.015  0.4041  0.4431  0.0803
  525MPD2    H5 7803   0.892   2.185  13.941  0.8174 -0.6279 -0.9814
  525MPD2    N1 7804   0.733   1.815  14.340  0.3261  0.7450  0.6800
  525MPD2    H7 7805   0.827   1.792  14.369  0.9281 -0.1867 -2.0317
  526TMC3    C1 7806   0.661   1.660  14.510  0.4274  0.0694  0.7604
  526TMC3    C2 7807   0.565   1.637  14.602  0.6509 -0.0182  0.3970
  526TMC3    C3 7808   0.600   1.555  14.706  0.1530 -0.5399 -0.7159
  526TMC3    C4 7809   0.791   1.613  14.516 -0.0038  0.6551 -0.6196
  526TMC3    C5 7810   0.827   1.539  14.625 -0.8487 -0.1902  0.5229
  526TMC3    C6 7811   0.734   1.523  14.726  0.1458 -0.1264  0.9893
  526TMC3     C 7812   0.625   1.759  14.408  0.5997 -0.2015  0.7579
  526TMC3     O 7813   0.505   1.778  14.399  0.2023 -0.0426  0.3175
  526TMC3     H 7814   0.481   1.705  14.613  0.5455 -0.2857  1.2704
  526TMC3    H1 7815   0.854   1.619  14.428 -0.1461  2.0136 -0.6348
  526TMC3    H2 7816   0.767   1.467  14.813 -1.2275 -3.2380 -0.4895
  526TMC3    C7 7817   0.967   1.523  14.656 -0.0920  0.1222  0.3081
  526TMC3    C8 7818   0.537   1.574  14.834  0.1137  0.1287 -0.0882
  526TMC3    O1 7819   0.993   1.513  14.776  0.2185  0.2002  0.0787
  526TMC3    O2 7820   0.614   1.568  14.928 -0.3418 -0.1577 -0.0423
  527MPD2     C 7821   3.375   4.422   1.255 -0.7656 -0.4315 -0.4433
  527MPD2    C1 7822   3.435   4.352   1.359 -0.1237 -0.6281  0.3311
  527MPD2    C2 7823   3.542   4.272   1.318  1.1684 -0.2294 -0.3439
  527MPD2    C3 7824   3.576   4.240   1.188 -0.2058  0.7427  0.1910
  527MPD2    C4 7825   3.502   4.304   1.088 -0.1291  0.2428  0.3849
  527MPD2    C5 7826   3.408   4.393   1.124  1.0745  0.0425 -0.4678
  527MPD2     H 7827   3.598   4.222   1.395 -2.2254 -3.3208  0.0803
  527MPD2    H1 7828   3.496   4.285   0.981  0.6602  2.6970 -0.0979
  527MPD2    H2 7829   3.316   4.511   1.274 -0.5676  0.1644 -2.6174
  527MPD2    H3 7830   3.370   4.462   1.050 -2.3008 -1.4901 -0.1666
  527MPD2     N 7831   3.665   4.138   1.165  0.2247 -0.0145 -0.2975
  527MPD2    H5 7832   3.713   4.094   1.244  0.1514  2.2774  1.0193
  527MPD2    N1 7833   3.414   4.384   1.492 -0.1323  0.7302  0.6938
  527MPD2    H7 7834   3.483   4.341   1.553  0.5088  0.7910  0.0123
  528TMC3    C1 7835   3.308   4.415   1.700 -0.7730 -0.2550  0.2401
  528TMC3    C2 7836   3.406   4.334   1.762  0.2614  0.5712 -0.4122
  528TMC3    C3 7837   3.398   4.306   1.896  0.3589 -0.0490  0.2847
  528TMC3    C4 7838   3.199   4.458   1.773 -0.1962  0.5906 -0.3159
  528TMC3    C5 7839   3.202   4.437   1.911  0.0862  0.4562  0.1705
  528TMC3    C6 7840   3.294   4.348   1.977  0.0755  0.1887  0.1892
  528TMC3     C 7841   3.310   4.445   1.557 -0.5107  0.2012  0.1971
  528TMC3     O 7842   3.206   4.493   1.511  0.6338 -0.0607  0.5431
  528TMC3     H 7843   3.500   4.311   1.713  0.7544 -0.2521  0.9242
  528TMC3    H1 7844   3.122   4.517   1.726 -0.9580 -1.1362 -1.2499
  528TMC3    H2 7845   3.283   4.336   2.084  1.0630 -0.2631  0.2441
  528TMC3    C7 7846   3.080   4.468   1.985  0.3548 -0.1364  0.4583
  528TMC3    C8 7847   3.519   4.254   1.952 -0.4654 -1.0060 -0.4215
  528TMC3    O1 7848   2.989   4.514   1.912 -0.4072  0.0335 -0.4215
  528TMC3    O2 7849   3.618   4.272   1.887  0.3577  0.0220 -0.3298
  529MPD2     C 7850   1.542   3.154   0.961  0.3727  0.0688  0.3550
  529MPD2    C1 7851   1.530   3.048   0.882 -0.1546 -0.0734 -0.2873
  529MPD2    C2 7852   1.526   3.076   0.751  0.9412 -0.6396 -0.3545
  529MPD2    C3 7853   1.551   3.200   0.694  0.0186 -0.3371  1.0742
  529MPD2    C4 7854   1.558   3.310   0.779  0.1406  0.0338  0.0610
  529MPD2    C5 7855   1.559   3.284   0.912  0.3251 -0.5763  0.9851
  529MPD2     H 7856   1.510   2.994   0.683  0.5888  0.3148 -1.4217
  529MPD2    H1 7857   1.554   3.416   0.756  1.0558 -0.8135 -4.0868
  529MPD2    H2 7858   1.545   3.149   1.070  1.9508  0.1820  0.3102
  529MPD2    H3 7859   1.568   3.361   0.988  2.7988  1.4864 -1.3819
  529MPD2     N 7860   1.549   3.220   0.552  0.1736  0.0018  0.3056
  529MPD2    H5 7861   1.565   3.320   0.540  0.3924 -0.1325 -0.5118
  529MPD2    N1 7862   1.538   2.915   0.929 -0.3141 -0.0548  0.2047
  529MPD2    H7 7863   1.518   2.841   0.862 -0.4903  1.9617 -1.9737
  530TMC3    C1 7864   1.588   2.730   1.077 -0.2149  0.1668 -0.4472
  530TMC3    C2 7865   1.658   2.689   1.187 -0.1112 -0.1711 -0.0538
  530TMC3    C3 7866   1.658   2.557   1.227 -0.0601  0.1601 -0.0085
  530TMC3    C4 7867   1.512   2.646   1.001 -0.1436 -0.6632  0.4755
  530TMC3    C5 7868   1.505   2.516   1.049 -0.1093  0.6926 -0.0354
  530TMC3    C6 7869   1.574   2.470   1.160  0.4846  0.1858  0.6608
  530TMC3     C 7870   1.576   2.876   1.057  0.2095 -0.1951  0.4239
  530TMC3     O 7871   1.583   2.942   1.157 -0.4685  0.2036 -0.2779
  530TMC3     H 7872   1.732   2.751   1.237  1.4924 -1.4723 -0.8011
  530TMC3    H1 7873   1.452   2.682   0.919 -1.8604 -0.2119  1.9261
  530TMC3    H2 7874   1.575   2.364   1.185  3.3507 -0.4192 -2.0751
  530TMC3    C7 7875   1.377   2.446   1.018  0.9780 -0.4304 -0.2559
  530TMC3    C8 7876   1.702   2.532   1.362  0.3364  0.0654 -0.0644
  530TMC3    O1 7877   1.335   2.472   0.906 -0.7644 -0.5333  0.0657
  530TMC3    O2 7878   1.723   2.631   1.428  0.2190 -0.0342 -0.5776
  531MPD2     C 7879   0.679   1.176  12.828  0.8416 -0.1267  0.1203
  531MPD2    C1 7880   0.557   1.151  12.892  0.6944  0.0057  0.2244
  531MPD2    C2 7881   0.478   1.048  12.839 -0.0362 -0.1698  0.0045
  531MPD2    C3 7882   0.510   0.983  12.716 -0.1819 -0.0289 -0.3105
  531MPD2    C4 7883   0.628   1.019  12.653 -0.7238  0.3219  0.5482
  531MPD2    C5 7884   0.712   1.111  12.715 -0.2382  0.2717  0.6492
  531MPD2     H 7885   0.377   1.037  12.877  1.2718 -3.2361  2.6278
  531MPD2    H1 7886   0.661   0.979  12.558  0.1871  1.3670  0.4266
  531MPD2    H2 7887   0.743   1.260  12.852  2.2471 -0.9636 -0.6999
  531MPD2    H3 7888   0.796   1.149  12.657  0.3965 -3.3038 -0.7526
  531MPD2     N 7889   0.412   0.901  12.647 -0.2829  0.0404  0.6138
  531MPD2    H5 7890   0.426   0.887  12.547  0.7688  0.8400  0.6487
  531MPD2    N1 7891   0.535   1.230  13.015  0.7606 -0.1910  0.3323
  531MPD2    H7 7892   0.607   1.292  13.050  2.7051 -1.4848 -1.3849
  532TMC3    C1 7893   0.400   1.283  13.201  0.0577 -0.6000  0.9135
  532TMC3    C2 7894   0.269   1.268  13.242 -0.0611 -0.1800  0.0362
  532TMC3    C3 7895   0.238   1.217  13.368 -0.4169 -0.5794  0.2834
  532TMC3    C4 7896   0.503   1.243  13.286  0.3526  0.0639 -1.1272
  532TMC3    C5 7897   0.467   1.213  13.415 -1.0822  0.7753  0.1228
  532TMC3    C6 7898   0.336   1.199  13.461 -0.8015  0.3419  0.5642
  532TMC3     C 7899   0.405   1.244  13.063  0.7685  0.2921  1.3058
  532TMC3     O 7900   0.305   1.188  13.024 -0.3573  0.4405  0.0508
  532TMC3     H 7901   0.184   1.296  13.182 -0.0631 -2.5318 -1.0266
  532TMC3    H1 7902   0.608   1.243  13.262  0.9685 -2.9138  1.4456
  532TMC3    H2 7903   0.314   1.183  13.566  0.7488  1.5024  1.0691
  532TMC3    C7 7904   0.565   1.147  13.498  0.0010  0.3308  0.1008
  532TMC3    C8 7905   0.137   1.110  13.378 -0.0429  0.1548  0.0059
  532TMC3    O1 7906   0.596   1.209  13.598 -0.6458 -0.3574  0.4028
  532TMC3    O2 7907   0.058   1.113  13.472  0.3085 -0.6227 -0.0472
  533TMC3    C1 7908   1.046   2.301  14.088  0.5619 -0.5606 -0.1254
  533TMC3    C2 7909   1.173   2.344  14.122  0.0583  1.2346 -0.4974
  533TMC3    C3 7910   1.179   2.471  14.163  0.7076 -0.2520 -0.4256
  533TMC3    C4 7911   0.931   2.367  14.122 -0.0232 -0.4311 -0.0710
  533TMC3    C5 7912   0.947   2.487  14.174 -0.4281  0.1159 -0.1035
  533TMC3    C6 7913   1.071   2.548  14.191  0.6575 -0.5710  0.9554
  533TMC3     C 7914   1.033   2.160  14.092  0.2883 -0.3277  0.3554
  533TMC3     O 7915   1.102   2.096  14.173 -0.3547  0.1337  0.3734
  533TMC3     H 7916   1.256   2.275  14.119 -1.2551 -0.3983  0.3235
  533TMC3    H1 7917   0.832   2.335  14.088 -0.1948  0.8418 -0.7620
  533TMC3    H2 7918   1.084   2.649  14.230 -0.6768  0.0435 -0.1626
  533TMC3    C7 7919   0.846   2.529  14.272  0.3660 -0.2112  0.3037
  533TMC3    C8 7920   1.307   2.523  14.200 -0.3679  0.0793  1.0422
  533TMC3    O1 7921   0.745   2.463  14.277 -0.3449 -0.4481 -0.4526
  533TMC3    O2 7922   1.390   2.434  14.220  0.1829  0.1553 -0.3602
  534MPD2     C 7923   3.104   3.380   2.246  0.2776 -0.1581 -0.5504
  534MPD2    C1 7924   3.184   3.397   2.134 -0.2230 -0.5796  0.6219
  534MPD2    C2 7925   3.196   3.297   2.046  0.5842 -0.7883 -0.0514
  534MPD2    C3 7926   3.130   3.178   2.074  0.3034 -0.0140 -0.5973
  534MPD2    C4 7927   3.063   3.148   2.193  0.4073 -0.3921 -0.5262
  534MPD2    C5 7928   3.050   3.259   2.276 -0.3854  0.2489 -0.0528
  534MPD2     H 7929   3.257   3.306   1.956 -1.3101 -0.3958 -1.2934
  534MPD2    H1 7930   3.006   3.056   2.203  1.5707 -1.0281  0.3548
  534MPD2    H2 7931   3.080   3.462   2.313  2.5483  0.8685 -0.9985
  534MPD2    H3 7932   2.979   3.251   2.357  0.8560  1.2428  1.1251
  534MPD2     N 7933   3.121   3.073   1.980 -0.1097  0.5039 -0.1380
  534MPD2    H5 7934   3.082   2.985   2.010  1.5068 -0.2350 -0.2129
  534MPD2    N1 7935   3.248   3.518   2.110 -0.4561  0.0841 -0.0830
  534MPD2    H7 7936   3.311   3.527   2.032 -0.9543  1.0934 -0.3613
  535TMC3    C1 7937   3.140   2.946   1.777  0.2216  0.0296 -0.0035
  535TMC3    C2 7938   3.078   2.839   1.846  0.1708  0.7389  0.9623
  535TMC3    C3 7939   3.059   2.720   1.778 -0.0281  0.1013 -1.0321
  535TMC3    C4 7940   3.175   2.939   1.642 -0.1978  0.2047  0.7574
  535TMC3    C5 7941   3.152   2.817   1.578  0.7705 -0.9259 -0.9924
  535TMC3    C6 7942   3.087   2.708   1.639  0.5658 -0.0787  0.0273
  535TMC3     C 7943   3.154   3.076   1.845  0.0834  0.0354 -0.3241
  535TMC3     O 7944   3.201   3.171   1.784  0.3682  0.4755  0.3146
  535TMC3     H 7945   3.038   2.854   1.946  0.8777 -0.3445  1.4016
  535TMC3    H1 7946   3.234   3.023   1.607  0.3603 -1.8091 -3.0709
  535TMC3    H2 7947   3.071   2.613   1.589 -0.7631 -0.1469  0.5885
  535TMC3    C7 7948   3.184   2.805   1.442  0.4749 -0.5684 -0.6463
  535TMC3    C8 7949   3.002   2.610   1.842  0.0806 -0.8748  0.5031
  535TMC3    O1 7950   3.201   2.694   1.394 -0.2230 -0.0051  0.5462
  535TMC3    O2 7951   2.936   2.543   1.762 -0.3158 -0.0614  0.0996
  536MPD2     C 7952   1.558   0.961  16.539 -0.0657  0.0136 -0.7083
  536MPD2    C1 7953   1.646   1.020  16.444 -1.4206  0.1802 -0.1234
  536MPD2    C2 7954   1.606   1.055  16.314 -0.1215 -0.4502  0.0152
  536MPD2    C3 7955   1.478   1.029  16.278  0.4678  0.8432  0.4876
  536MPD2    C4 7956   1.385   0.994  16.378 -0.4234  0.0106 -0.5228
  536MPD2    C5 7957   1.429   0.961  16.500 -0.2980 -0.3396  0.1720
  536MPD2     H 7958   1.680   1.096  16.246 -0.9397 -1.2082 -1.3309
  536MPD2    H1 7959   1.278   0.991  16.362 -0.3583 -0.6853 -0.8040
  536MPD2    H2 7960   1.577   0.926  16.639 -0.9682 -0.3651 -0.6683
  536MPD2    H3 7961   1.351   0.940  16.572  0.3630  0.0039  0.9861
  536MPD2     N 7962   1.416   1.053  16.149 -0.0808 -0.3466  0.4977
  536MPD2    H5 7963   1.315   1.046  16.141 -0.1952 -0.0772  1.8174
  536MPD2    N1 7964   1.781   1.034  16.480  0.3382  0.8442 -0.6618
  536MPD2    H7 7965   1.808   0.994  16.570 -1.5991  0.7153 -0.1408
  537TMC3    C1 7966   2.014   1.129  16.482 -0.1260  0.0238 -0.1808
  537TMC3    C2 7967   2.093   1.226  16.422  0.4243  1.4486 -0.9013
  537TMC3    C3 7968   2.226   1.217  16.457  0.1775 -0.0594  0.0770
  537TMC3    C4 7969   2.055   1.025  16.558  0.1392  0.3354  0.0794
  537TMC3    C5 7970   2.190   1.021  16.597  0.3950  0.3368 -0.5031
  537TMC3    C6 7971   2.273   1.111  16.538 -0.1344 -0.5647 -0.4839
  537TMC3     C 7972   1.874   1.132  16.431 -0.0564 -0.0765  0.1894
  537TMC3     O 7973   1.845   1.227  16.364  0.0956 -0.1742  0.2182
  537TMC3     H 7974   2.061   1.318  16.375 -0.0766  0.8205 -1.7791
  537TMC3    H1 7975   1.987   0.945  16.581 -0.2966  1.1406  1.5877
  537TMC3    H2 7976   2.374   1.107  16.576 -0.1880 -1.0529 -0.4004
  537TMC3    C7 7977   2.206   0.994  16.736  0.8316  0.2569 -0.1048
  537TMC3    C8 7978   2.296   1.341  16.467  0.0863  0.1348  0.5228
  537TMC3    O1 7979   2.305   1.051  16.788 -0.5471  0.2373 -0.0513
  537TMC3    O2 7980   2.378   1.326  16.555  0.7150 -0.5720 -0.0226
  538TMC3    C1 7981   3.272   0.422  10.671 -0.4701  0.4106 -0.4153
  538TMC3    C2 7982   3.403   0.463  10.682 -0.4441  0.3165  0.4738
  538TMC3    C3 7983   3.485   0.452  10.570  0.5957 -0.7227  0.1565
  538TMC3    C4 7984   3.222   0.376  10.552 -0.8251 -0.8358 -0.3752
  538TMC3    C5 7985   3.305   0.381  10.443 -0.0663  0.6421  0.1819
  538TMC3    C6 7986   3.441   0.425  10.440  0.0964  0.1907  0.1388
  538TMC3     C 7987   3.171   0.436  10.771  0.3488 -0.4682 -0.3994
  538TMC3     O 7988   3.054   0.413  10.744 -0.1103 -0.3293 -0.6023
  538TMC3     H 7989   3.439   0.523  10.765  1.5721 -3.7137  2.5449
  538TMC3    H1 7990   3.118   0.346  10.543 -1.0835 -0.2213  0.5406
  538TMC3    H2 7991   3.507   0.429  10.354  0.6504 -1.4916  0.4991
  538TMC3    C7 7992   3.250   0.341  10.318 -0.3246  1.1674  1.0397
  538TMC3    C8 7993   3.624   0.433  10.607 -0.7659 -0.1148  0.2410
  538TMC3    O1 7994   3.171   0.248  10.317  0.7899  0.1227 -0.0212
  538TMC3    O2 7995   3.661   0.461  10.717 -0.0996 -0.6523 -0.2474
  539MPD2     C 7996   2.665   4.503  11.804 -0.1358  0.7056  0.1907
  539MPD2    C1 7997   2.692   4.490  11.672  0.1102  0.2485 -0.1792
  539MPD2    C2 7998   2.653   4.590  11.582 -0.5111  0.4612  0.3243
  539MPD2    C3 7999   2.578   4.696  11.639 -0.3252  0.4979 -0.0240
  539MPD2    C4 8000   2.541   4.697  11.775  0.8317  0.4181  0.6829
  539MPD2    C5 8001   2.591   4.603  11.857 -0.5569 -0.1831 -0.0505
  539MPD2     H 8002   2.682   4.585  11.477 -0.1546  0.5027  0.4229
  539MPD2    H1 8003   2.499   0.070  11.819  0.1493  0.1174  0.6498
  539MPD2    H2 8004   2.692   4.421  11.869 -0.5667 -0.8058 -1.5437
  539MPD2    H3 8005   2.552   4.596  11.958  0.3856  0.4286  0.3558
  539MPD2     N 8006   2.555   0.098  11.570 -0.9297  0.7302  0.3599
  539MPD2    H5 8007   2.507   0.165  11.629 -0.7973  0.6909  0.5104
  539MPD2    N1 8008   2.787   4.403  11.619 -0.3740 -0.2323  0.0848
  539MPD2    H7 8009   2.803   4.408  11.520 -0.0645 -2.0213  0.0477
  540TMC3    C1 8010   2.512   0.254  11.398  0.0407  0.1314 -1.1819
  540TMC3    C2 8011   2.509   0.278  11.262  0.2844 -0.4165  0.2573
  540TMC3    C3 8012   2.462   0.401  11.222  0.7521 -0.5334 -0.3505
  540TMC3    C4 8013   2.474   0.349  11.486 -0.7061 -0.5526  0.0830
  540TMC3    C5 8014   2.439   0.469  11.440  0.3071  0.0151 -1.4811
  540TMC3    C6 8015   2.430   0.498  11.308  0.4163 -0.2197  0.1084
  540TMC3     C 8016   2.572   0.123  11.441  0.5967 -0.0338  0.4754
  540TMC3     O 8017   2.605   0.045  11.350  0.2911  0.3209 -0.4271
  540TMC3     H 8018   2.563   0.208  11.199 -0.9376 -2.0398  1.0277
  540TMC3    H1 8019   2.472   0.333  11.593 -2.8984 -0.3706  0.0728
  540TMC3    H2 8020   2.384   0.589  11.274  1.7782  0.9520  1.4122
  540TMC3    C7 8021   2.355   0.545  11.530  0.3676 -0.0135  0.1122
  540TMC3    C8 8022   2.523   0.449  11.106 -0.1975  0.2938 -0.0420
  540TMC3    O1 8023   2.322   0.496  11.635 -0.1909  0.7764 -0.5972
  540TMC3    O2 8024   2.560   0.568  11.097  0.2460  0.6132  0.7573
  541MPD2     C 8025   0.984   1.074  13.093 -0.8231  0.1046 -0.6467
  541MPD2    C1 8026   1.051   1.027  12.983 -0.2421 -0.0530 -0.0670
  541MPD2    C2 8027   1.093   1.118  12.885 -0.2812  0.7157  0.6695
  541MPD2    C3 8028   1.061   1.250  12.898 -0.4277  0.2175  0.4634
  541MPD2    C4 8029   0.986   1.288  13.008  0.3537  0.1263 -0.3377
  541MPD2    C5 8030   0.950   1.204  13.106 -0.0570 -0.3998  0.1109
  541MPD2     H 8031   1.144   1.075  12.799 -0.6775  0.9206  0.3315
  541MPD2    H1 8032   0.951   1.390  13.011 -1.0638 -0.4375  2.3960
  541MPD2    H2 8033   0.963   1.008  13.177  0.6376 -1.5089 -1.5517
  541MPD2    H3 8034   0.890   1.235  13.191 -0.8344  0.7020 -0.8435
  541MPD2     N 8035   1.097   1.338  12.790 -0.6164 -0.2631 -0.7005
  541MPD2    H5 8036   1.039   1.422  12.789 -0.9978 -0.4364  3.5954
  541MPD2    N1 8037   1.077   0.887  12.978 -0.0911 -0.0377 -0.1861
  541MPD2    H7 8038   1.048   0.837  13.061  0.4702 -0.2616 -0.1261
  542TMC3    C1 8039   1.216   1.427  12.599  0.4401 -0.4274  0.5158
  542TMC3    C2 8040   1.282   1.386  12.483 -0.2985 -0.2407 -0.4056
  542TMC3    C3 8041   1.311   1.481  12.384 -0.8313 -0.2383 -0.1587
  542TMC3    C4 8042   1.177   1.557  12.618 -0.5301 -0.9642 -0.7122
  542TMC3    C5 8043   1.197   1.641  12.517 -0.3648 -0.1030 -0.6635
  542TMC3    C6 8044   1.260   1.606  12.396 -0.3714 -0.1338 -0.2347
  542TMC3     C 8045   1.193   1.316  12.695 -0.0579  0.1550  0.1068
  542TMC3     O 8046   1.247   1.209  12.665 -0.1505 -0.6758  0.8807
  542TMC3     H 8047   1.289   1.281  12.457  2.2182 -0.0782 -0.3644
  542TMC3    H1 8048   1.128   1.595  12.706  2.6716  2.1656 -0.2912
  542TMC3    H2 8049   1.266   1.679  12.316 -0.2091 -0.2831 -0.3577
  542TMC3    C7 8050   1.113   1.763  12.518  0.3108  0.0308  0.5566
  542TMC3    C8 8051   1.365   1.446  12.254  0.5763  0.4689 -0.8418
  542TMC3    O1 8052   1.022   1.773  12.597 -0.2300 -0.3238 -0.2530
  542TMC3    O2 8053   1.391   1.537  12.175  0.2370 -0.1465  0.6463
  543TMC3    C1 8054   0.827   1.661  17.279 -0.7900 -0.2023  0.0652
  543TMC3    C2 8055   0.884   1.538  17.271 -0.5248  0.6429  0.1751
  543TMC3    C3 8056   0.871   1.452  17.377 -0.3941  0.3362  0.6529
  543TMC3    C4 8057   0.750   1.699  17.378 -0.7521 -0.3495  0.1883
  543TMC3    C5 8058   0.737   1.612  17.490  0.4818  0.4891  0.1005
  543TMC3    C6 8059   0.793   1.486  17.485 -0.0655 -0.2710  0.4285
  543TMC3     C 8060   0.850   1.752  17.170  0.3394  0.1250  0.2927
  543TMC3     O 8061   0.883   1.701  17.064  0.5877 -0.2294 -0.0143
  543TMC3     H 8062   0.948   1.508  17.189 -1.9132 -0.7531 -0.4014
  543TMC3    H1 8063   0.708   1.799  17.381  0.4008  0.2134 -1.9884
  543TMC3    H2 8064   0.781   1.421  17.570 -3.1473 -0.4751 -0.1659
  543TMC3    C7 8065   0.650   1.652  17.594 -0.3708  0.2480 -0.5908
  543TMC3    C8 8066   0.926   1.310  17.351  0.0937 -0.6746 -0.3471
  543TMC3    O1 8067   0.607   1.555  17.657 -0.4492  0.1957  0.5826
  543TMC3    O2 8068   1.001   1.296  17.254 -0.0307  0.5300  0.2881
  544MPD2     C 8069   0.959   0.811  17.470  0.6509 -0.4770  0.5277
  544MPD2    C1 8070   1.032   0.883  17.378 -0.3014  0.0991 -0.0072
  544MPD2    C2 8071   1.004   1.019  17.362  0.6911  0.2303  1.0716
  544MPD2    C3 8072   0.918   1.079  17.450  0.6867 -0.0244 -0.3147
  544MPD2    C4 8073   0.840   1.004  17.539 -0.4603  0.4612 -0.0578
  544MPD2    C5 8074   0.862   0.866  17.545 -0.8402  0.0596  0.2279
  544MPD2     H 8075   1.074   1.080  17.305 -1.9185  1.8431 -0.3962
  544MPD2    H1 8076   0.765   1.054  17.600 -2.4925 -2.1308 -0.4419
  544MPD2    H2 8077   0.961   0.703  17.467  0.1863 -0.4321 -1.2131
  544MPD2    H3 8078   0.795   0.810  17.610  1.0642 -1.0741  1.2143
  544MPD2     N 8079   0.883   1.222  17.448  0.6460 -0.8285  0.6240
  544MPD2    H5 8080   0.823   1.264  17.518 -0.4113 -0.9132 -0.2221
  544MPD2    N1 8081   1.133   0.817  17.303 -0.0445  0.2257 -0.8761
  544MPD2    H7 8082   1.125   0.716  17.307  0.3191  0.2302 -0.0128
  545TMC3    C1 8083   1.286   0.753  17.154  0.5830  0.5181  0.7725
  545TMC3    C2 8084   1.291   0.724  17.021  0.3960 -0.1547  0.4376
  545TMC3    C3 8085   1.346   0.612  16.972  0.4701 -0.3093 -0.1201
  545TMC3    C4 8086   1.325   0.656  17.248 -0.0583  0.3274  0.2699
  545TMC3    C5 8087   1.373   0.537  17.195 -0.3754  0.3229 -0.1775
  545TMC3    C6 8088   1.385   0.507  17.066  0.0865  0.4301 -0.1840
  545TMC3     C 8089   1.207   0.860  17.195  0.5371  0.5248 -0.2494
  545TMC3     O 8090   1.208   0.963  17.127 -0.2417 -0.0737  0.2504
  545TMC3     H 8091   1.262   0.803  16.953  3.2887 -1.0342 -1.7909
  545TMC3    H1 8092   1.334   0.672  17.355 -1.2446 -0.1599  0.4487
  545TMC3    H2 8093   1.421   0.414  17.026  2.7044 -0.1209  3.4436
  545TMC3    C7 8094   1.387   0.411  17.279  0.4331 -0.0053  0.1946
  545TMC3    C8 8095   1.319   0.592  16.826  0.3308  0.2951  0.4321
  545TMC3    O1 8096   1.385   0.301  17.222 -0.2399 -0.2092  0.4356
  545TMC3    O2 8097   1.316   0.690  16.751  0.1076 -0.3865  0.2351
  546MPD2     C 8098   2.525   2.039  17.581 -0.3924  0.1214 -0.3556
  546MPD2    C1 8099   2.491   2.085  17.454 -0.3926 -0.5327 -0.5208
  546MPD2    C2 8100   2.527   2.218  17.425 -1.0687  0.1213  0.4897
  546MPD2    C3 8101   2.587   2.300  17.516 -0.5643  0.2582  0.0083
  546MPD2    C4 8102   2.621   2.243  17.634 -0.5064  0.4603  0.0027
  546MPD2    C5 8103   2.597   2.116  17.665 -0.2531 -0.0566  0.0492
  546MPD2     H 8104   2.510   2.255  17.325  0.9626 -1.1961 -0.3336
  546MPD2    H1 8105   2.679   2.304   0.033  0.7741 -0.0707 -0.6085
  546MPD2    H2 8106   2.502   1.942  17.624 -1.0991  0.7067  0.5773
  546MPD2    H3 8107   2.630   2.085   0.094  1.6995 -0.1337 -0.6477
  546MPD2     N 8108   2.611   2.439  17.498  0.3666 -0.1198  0.1266
  546MPD2    H5 8109   2.642   2.483  17.583  0.1581 -0.5814  0.4433
  546MPD2    N1 8110   2.424   2.001  17.368  0.4766  0.0059  0.6595
  546MPD2    H7 8111   2.405   1.909  17.406 -1.0536  0.6948  1.5816
  547TMC3    C1 8112   2.311   1.917  17.178 -0.2227  0.5836 -0.2369
  547TMC3    C2 8113   2.259   1.936  17.052  1.2099 -0.9258 -0.5291
  547TMC3    C3 8114   2.182   1.836  16.994  0.1631 -0.3249 -0.2348
  547TMC3    C4 8115   2.292   1.790  17.247  0.1114  0.2432  0.0127
  547TMC3    C5 8116   2.209   1.703  17.188  0.9981 -0.0594 -0.7565
  547TMC3    C6 8117   2.157   1.718  17.065  0.6070 -0.2968  1.0520
  547TMC3     C 8118   2.380   2.031  17.239 -0.5364  0.4445 -0.6466
  547TMC3     O 8119   2.411   2.120  17.163 -0.3965 -0.6219  0.7129
  547TMC3     H 8120   2.290   2.025  16.998  0.1958  1.0929  2.2168
  547TMC3    H1 8121   2.322   1.770  17.349 -0.9283 -0.5805  0.1575
  547TMC3    H2 8122   2.084   1.644  17.034  0.4917  0.7703 -1.2387
  547TMC3    C7 8123   2.161   1.596  17.271 -0.7195  0.0657  0.1040
  547TMC3    C8 8124   2.070   1.879  16.915  0.3778 -0.5811  0.7220
  547TMC3    O1 8125   2.161   1.624  17.389  0.5753  0.7322  0.2439
  547TMC3    O2 8126   1.963   1.822  16.913 -0.4114  0.1548 -0.4747
  548MPD2     C 8127   1.836   3.035  12.689  0.2169 -0.0449 -0.0459
  548MPD2    C1 8128   1.730   3.016  12.772  0.2150 -0.4736 -0.3265
  548MPD2    C2 8129   1.703   2.888  12.812 -0.5794  0.1435 -0.1630
  548MPD2    C3 8130   1.769   2.779  12.765 -0.5197  0.0901  0.2462
  548MPD2    C4 8131   1.865   2.798  12.664 -0.5750 -0.5736 -0.2138
  548MPD2    C5 8132   1.904   2.927  12.638 -0.2290 -0.0743  1.1066
  548MPD2     H 8133   1.625   2.872  12.886 -0.5798  1.4784  0.1233
  548MPD2    H1 8134   1.920   2.709  12.634  1.6061  0.7098 -0.0579
  548MPD2    H2 8135   1.864   3.135  12.657  0.0067 -0.1674 -0.6163
  548MPD2    H3 8136   1.995   2.951  12.584  0.0405 -1.8701  0.7660
  548MPD2     N 8137   1.733   2.645  12.793 -0.6090  0.2888 -0.0634
  548MPD2    H5 8138   1.778   2.567  12.747  1.5167  0.4596  1.7210
  548MPD2    N1 8139   1.643   3.121  12.822 -0.1756 -0.5653 -0.1664
  548MPD2    H7 8140   1.566   3.091  12.882  0.4576 -0.3128  0.7782
  549TMC3    C1 8141   1.522   3.312  12.817  0.9388 -0.4205  0.3195
  549TMC3    C2 8142   1.456   3.317  12.697 -0.1508  0.2955  0.2021
  549TMC3    C3 8143   1.329   3.271  12.690 -0.8224  1.1789  0.0191
  549TMC3    C4 8144   1.466   3.255  12.927  0.0997  0.4550  0.5673
  549TMC3    C5 8145   1.340   3.207  12.917 -0.4010 -0.3054  0.0569
  549TMC3    C6 8146   1.274   3.207  12.796 -0.3835  0.2534  0.7661
  549TMC3     C 8147   1.650   3.255  12.797  0.1867  1.1516  0.8183
  549TMC3     O 8148   1.730   3.318  12.725 -0.3300  0.3483  0.3107
  549TMC3     H 8149   1.511   3.359  12.614 -0.0845  1.2619  0.7308
  549TMC3    H1 8150   1.524   3.255  13.019  0.5745  1.9048  0.2763
  549TMC3    H2 8151   1.176   3.161  12.793 -0.0069 -0.6589  2.1243
  549TMC3    C7 8152   1.309   3.101  13.010  0.3579  0.0868  0.0730
  549TMC3    C8 8153   1.247   3.294  12.574  0.2206  0.0577  0.3109
  549TMC3    O1 8154   1.356   3.106  13.125  0.2119 -0.0187 -0.6516
  549TMC3    O2 8155   1.168   3.202  12.548  0.2365 -0.2233 -0.1104
  550TMC3    C1 8156   1.186   0.984  12.037 -0.3401 -0.0324  0.0769
  550TMC3    C2 8157   1.149   1.043  12.157  0.6602 -0.0299 -1.0503
  550TMC3    C3 8158   1.049   1.137  12.147  0.4544 -0.7055 -0.6265
  550TMC3    C4 8159   1.131   1.016  11.919  0.4644  0.1905 -0.2998
  550TMC3    C5 8160   1.039   1.116  11.911 -0.4032  0.1108  0.8601
  550TMC3    C6 8161   0.995   1.177  12.027  0.2055 -0.9932  0.0263
  550TMC3     C 8162   1.236   0.843  12.058 -0.1299 -0.2195 -0.7317
  550TMC3     O 8163   1.260   0.818  12.174 -0.4421  0.1937  0.0032
  550TMC3     H 8164   1.193   1.022  12.254 -1.6239  1.2348  0.2670
  550TMC3    H1 8165   1.158   0.961  11.829 -1.0064  2.4160 -2.0943
  550TMC3    H2 8166   0.902   1.234  12.030  0.8025 -0.1047  1.7568
  550TMC3    C7 8167   0.934   1.091  11.814  0.6455 -0.3632 -0.4169
  550TMC3    C8 8168   0.989   1.174  12.276  0.4798 -0.2774 -0.6923
  550TMC3    O1 8169   0.825   1.128  11.853 -0.0968  0.0583 -0.4077
  550TMC3    O2 8170   1.068   1.202  12.364 -0.3516  0.3153 -0.6670
  551TMC3    C1 8171   3.104   3.703  13.458 -0.4280  0.3095 -0.0392
  551TMC3    C2 8172   3.191   3.676  13.361 -0.1672 -0.0242 -0.6228
  551TMC3    C3 8173   3.317   3.642  13.401  0.1370  0.3503  0.2343
  551TMC3    C4 8174   3.131   3.677  13.590 -0.2651  0.3124  0.0878
  551TMC3    C5 8175   3.250   3.620  13.621  0.3558  0.2134 -0.5926
  551TMC3    C6 8176   3.347   3.609  13.531  0.2769 -0.1218  0.3915
  551TMC3     C 8177   2.979   3.754  13.419 -0.1160  0.6023 -0.6641
  551TMC3     O 8178   2.940   3.757  13.303 -0.0667 -0.1115  0.2102
  551TMC3     H 8179   3.166   3.703  13.259  0.8056 -0.0934 -0.8764
  551TMC3    H1 8180   3.060   3.686  13.671  0.9197  0.0354  1.1435
  551TMC3    H2 8181   3.448   3.588  13.564  0.7862  1.5328 -0.0663
  551TMC3    C7 8182   3.307   3.678  13.748  0.9666 -0.7279 -0.1280
  551TMC3    C8 8183   3.425   3.689  13.315 -0.4893  0.1157  0.0587
  551TMC3    O1 8184   3.358   3.600  13.827  0.1749 -0.3458  0.8521
  551TMC3    O2 8185   3.530   3.628  13.339  0.3952  0.2288  0.2071
  552MPD2     C 8186   0.259   0.915  13.737 -0.6727 -0.5575  0.1903
  552MPD2    C1 8187   0.257   0.780  13.772 -0.0574 -0.0955  0.1346
  552MPD2    C2 8188   0.367   0.726  13.828 -0.5828  0.1687 -0.0101
  552MPD2    C3 8189   0.479   0.805  13.872  0.1066 -0.4202  0.6772
  552MPD2    C4 8190   0.467   0.939  13.834 -0.2905  0.2693 -1.3949
  552MPD2    C5 8191   0.365   0.991  13.764 -0.4830  0.1100  0.4614
  552MPD2     H 8192   0.369   0.620  13.849  2.5351  0.3819  0.8665
  552MPD2    H1 8193   0.547   1.007  13.863 -1.1082  0.0082  1.3988
  552MPD2    H2 8194   0.179   0.953  13.673  1.2083 -0.2393 -1.9840
  552MPD2    H3 8195   0.363   1.095  13.736 -0.1120 -0.0542 -0.1735
  552MPD2     N 8196   0.591   0.748  13.941 -0.1660 -0.2074  0.1549
  552MPD2    H5 8197   0.665   0.813  13.966  0.5194 -1.0452  0.3105
  552MPD2    N1 8198   0.163   0.689  13.733 -0.0325 -0.3949  0.3765
  552MPD2    H7 8199   0.184   0.592  13.751 -0.7276 -0.2995  1.7643
  553TMC3    C1 8200   4.694   0.600  13.617 -0.2027  0.0655  0.6279
  553TMC3    C2 8201   4.651   0.629  13.488  0.5343  0.3186 -0.3527
  553TMC3    C3 8202   4.643   0.527  13.399 -0.5468  0.1897 -0.2694
  553TMC3    C4 8203   0.029   0.478  13.647  0.5076  0.4409  0.0333
  553TMC3    C5 8204   0.009   0.374  13.559 -0.1527  0.3282 -0.2489
  553TMC3    C6 8205   4.655   0.397  13.441  0.1625 -0.4921 -0.4145
  553TMC3     C 8206   0.036   0.717  13.679  0.2115 -0.2916 -0.6217
  553TMC3     O 8207   4.695   0.823  13.662  0.3706  0.2578 -0.1499
  553TMC3     H 8208   4.647   0.733  13.459  1.9191  0.1476 -1.1407
  553TMC3    H1 8209   0.057   0.458  13.750 -0.3825  0.5522  0.2904
  553TMC3    H2 8210   4.639   0.315  13.372  0.9552 -1.4000  0.4905
  553TMC3    C7 8211   0.047   0.237  13.594  0.3086 -0.0561 -0.4756
  553TMC3    C8 8212   0.040   0.534  13.304 -0.5247 -0.1121  0.1683
  553TMC3    O1 8213   4.672   0.160  13.574 -0.0392 -0.5046 -0.0889
  553TMC3    O2 8214   0.114   0.631  13.315  0.3067  0.2018 -0.1995
  554TMC3    C1 8215   1.788   0.089  11.343 -0.5616 -0.3276 -0.5426
  554TMC3    C2 8216   1.702   0.002  11.275  0.0527 -0.2941 -0.4689
  554TMC3    C3 8217   1.669   0.031  11.146  1.1993 -0.3046 -0.1795
  554TMC3    C4 8218   1.832   0.203  11.279 -0.0465 -1.0135  0.2465
  554TMC3    C5 8219   1.816   0.215  11.142 -0.5185 -0.2387  0.4815
  554TMC3    C6 8220   1.728   0.131  11.077  0.4706 -0.8618 -0.4352
  554TMC3     C 8221   1.804   0.066  11.482  0.1907  0.5470  0.1361
  554TMC3     O 8222   1.815   0.161  11.555  0.5318 -0.4198 -0.0142
  554TMC3     H 8223   1.658   4.636  11.330 -2.0470  2.9043  2.6642
  554TMC3    H1 8224   1.908   0.259  11.333 -0.5593  1.0634 -1.1983
  554TMC3    H2 8225   1.699   0.152  10.975  0.8024 -1.5747 -0.6750
  554TMC3    C7 8226   1.905   0.300  11.065  0.0709 -0.2245 -0.6755
  554TMC3    C8 8227   1.590   4.646  11.074  0.9688 -0.5081 -0.3453
  554TMC3    O1 8228   1.881   0.301  10.947 -0.6075  0.0016 -0.3873
  554TMC3    O2 8229   1.536   4.557  11.142  0.0916  0.1211  0.7334
  555TMC3    C1 8230   1.426   3.603  14.579 -0.1820 -0.2883  0.3913
  555TMC3    C2 8231   1.446   3.706  14.666 -0.0809 -0.5803  0.3694
  555TMC3    C3 8232   1.429   3.672  14.797 -0.2636  0.0198  0.5874
  555TMC3    C4 8233   1.406   3.474  14.611  0.1609 -0.1010 -0.2844
  555TMC3    C5 8234   1.398   3.449  14.742 -0.0415  0.4094  0.1407
  555TMC3    C6 8235   1.409   3.547  14.842  0.2078 -0.2518 -0.3210
  555TMC3     C 8236   1.406   3.631  14.443 -0.2779 -0.0524 -0.7002
  555TMC3     O 8237   1.484   3.567  14.368  0.8166  0.0232  0.0679
  555TMC3     H 8238   1.481   3.806  14.641 -2.5066  0.9290  2.8483
  555TMC3    H1 8239   1.379   3.407  14.530 -0.7183  0.5390 -0.5335
  555TMC3    H2 8240   1.377   3.523  14.943 -1.2717 -0.7192 -0.8907
  555TMC3    C7 8241   1.358   3.319  14.779  0.0237 -0.2964 -0.8194
  555TMC3    C8 8242   1.452   3.778  14.895  0.5981  0.2093  0.5140
  555TMC3    O1 8243   1.334   3.308  14.899 -0.1902 -0.3697  0.2117
  555TMC3    O2 8244   1.481   3.890  14.860 -0.5765  0.3145  0.3788
  556MPD2     C 8245   3.647   0.732  10.408  0.7926 -0.5442 -0.2702
  556MPD2    C1 8246   3.775   0.736  10.455  0.1646 -0.1275 -0.8611
  556MPD2    C2 8247   3.878   0.701  10.371  0.2395  0.1203 -0.4249
  556MPD2    C3 8248   3.851   0.656  10.242 -0.0220 -0.1770 -0.7746
  556MPD2    C4 8249   3.719   0.641  10.204 -0.6929 -0.0412 -0.2118
  556MPD2    C5 8250   3.617   0.688  10.278  0.0358  0.0146  0.2476
  556MPD2     H 8251   3.972   0.686  10.423  0.6365 -0.7898 -1.4013
  556MPD2    H1 8252   3.697   0.585  10.113 -1.0428  0.6229 -0.5350
  556MPD2    H2 8253   3.565   0.759  10.474 -0.0202 -2.5814 -0.4385
  556MPD2    H3 8254   3.518   0.687  10.233  0.1757 -0.1894 -0.0614
  556MPD2     N 8255   3.950   0.607  10.158  0.4595  0.3073  0.2599
  556MPD2    H5 8256   4.040   0.592  10.202 -0.9204 -0.5241  2.8223
  556MPD2    N1 8257   3.785   0.774  10.592  0.1320 -0.1456 -0.1850
  556MPD2    H7 8258   3.702   0.786  10.650 -0.7527 -0.1626 -1.4410
  557TMC3    C1 8259   4.041   0.488   9.967 -0.0572  0.2632 -0.7580
  557TMC3    C2 8260   3.995   0.425   9.853  0.1303 -0.5037  0.2462
  557TMC3    C3 8261   4.020   0.293   9.845  0.3396 -0.2133 -0.0165
  557TMC3    C4 8262   4.121   0.424  10.056  0.1858 -0.2543  0.0153
  557TMC3    C5 8263   4.124   0.286  10.051  0.0355  0.3498 -0.0893
  557TMC3    C6 8264   4.094   0.223   9.933 -0.0508 -0.0653  0.3398
  557TMC3     C 8265   3.944   0.583  10.024  0.0024  0.4447 -0.1353
  557TMC3     O 8266   3.868   0.636   9.946  0.0583  0.2270 -0.3536
  557TMC3     H 8267   3.924   0.475   9.789  0.1000 -0.0214  0.6592
  557TMC3    H1 8268   4.164   0.475  10.142  2.1451 -0.8004 -0.6354
  557TMC3    H2 8269   4.106   0.115   9.931  1.9517  0.2151 -2.8525
  557TMC3    C7 8270   4.067   0.231  10.169  0.4102  0.4007  0.3001
  557TMC3    C8 8271   3.993   0.237   9.719 -0.3887 -0.5513  0.9321
  557TMC3    O1 8272   3.968   0.160  10.148 -0.0793  0.7507 -0.0431
  557TMC3    O2 8273   3.990   0.310   9.622  0.1911  0.4225 -0.2772
  558TMC3    C1 8274   1.647   3.595  10.130  0.1796 -0.5723 -0.1080
  558TMC3    C2 8275   1.543   3.576  10.204 -0.8103 -0.0668  0.5693
  558TMC3    C3 8276   1.418   3.561  10.147 -0.3520  0.5269 -0.4483
  558TMC3    C4 8277   1.633   3.597   9.994 -0.3211 -0.9821  0.1348
  558TMC3    C5 8278   1.508   3.589   9.938  0.4825 -0.3884 -0.2715
  558TMC3    C6 8279   1.396   3.568  10.013  0.7654  0.0302 -0.0098
  558TMC3     C 8280   1.768   3.537  10.181 -0.5630  1.0785 -0.4963
  558TMC3     O 8281   1.838   3.608  10.253  0.0318 -0.1240  0.2193
  558TMC3     H 8282   1.562   3.596  10.309  0.9331  3.5478 -0.3994
  558TMC3    H1 8283   1.725   3.601   9.937 -1.0017 -1.1738 -0.9890
  558TMC3    H2 8284   1.295   3.562   9.973  0.6164 -0.5479  0.4504
  558TMC3    C7 8285   1.508   3.566   9.796 -0.1429  0.8602 -0.1612
  558TMC3    C8 8286   1.336   3.464  10.211  0.2212  0.2560  0.3746
  558TMC3    O1 8287   1.602   3.607   9.735 -0.3993  0.8086  0.1775
  558TMC3    O2 8288   1.226   3.440  10.164  0.3285  0.0385  0.4112
  559MPD2     C 8289   1.424   4.045  10.197 -0.2493 -0.1350  0.1796
  559MPD2    C1 8290   1.440   3.956  10.294 -0.4791  0.8031  0.4016
  559MPD2    C2 8291   1.556   3.946  10.368  0.2427  0.3440  0.3861
  559MPD2    C3 8292   1.657   4.044  10.355 -0.2295  0.8486  0.3539
  559MPD2    C4 8293   1.629   4.150  10.276 -0.4865  0.2666  0.2382
  559MPD2    C5 8294   1.513   4.146  10.201 -0.1232 -0.1905 -0.6669
  559MPD2     H 8295   1.572   3.860  10.432 -2.4960 -1.1185 -0.8891
  559MPD2    H1 8296   1.707   4.225  10.267  0.1903 -0.4796 -0.0697
  559MPD2    H2 8297   1.340   4.063  10.131  1.6729  2.9502 -1.4505
  559MPD2    H3 8298   1.487   4.223  10.129  1.1646 -1.4419 -2.4472
  559MPD2     N 8299   1.770   4.045  10.436 -0.0158 -0.0569 -0.5493
  559MPD2    H5 8300   1.784   3.950  10.467  0.7857  0.0996 -0.4261
  559MPD2    N1 8301   1.325   3.879  10.332 -0.3992 -0.4530  0.1091
  559MPD2    H7 8302   1.241   3.898  10.279  0.1020  1.6503  0.0947
  560TMC3    C1 8303   1.984   4.114  10.510 -0.3931  0.8178 -0.5675
  560TMC3    C2 8304   2.015   3.979  10.503 -0.4982  0.6517  0.4127
  560TMC3    C3 8305   2.093   3.929  10.596 -0.2332 -0.5745 -0.8363
  560TMC3    C4 8306   2.052   4.197  10.602 -0.7550 -0.6948  0.5985
  560TMC3    C5 8307   2.126   4.139  10.698  0.0559 -0.2637 -0.0590
  560TMC3    C6 8308   2.147   4.002  10.695  0.0300  0.2032 -0.4695
  560TMC3     C 8309   1.855   4.156  10.460  0.4442  0.6026  0.1435
  560TMC3     O 8310   1.820   4.278  10.473 -0.4111  0.1386  0.0323
  560TMC3     H 8311   1.974   3.917  10.424  0.1651 -0.9276  1.3217
  560TMC3    H1 8312   2.008   4.293  10.627 -1.9378 -0.4890 -2.2314
  560TMC3    H2 8313   2.214   3.955  10.766  1.1974  0.8115 -1.1609
  560TMC3    C7 8314   2.160   4.200  10.828  0.3408 -0.6122  0.9491
  560TMC3    C8 8315   2.107   3.784  10.597 -0.4181  0.1208  0.2331
  560TMC3    O1 8316   2.166   4.121  10.918 -0.4744 -0.0915 -0.2838
  560TMC3    O2 8317   2.023   3.715  10.541  0.0589 -0.7038 -0.3249
  561TMC3    C1 8318   4.141   2.817  11.190  0.4676 -0.0321  0.6183
  561TMC3    C2 8319   4.084   2.758  11.307 -0.6033 -0.4116 -0.2260
  561TMC3    C3 8320   4.053   2.854  11.396 -0.6533  0.4531 -0.1270
  561TMC3    C4 8321   4.178   2.946  11.174  0.7222  0.7334  0.2433
  561TMC3    C5 8322   4.133   3.037  11.267  0.4108  0.1103 -0.5571
  561TMC3    C6 8323   4.064   2.989  11.383  0.7301 -0.1891 -0.1258
  561TMC3     C 8324   4.183   2.718  11.099 -0.1279  0.7810 -0.1792
  561TMC3     O 8325   4.228   2.615  11.152 -0.0575  0.1218 -0.0137
  561TMC3     H 8326   4.068   2.652  11.325 -1.0851  0.1622  2.6991
  561TMC3    H1 8327   4.244   2.974  11.093 -1.9970  1.9891 -1.5356
  561TMC3    H2 8328   4.031   3.059  11.459 -1.7321 -1.6657  0.1725
  561TMC3    C7 8329   4.158   3.179  11.257 -0.3189  0.2593 -0.3451
  561TMC3    C8 8330   4.001   2.797  11.523  1.1397 -0.1994  0.1340
  561TMC3    O1 8331   4.128   3.250  11.351  0.1290  0.7360  0.7879
  561TMC3    O2 8332   4.058   2.695  11.555 -0.1316  0.5045  0.6741
  562TMC3    C1 8333   1.203   3.958  15.650  0.1312 -0.2082  0.1721
  562TMC3    C2 8334   1.103   4.046  15.639  0.2369  0.3991  0.0481
  562TMC3    C3 8335   1.047   4.074  15.519 -0.3226 -0.1269  0.0055
  562TMC3    C4 8336   1.257   3.894  15.542 -0.2814  0.5663 -0.1771
  562TMC3    C5 8337   1.193   3.917  15.420  0.0746 -0.6594  0.1515
  562TMC3    C6 8338   1.090   4.008  15.404 -0.1391 -0.5901  0.3832
  562TMC3     C 8339   1.239   3.920  15.784 -0.9825 -0.8593 -0.2649
  562TMC3     O 8340   1.345   3.859  15.790  0.3841 -0.4182 -0.6092
  562TMC3     H 8341   1.076   4.095  15.732  0.5654 -1.6701  1.2258
  562TMC3    H1 8342   1.343   3.828  15.552 -1.6489 -1.1667  0.2242
  562TMC3    H2 8343   1.038   4.020  15.310  1.7381  0.6862 -0.4938
  562TMC3    C7 8344   1.196   3.810  15.319  0.4400 -0.1870  0.5035
  562TMC3    C8 8345   0.916   4.114  15.525 -0.7871  0.6976 -0.9237
  562TMC3    O1 8346   1.142   3.830  15.211  0.0329 -0.2342  0.4661
  562TMC3    O2 8347   0.848   4.098  15.624  0.4771  0.4543  0.3280
  563MPD2     C 8348   3.597   0.120  15.607 -0.2147 -0.0168 -0.9548
  563MPD2    C1 8349   3.550   0.235  15.661 -0.9440  0.1597 -0.5422
  563MPD2    C2 8350   3.611   0.357  15.647  0.2394  0.4784 -0.5287
  563MPD2    C3 8351   3.730   0.366  15.570 -0.0400  0.2720  0.3007
  563MPD2    C4 8352   3.775   0.245  15.513  0.1117  0.3880 -0.4548
  563MPD2    C5 8353   3.714   0.127  15.536 -0.7110 -0.0172 -0.3547
  563MPD2     H 8354   3.570   0.451  15.680 -0.0785 -0.2711  1.2180
  563MPD2    H1 8355   3.872   0.244  15.465  0.4933 -1.5357  0.3175
  563MPD2    H2 8356   3.549   0.025  15.625 -0.3073  0.5106  1.5463
  563MPD2    H3 8357   3.764   0.040  15.495 -2.3822 -1.0472 -0.2396
  563MPD2     N 8358   3.791   0.495  15.553  0.1528  0.1180  0.2908
  563MPD2    H5 8359   3.744   0.567  15.606  1.0978  0.3371  0.8399
  563MPD2    N1 8360   3.448   0.223  15.751 -0.1560 -0.1273 -0.2733
  563MPD2    H7 8361   3.404   0.131  15.747 -1.0647  0.2877  0.2342
  564TMC3    C1 8362   3.304   0.260  15.929  0.3026 -0.3309 -0.0421
  564TMC3    C2 8363   3.194   0.194  15.873  0.0396  0.4879  0.4420
  564TMC3    C3 8364   3.089   0.164  15.960 -0.0089 -0.2960  0.0295
  564TMC3    C4 8365   3.312   0.300  16.056  0.1809  0.5647  0.0703
  564TMC3    C5 8366   3.208   0.277  16.138  0.3591 -0.3703 -0.1755
  564TMC3    C6 8367   3.104   0.203  16.090  0.3075  0.4347  0.1140
  564TMC3     C 8368   3.418   0.306  15.856  0.7933  0.0803  0.3264
  564TMC3     O 8369   3.467   0.416  15.883  0.3930 -0.1869 -0.3912
  564TMC3     H 8370   3.203   0.150  15.774 -1.4497  1.2288 -0.0318
  564TMC3    H1 8371   3.399   0.354  16.092  1.7459 -0.7769 -1.7223
  564TMC3    H2 8372   3.018   0.197  16.157 -0.8990  2.0045 -1.2904
  564TMC3    C7 8373   3.259   0.221  16.260  0.0880  0.4614 -0.3962
  564TMC3    C8 8374   3.030   0.030  15.945  0.4391  0.7393  0.4411
  564TMC3    O1 8375   3.360   0.267  16.310 -0.6476 -0.2492 -0.3090
  564TMC3    O2 8376   3.007   4.694  16.055  0.0721 -0.2641 -0.0001
  565TMC3    C1 8377   3.357   1.796   9.783 -0.2233  0.6411  0.3174
  565TMC3    C2 8378   3.439   1.786   9.892  0.0628  0.3394  0.3710
  565TMC3    C3 8379   3.417   1.672   9.977  0.5795  0.5278  0.2099
  565TMC3    C4 8380   3.253   1.713   9.762  0.1404 -0.0877  0.8330
  565TMC3    C5 8381   3.233   1.609   9.849 -0.3674 -0.0250  0.7199
  565TMC3    C6 8382   3.324   1.580   9.944  0.4188  0.8159 -0.1108
  565TMC3     C 8383   3.388   1.902   9.690  0.7161 -0.2563 -0.3523
  565TMC3     O 8384   3.484   1.973   9.715  0.5731  0.0293  0.4645
  565TMC3     H 8385   3.523   1.854   9.907 -0.0654  0.4176  0.7393
  565TMC3    H1 8386   3.170   1.737   9.698 -0.0567 -0.4207  0.9615
  565TMC3    H2 8387   3.305   1.493  10.006 -0.6992  0.8084 -0.4767
  565TMC3    C7 8388   3.108   1.538   9.843  0.0491 -0.2387  0.3423
  565TMC3    C8 8389   3.506   1.642  10.090  0.3563  0.0658  0.2779
  565TMC3    O1 8390   3.019   1.575   9.766 -0.0262  0.4658 -0.2265
  565TMC3    O2 8391   3.472   1.543  10.153  0.5965 -0.7647  0.3122
  566MPD2     C 8392   0.296   3.140  14.005 -0.1544  0.6788 -0.1831
  566MPD2    C1 8393   0.284   3.253  13.926 -0.7249  0.5704  0.2949
  566MPD2    C2 8394   0.158   3.308  13.899 -0.4320  0.3629  0.5361
  566MPD2    C3 8395   0.046   3.234  13.934 -0.1888 -0.8299 -0.0442
  566MPD2    C4 8396   0.062   3.113  13.993 -0.3960 -0.4594 -0.4374
  566MPD2    C5 8397   0.183   3.071  14.039 -0.1093  0.5365  0.4221
  566MPD2     H 8398   0.153   3.404  13.850 -1.4167 -0.2011 -0.4636
  566MPD2    H1 8399   4.687   3.058  14.009 -0.1796 -0.3455  1.1767
  566MPD2    H2 8400   0.389   3.094  14.034 -0.5002 -1.3613 -2.3420
  566MPD2    H3 8401   0.186   2.977  14.093 -2.1025  0.7663  0.9069
  566MPD2     N 8402   4.628   3.276  13.908  0.0715  0.4106 -0.4495
  566MPD2    H5 8403   4.560   3.202  13.912  0.5465 -0.0932 -1.5542
  566MPD2    N1 8404   0.405   3.298  13.869  0.2526  0.3202  0.4345
  566MPD2    H7 8405   0.490   3.248  13.894  1.2893  1.6955 -0.3971
  567TMC3    C1 8406   0.556   3.447  13.745 -0.1557  0.9481  0.6906
  567TMC3    C2 8407   0.580   3.538  13.653 -0.6151 -0.6478 -0.3842
  567TMC3    C3 8408   0.695   3.605  13.637 -0.3364  0.0200  0.5080
  567TMC3    C4 8409   0.657   3.421  13.838  0.1923 -0.1601  0.5442
  567TMC3    C5 8410   0.769   3.503  13.834 -0.3589 -0.1414  0.0497
  567TMC3    C6 8411   0.786   3.601  13.734  0.2032 -0.3159 -0.9166
  567TMC3     C 8412   0.417   3.408  13.785 -0.2445 -0.2828 -0.2626
  567TMC3     O 8413   0.331   3.483  13.740 -0.2226  0.0373 -0.5743
  567TMC3     H 8414   0.505   3.559  13.578 -0.6942  1.3034  0.2367
  567TMC3    H1 8415   0.638   3.361  13.927  0.2441 -0.0510  0.6281
  567TMC3    H2 8416   0.872   3.667  13.741 -0.4957  0.4652  0.2189
  567TMC3    C7 8417   0.866   3.508  13.939 -0.1947 -0.1570  0.1219
  567TMC3    C8 8418   0.671   3.741  13.588  0.2888 -0.1365 -0.1859
  567TMC3    O1 8419   0.985   3.511  13.915 -0.0790 -0.3140 -0.0458
  567TMC3    O2 8420   0.555   3.777  13.563 -0.1119 -0.3149  0.0474
  568MPD2     C 8421   3.529   3.593  15.994  0.0517  0.5360  0.2145
  568MPD2    C1 8422   3.495   3.660  16.110  0.5438 -0.2993 -0.0907
  568MPD2    C2 8423   3.374   3.727  16.121 -0.9294 -0.5748  0.5353
  568MPD2    C3 8424   3.273   3.703  16.028 -0.4694 -0.0989 -0.6243
  568MPD2    C4 8425   3.301   3.630  15.915  0.5457  0.0296 -0.2780
  568MPD2    C5 8426   3.433   3.579  15.898 -0.1982  0.1636 -0.3136
  568MPD2     H 8427   3.347   3.776  16.214  0.4942 -0.1098  0.7022
  568MPD2    H1 8428   3.230   3.604  15.837 -0.9076 -1.6243  1.6069
  568MPD2    H2 8429   3.623   3.539  15.987 -0.6898 -0.7692  0.3851
  568MPD2    H3 8430   3.449   3.532  15.802 -1.2179  0.6662 -0.7269
  568MPD2     N 8431   3.149   3.773  16.046 -0.0016 -0.1671  0.0595
  568MPD2    H5 8432   3.145   3.846  16.117 -2.3696 -0.4445  0.2250
  568MPD2    N1 8433   3.592   3.645  16.210  0.5414  0.4277 -0.3261
  568MPD2    H7 8434   3.669   3.584  16.185  0.3898  1.4781 -3.3545
  569TMC3    C1 8435   2.938   3.853  16.018  0.2102  0.6216  0.1230
  569TMC3    C2 8436   2.944   3.879  16.147 -0.1495 -0.4740 -0.3568
  569TMC3    C3 8437   2.888   3.998  16.198 -0.6115 -0.7209  0.3621
  569TMC3    C4 8438   2.860   3.934  15.937 -0.4171 -0.1282  0.2204
  569TMC3    C5 8439   2.801   4.051  15.984 -0.4214  0.2631  0.2783
  569TMC3    C6 8440   2.825   4.092  16.116  0.8134 -0.0404  0.0068
  569TMC3     C 8441   3.039   3.771  15.962  0.4203 -0.0367 -0.1637
  569TMC3     O 8442   3.030   3.729  15.847 -0.3368 -0.1408  0.1603
  569TMC3     H 8443   2.982   3.812  16.225 -0.1772 -0.4576 -0.3293
  569TMC3    H1 8444   2.867   3.916  15.831 -1.6661  0.6280  0.0127
  569TMC3    H2 8445   2.775   4.176  16.161 -0.7402  0.3851 -2.5136
  569TMC3    C7 8446   2.800   4.149  15.875 -0.9115  0.5417  0.0286
  569TMC3    C8 8447   2.889   4.013  16.340 -1.0468 -0.3436 -0.0495
  569TMC3    O1 8448   2.747   4.111  15.770  0.0882  0.0415  0.2534
  569TMC3    O2 8449   2.907   3.911  16.406  0.1594 -0.1176 -0.3177
  570TMC3    C1 8450   2.466   3.194  16.379  0.2841  0.4803  0.2328
  570TMC3    C2 8451   2.536   3.244  16.273  0.2861 -0.3300 -0.2435
  570TMC3    C3 8452   2.491   3.370  16.222  0.3830 -0.4447 -0.3942
  570TMC3    C4 8453   2.381   3.273  16.455  0.0326 -0.9910  0.2062
  570TMC3    C5 8454   2.347   3.400  16.410 -0.0782 -0.2294 -0.0163
  570TMC3    C6 8455   2.406   3.452  16.295 -0.2039  0.1235  0.6209
  570TMC3     C 8456   2.463   3.050  16.390 -0.0964  0.3101  0.2913
  570TMC3     O 8457   2.504   2.984  16.297 -0.0370  0.2584  0.2211
  570TMC3     H 8458   2.598   3.176  16.216 -1.4186 -1.1681 -1.1239
  570TMC3    H1 8459   2.333   3.234  16.544  0.3121  1.0912  1.2692
  570TMC3    H2 8460   2.390   3.554  16.264 -2.5668 -0.4561 -0.1081
  570TMC3    C7 8461   2.288   3.481  16.518 -0.5586  0.4550 -0.2714
  570TMC3    C8 8462   2.579   3.435  16.126 -0.5648 -0.3744 -0.1471
  570TMC3    O1 8463   2.282   3.422  16.623 -0.4364 -0.5003  0.0300
  570TMC3    O2 8464   2.534   3.519  16.053 -0.2707 -0.0661 -0.0441
  571MPD2     C 8465   1.110   4.588   0.225 -0.4286 -0.2971 -0.5999
  571MPD2    C1 8466   1.132   4.545   0.090 -0.1269 -0.3402 -1.3583
  571MPD2    C2 8467   1.048   4.589  17.662 -0.9756 -0.3231  0.4108
  571MPD2    C3 8468   0.950   4.686   0.022  0.1539 -0.5926 -0.4784
  571MPD2    C4 8469   0.921   0.003   0.152  0.0066 -0.9910  0.3772
  571MPD2    C5 8470   1.008   4.679   0.249 -0.4839  0.1086 -0.2090
  571MPD2     H 8471   1.066   4.562  17.558 -1.2386 -0.0978  0.3061
  571MPD2    H1 8472   0.839   0.062   0.191 -1.6560 -1.5072 -2.3258
  571MPD2    H2 8473   1.161   4.539   0.307  1.1601  0.9263 -0.8568
  571MPD2    H3 8474   0.976   4.712   0.347 -0.6826  0.5588 -0.4252
  571MPD2     N 8475   0.862   0.026  17.595 -0.0608 -0.0980 -0.6191
  571MPD2    H5 8476   0.799   0.102  17.618  0.3338 -0.3787  1.3907
  571MPD2    N1 8477   1.246   4.450   0.076  0.4383 -0.4524  0.7023
  571MPD2    H7 8478   1.307   4.438   0.156  0.7557  0.5903  0.6129
  572TMC3    C1 8479   0.747   0.059  17.394  0.2307  0.2461  0.8278
  572TMC3    C2 8480   0.628   0.070  17.460  0.0628  0.0646 -0.4019
  572TMC3    C3 8481   0.536   0.158  17.405  1.0931 -0.7086  0.2950
  572TMC3    C4 8482   0.767   0.130  17.276  0.3114  0.0317 -0.0955
  572TMC3    C5 8483   0.663   0.212  17.227  0.2404 -0.1096  0.7740
  572TMC3    C6 8484   0.547   0.233  17.291  0.0579 -0.2033  0.2087
  572TMC3     C 8485   0.861   0.002  17.461  0.6967  0.4351  0.1506
  572TMC3     O 8486   0.953   4.671  17.394  0.2331  0.3865  0.0315
  572TMC3     H 8487   0.612   0.034  17.561  0.9118 -0.7481 -0.5640
  572TMC3    H1 8488   0.867   0.145  17.239  0.6569 -1.5349  0.1964
  572TMC3    H2 8489   0.468   0.297  17.255  0.3652 -1.0750 -1.9787
  572TMC3    C7 8490   0.678   0.290  17.112  0.3241  0.2814  0.4683
  572TMC3    C8 8491   0.407   0.179  17.476 -0.1184 -0.0564  0.3894
  572TMC3    O1 8492   0.615   0.393  17.111 -0.1416 -0.0248 -0.0162
  572TMC3    O2 8493   0.346   0.279  17.449 -0.4560 -0.2098  0.7269
  573MPD2     C 8494   1.335   0.316   1.199  0.0714  0.5593  0.5472
  573MPD2    C1 8495   1.319   0.444   1.160  0.2600 -0.4736 -0.1198
  573MPD2    C2 8496   1.279   0.470   1.028  0.0194 -0.0824  0.4893
  573MPD2    C3 8497   1.251   0.362   0.944  0.1074 -0.4132 -0.3169
  573MPD2    C4 8498   1.256   0.234   0.992 -0.1836  0.2298 -0.6442
  573MPD2    C5 8499   1.300   0.210   1.121 -0.5317  0.1647  0.1238
  573MPD2     H 8500   1.272   0.574   1.000 -0.3844 -0.6460 -1.4812
  573MPD2    H1 8501   1.209   0.154   0.936 -1.0295 -0.4847  1.1124
  573MPD2    H2 8502   1.361   0.288   1.300 -0.9313 -1.0093  0.3742
  573MPD2    H3 8503   1.290   0.107   1.154 -0.0104  0.3979  1.0208
  573MPD2     N 8504   1.210   0.383   0.807  0.2794  0.2476 -0.8214
  573MPD2    H5 8505   1.198   0.298   0.751 -0.6439  0.7974 -1.4605
  573MPD2    N1 8506   1.348   0.543   1.258  1.1703 -0.2107 -0.1093
  573MPD2    H7 8507   1.403   0.510   1.337 -0.1639 -0.2118  0.8086
  574TMC3    C1 8508   1.160   0.504   0.607 -0.4304  0.1273  0.0047
  574TMC3    C2 8509   1.244   0.426   0.535 -0.2034  0.2117  0.6265
  574TMC3    C3 8510   1.283   0.461   0.412 -1.0086  0.5826  0.0957
  574TMC3    C4 8511   1.122   0.627   0.554 -0.6461 -0.1745 -0.6636
  574TMC3    C5 8512   1.179   0.666   0.434 -0.2901 -0.0069 -0.6490
  574TMC3    C6 8513   1.254   0.581   0.356 -0.4794 -0.0951 -0.8909
  574TMC3     C 8514   1.194   0.512   0.745  0.2515  0.7212  0.0925
  574TMC3     O 8515   1.200   0.624   0.791 -0.1446 -0.3360 -0.4403
  574TMC3     H 8516   1.289   0.333   0.565  0.7121  0.1030 -1.0771
  574TMC3    H1 8517   1.040   0.680   0.601  0.0361 -0.4452  0.8440
  574TMC3    H2 8518   1.288   0.616   0.259  0.2171  0.7542 -0.3424
  574TMC3    C7 8519   1.250   0.788   0.450 -0.3249  0.2839  0.0588
  574TMC3    C8 8520   1.306   0.351   0.323 -0.6609  0.1584 -0.1008
  574TMC3    O1 8521   1.295   0.835   0.343  0.1582  0.0921 -0.0398
  574TMC3    O2 8522   1.287   0.233   0.358 -0.0007 -0.4279 -0.6581
  575TMC3    C1 8523   3.901   1.365  10.854  0.7739 -0.1713  0.1117
  575TMC3    C2 8524   3.811   1.275  10.896  0.1127  0.8882  0.5641
  575TMC3    C3 8525   3.692   1.250  10.826 -0.3504 -0.9609 -0.3068
  575TMC3    C4 8526   3.894   1.422  10.731  0.1036 -0.0074 -0.4256
  575TMC3    C5 8527   3.777   1.392  10.656  0.1515  0.4101 -0.8059
  575TMC3    C6 8528   3.675   1.310  10.705  0.1415 -0.7315 -0.1700
  575TMC3     C 8529   4.033   1.358  10.923  0.2724 -0.5612  0.0275
  575TMC3     O 8530   4.132   1.350  10.854  0.0699  0.4897 -0.3848
  575TMC3     H 8531   3.830   1.233  10.994  0.3874 -0.9099 -0.2575
  575TMC3    H1 8532   3.970   1.490  10.693  0.8433 -0.2709  0.5920
  575TMC3    H2 8533   3.575   1.316  10.665 -0.7482  2.0094  2.4548
  575TMC3    C7 8534   3.741   1.450  10.527  0.1346  0.1658 -0.4920
  575TMC3    C8 8535   3.621   1.135  10.852  0.4366 -0.0180 -0.9454
  575TMC3    O1 8536   3.641   1.410  10.464  0.0578 -0.2948 -0.2110
  575TMC3    O2 8537   3.603   1.119  10.973  0.3774 -0.3636 -0.4863
  576MPD2     C 8538   3.412   3.502  12.683  1.3370 -0.1764  0.1730
  576MPD2    C1 8539   3.394   3.579  12.570 -0.7360 -0.5444 -0.2399
  576MPD2    C2 8540   3.340   3.703  12.575  0.1874  0.5667  0.2679
  576MPD2    C3 8541   3.302   3.757  12.696 -0.1441  0.1281 -0.1789
  576MPD2    C4 8542   3.335   3.692  12.811 -0.0425 -0.3650 -0.4848
  576MPD2    C5 8543   3.377   3.563  12.802 -0.6647 -0.0042 -0.3601
  576MPD2     H 8544   3.327   3.758  12.483 -0.2432 -0.5247 -0.3184
  576MPD2    H1 8545   3.332   3.738  12.909  0.0297 -0.0715 -0.6207
  576MPD2    H2 8546   3.453   3.402  12.683  0.4151 -0.5571 -0.2501
  576MPD2    H3 8547   3.371   3.511  12.897 -4.2386 -0.9872 -1.1024
  576MPD2     N 8548   3.243   3.881  12.694 -0.2532 -0.2721  0.3125
  576MPD2    H5 8549   3.229   3.940  12.612  0.5655 -1.0063 -0.3549
  576MPD2    N1 8550   3.432   3.532  12.440 -0.3462  0.0053  0.2415
  576MPD2    H7 8551   3.419   3.595  12.361  1.2353  0.2893  0.2029
  577TMC3    C1 8552   3.526   3.371  12.279 -0.3217  0.3467 -0.2179
  577TMC3    C2 8553   3.594   3.250  12.263  0.0579 -0.8770  0.2341
  577TMC3    C3 8554   3.591   3.199  12.135  0.2420  0.3712  0.7818
  577TMC3    C4 8555   3.474   3.438  12.176  0.0905 -0.9950 -0.8966
  577TMC3    C5 8556   3.473   3.382  12.053  0.5066  0.1772 -0.3948
  577TMC3    C6 8557   3.536   3.261  12.027 -0.1563  0.0749  0.3180
  577TMC3     C 8558   3.502   3.413  12.422  0.1367  0.3481  0.7438
  577TMC3     O 8559   3.544   3.329  12.497 -0.0742  0.0969  0.2456
  577TMC3     H 8560   3.643   3.200  12.346 -1.9389 -2.0315  0.7122
  577TMC3    H1 8561   3.425   3.534  12.193  1.6663 -0.2870 -0.3348
  577TMC3    H2 8562   3.516   3.204  11.937  2.7858  0.0205 -0.3068
  577TMC3    C7 8563   3.343   3.395  11.993  0.5043  0.3716  0.0441
  577TMC3    C8 8564   3.653   3.070  12.109 -0.7277 -0.7166  0.3495
  577TMC3    O1 8565   3.275   3.297  11.971 -0.0309  0.1128  0.1507
  577TMC3    O2 8566   3.679   2.997  12.203  0.7023 -0.3202 -0.0677
  578MPD2     C 8567   2.053   2.957   1.777  0.9344  0.9057 -0.3872
  578MPD2    C1 8568   2.147   2.874   1.727  0.1286  0.7035 -0.3377
  578MPD2    C2 8569   2.165   2.752   1.792 -0.9493 -0.2232  0.0983
  578MPD2    C3 8570   2.081   2.710   1.893 -0.4265  0.5962  0.0942
  578MPD2    C4 8571   1.996   2.796   1.955 -0.4064 -0.5551 -0.5254
  578MPD2    C5 8572   1.987   2.920   1.896 -0.1495 -0.0572  0.6314
  578MPD2     H 8573   2.252   2.694   1.765 -0.2656  1.4857 -1.3638
  578MPD2    H1 8574   1.930   2.780   2.039 -0.9560  3.1118 -0.2587
  578MPD2    H2 8575   2.035   3.055   1.733 -1.6951  1.0472  0.9750
  578MPD2    H3 8576   1.920   2.991   1.944 -0.5063  0.0266  0.0113
  578MPD2     N 8577   2.105   2.581   1.933 -0.5758  0.5574  0.0485
  578MPD2    H5 8578   2.155   2.519   1.870 -1.7209  0.2772 -0.5855
  578MPD2    N1 8579   2.216   2.915   1.613  0.0008 -0.1036 -0.0576
  578MPD2    H7 8580   2.182   3.001   1.571  1.5845 -0.3653 -1.8793
  579TMC3    C1 8581   2.150   2.390   2.056  0.1693  0.0024 -0.6580
  579TMC3    C2 8582   2.253   2.374   2.145 -0.3960  0.6472  0.0564
  579TMC3    C3 8583   2.359   2.304   2.109 -0.5141  0.4387 -0.5043
  579TMC3    C4 8584   2.162   2.343   1.928  0.3870  0.7653 -0.3556
  579TMC3    C5 8585   2.273   2.272   1.902 -0.5963 -0.4036 -0.2086
  579TMC3    C6 8586   2.372   2.247   1.991 -0.5973 -0.1705 -0.0304
  579TMC3     C 8587   2.082   2.519   2.056  0.2459  0.1856 -0.2722
  579TMC3     O 8588   2.052   2.561   2.165  0.6765  0.1684 -0.5943
  579TMC3     H 8589   2.255   2.442   2.230 -1.5210  2.6117 -1.4812
  579TMC3    H1 8590   2.079   2.341   1.859  1.1155 -2.7186 -1.0973
  579TMC3    H2 8591   2.461   2.191   1.965  0.4772  0.0045  3.2555
  579TMC3    C7 8592   2.284   2.194   1.780 -0.1315 -0.3734 -0.1099
  579TMC3    C8 8593   2.479   2.358   2.171  0.8042  0.3057  0.2817
  579TMC3    O1 8594   2.358   2.097   1.789 -0.3533 -0.1748  0.7000
  579TMC3    O2 8595   2.476   2.377   2.292  0.0790  0.2545 -0.7119
  580TMC3    C1 8596   1.766   3.119  11.983  0.6600 -0.7785 -0.3053
  580TMC3    C2 8597   1.899   3.138  12.001  0.3344 -0.3834  0.0664
  580TMC3    C3 8598   1.984   3.033  12.030  0.2909  0.1663 -1.0697
  580TMC3    C4 8599   1.716   2.995  12.012 -0.5202 -0.8656 -1.1677
  580TMC3    C5 8600   1.801   2.892  12.053  0.1473  1.3353 -0.1994
  580TMC3    C6 8601   1.937   2.910  12.057 -0.0788 -0.4681  0.1125
  580TMC3     C 8602   1.702   3.213  11.889  0.5222  1.0724 -0.0237
  580TMC3     O 8603   1.756   3.321  11.875 -0.2180  0.4597 -0.3284
  580TMC3     H 8604   1.939   3.237  11.983  0.4145 -0.7771 -1.9646
  580TMC3    H1 8605   1.608   2.989  12.012 -0.6890  1.8721  1.1338
  580TMC3    H2 8606   2.003   2.840  12.107  3.3625  1.9467 -1.0046
  580TMC3    C7 8607   1.743   2.779  12.125 -0.1241  0.4674 -0.8281
  580TMC3    C8 8608   2.124   3.052  11.997 -0.5270  0.0351  0.0728
  580TMC3    O1 8609   1.632   2.797  12.179  0.2785  0.1717 -0.0461
  580TMC3    O2 8610   2.164   3.167  11.988  0.0228  0.5431 -0.4972
  581MPD2     C 8611   4.105   2.390  15.142 -1.2576  0.2458  0.3563
  581MPD2    C1 8612   4.118   2.369  15.007 -0.1308 -0.0907  0.5509
  581MPD2    C2 8613   4.023   2.409  14.913  0.3199 -0.3455 -0.4343
  581MPD2    C3 8614   3.904   2.456  14.957 -0.0270  0.2946 -0.2874
  581MPD2    C4 8615   3.891   2.479  15.093  0.1399  0.2128  0.6514
  581MPD2    C5 8616   3.986   2.443  15.189 -0.3360 -0.5060  0.0019
  581MPD2     H 8617   4.036   2.392  14.807  1.7288 -0.2760 -0.2685
  581MPD2    H1 8618   3.812   2.545  15.126 -0.2093  0.6222 -0.9989
  581MPD2    H2 8619   4.182   2.359  15.212  1.9301 -0.5400 -3.4240
  581MPD2    H3 8620   3.975   2.464  15.294  1.7565  0.7813 -0.0316
  581MPD2     N 8621   3.797   2.467  14.867  0.0003 -0.6173 -0.3945
  581MPD2    H5 8622   3.817   2.440  14.771 -1.7107  0.3183 -1.0169
  581MPD2    N1 8623   4.228   2.286  14.971  0.6021  1.0533  0.3927
  581MPD2    H7 8624   4.278   2.239  15.046 -2.1909 -4.8421 -1.5016
  582TMC3    C1 8625   4.335   2.121  14.859  0.0011 -0.5184 -0.7273
  582TMC3    C2 8626   4.401   2.118  14.976 -0.4489  0.3641 -0.1680
  582TMC3    C3 8627   4.415   2.003  15.043  0.0611  0.7259 -0.2286
  582TMC3    C4 8628   4.262   2.019  14.820  0.1132 -0.6810  0.2673
  582TMC3    C5 8629   4.261   1.907  14.899  0.1709 -0.1131  0.6205
  582TMC3    C6 8630   4.340   1.896  15.011 -0.5211  0.5308  0.5725
  582TMC3     C 8631   4.259   2.245  14.844  0.2002  0.3675 -0.1959
  582TMC3     O 8632   4.207   2.269  14.736  0.7319  0.4483 -0.1834
  582TMC3     H 8633   4.456   2.206  15.008  0.1642  0.4597 -1.4671
  582TMC3    H1 8634   4.192   2.032  14.737 -0.0413 -1.2763  0.3016
  582TMC3    H2 8635   4.329   1.805  15.070  1.3358  0.5032  0.8977
  582TMC3    C7 8636   4.132   1.865  14.948  0.8153 -0.0440 -0.0976
  582TMC3    C8 8637   4.441   2.014  15.188  0.2775 -0.2571 -0.2541
  582TMC3    O1 8638   4.111   1.746  14.968 -0.7299  0.7592 -0.5163
  582TMC3    O2 8639   4.441   2.130  15.223  0.3248 -0.4248  0.7041
  583MPD2     C 8640   4.284   3.293  16.776 -0.0792 -0.4975  0.5928
  583MPD2    C1 8641   4.273   3.402  16.694 -0.7458  0.1962 -0.4468
  583MPD2    C2 8642   4.208   3.506  16.751 -0.4748 -0.0653 -0.1690
  583MPD2    C3 8643   4.178   3.519  16.889 -0.1354  0.2197  0.3203
  583MPD2    C4 8644   4.190   3.401  16.965  0.7366 -0.5033 -0.1021
  583MPD2    C5 8645   4.250   3.295  16.907  0.3576  0.2483 -1.0008
  583MPD2     H 8646   4.204   3.596  16.690 -0.6703  0.5704  0.7874
  583MPD2    H1 8647   4.166   3.406  17.071 -0.4522 -0.0583 -0.3937
  583MPD2    H2 8648   4.303   3.193  16.738 -0.6413 -0.7913  1.0995
  583MPD2    H3 8649   4.257   3.200  16.960  2.9202  1.0868  0.2059
  583MPD2     N 8650   4.137   3.645  16.940 -0.2076 -0.0922 -0.1980
  583MPD2    H5 8651   4.110   3.718  16.874  1.5108 -0.0176 -0.8105
  583MPD2    N1 8652   4.308   3.404  16.556  0.1977  0.3439 -0.0743
  583MPD2    H7 8653   4.287   3.486  16.500 -1.7181  1.0748  1.6736
  584TMC3    C1 8654   4.095   3.819  17.104 -0.0904 -0.5400  0.0309
  584TMC3    C2 8655   4.041   3.902  17.009 -0.0171 -0.5515  0.0086
  584TMC3    C3 8656   4.006   4.027  17.054 -0.0616 -0.0372 -0.3099
  584TMC3    C4 8657   4.124   3.862  17.235  0.0491  0.3665  0.4010
  584TMC3    C5 8658   4.096   3.992  17.272 -0.5367  1.0100  0.9960
  584TMC3    C6 8659   4.037   4.075  17.182 -0.1261  0.1768  0.1807
  584TMC3     C 8660   4.137   3.681  17.072  0.4875  0.4427  0.1720
  584TMC3     O 8661   4.168   3.613  17.165 -0.2111 -0.0575  0.2567
  584TMC3     H 8662   4.013   3.864  16.912  1.9362  0.1169 -0.7997
  584TMC3    H1 8663   4.154   3.796  17.315 -1.0107 -0.2348  0.2999
  584TMC3    H2 8664   4.008   4.173  17.219 -4.0048  0.1452 -2.7894
  584TMC3    C7 8665   4.062   4.003  17.412  0.0019 -0.2329 -0.4848
  584TMC3    C8 8666   3.955   4.126  16.964  0.3801  0.0621  0.3455
  584TMC3    O1 8667   4.099   3.912  17.483  0.7803 -0.1196 -0.2002
  584TMC3    O2 8668   3.886   4.097  16.868 -0.3786  0.4957  0.5747
  585MPD2     C 8669   2.923   2.340   0.740  0.1612  0.2088 -0.2722
  585MPD2    C1 8670   3.052   2.314   0.706 -0.5172  0.7998 -0.1248
  585MPD2    C2 8671   3.076   2.212   0.615  0.2214 -0.4120 -0.2264
  585MPD2    C3 8672   2.972   2.149   0.545 -0.2431  0.4143 -0.2994
  585MPD2    C4 8673   2.846   2.178   0.584  0.3809 -0.7079 -0.8012
  585MPD2    C5 8674   2.821   2.272   0.681  0.0442  1.3891 -0.1713
  585MPD2     H 8675   3.176   2.186   0.581  0.0359 -0.6274 -0.6104
  585MPD2    H1 8676   2.767   2.124   0.532 -0.5437 -0.4162  0.2845
  585MPD2    H2 8677   2.914   2.417   0.816 -1.1462 -0.7500  0.5341
  585MPD2    H3 8678   2.722   2.312   0.702 -0.7169 -0.2599 -0.6622
  585MPD2     N 8679   3.003   2.063   0.439 -0.0951  1.0756  0.0961
  585MPD2    H5 8680   2.924   2.020   0.392  0.4159  2.8038 -2.3991
  585MPD2    N1 8681   3.153   2.391   0.766 -0.3030 -0.0728 -0.1373
  585MPD2    H7 8682   3.116   2.483   0.788 -0.2195 -0.0119 -0.2527
  586TMC3    C1 8683   3.131   1.972   0.253 -0.1203 -0.4631  0.4453
  586TMC3    C2 8684   3.259   1.930   0.216 -0.6085  0.1144  0.2277
  586TMC3    C3 8685   3.305   1.979   0.105  0.1415 -0.2318  0.0331
  586TMC3    C4 8686   3.053   2.041   0.161  0.3699 -0.0964 -0.1255
  586TMC3    C5 8687   3.099   2.082   0.040 -0.0270 -0.4281 -0.7890
  586TMC3    C6 8688   3.232   2.053   0.016  0.4015 -0.4026 -0.0805
  586TMC3     C 8689   3.128   2.021   0.390 -0.8824 -0.3847 -0.4693
  586TMC3     O 8690   3.237   2.016   0.446 -0.0657 -0.3606  0.2994
  586TMC3     H 8691   3.311   1.876   0.294 -0.2448 -0.3044 -0.3063
  586TMC3    H1 8692   2.948   2.058   0.179  0.4045  0.1138 -0.1237
  586TMC3    H2 8693   3.267   2.060  17.583 -3.4098  2.6537 -1.2060
  586TMC3    C7 8694   3.005   2.108  17.600  0.3749  0.1759 -0.2892
  586TMC3    C8 8695   3.419   1.915   0.052 -0.5464  0.7959 -0.5083
  586TMC3    O1 8696   2.891   2.060  17.615 -0.6712 -0.0708  0.2630
  586TMC3    O2 8697   3.431   1.799   0.089  0.5497  0.0347 -0.4965
  587TMC3    C1 8698   0.700   1.156  15.817  0.0059 -0.9510 -0.0900
  587TMC3    C2 8699   0.747   1.289  15.810 -0.1186  0.3531 -0.0908
  587TMC3    C3 8700   0.878   1.302  15.785  0.3897  0.7147  0.0370
  587TMC3    C4 8701   0.783   1.040  15.790  0.1377  0.8131 -0.2866
  587TMC3    C5 8702   0.911   1.071  15.744 -0.6034  0.8806  0.0201
  587TMC3    C6 8703   0.962   1.202  15.750 -0.0571 -0.6315  0.7052
  587TMC3     C 8704   0.563   1.127  15.772 -0.1739  0.5742 -0.5331
  587TMC3     O 8705   0.548   1.014  15.730 -0.0986  0.2466 -0.2047
  587TMC3     H 8706   0.684   1.376  15.796 -1.4157 -0.4920  0.4602
  587TMC3    H1 8707   0.749   0.938  15.777 -1.0000  1.1072  0.4322
  587TMC3    H2 8708   1.068   1.219  15.733 -0.8636  2.1563 -1.5647
  587TMC3    C7 8709   0.967   0.969  15.654  0.0662 -0.8126 -0.2713
  587TMC3    C8 8710   0.926   1.442  15.786 -0.2612 -0.2017  0.7082
  587TMC3    O1 8711   0.903   0.866  15.646  0.3634 -0.2274 -0.6730
  587TMC3    O2 8712   1.016   1.471  15.708  0.2981  0.1752 -1.2352
  588TMC3    C1 8713   3.188   4.202   9.706  0.0585 -0.0858 -0.2695
  588TMC3    C2 8714   3.169   4.068   9.709 -0.4259 -0.1729 -0.7846
  588TMC3    C3 8715   3.258   3.997   9.790  0.1070 -0.6304 -0.2974
  588TMC3    C4 8716   3.289   4.269   9.767  0.1295 -0.2465  0.2204
  588TMC3    C5 8717   3.365   4.193   9.852 -0.0276  0.8138 -0.6078
  588TMC3    C6 8718   3.345   4.061   9.869 -0.8239 -0.3139 -0.1129
  588TMC3     C 8719   3.103   4.281   9.613 -0.3645  0.3844 -0.7065
  588TMC3     O 8720   2.986   4.246   9.589  0.1939  0.5018  0.0465
  588TMC3     H 8721   3.094   4.021   9.647  1.7692 -0.9655 -2.8792
  588TMC3    H1 8722   3.296   4.376   9.781 -0.4923 -0.5007  2.4041
  588TMC3    H2 8723   3.409   4.006   9.937  0.1347 -0.2907 -0.9905
  588TMC3    C7 8724   3.480   4.251   9.916 -0.7109 -0.1813  0.0813
  588TMC3    C8 8725   3.220   3.853   9.807  0.2998 -1.6985  0.2382
  588TMC3    O1 8726   3.523   4.198  10.015 -0.3723  0.6144  0.0297
  588TMC3    O2 8727   3.135   3.819   9.727 -0.2671 -0.1529  0.3785
  589TMC3    C1 8728   2.115   1.149   1.552  0.5814 -0.0265  0.1121
  589TMC3    C2 8729   2.191   1.067   1.634  0.0276 -0.0700  0.3560
  589TMC3    C3 8730   2.241   0.951   1.586  0.0003  0.3148  0.4119
  589TMC3    C4 8731   2.077   1.101   1.433 -0.0569  0.5586  0.5240
  589TMC3    C5 8732   2.138   0.986   1.378  0.3884  0.2241  0.1397
  589TMC3    C6 8733   2.229   0.921   1.455 -0.3984 -0.3141 -0.5524
  589TMC3     C 8734   2.040   1.260   1.612  0.1205  0.5077  0.5868
  589TMC3     O 8735   1.954   1.303   1.537 -0.0165 -0.0887  0.1352
  589TMC3     H 8736   2.189   1.083   1.741  1.0810 -0.8691  0.4938
  589TMC3    H1 8737   2.008   1.159   1.372  2.5033 -0.0130 -2.9387
  589TMC3    H2 8738   2.273   0.828   1.421  0.7367 -0.3769  1.0720
  589TMC3    C7 8739   2.125   0.944   1.235 -0.2123 -0.0165 -0.4919
  589TMC3    C8 8740   2.327   0.867   1.672  0.4655  0.8138 -0.3269
  589TMC3    O1 8741   2.213   0.864   1.203  0.4299 -0.1496 -0.5587
  589TMC3    O2 8742   2.327   0.908   1.786  0.6501 -0.5105  0.4039
  590MPD2     C 8743   1.728   4.423  16.564  0.1388 -0.8453  0.0126
  590MPD2    C1 8744   1.711   4.429  16.426  0.0124 -0.6436 -0.2185
  590MPD2    C2 8745   1.798   4.512  16.352 -0.1417  0.0293 -0.1674
  590MPD2    C3 8746   1.902   4.572  16.408 -0.0167 -0.1627  0.4130
  590MPD2    C4 8747   1.917   4.562  16.546  0.0829 -0.9969 -0.0714
  590MPD2    C5 8748   1.834   4.481  16.624  0.2709  0.6235  0.2478
  590MPD2     H 8749   1.782   4.522  16.245  0.5982 -4.1298 -0.6832
  590MPD2    H1 8750   1.989   4.621  16.601 -0.2676 -0.5526 -0.0865
  590MPD2    H2 8751   1.662   4.363  16.626 -0.9209 -1.7062 -1.9559
  590MPD2    H3 8752   1.843   4.490  16.731  0.8150 -0.3003  0.2761
  590MPD2     N 8753   1.994   4.624  16.319 -0.3442 -0.3766 -0.1876
  590MPD2    H5 8754   1.961   4.622  16.223  1.0143 -3.2909 -0.5806
  590MPD2    N1 8755   1.597   4.360  16.377 -0.0506  0.7100 -0.2259
  590MPD2    H7 8756   1.550   4.296  16.441  1.3607 -0.2948 -0.1966
  591TMC3    C1 8757   2.148   0.046  16.222 -0.7056 -0.7084 -0.5892
  591TMC3    C2 8758   2.132   4.696  16.103 -0.3556  0.1577  0.2377
  591TMC3    C3 8759   2.185   0.039  15.992 -0.6325  0.1200 -0.0317
  591TMC3    C4 8760   2.219   0.159  16.242 -0.2361  0.7165  0.1175
  591TMC3    C5 8761   2.270   0.215  16.125  0.4323 -0.3510 -0.4322
  591TMC3    C6 8762   2.252   0.156  16.001  0.3285 -0.2609 -0.2409
  591TMC3     C 8763   2.106   4.697  16.347  0.2810  0.6147  0.3085
  591TMC3     O 8764   2.151   0.009  16.458  0.4276  0.1997  0.4082
  591TMC3     H 8765   2.069   4.608  16.098 -0.9166  0.5620  0.1821
  591TMC3    H1 8766   2.246   0.196  16.341  0.9601  0.9186 -0.2876
  591TMC3    H2 8767   2.298   0.185  15.907 -1.0901 -2.3786 -1.6212
  591TMC3    C7 8768   2.306   0.356  16.136 -0.4288  0.3363  0.3331
  591TMC3    C8 8769   2.130   4.700  15.866  0.0264  0.0903  0.0764
  591TMC3    O1 8770   2.275   0.415  16.233  0.5308 -0.0923  0.1914
  591TMC3    O2 8771   2.109   4.581  15.865  0.0775 -0.1718  0.3439
  592MPD2     C 8772   2.262   1.858  11.489 -0.1624  0.2767  0.5330
  592MPD2    C1 8773   2.275   1.900  11.617  0.4084  0.4469  0.7265
  592MPD2    C2 8774   2.217   1.832  11.721  0.0220 -0.3706  0.0421
  592MPD2    C3 8775   2.140   1.719  11.700 -0.1915  0.5357  0.1964
  592MPD2    C4 8776   2.126   1.668  11.568 -0.6685 -0.1794  0.1063
  592MPD2    C5 8777   2.190   1.736  11.470 -0.0810  0.3932  0.3730
  592MPD2     H 8778   2.227   1.872  11.822 -2.2226 -3.5970  1.5452
  592MPD2    H1 8779   2.078   1.573  11.546 -0.5177 -0.1658 -0.2696
  592MPD2    H2 8780   2.314   1.903  11.405 -1.3814  0.1370 -0.3096
  592MPD2    H3 8781   2.206   1.690  11.373  0.7152  2.5888 -0.5214
  592MPD2     N 8782   2.085   1.660  11.817  0.5532  0.5341 -0.2740
  592MPD2    H5 8783   2.108   1.703  11.906  1.6373  2.4643 -1.4792
  592MPD2    N1 8784   2.348   2.019  11.639  0.2995  0.0030 -0.2313
  592MPD2    H7 8785   2.370   2.064  11.551  0.6194  2.1277  0.9322
  593TMC3    C1 8786   2.416   2.227  11.726 -0.6420  0.1037 -0.3310
  593TMC3    C2 8787   2.387   2.332  11.810 -0.2465  0.4062 -0.5889
  593TMC3    C3 8788   2.454   2.452  11.800 -1.2159 -0.2902  1.2095
  593TMC3    C4 8789   2.507   2.249  11.626 -1.0252  0.4803 -0.6168
  593TMC3    C5 8790   2.569   2.373  11.611  0.4509  0.0270  0.0396
  593TMC3    C6 8791   2.540   2.474  11.692 -0.0203 -0.1140 -0.9126
  593TMC3     C 8792   2.349   2.102  11.752  0.6132 -0.1143  0.2926
  593TMC3     O 8793   2.332   2.074  11.870 -0.2424  0.3087  0.1600
  593TMC3     H 8794   2.313   2.321  11.888  1.2169 -0.9140  0.6256
  593TMC3    H1 8795   2.529   2.172  11.553 -0.6071  0.3927 -0.3990
  593TMC3    H2 8796   2.589   2.569  11.679  2.7478 -1.8442 -3.0672
  593TMC3    C7 8797   2.637   2.400  11.485  0.1813  0.3149  0.2761
  593TMC3    C8 8798   2.424   2.559  11.902 -0.4935 -0.4793  0.8227
  593TMC3    O1 8799   2.679   2.513  11.473  1.2094  0.2134 -0.0262
  593TMC3    O2 8800   2.326   2.543  11.975  0.1024 -0.3547 -0.5120
  594MPD2     C 8801   1.196   0.702  13.694  0.7074 -0.2545  0.4001
  594MPD2    C1 8802   1.170   0.732  13.822  0.5032 -0.6203  0.2976
  594MPD2    C2 8803   1.225   0.845  13.883 -0.3595  0.1475 -0.0111
  594MPD2    C3 8804   1.320   0.916  13.815  0.4827 -0.1225  0.5361
  594MPD2    C4 8805   1.358   0.875  13.688  0.1526 -0.1967 -0.1063
  594MPD2    C5 8806   1.303   0.766  13.628  0.5651  0.0683  0.3529
  594MPD2     H 8807   1.201   0.874  13.984  0.6847  0.3659  0.1696
  594MPD2    H1 8808   1.442   0.921  13.638  0.2525 -1.3567 -1.0057
  594MPD2    H2 8809   1.159   0.611  13.647  0.5273 -0.2528  0.5367
  594MPD2    H3 8810   1.342   0.747  13.529 -1.1708 -2.6369  0.1853
  594MPD2     N 8811   1.367   1.032  13.871  0.3628 -0.8208 -0.1889
  594MPD2    H5 8812   1.344   1.048  13.968  0.5593 -0.8279 -0.1414
  594MPD2    N1 8813   1.074   0.657  13.893  0.6155  0.6454  0.1490
  594MPD2    H7 8814   1.006   0.605  13.838 -0.2427  0.7706  1.0930
  595TMC3    C1 8815   1.664   1.371  13.945 -0.2704  0.3137 -0.3122
  595TMC3    C2 8816   1.611   1.275  13.860 -0.1061 -0.6506 -0.9409
  595TMC3    C3 8817   1.484   1.230  13.877  0.0393 -0.3812  0.5183
  595TMC3    C4 8818   1.592   1.410  14.050 -0.5311 -0.1132  0.5447
  595TMC3    C5 8819   1.474   1.348  14.076  0.0178  0.4544  0.1039
  595TMC3    C6 8820   1.419   1.258  13.990  0.0579 -0.2027 -0.0346
  595TMC3     C 8821   1.806   1.365  13.975 -0.2821  0.4480  0.1133
  595TMC3     O 8822   1.837   1.372  14.090  0.4111  0.1017  0.2435
  595TMC3     H 8823   1.652   1.244  13.764 -0.0547 -1.1456 -0.7610
  595TMC3    H1 8824   1.632   1.491  14.111  2.8811 -0.7105 -0.9269
  595TMC3    H2 8825   1.319   1.219  14.005  0.5626 -0.6589  2.2436
  595TMC3    C7 8826   1.374   1.410  14.163  0.2267  0.4309 -0.4053
  595TMC3    C8 8827   1.425   1.129  13.795 -0.4843 -0.3744  0.0577
  595TMC3    O1 8828   1.253   1.396  14.143  0.3358  0.2450 -0.1182
  595TMC3    O2 8829   1.455   1.144  13.678  0.4404  0.1684  0.0502
  596MPD2     C 8830   0.468   3.219  16.600  0.7846 -0.0151  0.4561
  596MPD2    C1 8831   0.434   3.344  16.566  0.2779  0.6248  0.0447
  596MPD2    C2 8832   0.446   3.379  16.427  0.4352  0.1388  0.3094
  596MPD2    C3 8833   0.486   3.288  16.335  0.0928 -0.6901 -0.0946
  596MPD2    C4 8834   0.511   3.155  16.368  0.3122 -0.1042  0.5530
  596MPD2    C5 8835   0.508   3.124  16.503 -0.4561 -0.1173 -0.0181
  596MPD2     H 8836   0.430   3.483  16.400 -0.0303  0.3790  1.4899
  596MPD2    H1 8837   0.533   3.075  16.298  0.9108 -0.2415  0.8879
  596MPD2    H2 8838   0.448   3.184  16.700 -1.5087 -1.0987 -0.3734
  596MPD2    H3 8839   0.525   3.024  16.541 -0.2016  0.5386  1.6080
  596MPD2     N 8840   0.491   3.323  16.195 -0.0218 -0.3460  0.4993
  596MPD2    H5 8841   0.507   3.250  16.126  1.1399  0.6858 -0.3206
  596MPD2    N1 8842   0.391   3.443  16.657  0.8458 -0.3959  0.1995
  596MPD2    H7 8843   0.353   3.527  16.616 -1.1420 -1.2390  0.2808
  597TMC3    C1 8844   0.342   3.539  16.857  0.7683  0.2030  0.0951
  597TMC3    C2 8845   0.285   3.644  16.792  0.1701 -0.4305 -0.7191
  597TMC3    C3 8846   0.235   3.744  16.863  0.2733  0.2014  0.6514
  597TMC3    C4 8847   0.357   3.533  16.992  0.3676  0.2096  0.5289
  597TMC3    C5 8848   0.314   3.639  17.063 -0.2741  0.4898 -0.2220
  597TMC3    C6 8849   0.251   3.745  17.001 -0.0737  0.3301 -0.4633
  597TMC3     C 8850   0.402   3.426  16.791 -0.1641 -0.1158 -0.6754
  597TMC3     O 8851   0.458   3.341  16.856  0.8099  0.6117 -0.5198
  597TMC3     H 8852   0.275   3.651  16.684 -0.0379  0.0326 -0.6730
  597TMC3    H1 8853   0.379   3.434  17.031  1.0249 -0.6624 -2.0327
  597TMC3    H2 8854   0.219   3.837  17.048 -0.8840 -0.4525  0.5037
  597TMC3    C7 8855   0.322   3.625  17.210  0.7628  0.4718  0.3997
  597TMC3    C8 8856   0.181   3.867  16.805 -0.4054  0.2760 -0.1517
  597TMC3    O1 8857   0.295   3.514  17.261 -0.3518  0.3748 -0.7087
  597TMC3    O2 8858   0.092   3.923  16.872 -0.0273 -0.1987 -0.4164
  598TMC3    C1 8859   3.238   0.495  14.984  0.2135  0.5393  0.4269
  598TMC3    C2 8860   3.159   0.390  14.944 -0.5120 -0.0184  1.0586
  598TMC3    C3 8861   3.145   0.371  14.806  0.3322 -0.0803 -0.1563
  598TMC3    C4 8862   3.301   0.574  14.892  0.3340 -0.1515  0.2219
  598TMC3    C5 8863   3.286   0.553  14.757 -0.4982 -0.0700  0.0584
  598TMC3    C6 8864   3.204   0.456  14.717  0.4248 -0.0848  0.3202
  598TMC3     C 8865   3.275   0.509  15.123 -0.2771  0.2765  0.0172
  598TMC3     O 8866   3.376   0.581  15.140 -0.1819 -0.3599  0.3223
  598TMC3     H 8867   3.118   0.314  15.010 -1.3350 -1.6776 -1.3801
  598TMC3    H1 8868   3.338   0.668  14.932 -0.8265  0.0261  0.8697
  598TMC3    H2 8869   3.184   0.448  14.611 -1.6612  0.6029  0.6744
  598TMC3    C7 8870   3.305   0.663  14.663  0.0833 -0.1380 -0.2197
  598TMC3    C8 8871   3.055   0.272  14.753 -0.2537  0.2720 -0.2413
  598TMC3    O1 8872   3.216   0.683  14.581 -0.2463  0.8174 -0.9207
  598TMC3    O2 8873   3.040   0.270  14.633  0.4734  0.0962 -0.9675
  599MPD2     C 8874   3.395   3.302  16.180 -0.4089  0.3519 -1.1934
  599MPD2    C1 8875   3.367   3.168  16.170 -0.6886 -0.0149  0.2333
  599MPD2    C2 8876   3.266   3.120  16.246 -1.0179 -0.2006 -0.3433
  599MPD2    C3 8877   3.188   3.202  16.329 -0.1711  0.5615  0.3973
  599MPD2    C4 8878   3.217   3.333  16.342 -0.0115 -0.1658 -0.2170
  599MPD2    C5 8879   3.313   3.386  16.251 -0.3877 -0.0446 -0.2873
  599MPD2     H 8880   3.242   3.014  16.237  2.2725 -0.7314 -2.9180
  599MPD2    H1 8881   3.158   3.399  16.404  0.1992 -0.8188  0.6800
  599MPD2    H2 8882   3.480   3.348  16.131 -0.3602 -0.0776 -1.5090
  599MPD2    H3 8883   3.327   3.494  16.256 -1.0577  0.0073  0.4984
  599MPD2     N 8884   3.072   3.158  16.397  0.2638 -0.3727 -0.1657
  599MPD2    H5 8885   3.036   3.236  16.450  0.4798  0.0192 -0.5966
  599MPD2    N1 8886   3.444   3.085  16.081  0.4911 -0.6248  0.6023
  599MPD2    H7 8887   3.520   3.135  16.037  1.1310 -1.3338  0.8956
  600TMC3    C1 8888   2.899   3.014  16.487 -0.1580  0.3351  0.4327
  600TMC3    C2 8889   2.832   2.894  16.479  1.1226  0.5763  0.4247
  600TMC3    C3 8890   2.735   2.865  16.571 -0.7269  0.4297  0.4551
  600TMC3    C4 8891   2.890   3.092  16.595 -0.4997 -0.6811 -0.1306
  600TMC3    C5 8892   2.793   3.061  16.686 -0.0458  0.3479 -0.6611
  600TMC3    C6 8893   2.714   2.946  16.675 -0.6021  0.7455  0.2468
  600TMC3     C 8894   3.019   3.030  16.403  0.6770  0.1631 -0.7632
  600TMC3     O 8895   3.057   2.927  16.351  0.5340  0.0011  0.3161
  600TMC3     H 8896   2.842   2.836  16.388  1.1585 -0.1157  0.8644
  600TMC3    H1 8897   2.948   3.184  16.604  0.4477 -1.4955  2.2062
  600TMC3    H2 8898   2.632   2.924  16.743 -1.8324 -0.3501 -1.6037
  600TMC3    C7 8899   2.753   3.153  16.788 -0.2673 -0.1557 -0.3402
  600TMC3    C8 8900   2.699   2.727  16.586 -0.1166  0.0221  0.4223
  600TMC3    O1 8901   2.636   3.155  16.822  0.4480  0.4615  0.6717
  600TMC3    O2 8902   2.686   2.662  16.480 -0.5285  0.2533 -0.5699
  601MPD2     C 8903   0.865   0.425  16.651 -0.1579  0.1525 -0.1397
  601MPD2    C1 8904   0.776   0.493  16.733 -0.1810  0.4882  0.4494
  601MPD2    C2 8905   0.751   0.442  16.854  0.2556 -0.6900  0.6508
  601MPD2    C3 8906   0.792   0.320  16.896  0.4098  0.2751  0.2165
  601MPD2    C4 8907   0.874   0.252  16.806  0.0454  0.1683 -0.6596
  601MPD2    C5 8908   0.911   0.304  16.687  0.4452 -0.2537  0.9217
  601MPD2     H 8909   0.696   0.502  16.925  1.2106  0.6022  0.3073
  601MPD2    H1 8910   0.916   0.153  16.823 -1.6571  0.1149  3.2512
  601MPD2    H2 8911   0.903   0.468  16.559  0.8320  2.5456  1.4032
  601MPD2    H3 8912   0.982   0.255  16.621  0.9378  0.0182  1.2493
  601MPD2     N 8913   0.769   0.248  17.019  0.0650 -0.9167 -0.1955
  601MPD2    H5 8914   0.829   0.171  17.046  1.9909  0.9479  0.9272
  601MPD2    N1 8915   0.735   0.626  16.699  0.2863  0.0438 -1.0186
  601MPD2    H7 8916   0.689   0.668  16.779 -0.9186 -0.0519 -1.6544
  602TMC3    C1 8917   0.703   0.828  16.570  0.0764 -0.2215 -0.0096
  602TMC3    C2 8918   0.699   0.904  16.683 -0.0712 -0.3643 -0.1306
  602TMC3    C3 8919   0.682   1.037  16.667 -0.1376 -1.1142  0.9774
  602TMC3    C4 8920   0.674   0.879  16.442  0.4380 -0.2461 -0.6071
  602TMC3    C5 8921   0.667   1.016  16.430  0.5557  0.1809 -0.0100
  602TMC3    C6 8922   0.671   1.098  16.540  0.6357 -0.1150  0.2202
  602TMC3     C 8923   0.748   0.687  16.574 -0.5626 -0.7283 -0.0481
  602TMC3     O 8924   0.782   0.635  16.466 -0.3750  0.2194  0.6800
  602TMC3     H 8925   0.745   0.869  16.774  0.0741 -1.0531 -0.4657
  602TMC3    H1 8926   0.674   0.811  16.358 -1.3772  1.0662 -1.6636
  602TMC3    H2 8927   0.677   1.205  16.527 -1.1511 -0.0224  0.0935
  602TMC3    C7 8928   0.564   1.060  16.335  0.2101 -0.0730 -0.0806
  602TMC3    C8 8929   0.579   1.096  16.750  0.0241 -1.1124  0.1234
  602TMC3    O1 8930   0.577   1.041  16.214 -0.8282 -0.3211  0.4154
  602TMC3    O2 8931   0.504   1.174  16.693  0.3181  0.3723 -0.9850
  603TMC3    C1 8932   3.367   1.489  10.588 -0.0104 -0.3854 -0.4292
  603TMC3    C2 8933   3.375   1.489  10.721 -0.4388 -0.7335 -0.9010
  603TMC3    C3 8934   3.455   1.591  10.779 -0.2512 -0.4822  0.0414
  603TMC3    C4 8935   3.428   1.589  10.514 -0.0876  0.1106  0.0315
  603TMC3    C5 8936   3.489   1.693  10.574  0.7480  0.1509  0.0580
  603TMC3    C6 8937   3.502   1.696  10.710 -0.1219 -0.4021  0.8189
  603TMC3     C 8938   3.320   1.362  10.528 -0.7005 -0.0128 -0.2025
  603TMC3     O 8939   3.251   1.294  10.604  0.0821  0.2829 -0.0077
  603TMC3     H 8940   3.318   1.418  10.780 -0.0529 -1.0572 -0.9213
  603TMC3    H1 8941   3.407   1.595  10.408  0.9750 -0.6635 -0.2236
  603TMC3    H2 8942   3.560   1.778  10.749  1.2857 -0.5002 -1.0493
  603TMC3    C7 8943   3.525   1.815  10.508  0.3540 -0.1335  0.0311
  603TMC3    C8 8944   3.459   1.575  10.928 -0.8313 -0.0800  0.3384
  603TMC3    O1 8945   3.607   1.885  10.568  0.1477 -0.1407  0.6380
  603TMC3    O2 8946   3.435   1.463  10.971  0.6053  0.1584  0.1054
  604MPD2     C 8947   3.940   4.068  16.314 -0.1792 -0.3034  0.2052
  604MPD2    C1 8948   3.973   4.192  16.262  1.8443 -0.5212  0.3088
  604MPD2    C2 8949   3.979   4.209  16.127 -0.2579 -0.4726 -0.5186
  604MPD2    C3 8950   3.957   4.101  16.047 -0.2231  0.1945  0.3616
  604MPD2    C4 8951   3.921   3.985  16.100 -0.1486 -0.2679 -0.4862
  604MPD2    C5 8952   3.904   3.970  16.234  0.1991  1.2973  0.6022
  604MPD2     H 8953   4.012   4.304  16.086 -1.0269  0.5155  1.1667
  604MPD2    H1 8954   3.875   3.907  16.041  0.1226  1.2854 -2.7755
  604MPD2    H2 8955   3.942   4.055  16.421  0.9916  1.3570  0.3873
  604MPD2    H3 8956   3.862   3.879  16.277  1.6436 -0.3432 -1.4366
  604MPD2     N 8957   3.972   4.118  15.907 -1.0019 -0.2439 -0.0350
  604MPD2    H5 8958   4.009   4.205  15.870 -1.1626 -0.4617 -0.7050
  604MPD2    N1 8959   4.003   4.288  16.365  0.1510  0.2364 -0.4390
  604MPD2    H7 8960   3.976   4.269  16.461  1.8904  0.7848  0.1722
  605TMC3    C1 8961   3.993   4.504  16.461 -0.3090 -0.4567 -0.3585
  605TMC3    C2 8962   4.075   4.608  16.471 -0.4336 -0.5295  0.7869
  605TMC3    C3 8963   4.035   0.016  16.501  0.4817  0.0754 -0.0804
  605TMC3    C4 8964   3.855   4.516  16.474 -0.0004 -0.3142 -0.2247
  605TMC3    C5 8965   3.814   4.645  16.502 -0.0138 -0.2159  0.1552
  605TMC3    C6 8966   3.900   0.033  16.530  0.1340  0.4137 -0.2013
  605TMC3     C 8967   4.019   4.422  16.344  0.2228 -0.5838 -0.0685
  605TMC3     O 8968   4.032   4.490  16.243  0.2276 -0.5117 -0.1090
  605TMC3     H 8969   4.178   4.589  16.443 -0.0839  0.4028  1.4219
  605TMC3    H1 8970   3.794   4.427  16.474 -2.6480  1.4875  0.2400
  605TMC3    H2 8971   3.865   0.129  16.566  0.2497  0.4924 -0.2968
  605TMC3    C7 8972   3.674   4.676  16.507 -0.2477  0.3969  0.5608
  605TMC3    C8 8973   4.141   0.114  16.504 -0.1915  0.5369  0.1554
  605TMC3    O1 8974   3.639   0.074  16.536  0.3771  0.2231  0.3765
  605TMC3    O2 8975   4.258   0.084  16.487  0.3737 -0.1920  0.9875
  606TMC3    C1 8976   0.877   3.186  16.896  0.3147 -0.2439 -0.6108
  606TMC3    C2 8977   0.963   3.194  17.002  0.0352 -0.7062 -0.7648
  606TMC3    C3 8978   1.039   3.079  17.032  0.6655  0.8109  0.1877
  606TMC3    C4 8979   0.849   3.069  16.830  0.6422 -0.2644 -0.1623
  606TMC3    C5 8980   0.910   2.958  16.875 -0.5466  0.1436  0.2531
  606TMC3    C6 8981   1.005   2.956  16.977 -0.9429 -0.1293 -0.2649
  606TMC3     C 8982   0.841   3.309  16.834  0.0705  0.7761  0.4672
  606TMC3     O 8983   0.857   3.407  16.908  0.1882  0.0769  0.4523
  606TMC3     H 8984   0.998   3.285  17.049 -0.7546  0.5898 -2.7177
  606TMC3    H1 8985   0.774   3.057  16.752  1.0610  0.8438 -0.7484
  606TMC3    H2 8986   1.039   2.862  17.019  0.4410  1.6484  2.5097
  606TMC3    C7 8987   0.875   2.823  16.829  0.2870  0.4759 -0.2740
  606TMC3    C8 8988   1.130   3.081  17.149  0.5843 -0.1361 -0.4736
  606TMC3    O1 8989   0.895   2.794  16.711  0.2219  0.4834  0.1028
  606TMC3    O2 8990   1.105   3.164  17.234 -0.1270  0.6182  0.2085
  607MPD2     C 8991   2.642   1.793  11.472  0.2941  0.1318  0.5147
  607MPD2    C1 8992   2.698   1.866  11.574  0.9812 -0.3834 -0.2735
  607MPD2    C2 8993   2.642   1.852  11.699 -0.2321  0.5991 -0.1711
  607MPD2    C3 8994   2.554   1.752  11.729 -0.0175 -0.0174  0.4672
  607MPD2    C4 8995   2.507   1.672  11.627  0.2737  0.9951 -0.4325
  607MPD2    C5 8996   2.552   1.697  11.501 -0.2576 -0.7200  0.5213
  607MPD2     H 8997   2.676   1.914  11.781  0.4997  0.5967 -0.4745
  607MPD2    H1 8998   2.433   1.595  11.646 -0.7946  1.8280 -1.2285
  607MPD2    H2 8999   2.664   1.812  11.368  0.8252 -0.1716  0.5707
  607MPD2    H3 9000   2.507   1.644  11.418 -0.4175  0.4822 -0.1531
  607MPD2     N 9001   2.523   1.740  11.865 -0.3348 -0.1820 -0.6381
  607MPD2    H5 9002   2.568   1.808  11.925  2.4144 -3.5598  1.1600
  607MPD2    N1 9003   2.799   1.971  11.569  0.5104 -0.3477 -0.4065
  607MPD2    H7 9004   2.847   1.997  11.654 -0.7837 -0.8806  0.4830
  608TMC3    C1 9005   2.933   2.151  11.487 -0.1568  0.0100  0.7396
  608TMC3    C2 9006   2.911   2.208  11.610 -0.0959  1.0599  0.4696
  608TMC3    C3 9007   2.983   2.324  11.643 -0.5310 -0.9220 -0.2798
  608TMC3    C4 9008   3.018   2.203  11.401 -0.0007 -0.4453  0.4276
  608TMC3    C5 9009   3.068   2.330  11.434 -0.0574 -0.3696  0.0262
  608TMC3    C6 9010   3.055   2.389  11.554 -0.4547 -0.3681  0.2992
  608TMC3     C 9011   2.856   2.027  11.460  0.5315  0.2402  0.5982
  608TMC3     O 9012   2.830   1.998  11.343  0.5260  0.6203 -0.4846
  608TMC3     H 9013   2.828   2.176  11.671 -0.0159  1.0730  0.5866
  608TMC3    H1 9014   3.036   2.153  11.306 -0.8402 -0.8998  0.5076
  608TMC3    H2 9015   3.105   2.480  11.585 -0.3650 -0.5972  0.8321
  608TMC3    C7 9016   3.163   2.381  11.334 -0.3408  0.8428  0.2305
  608TMC3    C8 9017   2.949   2.381  11.769  0.3342  0.8434  0.2080
  608TMC3    O1 9018   3.159   2.333  11.224 -0.0855 -0.9763  0.0592
  608TMC3    O2 9019   2.970   2.498  11.792  0.1343  0.0959 -0.8580
  609TMC3    C1 9020   1.304   0.649   8.798  0.4781  0.5832  0.5901
  609TMC3    C2 9021   1.343   0.758   8.725  0.0603  0.4840 -0.0991
  609TMC3    C3 9022   1.477   0.785   8.713  0.2263 -0.0829 -0.4025
  609TMC3    C4 9023   1.392   0.558   8.846 -0.6366  0.4944  0.8879
  609TMC3    C5 9024   1.521   0.585   8.817 -0.1248 -0.1870  0.2684
  609TMC3    C6 9025   1.576   0.696   8.757  0.3424  0.8572  0.1567
  609TMC3     C 9026   1.170   0.652   8.852  0.2077  0.0919  0.6743
  609TMC3     O 9027   1.143   0.588   8.954 -0.6972  0.3377  0.0863
  609TMC3     H 9028   1.276   0.837   8.694  0.3606  1.9175  2.8426
  609TMC3    H1 9029   1.363   0.481   8.916 -0.4919 -1.7014 -1.4647
  609TMC3    H2 9030   1.681   0.711   8.739  0.3538  1.5112  0.7778
  609TMC3    C7 9031   1.632   0.498   8.864  0.5274  0.1095  0.4877
  609TMC3    C8 9032   1.524   0.925   8.702  0.0122 -0.7117  0.7514
  609TMC3    O1 9033   1.743   0.541   8.872 -0.1243 -0.2950 -0.5045
  609TMC3    O2 9034   1.631   0.964   8.748 -0.2050  0.0215 -0.5896
  610TMC3    C1 9035   2.905   2.036  12.397 -0.1572 -0.0436 -1.1592
  610TMC3    C2 9036   2.974   2.132  12.333  0.5025 -0.2563  0.8857
  610TMC3    C3 9037   3.091   2.099  12.271 -0.5147 -0.6693 -0.6461
  610TMC3    C4 9038   2.947   1.907  12.410  0.3092 -0.8646  0.2770
  610TMC3    C5 9039   3.070   1.876  12.349 -0.2709 -0.1139 -0.1325
  610TMC3    C6 9040   3.147   1.971  12.286  0.2195  0.4136  0.5899
  610TMC3     C 9041   2.787   2.064  12.467 -0.5147 -0.7035  0.3679
  610TMC3     O 9042   2.711   1.972  12.482  0.0978 -0.3028 -0.1104
  610TMC3     H 9043   2.936   2.233  12.332  1.9094  0.2917  2.7233
  610TMC3    H1 9044   2.896   1.834  12.471 -2.6905  0.1384 -0.9997
  610TMC3    H2 9045   3.244   1.950  12.241 -1.1463 -0.8627 -1.7358
  610TMC3    C7 9046   3.140   1.758  12.387 -0.0720  0.3625  0.1072
  610TMC3    C8 9047   3.164   2.208  12.206 -0.1356 -0.1599  0.0209
  610TMC3    O1 9048   3.261   1.761  12.407  0.0583 -0.5932 -0.0189
  610TMC3    O2 9049   3.120   2.322  12.219  0.1593  0.0884 -0.4481
  611MPD2     C 9050   2.651   1.542  10.075 -0.1758 -0.2615  0.8710
  611MPD2    C1 9051   2.587   1.641  10.012 -0.3340  0.2503  0.1819
  611MPD2    C2 9052   2.665   1.739   9.952 -0.2069  0.1163  0.5249
  611MPD2    C3 9053   2.803   1.749   9.978 -0.0573 -0.4331  0.0168
  611MPD2    C4 9054   2.858   1.661  10.063  0.1374 -0.2874 -0.4889
  611MPD2    C5 9055   2.784   1.559  10.110  0.0283 -0.3457 -0.1407
  611MPD2     H 9056   2.618   1.831   9.917  1.3399  0.7675  0.1572
  611MPD2    H1 9057   2.959   1.679  10.100  0.2477  1.1688 -1.4967
  611MPD2    H2 9058   2.590   1.459  10.109  1.8406 -1.7294  0.8474
  611MPD2    H3 9059   2.831   1.482  10.171  0.4662 -0.6766 -0.8926
  611MPD2     N 9060   2.887   1.853   9.925 -0.0273 -0.4853 -0.2656
  611MPD2    H5 9061   2.982   1.867   9.957 -0.2057  1.5565 -0.6094
  611MPD2    N1 9062   2.445   1.636  10.021  0.2280 -0.6081  0.1543
  611MPD2    H7 9063   2.400   1.566  10.079  0.4901  0.1645  1.2765
  612TMC3    C1 9064   2.965   2.038   9.799 -0.4977 -0.0376 -0.0592
  612TMC3    C2 9065   3.069   2.063   9.883  0.8007  0.2706 -0.3108
  612TMC3    C3 9066   3.163   2.156   9.843 -0.2144  0.5260 -0.0692
  612TMC3    C4 9067   2.956   2.100   9.681 -0.2941 -0.4141  0.5381
  612TMC3    C5 9068   3.051   2.185   9.638 -0.1020 -0.4229 -0.7889
  612TMC3    C6 9069   3.160   2.210   9.719  1.2887 -0.1944 -0.4193
  612TMC3     C 9070   2.848   1.948   9.829 -0.3678 -0.0073  0.4476
  612TMC3     O 9071   2.755   1.942   9.752 -0.3423 -0.0538  0.4471
  612TMC3     H 9072   3.058   2.040   9.988 -1.9933 -0.1131 -0.6673
  612TMC3    H1 9073   2.861   2.111   9.631  0.4685 -1.0944 -1.0787
  612TMC3    H2 9074   3.236   2.282   9.691  0.6093  0.8755  0.5043
  612TMC3    C7 9075   3.033   2.251   9.512 -0.3669  0.2894  0.8514
  612TMC3    C8 9076   3.281   2.173   9.926 -0.0033  0.1481  0.9994
  612TMC3    O1 9077   2.947   2.201   9.440  0.3067  0.0577  0.8852
  612TMC3    O2 9078   3.352   2.265   9.884  0.6627  0.5810 -0.1910
  613MPD2     C 9079   1.567   3.432  16.182  0.1556  0.1248  0.5602
  613MPD2    C1 9080   1.554   3.449  16.044 -0.5833 -0.2763  0.0595
  613MPD2    C2 9081   1.480   3.361  15.968 -0.0231 -0.0095  0.2616
  613MPD2    C3 9082   1.415   3.254  16.027 -0.0194  0.2975 -0.2579
  613MPD2    C4 9083   1.431   3.237  16.163  1.1911 -0.3678 -0.2966
  613MPD2    C5 9084   1.503   3.326  16.238  0.1140 -0.9250 -0.8555
  613MPD2     H 9085   1.480   3.374  15.860 -1.5271  0.1641  0.2878
  613MPD2    H1 9086   1.391   3.157  16.224  2.7474 -0.3166  0.8136
  613MPD2    H2 9087   1.630   3.494  16.246 -0.9581  1.9875 -0.1455
  613MPD2    H3 9088   1.497   3.314  16.345 -0.7991 -0.8501 -0.9000
  613MPD2     N 9089   1.347   3.156  15.953  0.4257  0.3016  0.4939
  613MPD2    H5 9090   1.322   3.070  16.002 -0.3283  1.7315  2.6339
  613MPD2    N1 9091   1.623   3.548  15.971  0.1943  0.1317 -0.3834
  613MPD2    H7 9092   1.590   3.561  15.876  0.2271 -0.1872 -0.4369
  614TMC3    C1 9093   1.803   3.645  15.877 -0.2287  0.0725  0.5041
  614TMC3    C2 9094   1.886   3.546  15.820 -0.7630  0.1895  0.1669
  614TMC3    C3 9095   1.886   3.519  15.684  0.3164  0.3771 -0.1196
  614TMC3    C4 9096   1.715   3.716  15.800  0.5188  0.3037 -0.5027
  614TMC3    C5 9097   1.725   3.695  15.663 -0.3767 -0.1190 -0.1048
  614TMC3    C6 9098   1.804   3.599  15.604  0.9721  0.0074 -0.3630
  614TMC3     C 9099   1.747   3.598  16.006 -0.2687 -0.3619  0.9272
  614TMC3     O 9100   1.819   3.546  16.089  0.8005 -0.0973  0.3315
  614TMC3     H 9101   1.937   3.479  15.888  3.1228  2.1172 -0.8356
  614TMC3    H1 9102   1.648   3.788  15.845 -0.6132 -1.0082 -0.1140
  614TMC3    H2 9103   1.801   3.586  15.497  0.7960  3.0636 -0.7306
  614TMC3    C7 9104   1.652   3.788  15.584  0.0655  0.4202 -0.1636
  614TMC3    C8 9105   1.903   3.382  15.647 -0.3241 -0.2735 -0.0620
  614TMC3    O1 9106   1.598   3.887  15.640  0.2614  0.1512 -0.4901
  614TMC3    O2 9107   1.892   3.302  15.741  0.4510  0.3221 -0.2817
  615MPD2     C 9108   0.457   4.369  16.090  0.3446  0.2799  0.1124
  615MPD2    C1 9109   0.525   4.421  15.983  1.0825  0.8122  0.0067
  615MPD2    C2 9110   0.458   4.445  15.862  1.2229  0.7619  0.2424
  615MPD2    C3 9111   0.318   4.408  15.848 -0.1310  0.5426 -0.3281
  615MPD2    C4 9112   0.253   4.363  15.963  0.3979 -0.4622  0.4847
  615MPD2    C5 9113   0.320   4.340  16.078  0.4134  0.7019 -0.2424
  615MPD2     H 9114   0.516   4.477  15.776 -1.7344 -0.9305 -2.3665
  615MPD2    H1 9115   0.146   4.347  15.963  0.1662  1.1326  0.7951
  615MPD2    H2 9116   0.498   4.351  16.189  0.9121 -0.8127 -0.3193
  615MPD2    H3 9117   0.261   4.304  16.161 -1.1695  0.4938 -1.4606
  615MPD2     N 9118   0.237   4.429  15.734  0.3920  0.6671  0.1892
  615MPD2    H5 9119   0.141   4.400  15.748  0.0069  1.5101 -0.7791
  615MPD2    N1 9120   0.659   4.456  15.987  0.3369  0.5137 -0.7018
  615MPD2    H7 9121   0.702   4.504  15.908  3.7462 -1.2935  0.0542
  616TMC3    C1 9122   0.885   4.475  16.084  0.1388 -0.1112 -0.2699
  616TMC3    C2 9123   0.925   4.550  15.977 -0.5965  0.5543  0.2546
  616TMC3    C3 9124   1.057   4.588  15.975 -0.0741 -0.3570 -0.3028
  616TMC3    C4 9125   0.971   4.441  16.191 -0.1106 -0.4742 -0.1581
  616TMC3    C5 9126   1.097   4.491  16.191  0.1033 -0.3888 -0.0901
  616TMC3    C6 9127   1.143   4.564  16.087  1.2018 -0.5359  0.3755
  616TMC3     C 9128   0.747   4.415  16.084  0.1504  1.0626 -0.0699
  616TMC3     O 9129   0.726   4.334  16.174 -0.3491 -0.1883 -0.0217
  616TMC3     H 9130   0.862   4.582  15.895  1.9425  2.0119 -1.1215
  616TMC3    H1 9131   0.928   4.391  16.277  1.6135 -0.2095  0.8418
  616TMC3    H2 9132   1.248   4.590  16.083  1.7003 -2.3440  1.7476
  616TMC3    C7 9133   1.154   4.516  16.320  0.2868 -0.6800 -0.8831
  616TMC3    C8 9134   1.084   4.697  15.879  0.4692  0.0214 -0.2308
  616TMC3    O1 9135   1.271   4.551  16.316 -0.1407  0.1602 -0.1603
  616TMC3    O2 9136   1.019   4.698  15.773  0.1964 -0.2885 -0.4956
  617MPD2     C 9137   3.450   3.286  13.415 -0.5138 -0.3311 -0.2391
  617MPD2    C1 9138   3.459   3.289  13.551 -0.2731 -0.3227 -0.1528
  617MPD2    C2 9139   3.348   3.262  13.625  0.0280 -0.5669  0.2436
  617MPD2    C3 9140   3.225   3.239  13.567 -0.2929  0.8479 -0.3142
  617MPD2    C4 9141   3.226   3.234  13.428 -0.4371 -0.7694  0.3682
  617MPD2    C5 9142   3.334   3.255  13.351 -0.3278 -0.3073 -0.1933
  617MPD2     H 9143   3.363   3.282  13.730 -2.2126 -1.8496  0.7986
  617MPD2    H1 9144   3.133   3.212  13.376  0.0699 -0.9653 -0.4554
  617MPD2    H2 9145   3.535   3.307  13.352 -1.3389  2.3488 -0.4757
  617MPD2    H3 9146   3.329   3.250  13.243 -2.6883  1.5941 -0.1788
  617MPD2     N 9147   3.110   3.196  13.631 -0.6651 -0.8775  0.5112
  617MPD2    H5 9148   3.035   3.159  13.574 -1.7668 -0.0215  1.3979
  617MPD2    N1 9149   3.585   3.322  13.609  0.2597  0.1812  0.5332
  617MPD2    H7 9150   3.667   3.319  13.548 -1.5419  0.2889 -1.8713
  618TMC3    C1 9151   3.759   3.309  13.771 -0.4103  0.0737 -0.4292
  618TMC3    C2 9152   3.799   3.186  13.718 -0.4208  0.4093 -0.1271
  618TMC3    C3 9153   3.880   3.110  13.799  0.0462 -0.1078  0.5645
  618TMC3    C4 9154   3.818   3.352  13.883  0.2943 -0.3101  0.5522
  618TMC3    C5 9155   3.911   3.284  13.958  0.1123 -0.3134  0.6920
  618TMC3    C6 9156   3.945   3.155  13.915 -1.4925  0.3956 -0.4147
  618TMC3     C 9157   3.622   3.341  13.741 -0.7654  0.9318 -0.7431
  618TMC3     O 9158   3.542   3.372  13.828  0.0018 -0.5250 -0.3485
  618TMC3     H 9159   3.741   3.140  13.639  0.8019  0.3494 -0.9828
  618TMC3    H1 9160   3.785   3.449  13.918  0.8631  0.2909 -0.6086
  618TMC3    H2 9161   4.001   3.087  13.979 -1.8144  1.4309  0.9713
  618TMC3    C7 9162   3.958   3.355  14.077  0.2351  0.0194  0.2942
  618TMC3    C8 9163   3.897   2.975  13.761 -0.1317  0.7283 -0.0345
  618TMC3    O1 9164   3.914   3.310  14.179  0.6685 -0.1858  0.1348
  618TMC3    O2 9165   3.797   2.914  13.728 -0.2918  0.3886 -0.4689
  619MPD2     C 9166   0.456   4.570  13.572 -0.6325  0.8957 -0.2400
  619MPD2    C1 9167   0.417   4.675  13.491 -0.9508 -0.5547  0.4319
  619MPD2    C2 9168   0.283   4.679  13.443  0.1300  0.9617  0.3189
  619MPD2    C3 9169   0.196   4.582  13.484 -0.0684 -0.5375 -0.2163
  619MPD2    C4 9170   0.232   4.488  13.573  0.2778 -0.3513 -0.3705
  619MPD2    C5 9171   0.362   4.483  13.615  0.5292  0.8272 -0.1554
  619MPD2     H 9172   0.250   0.036  13.370 -0.5240  0.9408  0.5907
  619MPD2    H1 9173   0.168   4.408  13.610  1.8444 -2.8510 -3.1787
  619MPD2    H2 9174   0.558   4.565  13.609 -1.0148 -2.6302  0.3365
  619MPD2    H3 9175   0.402   4.407  13.682  0.8454  1.2571  0.1449
  619MPD2     N 9176   0.061   4.570  13.435 -0.2237  0.3157 -0.6727
  619MPD2    H5 9177   0.001   4.498  13.474 -0.3977  0.7159 -0.2057
  619MPD2    N1 9178   0.512   0.061  13.450 -0.4286  1.3731  0.4704
  619MPD2    H7 9179   0.463   0.117  13.381 -0.8604 -0.8109 -0.9827
  620TMC3    C1 9180   0.697   0.184  13.399 -0.6070 -0.8424  0.1247
  620TMC3    C2 9181   0.625   0.217  13.287 -0.4351 -0.2363  0.2960
  620TMC3    C3 9182   0.656   0.333  13.220  0.5807  0.7057  0.9865
  620TMC3    C4 9183   0.796   0.261  13.445 -0.0576  0.3410  0.0282
  620TMC3    C5 9184   0.821   0.383  13.387 -0.0489  0.4157  0.5081
  620TMC3    C6 9185   0.750   0.421  13.271 -0.3728 -0.3400  0.4566
  620TMC3     C 9186   0.638   0.086  13.492 -0.5060  0.0841  0.1998
  620TMC3     O 9187   0.700   0.039  13.586 -0.0937  0.3566  0.0527
  620TMC3     H 9188   0.558   0.150  13.233 -0.5778 -0.3841  0.6519
  620TMC3    H1 9189   0.848   0.248  13.540 -0.9971 -0.2148  0.4594
  620TMC3    H2 9190   0.757   0.523  13.234  2.4196 -0.6619  0.1373
  620TMC3    C7 9191   0.844   0.485  13.485  0.2981 -0.7191  0.1096
  620TMC3    C8 9192   0.538   0.410  13.187  0.4570 -0.2489  0.2699
  620TMC3    O1 9193   0.935   0.464  13.562  0.1057 -0.0756  0.0865
  620TMC3    O2 9194   0.508   0.506  13.256 -0.0316 -0.0707  0.3007
  621MPD2     C 9195   0.825   4.359   9.255 -0.0271 -0.5784 -0.7868
  621MPD2    C1 9196   0.812   4.360   9.390 -0.1568 -0.0215  0.2414
  621MPD2    C2 9197   0.876   4.456   9.466  0.0385 -0.0016 -0.1362
  621MPD2    C3 9198   0.941   4.562   9.411 -0.3879 -0.2804 -0.1808
  621MPD2    C4 9199   0.943   4.566   9.273 -0.6822 -0.2760 -0.6873
  621MPD2    C5 9200   0.890   4.464   9.199  0.0647 -0.2253  0.0080
  621MPD2     H 9201   0.849   4.446   9.570 -1.1869 -1.2567 -0.5763
  621MPD2    H1 9202   0.993   4.644   9.216 -2.0596  0.9940 -0.1249
  621MPD2    H2 9203   0.785   4.280   9.193 -0.7266  1.0539 -2.4224
  621MPD2    H3 9204   0.892   4.474   9.091  3.0433 -0.2804  0.0527
  621MPD2     N 9205   0.993   4.668   9.485  0.9169  0.4293 -0.1082
  621MPD2    H5 9206   1.001   4.659   9.585 -1.5857 -0.3081  0.0127
  621MPD2    N1 9207   0.735   4.266   9.459 -0.0386  0.6194 -0.1627
  621MPD2    H7 9208   0.733   4.267   9.560 -3.1553 -0.2269 -0.2311
  622TMC3    C1 9209   0.541   4.145   9.497 -0.5973 -0.1821  0.0521
  622TMC3    C2 9210   0.579   4.130   9.632 -0.3033 -0.3055 -0.1052
  622TMC3    C3 9211   0.478   4.154   9.726  0.3103  1.4171 -0.1873
  622TMC3    C4 9212   0.411   4.172   9.463  0.0522  0.6539 -0.4422
  622TMC3    C5 9213   0.312   4.181   9.557 -0.2403 -0.0201 -0.7776
  622TMC3    C6 9214   0.344   4.175   9.690 -0.2235 -0.1801  0.5220
  622TMC3     C 9215   0.640   4.183   9.400  0.2168 -0.1395 -0.8508
  622TMC3     O 9216   0.609   4.174   9.284 -0.2412  0.2299  0.3193
  622TMC3     H 9217   0.685   4.111   9.644 -0.3191 -0.2526  0.1131
  622TMC3    H1 9218   0.386   4.210   9.365 -0.3518 -1.0931 -1.0188
  622TMC3    H2 9219   0.267   4.197   9.764  0.2037  0.2387  0.8404
  622TMC3    C7 9220   0.186   4.246   9.531 -0.9491 -0.3036  0.1121
  622TMC3    C8 9221   0.516   4.143   9.864  0.2811 -0.2182  0.2848
  622TMC3    O1 9222   0.096   4.215   9.608 -0.5051  0.1918  0.3259
  622TMC3    O2 9223   0.586   4.049   9.901  0.2666  0.3239  0.0825
  623MPD2     C 9224   4.541   0.834  15.652  0.1890 -0.3765  0.4950
  623MPD2    C1 9225   4.441   0.817  15.747 -0.7001  0.0713 -0.9346
  623MPD2    C2 9226   4.487   0.786  15.879 -0.4795  0.0607 -0.2480
  623MPD2    C3 9227   4.620   0.765  15.906 -0.8763 -0.0701 -0.0422
  623MPD2    C4 9228   4.716   0.783  15.810 -0.1029  0.5090  0.1476
  623MPD2    C5 9229   4.674   0.808  15.683 -0.1666  0.0282  0.2724
  623MPD2     H 9230   4.415   0.776  15.959  0.2298 -1.7972  0.1586
  623MPD2    H1 9231   0.103   0.782  15.844 -0.1670  1.4197  0.3563
  623MPD2    H2 9232   4.512   0.874  15.556 -0.8376 -3.2224 -0.3565
  623MPD2    H3 9233   0.028   0.830  15.604 -0.4189  0.7757  0.2473
  623MPD2     N 9234   4.652   0.716  16.035  0.2127  0.0062  0.0355
  623MPD2    H5 9235   4.579   0.713  16.105 -0.2365  1.6122 -0.3609
  623MPD2    N1 9236   4.304   0.806  15.702 -0.0565 -0.3423  0.2711
  623MPD2    H7 9237   4.288   0.787  15.604 -1.5247 -0.5658  0.5662
  624TMC3    C1 9238   0.128   0.476  16.375  0.2204 -0.3843  0.4185
  624TMC3    C2 9239   0.034   0.529  16.462 -0.3959 -0.0874  0.3526
  624TMC3    C3 9240   4.674   0.637  16.422  0.5741  0.1830  0.1364
  624TMC3    C4 9241   0.148   0.531  16.250 -0.0994 -0.0629  0.1262
  624TMC3    C5 9242   0.065   0.636  16.214  0.3385  0.6327  0.0639
  624TMC3    C6 9243   4.688   0.690  16.297  0.2008  0.5312  0.1017
  624TMC3     C 9244   0.189   0.350  16.404 -0.2567  0.2155  0.0455
  624TMC3     O 9245   0.178   0.309  16.520  0.0648 -0.3534  0.4628
  624TMC3     H 9246   0.029   0.503  16.567  2.7600  0.9207  0.7443
  624TMC3    H1 9247   0.227   0.489  16.190  0.8252  2.8657 -0.7146
  624TMC3    H2 9248   4.630   0.778  16.275  2.0158  1.9166  0.8365
  624TMC3    C7 9249   0.055   0.651  16.066  0.0429  0.1828  0.1647
  624TMC3    C8 9250   4.539   0.640  16.465  0.4589  0.4355  0.2984
  624TMC3    O1 9251   0.129   0.589  15.989 -0.5201 -0.4753 -0.2053
  624TMC3    O2 9252   4.480   0.749  16.455 -0.1164  0.2509  0.3396
  625MPD2     C 9253   4.611   1.051   0.768  0.0318  0.4545  0.0974
  625MPD2    C1 9254   4.696   1.149   0.714  0.5876 -0.2646 -0.7228
  625MPD2    C2 9255   0.102   1.112   0.663  0.1236  0.1187  0.3745
  625MPD2    C3 9256   0.140   0.976   0.663 -0.4953 -0.0590 -0.0357
  625MPD2    C4 9257   0.060   0.883   0.726 -0.2226 -0.2539 -0.2269
  625MPD2    C5 9258   4.661   0.925   0.782 -0.6551 -0.0527  0.4273
  625MPD2     H 9259   0.169   1.181   0.613 -0.2870 -1.3800 -2.2154
  625MPD2    H1 9260   0.092   0.780   0.740  1.4530  0.2461 -0.3919
  625MPD2    H2 9261   4.514   1.066   0.814  1.0926  1.6772  1.9383
  625MPD2    H3 9262   4.603   0.857   0.843 -3.0023 -0.4325 -2.2021
  625MPD2     N 9263   0.271   0.943   0.607 -0.0291 -0.2803 -0.0676
  625MPD2    H5 9264   0.343   1.012   0.589 -0.5064  0.5542  1.2450
  625MPD2    N1 9265   4.653   1.283   0.709 -0.4470  0.0697  0.1235
  625MPD2    H7 9266   4.712   1.345   0.655 -0.7921  3.1429  3.2590
  626TMC3    C1 9267   4.518   1.465   0.721 -0.9858 -0.0787  0.2706
  626TMC3    C2 9268   4.500   1.457   0.588 -0.3559 -0.6744 -0.5352
  626TMC3    C3 9269   4.383   1.513   0.534  0.2859  0.1515  0.2083
  626TMC3    C4 9270   4.424   1.527   0.798  1.3081  0.2454 -0.0247
  626TMC3    C5 9271   4.305   1.561   0.746 -0.4374 -1.4426 -0.2429
  626TMC3    C6 9272   4.284   1.557   0.608 -0.0528  0.1193 -0.3890
  626TMC3     C 9273   4.544   1.335   0.771  0.3905 -1.2537  0.5562
  626TMC3     O 9274   4.486   1.295   0.873 -0.0782 -0.3760 -0.0657
  626TMC3     H 9275   4.576   1.431   0.516 -0.5057 -1.1557 -0.5152
  626TMC3    H1 9276   4.409   1.516   0.904 -0.2102  0.3543 -0.2210
  626TMC3    H2 9277   4.195   1.605   0.569 -0.1023  0.7252  0.4774
  626TMC3    C7 9278   4.195   1.604   0.827  0.9203  0.0145 -0.1112
  626TMC3    C8 9279   4.379   1.531   0.390 -0.2582 -0.3612  1.1229
  626TMC3    O1 9280   4.220   1.653   0.939  0.4718 -0.1052 -0.5110
  626TMC3    O2 9281   4.335   1.631   0.341  0.2900 -0.2938  0.7344
  627MPD2     C 9282   3.744   2.139  14.319  0.6053  0.5099 -0.3138
  627MPD2    C1 9283   3.617   2.163  14.367 -0.2121  1.1947  0.4663
  627MPD2    C2 9284   3.514   2.077  14.337  0.7544  0.5282 -0.5105
  627MPD2    C3 9285   3.543   1.955  14.274  0.0540  0.0219 -0.2178
  627MPD2    C4 9286   3.672   1.934  14.244 -0.4716  0.5786  0.5243
  627MPD2    C5 9287   3.770   2.022  14.258  0.0832  0.1607  0.0044
  627MPD2     H 9288   3.415   2.097  14.377  0.9827 -0.1734  0.4189
  627MPD2    H1 9289   3.696   1.837  14.202 -0.7903  1.9618 -2.8673
  627MPD2    H2 9290   3.818   2.217  14.334  0.5379  0.2871  1.1818
  627MPD2    H3 9291   3.870   1.996  14.227  0.3531  1.6953 -0.3832
  627MPD2     N 9292   3.434   1.868  14.233 -0.3133 -0.3883 -0.1988
  627MPD2    H5 9293   3.339   1.895  14.257 -1.1415 -2.0278 -1.5645
  627MPD2    N1 9294   3.602   2.278  14.451  0.6265  0.0313 -1.1186
  627MPD2    H7 9295   3.685   2.318  14.495  0.3963 -1.9371  1.1303
  628TMC3    C1 9296   3.497   2.450  14.579 -0.1115 -0.4602  0.0815
  628TMC3    C2 9297   3.584   2.438  14.684  0.4277  0.3614  0.4049
  628TMC3    C3 9298   3.579   2.528  14.790  0.6800 -0.2807 -0.3095
  628TMC3    C4 9299   3.408   2.553  14.572  0.7630 -0.0164 -0.4219
  628TMC3    C5 9300   3.415   2.652  14.662 -0.3024 -0.0403  1.2599
  628TMC3    C6 9301   3.502   2.638  14.767  0.0986  0.1782  0.5967
  628TMC3     C 9302   3.482   2.343  14.474 -0.6591  0.3754  0.2125
  628TMC3     O 9303   3.375   2.328  14.420 -0.2770 -0.4337  0.5073
  628TMC3     H 9304   3.635   2.344  14.698 -2.1409 -0.8408  1.6715
  628TMC3    H1 9305   3.333   2.545  14.494  2.4485 -1.0927 -1.9493
  628TMC3    H2 9306   3.531   2.723  14.827 -1.5314  0.7900  0.4954
  628TMC3    C7 9307   3.344   2.774  14.644 -0.0868  0.2724  0.0426
  628TMC3    C8 9308   3.676   2.522  14.896 -0.3992  0.4332  0.0760
  628TMC3    O1 9309   3.361   2.854  14.737  0.0590 -0.2106  1.1269
  628TMC3    O2 9310   3.635   2.580  14.994  0.6599 -0.1634 -0.1492
  629MPD2     C 9311   1.312   0.424  15.771 -0.1003  0.2876 -0.8350
  629MPD2    C1 9312   1.346   0.389  15.900  0.9552 -0.2295  0.0677
  629MPD2    C2 9313   1.297   0.270  15.946  0.6570 -0.4193 -0.0658
  629MPD2    C3 9314   1.225   0.183  15.862  1.1036  0.4139 -0.6324
  629MPD2    C4 9315   1.186   0.228  15.740  0.2172 -0.0907 -0.6930
  629MPD2    C5 9316   1.231   0.348  15.689 -0.1075 -0.2436  0.4805
  629MPD2     H 9317   1.292   0.251  16.053  0.2985 -0.0832 -0.0207
  629MPD2    H1 9318   1.113   0.176  15.680  0.2477 -0.4815 -0.3871
  629MPD2    H2 9319   1.339   0.519  15.727 -1.0265  1.3985  1.0330
  629MPD2    H3 9320   1.202   0.376  15.589  0.7588  0.2210  0.3666
  629MPD2     N 9321   1.184   0.062  15.925  0.1588 -0.0025  0.4648
  629MPD2    H5 9322   1.208   0.049  16.023 -1.4642 -0.5917  0.7957
  629MPD2    N1 9323   1.413   0.466  15.995 -0.7648  0.0059  0.2370
  629MPD2    H7 9324   1.432   0.422  16.084  0.0945 -2.2375 -1.0588
  630TMC3    C1 9325   1.528   0.638  16.101  0.4338  0.3179 -0.3003
  630TMC3    C2 9326   1.621   0.739  16.086 -0.5427 -0.3615 -0.2576
  630TMC3    C3 9327   1.692   0.773  16.203 -0.2559 -0.3741 -0.1325
  630TMC3    C4 9328   1.522   0.568  16.223  0.1743  0.0021  0.1222
  630TMC3    C5 9329   1.587   0.615  16.337  0.0197  0.1149 -0.0055
  630TMC3    C6 9330   1.667   0.730  16.324  0.1615  0.8219 -0.1979
  630TMC3     C 9331   1.456   0.591  15.985 -0.6411  0.4486  0.4341
  630TMC3     O 9332   1.438   0.668  15.893  0.4948  0.4399  0.2330
  630TMC3     H 9333   1.645   0.771  15.985  0.4272 -2.0500 -0.5665
  630TMC3    H1 9334   1.446   0.493  16.238  1.8755 -2.3576 -3.1300
  630TMC3    H2 9335   1.733   0.761  16.405  0.5339  2.1182 -0.9864
  630TMC3    C7 9336   1.616   0.522  16.444 -0.1918  0.1999 -0.5182
  630TMC3    C8 9337   1.818   0.840  16.187  0.1654  0.1196 -0.3078
  630TMC3    O1 9338   1.679   0.563  16.540 -0.4523  0.2398 -0.5570
  630TMC3    O2 9339   1.910   0.804  16.260  0.0990 -0.4356 -0.2745
  631MPD2     C 9340   4.136   0.145  15.486 -0.2281  0.0753 -0.5012
  631MPD2    C1 9341   4.212   0.171  15.374 -0.3408  0.4809 -0.4967
  631MPD2    C2 9342   4.310   0.083  15.332  0.1062 -0.2443 -0.2311
  631MPD2    C3 9343   4.333   4.681  15.404  0.8162  0.3445 -0.1161
  631MPD2    C4 9344   4.255   4.650  15.514  0.8143 -0.1509  0.3698
  631MPD2    C5 9345   4.167   0.027  15.557  0.1530 -0.7548  0.0991
  631MPD2     H 9346   4.365   0.100  15.240 -0.9318 -0.6842 -0.9355
  631MPD2    H1 9347   4.252   4.560  15.575  0.1812 -0.8968 -0.7662
  631MPD2    H2 9348   4.075   0.225  15.526  0.8087  1.5617 -1.8978
  631MPD2    H3 9349   4.108   0.002  15.644 -0.5969 -0.2769 -0.2611
  631MPD2     N 9350   4.446   4.611  15.379  0.0185  0.2444 -0.1982
  631MPD2    H5 9351   4.493   4.636  15.292  1.0469 -2.0852 -0.3141
  631MPD2    N1 9352   4.192   0.299  15.309  0.3721 -0.2160  0.0913
  631MPD2    H7 9353   4.127   0.356  15.363  1.0538 -0.0204  0.7134
  632TMC3    C1 9354   4.212   0.485  15.158 -0.2545 -0.3080  0.0659
  632TMC3    C2 9355   4.108   0.560  15.214  0.2617 -0.0869 -0.0839
  632TMC3    C3 9356   4.112   0.692  15.182  0.2884  0.2504  0.0941
  632TMC3    C4 9357   4.301   0.536  15.068 -0.1353 -0.7949 -0.7498
  632TMC3    C5 9358   4.303   0.673  15.055  0.9085 -0.1175  0.7361
  632TMC3    C6 9359   4.203   0.750  15.093 -0.2001 -0.4286 -0.4016
  632TMC3     C 9360   4.253   0.351  15.200  0.6924  0.4323 -0.2955
  632TMC3     O 9361   4.343   0.301  15.135 -0.0639  0.3945 -0.4638
  632TMC3     H 9362   4.032   0.532  15.287  0.5648 -1.2312 -0.2081
  632TMC3    H1 9363   4.387   0.488  15.024  0.0991  0.3259 -1.5118
  632TMC3    H2 9364   4.189   0.851  15.055 -1.8129 -1.7928 -3.4753
  632TMC3    C7 9365   4.403   0.736  14.970 -0.1845 -0.8596  0.4320
  632TMC3    C8 9366   4.031   0.789  15.256  0.0731 -0.5992  0.4004
  632TMC3    O1 9367   4.363   0.807  14.872  0.8239 -0.3228  0.1255
  632TMC3    O2 9368   3.917   0.808  15.220 -0.3659  0.3077 -0.6315
  633MPD2     C 9369   4.604   3.186  17.324  0.2155  0.4215  0.0021
  633MPD2    C1 9370   4.684   3.139  17.225 -0.4611 -0.2516  0.5709
  633MPD2    C2 9371   0.020   3.011  17.240 -0.2407 -0.3736 -0.0639
  633MPD2    C3 9372   4.694   2.926  17.339 -0.4175  0.5158  0.6125
  633MPD2    C4 9373   4.624   2.973  17.438  0.2970 -0.5887  0.0288
  633MPD2    C5 9374   4.576   3.107  17.433  0.4130 -0.7501  0.0018
  633MPD2     H 9375   0.097   2.982  17.169 -0.1291  0.4364 -0.2763
  633MPD2    H1 9376   4.587   2.907  17.516  0.1488  0.4846  0.8747
  633MPD2    H2 9377   4.556   3.283  17.317  0.4631  0.5929  0.6659
  633MPD2    H3 9378   4.506   3.141  17.508 -1.3108 -2.1211 -0.9896
  633MPD2     N 9379   0.009   2.791  17.339  0.7614  0.2101  0.1106
  633MPD2    H5 9380   4.666   2.743  17.406 -1.3433 -1.1789 -2.7468
  633MPD2    N1 9381   4.708   3.215  17.101 -0.4750 -0.0726  0.1508
  633MPD2    H7 9382   0.046   3.171  17.028 -1.0270  1.1901 -1.0167
  634TMC3    C1 9383   4.673   3.384  16.940  0.5170 -0.2770 -0.3445
  634TMC3    C2 9384   0.037   3.317  16.854  0.5722 -0.3522 -0.3682
  634TMC3    C3 9385   0.033   3.349  16.722 -0.0440  0.2322 -0.5451
  634TMC3    C4 9386   4.588   3.488  16.895  0.5813  0.5088 -0.3979
  634TMC3    C5 9387   4.611   3.533  16.767  0.1461  0.5241  0.5341
  634TMC3    C6 9388   4.689   3.459  16.677 -0.4352  0.0001 -0.4555
  634TMC3     C 9389   4.652   3.335  17.071 -0.3517  0.2711  0.3866
  634TMC3     O 9390   4.604   3.421  17.147 -0.4656 -0.2467  0.3484
  634TMC3     H 9391   0.094   3.229  16.882 -0.2206 -0.8913 -0.4524
  634TMC3    H1 9392   4.526   3.546  16.963  3.1167  0.9508  1.5351
  634TMC3    H2 9393   0.002   3.500  16.581 -0.5261 -1.0776 -0.9455
  634TMC3    C7 9394   4.534   3.641  16.709  0.4984  0.5427 -0.3791
  634TMC3    C8 9395   0.049   3.242  16.629 -0.1352  0.2624 -0.1499
  634TMC3    O1 9396   4.545   3.644  16.586 -1.0020  0.4225  0.7923
  634TMC3    O2 9397   0.062   3.134  16.675 -0.2354  0.1664  0.2700
  635TMC3    C1 9398   1.389   4.284  17.648  0.2750  0.0342  0.1722
  635TMC3    C2 9399   1.411   4.207  17.537 -0.4156 -0.1737 -0.0569
  635TMC3    C3 9400   1.520   4.119  17.546 -0.3620 -0.6668 -0.4293
  635TMC3    C4 9401   1.451   4.273   0.097 -0.2024  0.6530 -0.3639
  635TMC3    C5 9402   1.543   4.174   0.109  0.2681  0.1024  0.6372
  635TMC3    C6 9403   1.588   4.105  17.669  0.1131 -0.5869 -0.6050
  635TMC3     C 9404   1.280   4.383  17.630  0.2226 -0.0644 -1.0216
  635TMC3     O 9405   1.215   4.381  17.525  0.0169  0.7630  0.3051
  635TMC3     H 9406   1.361   4.243  17.448 -0.7006  1.8468  0.9321
  635TMC3    H1 9407   1.440   4.345   0.178  0.3031 -1.0024  1.1676
  635TMC3    H2 9408   1.655   4.020   0.006  1.0029  0.0803 -1.0737
  635TMC3    C7 9409   1.644   4.176   0.217 -1.4141 -0.3853 -0.3375
  635TMC3    C8 9410   1.555   4.039  17.428 -0.6873  0.1757  0.2829
  635TMC3    O1 9411   1.755   4.137   0.186 -0.5711 -0.7175  0.4475
  635TMC3    O2 9412   1.637   3.959  17.464 -0.5613 -0.0343 -0.0368
  636MPD2     C 9413   1.186   3.542  15.183  0.8025  0.3334  0.1763
  636MPD2    C1 9414   1.213   3.567  15.318 -1.2498 -0.1328  0.8547
  636MPD2    C2 9415   1.235   3.456  15.392  0.2805  0.3770  0.0175
  636MPD2    C3 9416   1.209   3.327  15.346 -0.3163 -0.3399 -0.1511
  636MPD2    C4 9417   1.174   3.303  15.212  0.4616 -0.0019  0.5167
  636MPD2    C5 9418   1.163   3.416  15.131 -0.0144 -0.1797  0.2800
  636MPD2     H 9419   1.260   3.467  15.497  0.8475  0.3276 -0.1092
  636MPD2    H1 9420   1.140   3.206  15.177  0.3325  0.4566 -0.6374
  636MPD2    H2 9421   1.156   3.624  15.118  2.0039  1.7731  1.4292
  636MPD2    H3 9422   1.119   3.408  15.032  1.5954 -1.6463 -0.3378
  636MPD2     N 9423   1.216   3.224  15.441  0.1742 -0.6033  0.0582
  636MPD2    H5 9424   1.217   3.257  15.537 -2.5634 -1.5288  0.3945
  636MPD2    N1 9425   1.213   3.691  15.383  0.0029  0.0353  0.0289
  636MPD2    H7 9426   1.230   3.694  15.483  2.7382  0.7704 -0.4781
  637TMC3    C1 9427   1.255   3.017  15.533  0.7398 -0.6508 -0.1641
  637TMC3    C2 9428   1.205   3.071  15.648  0.3256  0.3478 -0.3436
  637TMC3    C3 9429   1.270   3.043  15.763 -0.5198  0.0225  0.0934
  637TMC3    C4 9430   1.362   2.933  15.535 -0.2724 -0.1934 -0.5005
  637TMC3    C5 9431   1.426   2.918  15.660  0.0934 -0.1618 -0.0932
  637TMC3    C6 9432   1.375   2.963  15.776  0.0775  1.0276 -0.6073
  637TMC3     C 9433   1.242   3.095  15.412 -0.2239 -0.4413  0.0562
  637TMC3     O 9434   1.289   3.061  15.305 -0.3178 -0.8085  0.6722
  637TMC3     H 9435   1.119   3.137  15.643  1.0650  1.3422  0.1710
  637TMC3    H1 9436   1.404   2.902  15.440  1.3689  0.4037  0.0344
  637TMC3    H2 9437   1.440   2.947  15.861 -0.2068  0.4906 -0.4885
  637TMC3    C7 9438   1.566   2.955  15.653  0.1979  0.5494 -0.9020
  637TMC3    C8 9439   1.300   3.172  15.828  0.2683 -0.3938 -0.1905
  637TMC3    O1 9440   1.623   3.006  15.748  0.1198 -0.0841 -0.0686
  637TMC3    O2 9441   1.303   3.260  15.744  0.0226 -0.3669 -0.0229
  638MPD2     C 9442   0.870   2.754  14.560 -0.2199 -0.2104 -0.6500
  638MPD2    C1 9443   0.854   2.631  14.493 -0.2395 -0.6216 -0.2991
  638MPD2    C2 9444   0.815   2.517  14.562  0.4585  0.2221 -0.2621
  638MPD2    C3 9445   0.793   2.519  14.697  0.2651 -0.2924 -0.6226
  638MPD2    C4 9446   0.814   2.638  14.769  0.2877  0.8937 -0.0136
  638MPD2    C5 9447   0.845   2.750  14.695 -0.4011  0.2842  0.3078
  638MPD2     H 9448   0.798   2.426  14.506 -1.6872 -0.0423  0.8146
  638MPD2    H1 9449   0.805   2.643  14.877  1.0060  0.8236  0.0525
  638MPD2    H2 9450   0.903   2.849  14.520  0.7725 -0.4410 -0.3924
  638MPD2    H3 9451   0.878   2.835  14.753  0.2497  0.0730  0.2452
  638MPD2     N 9452   0.753   2.391  14.761  0.3551 -0.5560  0.0695
  638MPD2    H5 9453   0.731   2.308  14.707 -1.0620  0.0161 -0.2078
  638MPD2    N1 9454   0.877   2.637  14.354 -0.7261  0.0504  0.7324
  638MPD2    H7 9455   0.946   2.705  14.323 -2.0007  1.3009  0.6085
  639TMC3    C1 9456   0.678   2.248  14.935 -0.4094 -0.7688 -0.4529
  639TMC3    C2 9457   0.569   2.202  14.859 -0.0243 -0.2826 -1.0296
  639TMC3    C3 9458   0.488   2.108  14.916 -0.7610  0.2964 -0.1792
  639TMC3    C4 9459   0.731   2.180  15.038  0.1312 -0.0283 -0.2697
  639TMC3    C5 9460   0.662   2.070  15.076 -0.3792 -0.4083 -0.1973
  639TMC3    C6 9461   0.541   2.044  15.029  0.3312  0.4833  0.5489
  639TMC3     C 9462   0.740   2.375  14.900 -0.1039  0.4924  0.2564
  639TMC3     O 9463   0.779   2.446  14.994  0.0288  0.0194  0.1153
  639TMC3     H 9464   0.536   2.260  14.773 -0.1928  0.6797 -0.3168
  639TMC3    H1 9465   0.818   2.219  15.090  2.3675 -3.8206 -1.1304
  639TMC3    H2 9466   0.483   1.957  15.056 -1.5569  1.1929 -1.2818
  639TMC3    C7 9467   0.732   1.954  15.126  0.6148  0.8761  0.1660
  639TMC3    C8 9468   0.430   2.020  14.820 -0.0675 -1.4537  0.1280
  639TMC3    O1 9469   0.661   1.866  15.182  0.2617 -0.3159  0.0367
  639TMC3    O2 9470   0.503   1.987  14.731 -0.3572  0.5040 -0.3028
  640MPD2     C 9471   1.353   1.020   9.545  0.4287 -0.2495 -0.2998
  640MPD2    C1 9472   1.408   1.122   9.473 -0.0307  0.1863 -0.2843
  640MPD2    C2 9473   1.325   1.222   9.438 -0.0810  0.1790  0.7245
  640MPD2    C3 9474   1.188   1.215   9.456  0.4900 -0.4644  0.4173
  640MPD2    C4 9475   1.131   1.116   9.529  0.1732 -0.6422 -0.3013
  640MPD2    C5 9476   1.220   1.017   9.571 -0.3706  0.1449 -0.5610
  640MPD2     H 9477   1.371   1.302   9.380  0.0809 -0.7946 -0.4804
  640MPD2    H1 9478   1.026   1.112   9.554  0.7614 -1.6311  2.0207
  640MPD2    H2 9479   1.421   0.941   9.575 -0.1520 -0.9066 -0.7231
  640MPD2    H3 9480   1.184   0.938   9.636 -0.9746  0.4727 -0.4981
  640MPD2     N 9481   1.107   1.311   9.421  0.4770 -0.4668  0.7322
  640MPD2    H5 9482   1.008   1.289   9.413  1.1836 -2.4198 -2.7676
  640MPD2    N1 9483   1.549   1.125   9.462 -0.4076  0.0701 -0.5413
  640MPD2    H7 9484   1.608   1.070   9.524  0.6258  0.3358 -1.2827
  641TMC3    C1 9485   1.766   1.185   9.398 -0.0653  0.0850  0.9924
  641TMC3    C2 9486   1.811   1.072   9.461  0.5673  0.6834 -0.1498
  641TMC3    C3 9487   1.950   1.070   9.476 -0.4254  1.1286  0.3244
  641TMC3    C4 9488   1.843   1.284   9.348  0.5204  0.4731  0.4541
  641TMC3    C5 9489   1.973   1.275   9.378 -0.8287 -0.2225  0.8920
  641TMC3    C6 9490   2.032   1.174   9.439 -0.4336 -0.8653 -0.8100
  641TMC3     C 9491   1.625   1.210   9.383 -0.0688 -0.5057  0.3043
  641TMC3     O 9492   1.587   1.291   9.305 -0.1802  0.0007  0.2664
  641TMC3     H 9493   1.755   0.979   9.465  1.6629 -0.0462 -1.5556
  641TMC3    H1 9494   1.812   1.368   9.287  0.1770 -0.6525 -0.8940
  641TMC3    H2 9495   2.139   1.173   9.457  0.1399  0.3067 -4.0506
  641TMC3    C7 9496   2.062   1.370   9.318  0.5286 -0.8570  0.1336
  641TMC3    C8 9497   2.003   0.941   9.511  0.3402 -0.8944 -0.3534
  641TMC3    O1 9498   2.174   1.378   9.367  0.0583  0.6774  0.4133
  641TMC3    O2 9499   2.100   0.902   9.447  0.0262  0.1001 -0.1280
  642TMC3    C1 9500   1.614   2.468  12.876 -0.4120  0.1707 -0.2108
  642TMC3    C2 9501   1.541   2.412  12.980 -0.3695 -0.3420  1.1217
  642TMC3    C3 9502   1.524   2.279  12.989 -1.1875  0.3426  0.4803
  642TMC3    C4 9503   1.659   2.377  12.780 -0.2933 -0.4487  0.5805
  642TMC3    C5 9504   1.648   2.244  12.798  0.0985  0.0692 -0.0240
  642TMC3    C6 9505   1.567   2.192  12.892  0.0976 -1.1381  0.4991
  642TMC3     C 9506   1.639   2.610  12.885 -0.7756 -0.7339  0.4838
  642TMC3     O 9507   1.596   2.672  12.981 -0.2254  0.8075  0.0308
  642TMC3     H 9508   1.497   2.475  13.056 -3.5664 -0.9072 -0.2307
  642TMC3    H1 9509   1.717   2.405  12.693 -0.5787 -1.0242  0.2079
  642TMC3    H2 9510   1.543   2.086  12.894 -2.0545 -0.6296  0.8805
  642TMC3    C7 9511   1.706   2.156  12.697 -0.0080 -0.6020 -0.1374
  642TMC3    C8 9512   1.463   2.223  13.106 -0.9435  0.3644  0.1941
  642TMC3    O1 9513   1.646   2.049  12.682  0.2043 -0.2478 -0.0860
  642TMC3    O2 9514   1.393   2.303  13.169  0.0161  0.1325  0.2781
  643TMC3    C1 9515   1.657   1.372   0.211  0.4733 -0.5965 -0.7774
  643TMC3    C2 9516   1.547   1.399   0.128  0.3207  0.1601 -0.3374
  643TMC3    C3 9517   1.544   1.363  17.669  0.5658  0.3064  0.9122
  643TMC3    C4 9518   1.768   1.317   0.155 -0.5048 -0.2600  0.0537
  643TMC3    C5 9519   1.765   1.289   0.017  0.6806  0.0569  0.3110
  643TMC3    C6 9520   1.653   1.300  17.609  0.0993 -0.2576  0.6127
  643TMC3     C 9521   1.653   1.415   0.348 -0.2165  0.1786 -0.5600
  643TMC3     O 9522   1.556   1.482   0.383 -0.6281  0.7853 -0.5960
  643TMC3     H 9523   1.456   1.442   0.166 -1.2221 -2.6911 -0.8426
  643TMC3    H1 9524   1.856   1.289   0.211 -0.0180  1.1828  0.0039
  643TMC3    H2 9525   1.644   1.293  17.502 -1.0375 -3.3210  0.9195
  643TMC3    C7 9526   1.889   1.290  17.615 -0.1447 -0.0547 -0.3993
  643TMC3    C8 9527   1.493   1.458  17.572 -0.1444 -0.2461 -0.4262
  643TMC3    O1 9528   1.987   1.339  17.666  0.4769 -0.2742  0.1646
  643TMC3    O2 9529   1.464   1.419  17.459  0.4364  0.0593  0.0730
  644MPD2     C 9530   1.740   1.814   9.123 -1.1873  0.0922 -0.3737
  644MPD2    C1 9531   1.711   1.726   9.226 -0.4797  1.2538 -0.1495
  644MPD2    C2 9532   1.594   1.649   9.216 -0.3378 -0.1479  0.0111
  644MPD2    C3 9533   1.517   1.642   9.099 -0.6474 -0.0537 -0.0826
  644MPD2    C4 9534   1.551   1.732   8.997  0.3306  0.8079  0.3830
  644MPD2    C5 9535   1.658   1.818   9.010  0.0687 -0.3619 -0.6395
  644MPD2     H 9536   1.562   1.573   9.286 -1.1338 -1.7071 -2.0517
  644MPD2    H1 9537   1.497   1.745   8.904 -0.1819 -2.0838  0.2679
  644MPD2    H2 9538   1.831   1.873   9.126  0.3775 -2.3428 -0.7400
  644MPD2    H3 9539   1.682   1.892   8.935 -2.3739  0.2931 -0.7685
  644MPD2     N 9540   1.414   1.551   9.098 -0.2615  0.4355  0.4006
  644MPD2    H5 9541   1.404   1.485   9.175 -0.4034 -0.3527 -0.3016
  644MPD2    N1 9542   1.803   1.719   9.335  0.3821 -0.5506 -0.8446
  644MPD2    H7 9543   1.876   1.788   9.332 -0.0013 -0.1237 -0.4648
  645TMC3    C1 9544   1.225   1.435   9.008 -0.1510  0.3989  0.5583
  645TMC3    C2 9545   1.121   1.461   8.919  1.0120 -0.6023  0.1004
  645TMC3    C3 9546   1.057   1.352   8.859 -0.1797  0.3137 -0.0402
  645TMC3    C4 9547   1.281   1.321   9.027 -0.2085  1.0909  0.0914
  645TMC3    C5 9548   1.220   1.222   8.958  0.0245  0.3584  0.8989
  645TMC3    C6 9549   1.116   1.229   8.871  1.1347  0.3574  0.0680
  645TMC3     C 9550   1.319   1.546   8.999  0.3401 -0.2646 -0.8094
  645TMC3     O 9551   1.306   1.621   8.905  0.0703 -0.5622  0.3145
  645TMC3     H 9552   1.085   1.563   8.909  3.8144  0.2468 -1.1715
  645TMC3    H1 9553   1.362   1.304   9.096 -1.4671 -0.3321  1.2165
  645TMC3    H2 9554   1.085   1.140   8.817  0.1944  1.4379 -1.1783
  645TMC3    C7 9555   1.271   1.087   8.980  0.0050  0.3982 -0.6265
  645TMC3    C8 9556   0.981   1.381   8.739  0.2989 -1.0502  0.2385
  645TMC3    O1 9557   1.211   0.995   8.926  0.5261 -0.5022  0.4099
  645TMC3    O2 9558   0.978   1.497   8.700 -0.0057  0.2941  0.6714
  646MPD2     C 9559   0.912   1.341  14.229  0.6195  0.9361 -0.2818
  646MPD2    C1 9560   0.803   1.306  14.311 -0.3341  0.1133 -0.0017
  646MPD2    C2 9561   0.677   1.368  14.292 -0.4983  0.2879  0.2169
  646MPD2    C3 9562   0.665   1.468  14.196  0.8929 -0.3852  0.3440
  646MPD2    C4 9563   0.778   1.517  14.137 -1.0209  0.6781  0.0696
  646MPD2    C5 9564   0.899   1.454  14.154  0.6035  0.1678  0.1867
  646MPD2     H 9565   0.586   1.332  14.340  0.7186 -0.8171  1.6878
  646MPD2    H1 9566   0.787   1.604  14.074 -0.1701 -0.3920 -1.3134
  646MPD2    H2 9567   1.013   1.303  14.238  0.6779  0.5880 -2.3681
  646MPD2    H3 9568   0.986   1.490  14.100 -0.0596  0.5092 -0.6483
  646MPD2     N 9569   0.537   1.526  14.173  0.2407 -0.1498  0.5947
  646MPD2    H5 9570   0.464   1.486  14.232 -0.1244 -0.0168  0.2340
  646MPD2    N1 9571   0.829   1.204  14.402 -0.6200 -0.4130  0.4948
  646MPD2    H7 9572   0.921   1.163  14.415 -0.2775  0.3685  0.5029
  647TMC3    C1 9573   0.788   1.047  14.574 -0.0349 -0.5584  0.5473
  647TMC3    C2 9574   0.712   0.933  14.593  0.9369  0.8347 -0.1916
  647TMC3    C3 9575   0.766   0.820  14.644 -0.1549  0.2673  0.0715
  647TMC3    C4 9576   0.921   1.043  14.612 -0.2701 -0.1953 -0.1649
  647TMC3    C5 9577   0.970   0.935  14.674 -0.6101 -0.3398  0.3623
  647TMC3    C6 9578   0.898   0.818  14.680 -0.8956  0.2562  0.2460
  647TMC3     C 9579   0.735   1.156  14.497  0.3305 -0.2753  0.3009
  647TMC3     O 9580   0.612   1.172  14.499 -0.1325 -0.3194  0.1366
  647TMC3     H 9581   0.609   0.932  14.558  0.5193 -0.9329  1.0478
  647TMC3    H1 9582   0.975   1.137  14.598 -0.8661  0.1280 -0.2825
  647TMC3    H2 9583   0.951   0.734  14.724 -2.7027 -0.5157  0.9413
  647TMC3    C7 9584   1.103   0.943  14.729 -0.0973  0.1018  0.4029
  647TMC3    C8 9585   0.681   0.702  14.670  0.6951 -0.8483 -0.1282
  647TMC3    O1 9586   1.122   0.863  14.821 -0.5492 -0.2275 -0.2686
  647TMC3    O2 9587   0.582   0.690  14.592  0.2351 -0.6866 -0.1584
  648TMC3    C1 9588   0.428   3.427  16.002  0.3523  0.2233  0.4612
  648TMC3    C2 9589   0.530   3.368  15.931 -0.5774  0.2869  0.4206
  648TMC3    C3 9590   0.526   3.383  15.794 -0.6556  0.4975  0.5485
  648TMC3    C4 9591   0.335   3.508  15.943  0.3633  0.5509 -0.0212
  648TMC3    C5 9592   0.335   3.513  15.804  0.5240 -0.2615  0.2034
  648TMC3    C6 9593   0.424   3.445  15.727 -0.4812  0.0486 -0.2561
  648TMC3     C 9594   0.431   3.428  16.142  0.1549 -0.7970 -0.3897
  648TMC3     O 9595   0.382   3.529  16.192  0.4212  0.0152 -0.6480
  648TMC3     H 9596   0.608   3.320  15.989  0.2779  1.2523  0.0573
  648TMC3    H1 9597   0.258   3.557  16.001  1.4884  1.1807  0.9523
  648TMC3    H2 9598   0.443   3.455  15.620  0.1328 -0.9727 -0.2447
  648TMC3    C7 9599   0.221   3.576  15.727  0.2119  0.5059 -1.1746
  648TMC3    C8 9600   0.580   3.280  15.706 -0.3917 -0.6934  0.5799
  648TMC3    O1 9601   0.205   3.545  15.605 -0.6135  0.0132 -0.4304
  648TMC3    O2 9602   0.699   3.262  15.691 -0.3829  0.1059  0.8452
  649TMC3    C1 9603   3.914   0.251  12.396 -0.6393  0.2935 -0.0749
  649TMC3    C2 9604   4.048   0.275  12.392  0.0579 -0.0822  0.3267
  649TMC3    C3 9605   4.118   0.271  12.507 -0.5284  0.2959 -0.0853
  649TMC3    C4 9606   3.846   0.220  12.514 -0.1475  0.4586 -0.3792
  649TMC3    C5 9607   3.921   0.205  12.627 -0.2696  0.4520 -0.2164
  649TMC3    C6 9608   4.057   0.225  12.622  0.1049  0.4641  0.5939
  649TMC3     C 9609   3.826   0.290  12.282 -0.1245  0.4108 -0.3231
  649TMC3     O 9610   3.718   0.339  12.319  0.1203  0.2642  0.1553
  649TMC3     H 9611   4.097   0.302  12.299  0.7781 -0.8318  0.4931
  649TMC3    H1 9612   3.740   0.202  12.509 -0.3314  1.5160 -0.3701
  649TMC3    H2 9613   4.115   0.203  12.712  2.4251 -1.3743 -1.3611
  649TMC3    C7 9614   3.849   0.154  12.746 -0.3274 -0.2463 -0.2690
  649TMC3    C8 9615   4.255   0.331  12.521  0.2155 -0.1718  0.2514
  649TMC3    O1 9616   3.739   0.203  12.773 -0.1446 -0.1084  0.1786
  649TMC3    O2 9617   4.322   0.315  12.620  0.7692 -0.0992 -0.0831
  650TMC3    C1 9618   1.292   2.160  12.683  0.3325  0.1860 -0.3005
  650TMC3    C2 9619   1.237   2.284  12.724  0.3067 -0.5166 -0.3931
  650TMC3    C3 9620   1.265   2.396  12.650 -0.0167 -0.2715  0.0820
  650TMC3    C4 9621   1.379   2.153  12.583  0.2549  0.2797 -0.1242
  650TMC3    C5 9622   1.403   2.262  12.507  0.3708 -0.0182 -0.1305
  650TMC3    C6 9623   1.351   2.389  12.544  0.0154  0.3631  0.6954
  650TMC3     C 9624   1.280   2.049  12.776  0.6416 -0.5268 -0.0433
  650TMC3     O 9625   1.215   2.064  12.875 -0.0900  0.5628  0.3401
  650TMC3     H 9626   1.175   2.290  12.813  1.6952 -2.2883  0.7078
  650TMC3    H1 9627   1.416   2.060  12.541 -2.1520  0.0172 -1.6723
  650TMC3    H2 9628   1.376   2.480  12.491  0.2345  0.9632  1.8379
  650TMC3    C7 9629   1.511   2.254  12.415  0.0534 -0.3817 -0.4231
  650TMC3    C8 9630   1.266   2.523  12.713 -0.3554  0.0283 -0.1353
  650TMC3    O1 9631   1.541   2.144  12.375  0.0029 -0.2605 -0.2554
  650TMC3    O2 9632   1.290   2.626  12.643  0.9186  0.1146 -0.3243
  651MPD2     C 9633   0.503   3.200  10.498 -0.4422  0.6365  0.4996
  651MPD2    C1 9634   0.465   3.332  10.507  0.4973  0.3354 -0.2433
  651MPD2    C2 9635   0.561   3.433  10.491 -0.4810  0.5453 -0.6264
  651MPD2    C3 9636   0.692   3.398  10.463 -0.4563  0.0437 -0.7517
  651MPD2    C4 9637   0.726   3.267  10.454  0.2479  0.6202  0.6889
  651MPD2    C5 9638   0.634   3.168  10.473 -0.0418  0.3132 -0.0868
  651MPD2     H 9639   0.538   3.539  10.494 -0.4773  0.5602 -1.0480
  651MPD2    H1 9640   0.828   3.237  10.435 -1.2770 -3.3190 -1.5061
  651MPD2    H2 9641   0.433   3.118  10.513 -2.2931  2.0729 -0.4036
  651MPD2    H3 9642   0.656   3.062  10.465 -2.4151 -0.2278  0.4412
  651MPD2     N 9643   0.789   3.505  10.458  0.2966  0.6474 -0.0751
  651MPD2    H5 9644   0.746   3.597  10.451 -0.0010  0.7218  2.4480
  651MPD2    N1 9645   0.334   3.382  10.515 -0.4248  0.5023 -0.0840
  651MPD2    H7 9646   0.321   3.481  10.534  0.9590  0.6197  0.2538
  652TMC3    C1 9647   1.180   3.763  10.463 -0.0275 -0.6808  0.5500
  652TMC3    C2 9648   1.124   3.640  10.466  0.1952 -1.3947  0.5077
  652TMC3    C3 9649   0.987   3.625  10.451 -0.0730 -0.6650  0.2186
  652TMC3    C4 9650   1.101   3.879  10.473  0.2998  0.0419 -0.0397
  652TMC3    C5 9651   0.966   3.864  10.479 -0.6328  0.0429 -0.1706
  652TMC3    C6 9652   0.910   3.741  10.465 -0.4415 -0.5357  0.1141
  652TMC3     C 9653   1.318   3.787  10.433 -0.1527  0.0427  0.4331
  652TMC3     O 9654   1.400   3.706  10.475 -0.0604 -0.1380  0.2774
  652TMC3     H 9655   1.187   3.552  10.459  0.6280 -0.8042 -2.8125
  652TMC3    H1 9656   1.142   3.977  10.497 -0.3251  0.3315 -0.1352
  652TMC3    H2 9657   0.804   3.735  10.487 -0.7324  0.4818 -0.9775
  652TMC3    C7 9658   0.872   3.969  10.528 -0.1899 -0.3208 -0.1473
  652TMC3    C8 9659   0.926   3.493  10.452  0.4284 -0.6238  0.0596
  652TMC3    O1 9660   0.758   3.934  10.556 -0.4054 -0.9051  0.3494
  652TMC3    O2 9661   0.997   3.392  10.439 -0.2139  0.7391 -0.1306
  653MPD2     C 9662   4.436   2.990   0.126 -0.1670  0.0781  0.4112
  653MPD2    C1 9663   4.372   3.087   0.048 -0.8327  0.6442  0.7499
  653MPD2    C2 9664   4.283   3.050  17.618 -0.2962 -0.7380  0.1558
  653MPD2    C3 9665   4.266   2.919  17.585 -0.4129 -0.0373  0.2336
  653MPD2    C4 9666   4.332   2.825  17.666  0.2546  0.9391 -0.9431
  653MPD2    C5 9667   4.408   2.863   0.105  0.4830 -0.2946 -0.1217
  653MPD2     H 9668   4.239   3.126  17.554 -0.4088  1.1880  2.5594
  653MPD2    H1 9669   4.332   2.720  17.642  0.5603  0.7319 -0.0434
  653MPD2    H2 9670   4.499   3.012   0.212 -0.7636  1.0580  0.5954
  653MPD2    H3 9671   4.455   2.786   0.165  1.2693  0.7105  0.5521
  653MPD2     N 9672   4.199   2.888  17.468 -0.4740  0.2688  0.0142
  653MPD2    H5 9673   4.153   2.966  17.420  2.9562  1.4897 -1.2592
  653MPD2    N1 9674   4.390   3.229   0.073 -0.2597  0.3052 -0.4043
  653MPD2    H7 9675   4.342   3.295   0.013  0.7514  0.3662 -1.1444
  654TMC3    C1 9676   4.091   2.755  17.303 -0.2247 -0.4441  0.3335
  654TMC3    C2 9677   4.100   2.847  17.201  0.5930 -0.4067  0.0047
  654TMC3    C3 9678   4.060   2.810  17.072  0.3280 -0.6607 -0.3023
  654TMC3    C4 9679   4.075   2.619  17.270 -0.7947 -0.5980  0.0272
  654TMC3    C5 9680   4.037   2.586  17.142  0.2765  0.8094  0.4130
  654TMC3    C6 9681   4.032   2.679  17.043 -0.9202  0.1671 -0.3551
  654TMC3     C 9682   4.181   2.762  17.419  0.5431  0.2487  0.5335
  654TMC3     O 9683   4.220   2.659  17.467  0.7817  0.2799  0.3350
  654TMC3     H 9684   4.124   2.951  17.215 -1.8501 -0.0411  1.5248
  654TMC3    H1 9685   4.085   2.539  17.341  1.3117  0.9163  1.4235
  654TMC3    H2 9686   3.990   2.652  16.947 -0.9832  0.4442 -0.4074
  654TMC3    C7 9687   4.013   2.448  17.119  0.1265 -0.2958 -0.3700
  654TMC3    C8 9688   4.030   2.912  16.975 -0.4139 -0.3344 -0.6551
  654TMC3    O1 9689   3.921   2.421  17.043  0.3280  0.4068  0.4080
  654TMC3    O2 9690   4.012   3.021  17.017  0.3951  0.5880  0.6855
  655MPD2     C 9691   0.780   3.637  15.495  0.3594  0.0789 -0.2435
  655MPD2    C1 9692   0.648   3.654  15.456 -0.2481  0.2904  0.0105
  655MPD2    C2 9693   0.605   3.610  15.332  0.2372 -0.4267 -0.3730
  655MPD2    C3 9694   0.688   3.531  15.253 -1.0837  0.7437  0.1274
  655MPD2    C4 9695   0.816   3.512  15.297 -0.4199 -0.4416  0.5322
  655MPD2    C5 9696   0.861   3.562  15.416 -0.9501  0.1863 -0.1037
  655MPD2     H 9697   0.504   3.619  15.295  0.0679  1.7707  0.5922
  655MPD2    H1 9698   0.893   3.469  15.235 -0.6660  0.8360 -0.6546
  655MPD2    H2 9699   0.812   3.683  15.588 -1.8978 -0.6933  0.9233
  655MPD2    H3 9700   0.965   3.556  15.444 -0.8495 -4.3053 -1.2780
  655MPD2     N 9701   0.634   3.478  15.133 -0.4104 -0.4930  0.2686
  655MPD2    H5 9702   0.533   3.473  15.124 -0.3124 -1.1533 -0.4004
  655MPD2    N1 9703   0.553   3.729  15.528  0.1245 -0.3806 -0.3274
  655MPD2    H7 9704   0.461   3.737  15.486  1.1309  0.9106 -2.3491
  656TMC3    C1 9705   0.457   3.866  15.695  0.5569  0.8310 -0.0842
  656TMC3    C2 9706   0.434   3.882  15.829  0.3342 -0.4383 -0.8021
  656TMC3    C3 9707   0.327   3.952  15.866 -0.1281 -0.2548 -0.6632
  656TMC3    C4 9708   0.378   3.918  15.596 -0.2150 -0.0079  0.1684
  656TMC3    C5 9709   0.260   3.991  15.640 -0.2233  0.2913 -0.2300
  656TMC3    C6 9710   0.241   4.018  15.778  0.0269 -0.4949 -0.0007
  656TMC3     C 9711   0.565   3.785  15.655  0.5609  0.3394  0.0341
  656TMC3     O 9712   0.648   3.760  15.743 -0.5341 -0.0712 -1.1854
  656TMC3     H 9713   0.511   3.848  15.896 -0.7180 -0.0388  0.6156
  656TMC3    H1 9714   0.392   3.898  15.490  0.7756 -1.5253  0.5961
  656TMC3    H2 9715   0.142   4.049  15.809 -0.2550 -0.2331 -1.1449
  656TMC3    C7 9716   0.162   4.030  15.535  0.3107  0.5316 -0.3392
  656TMC3    C8 9717   0.290   3.911  15.995 -0.0649  0.8416 -0.1810
  656TMC3    O1 9718   0.204   4.014  15.421 -0.2396 -0.3694 -0.3872
  656TMC3    O2 9719   0.330   3.801  16.020  0.0666 -0.4736 -0.0304
  657TMC3    C1 9720   4.606   3.301  14.363 -0.4631 -0.5071  0.7257
  657TMC3    C2 9721   4.536   3.247  14.469 -0.5192 -0.7823 -0.6664
  657TMC3    C3 9722   4.405   3.287  14.487 -0.5476 -0.1650  0.6985
  657TMC3    C4 9723   4.547   3.384  14.269  0.0434 -0.4248  0.0099
  657TMC3    C5 9724   4.424   3.434  14.310 -0.1730  0.0744  0.2185
  657TMC3    C6 9725   4.347   3.378  14.407 -0.5007 -0.5991  0.6674
  657TMC3     C 9726   0.036   3.304  14.364 -0.7493  0.0465 -0.2157
  657TMC3     O 9727   0.082   3.398  14.298  0.3415  0.3180  0.0414
  657TMC3     H 9728   4.582   3.166  14.524  0.2049  0.6353  0.8133
  657TMC3    H1 9729   4.603   3.431  14.189 -0.7004  1.0733  0.3762
  657TMC3    H2 9730   4.246   3.411  14.425 -0.2532  0.2728  0.4437
  657TMC3    C7 9731   4.362   3.551  14.244  0.5640 -0.5948  0.1372
  657TMC3    C8 9732   4.320   3.221  14.579  0.1859 -0.4810 -0.1973
  657TMC3    O1 9733   4.248   3.587  14.270  0.4732  0.1075  0.2159
  657TMC3    O2 9734   4.228   3.291  14.618  0.3076 -0.3150  0.5635
  658MPD2     C 9735   0.989   3.444  14.432  0.6328  0.4397 -0.7639
  658MPD2    C1 9736   0.853   3.449  14.426 -0.8100 -0.0156  0.4579
  658MPD2    C2 9737   0.790   3.465  14.300  0.1820  0.5859  0.3617
  658MPD2    C3 9738   0.865   3.479  14.185  0.2060  0.5873  0.7756
  658MPD2    C4 9739   1.002   3.481  14.199 -0.3839 -0.0597 -0.0006
  658MPD2    C5 9740   1.063   3.461  14.319 -0.5723  0.3259 -0.5025
  658MPD2     H 9741   0.682   3.461  14.293  0.3683 -2.6753 -0.2020
  658MPD2    H1 9742   1.070   3.496  14.115  0.1365 -2.0720  0.0515
  658MPD2    H2 9743   1.046   3.453  14.524 -1.3118  3.7685  0.0973
  658MPD2    H3 9744   1.171   3.467  14.324 -0.5491 -1.1294  0.8136
  658MPD2     N 9745   0.804   3.490  14.060  0.1612 -0.0540 -0.0144
  658MPD2    H5 9746   0.702   3.495  14.061  0.1144 -0.9885 -0.5281
  658MPD2    N1 9747   0.787   3.413  14.544 -1.0074 -0.0992  0.2618
  658MPD2    H7 9748   0.838   3.381  14.626  2.8396  2.4842 -1.1361
  659TMC3    C1 9749   0.608   3.355  14.687 -0.3339  0.6387  0.0689
  659TMC3    C2 9750   0.680   3.364  14.798  0.4803  0.0744  0.3455
  659TMC3    C3 9751   0.614   3.380  14.920  0.4764 -0.3659  0.0537
  659TMC3    C4 9752   0.469   3.342  14.697  0.2866  0.2789 -0.0587
  659TMC3    C5 9753   0.419   3.338  14.823 -0.0325  0.1606  0.4233
  659TMC3    C6 9754   0.484   3.351  14.940 -0.3168 -0.5270  0.0562
  659TMC3     C 9755   0.658   3.426  14.567  0.4176 -0.5279 -0.0882
  659TMC3     O 9756   0.574   3.483  14.504  0.1064 -0.1117  0.4866
  659TMC3     H 9757   0.787   3.377  14.790  0.5050 -1.4034 -1.6696
  659TMC3    H1 9758   0.402   3.334  14.612 -0.2079 -0.1666  0.3707
  659TMC3    H2 9759   0.445   3.331  15.039  0.1834  0.7109  0.5074
  659TMC3    C7 9760   0.272   3.335  14.831  0.6445 -0.6272  0.9923
  659TMC3    C8 9761   0.704   3.411  15.034  0.1138 -0.0191  0.5152
  659TMC3    O1 9762   0.231   3.302  14.943  0.6324  0.0109  0.0773
  659TMC3    O2 9763   0.824   3.383  15.020 -0.1284  0.1771 -0.0167
  660MPD2     C 9764   3.365   2.779  12.716  0.0316 -0.0555  0.3297
  660MPD2    C1 9765   3.244   2.766  12.650  0.3974 -0.9532  0.3664
  660MPD2    C2 9766   3.154   2.680  12.699 -0.4028  0.5353  1.0142
  660MPD2    C3 9767   3.178   2.608  12.815  0.8998 -0.1786  0.3488
  660MPD2    C4 9768   3.302   2.624  12.875  0.4087  0.1969  0.0196
  660MPD2    C5 9769   3.395   2.709  12.823  0.8524 -0.2585 -0.3146
  660MPD2     H 9770   3.056   2.674  12.654  0.3164 -0.8874 -0.3278
  660MPD2    H1 9771   3.324   2.569  12.966  1.4435  1.7689  0.7075
  660MPD2    H2 9772   3.434   2.853  12.678 -0.2931  1.1290  2.0419
  660MPD2    H3 9773   3.490   2.727  12.871  2.0340 -0.4951 -2.5565
  660MPD2     N 9774   3.093   2.509  12.869 -0.1355 -0.0615 -0.5169
  660MPD2    H5 9775   3.120   2.477  12.962  2.3661  0.1166 -1.1898
  660MPD2    N1 9776   3.213   2.832  12.530 -0.0978  0.4019 -0.2780
  660MPD2    H7 9777   3.116   2.828  12.500 -0.1060 -0.2703 -0.1543
  661TMC3    C1 9778   3.221   2.982  12.345  0.3392 -0.7446 -0.5578
  661TMC3    C2 9779   3.290   2.989  12.226  0.3296 -0.1929  0.0338
  661TMC3    C3 9780   3.218   3.006  12.114  0.1256  0.0068  0.2920
  661TMC3    C4 9781   3.084   2.981  12.363  0.1358 -0.2738  0.7197
  661TMC3    C5 9782   3.024   3.001  12.245  0.0868  0.3753  0.5851
  661TMC3    C6 9783   3.080   3.011  12.120  0.3157 -0.3264  0.0737
  661TMC3     C 9784   3.295   2.916  12.453 -0.3233  0.6196 -0.1249
  661TMC3     O 9785   3.415   2.938  12.451 -0.2822  0.1191 -0.0793
  661TMC3     H 9786   3.398   2.992  12.224  0.3647 -1.6750  0.2698
  661TMC3    H1 9787   3.029   2.982  12.456 -0.4581  0.1015  0.3663
  661TMC3    H2 9788   3.021   3.041  12.034 -2.2043 -2.1149  1.1480
  661TMC3    C7 9789   2.883   2.993  12.248  0.1371  0.5382  0.0498
  661TMC3    C8 9790   3.287   2.945  12.001  0.2837 -0.1786 -0.4246
  661TMC3    O1 9791   2.834   3.017  12.359 -0.9793 -0.0175 -0.3086
  661TMC3    O2 9792   3.381   2.874  12.024 -0.2725  0.0683 -0.1636
  662MPD2     C 9793   3.831   1.872  17.429  0.4955  0.8395 -0.9764
  662MPD2    C1 9794   3.777   1.781  17.513 -0.4369  0.8119 -0.6093
  662MPD2    C2 9795   3.667   1.824  17.593 -0.0302 -0.0795 -0.4517
  662MPD2    C3 9796   3.617   1.953  17.580 -0.3351 -0.1199  0.1698
  662MPD2    C4 9797   3.675   2.042  17.494 -1.1304 -0.1903 -0.4463
  662MPD2    C5 9798   3.783   2.003  17.419 -0.0739  0.7558  0.0991
  662MPD2     H 9799   3.629   1.753  17.666  1.1590 -1.2046 -0.9254
  662MPD2    H1 9800   3.622   2.134  17.474 -1.9041 -0.5420 -0.0295
  662MPD2    H2 9801   3.916   1.843  17.368  0.9337 -0.9596  0.4857
  662MPD2    H3 9802   3.831   2.072  17.350 -0.3905 -0.0814 -0.9464
  662MPD2     N 9803   3.499   1.995  17.649 -0.1381  0.0810  0.1490
  662MPD2    H5 9804   3.477   2.094  17.643 -1.3438 -0.2978 -1.8794
  662MPD2    N1 9805   3.809   1.640  17.518 -0.0475  0.7352  0.3759
  662MPD2    H7 9806   3.746   1.587  17.578  1.7743 -0.1275  1.5244
  663TMC3    C1 9807   3.891   1.430  17.448 -0.1347 -0.1875  0.5847
  663TMC3    C2 9808   3.819   1.385  17.555 -0.3751 -0.0697  0.0844
  663TMC3    C3 9809   3.718   1.297  17.543 -0.6872  0.1803 -0.7088
  663TMC3    C4 9810   3.877   1.372  17.330 -0.0058  0.3261 -0.1266
  663TMC3    C5 9811   3.784   1.271  17.313 -0.0058  0.1804  0.1323
  663TMC3    C6 9812   3.706   1.232  17.419  0.0516 -0.6210  0.1383
  663TMC3     C 9813   3.895   1.579  17.433 -0.1482 -0.1013  0.3308
  663TMC3     O 9814   3.969   1.630  17.350  0.3564 -0.4791 -0.1000
  663TMC3     H 9815   3.811   1.444  17.645 -1.2926 -0.6595  0.3871
  663TMC3    H1 9816   3.923   1.418  17.243 -0.5229  1.4255  0.1790
  663TMC3    H2 9817   3.623   1.163  17.408  1.5810 -2.1802 -1.8555
  663TMC3    C7 9818   3.773   1.203  17.191  0.3300  0.1424 -0.4529
  663TMC3    C8 9819   3.598   1.369  17.591  1.4511 -0.4701 -0.3526
  663TMC3    O1 9820   3.804   1.267  17.091  0.2279  1.2134  0.1477
  663TMC3    O2 9821   3.585   1.480  17.543  0.3462  0.2040 -0.1437
  664MPD2     C 9822   1.737   4.589  17.522  0.6441 -0.7781 -0.8893
  664MPD2    C1 9823   1.728   0.011  17.549  1.1247 -0.2572 -0.6036
  664MPD2    C2 9824   1.678   0.052   0.003 -0.4708  0.1263  0.3711
  664MPD2    C3 9825   1.650   4.676   0.099  0.6413 -0.2827 -0.2535
  664MPD2    C4 9826   1.657   4.543   0.065  0.3761 -0.1733  0.1907
  664MPD2    C5 9827   1.697   4.499  17.615 -0.1492  0.2173  0.1631
  664MPD2     H 9828   1.662   0.158   0.016  1.5521  0.7632 -2.4106
  664MPD2    H1 9829   1.645   4.459   0.133 -1.4392 -0.7224 -0.7998
  664MPD2    H2 9830   1.754   4.550  17.423  0.2540 -2.1406 -0.4295
  664MPD2    H3 9831   1.688   4.393  17.595  3.1204 -0.2054  0.8614
  664MPD2     N 9832   1.593   0.005   0.223  0.0653 -0.0730 -0.2886
  664MPD2    H5 9833   1.591   0.105   0.240  0.0032 -0.4821  2.1474
  664MPD2    N1 9834   1.762   0.112  17.460 -0.1964 -0.0739 -0.6660
  664MPD2    H7 9835   1.771   0.201  17.507 -1.5625 -0.3067  0.0591
  665TMC3    C1 9836   1.497   4.711   0.436 -0.1440  0.1379  1.1581
  665TMC3    C2 9837   1.394   4.673   0.510  0.7116  0.4511  0.5530
  665TMC3    C3 9838   1.377   4.713   0.646  0.2041 -0.8708  0.2862
  665TMC3    C4 9839   1.586   0.084   0.481  0.2642 -0.3013 -0.3691
  665TMC3    C5 9840   1.559   0.144   0.606 -0.4547  0.3701 -0.6928
  665TMC3    C6 9841   1.457   0.098   0.688  0.6166  0.4827 -0.5537
  665TMC3     C 9842   1.535   4.639   0.313  0.1892 -0.3616 -0.6573
  665TMC3     O 9843   1.495   4.523   0.309  0.2960 -0.1156 -0.2563
  665TMC3     H 9844   1.321   4.604   0.467  0.2864  0.9075  0.5400
  665TMC3    H1 9845   1.677   0.117   0.432  0.8219 -0.2925  0.6767
  665TMC3    H2 9846   1.442   0.144   0.785  2.6242 -0.8013  0.3465
  665TMC3    C7 9847   1.615   0.277   0.631 -0.0403 -0.1897  0.0892
  665TMC3    C8 9848   1.240   0.017   0.691  0.0906  0.5807  0.6010
  665TMC3    O1 9849   1.644   0.346   0.536  0.6123  0.8058  0.4521
  665TMC3    O2 9850   1.212   4.682   0.796  0.1687  0.2175  0.5870
  666TMC3    C1 9851   1.040   0.176   9.535  0.9893  0.3713  0.5941
  666TMC3    C2 9852   1.121   0.137   9.645 -0.0474 -0.2457  0.2896
  666TMC3    C3 9853   1.190   0.232   9.709 -0.1685  1.2677 -0.4360
  666TMC3    C4 9854   1.035   0.309   9.493  0.7661 -0.1465 -0.3196
  666TMC3    C5 9855   1.101   0.398   9.569 -0.3592 -0.6023  0.3215
  666TMC3    C6 9856   1.168   0.364   9.679 -0.2550 -0.0673 -0.2085
  666TMC3     C 9857   0.988   0.075   9.440 -0.6169 -0.6841 -0.4381
  666TMC3     O 9858   0.956   0.121   9.332  0.2107 -0.4817  0.2366
  666TMC3     H 9859   1.156   0.035   9.657  2.8683  0.7206 -0.0515
  666TMC3    H1 9860   0.959   0.330   9.418  2.8508 -0.2855 -2.4507
  666TMC3    H2 9861   1.233   0.439   9.722 -2.8581  0.8152  2.0787
  666TMC3    C7 9862   1.054   0.535   9.559  0.0688 -0.6747 -0.8688
  666TMC3    C8 9863   1.271   0.192   9.820  0.2577  0.2295  0.0197
  666TMC3    O1 9864   1.055   0.613   9.652 -0.5678 -0.5527  0.5818
  666TMC3    O2 9865   1.223   0.091   9.879 -0.2802 -0.3364 -0.0653
  667MPD2     C 9866   2.415   0.636  14.454 -0.0616  0.1617 -0.6014
  667MPD2    C1 9867   2.411   0.583  14.577  0.1090 -0.2083  0.0521
  667MPD2    C2 9868   2.287   0.543  14.628  0.0354  0.4199 -0.2189
  667MPD2    C3 9869   2.169   0.568  14.553  0.0280 -0.2101 -0.4515
  667MPD2    C4 9870   2.177   0.624  14.427 -0.9040  0.1735 -0.5018
  667MPD2    C5 9871   2.299   0.663  14.383 -0.1512 -0.4866 -0.5231
  667MPD2     H 9872   2.290   0.479  14.715  0.6667  3.2246  1.7870
  667MPD2    H1 9873   2.089   0.643  14.367  0.6210  3.8080 -1.6020
  667MPD2    H2 9874   2.499   0.672  14.396  1.0685  0.4860  1.2606
  667MPD2    H3 9875   2.303   0.708  14.284  0.7170  2.7240  0.9784
  667MPD2     N 9876   2.037   0.530  14.584 -0.2121  0.4382 -0.0381
  667MPD2    H5 9877   1.963   0.544  14.517 -0.1931  0.0805 -0.1348
  667MPD2    N1 9878   2.526   0.558  14.660 -0.4421  0.1255  0.2209
  667MPD2    H7 9879   2.503   0.550  14.758 -1.8892 -2.1994 -0.3178
  668TMC3    C1 9880   2.747   0.575  14.728 -0.4815 -0.7364  0.1962
  668TMC3    C2 9881   2.852   0.667  14.711 -0.3876  0.1221 -0.5487
  668TMC3    C3 9882   2.936   0.680  14.814 -0.9494  0.5295  0.0997
  668TMC3    C4 9883   2.734   0.488  14.834 -0.4520 -0.4076  0.2935
  668TMC3    C5 9884   2.827   0.503  14.925 -0.1113  0.6991  0.0651
  668TMC3    C6 9885   2.926   0.595  14.917  0.2474  0.4593  0.1987
  668TMC3     C 9886   2.654   0.579  14.621 -0.1191 -0.3977 -0.0294
  668TMC3     O 9887   2.710   0.608  14.514 -0.2471 -0.6462 -0.3477
  668TMC3     H 9888   2.841   0.754  14.647  0.6485  0.5116 -0.1923
  668TMC3    H1 9889   2.661   0.408  14.830  0.3400 -1.1526  1.0821
  668TMC3    H2 9890   2.976   0.610  15.012 -1.1179  1.7540  0.7017
  668TMC3    C7 9891   2.814   0.433  15.051 -0.4118  0.1081 -0.0049
  668TMC3    C8 9892   2.976   0.811  14.852 -0.0845  0.2081 -0.5266
  668TMC3    O1 9893   2.914   0.412  15.115 -0.1958 -0.0486  0.2373
  668TMC3    O2 9894   2.982   0.833  14.975 -0.0675 -0.1075  0.0156
  669TMC3    C1 9895   0.834   0.452  14.213 -0.3745  0.1393 -0.3079
  669TMC3    C2 9896   0.716   0.496  14.159 -0.1586  0.4570  0.1309
  669TMC3    C3 9897   0.719   0.590  14.060 -0.3647 -0.0897  0.1565
  669TMC3    C4 9898   0.956   0.489  14.169  0.1743 -0.0320 -0.3628
  669TMC3    C5 9899   0.951   0.589  14.075  0.2162 -0.6514 -0.8412
  669TMC3    C6 9900   0.837   0.640  14.014 -0.6563  0.1900  0.5676
  669TMC3     C 9901   0.825   0.335  14.301 -0.2631  0.8945  0.3047
  669TMC3     O 9902   0.723   0.266  14.292 -0.3423  0.4722  0.1148
  669TMC3     H 9903   0.621   0.477  14.208 -0.4239 -1.2773 -1.0583
  669TMC3    H1 9904   1.052   0.449  14.200  0.1644 -1.1198 -1.7413
  669TMC3    H2 9905   0.850   0.722  13.945  0.2916 -0.0107  0.5164
  669TMC3    C7 9906   1.078   0.646  14.021 -0.4856  0.4039 -0.3714
  669TMC3    C8 9907   0.590   0.624  14.000 -0.0242  0.2186  0.2623
  669TMC3    O1 9908   1.169   0.672  14.097 -0.1321  0.1499  0.1353
  669TMC3    O2 9909   0.504   0.539  14.009  0.7356 -0.0977 -0.5866
  670MPD2     C 9910   3.731   3.068  13.174  0.1959 -0.5092 -0.1921
  670MPD2    C1 9911   3.801   3.034  13.290  0.2441 -0.0440  0.3637
  670MPD2    C2 9912   3.727   2.978  13.397 -0.0915 -0.3748  0.0780
  670MPD2    C3 9913   3.596   2.952  13.396 -0.0223  0.3565 -0.3607
  670MPD2    C4 9914   3.530   2.993  13.278  0.4759  0.9011 -0.4601
  670MPD2    C5 9915   3.596   3.036  13.164 -0.5037 -0.3885 -0.5689
  670MPD2     H 9916   3.782   2.945  13.485  2.3425 -0.2011 -1.3792
  670MPD2    H1 9917   3.423   2.989  13.261  0.3910  2.3937 -0.2880
  670MPD2    H2 9918   3.784   3.085  13.081 -0.5754  1.8527 -0.1827
  670MPD2    H3 9919   3.542   3.051  13.071 -0.2069 -1.4279 -0.9121
  670MPD2     N 9920   3.535   2.916  13.520 -0.0743  0.9356  0.3135
  670MPD2    H5 9921   3.589   2.907  13.605 -0.5575  0.5098  0.5747
  670MPD2    N1 9922   3.943   3.040  13.308 -0.0535 -0.2705 -0.1547
  670MPD2    H7 9923   3.980   3.013  13.398 -1.4700  0.8553  0.7751
  671TMC3    C1 9924   3.356   2.879  13.671 -0.2918 -0.5271 -0.2154
  671TMC3    C2 9925   3.440   2.913  13.780 -0.1678 -0.0367  0.5918
  671TMC3    C3 9926   3.386   2.887  13.901  0.4723 -1.4848  0.1981
  671TMC3    C4 9927   3.244   2.807  13.685  0.1362 -0.0370  0.1838
  671TMC3    C5 9928   3.195   2.778  13.805 -0.1651  0.6572  0.4204
  671TMC3    C6 9929   3.270   2.816  13.913 -0.1335  0.4310 -0.1750
  671TMC3     C 9930   3.398   2.905  13.534  0.4634 -0.2359 -0.1285
  671TMC3     O 9931   3.306   2.921  13.453 -0.6475  0.2893 -0.1035
  671TMC3     H 9932   3.527   2.977  13.770  1.1084 -1.9532 -0.5884
  671TMC3    H1 9933   3.184   2.767  13.604  0.8963  0.2791 -0.5349
  671TMC3    H2 9934   3.221   2.811  14.010  0.9691 -0.3994  0.3340
  671TMC3    C7 9935   3.154   2.644  13.807  0.2041 -0.3994 -0.3837
  671TMC3    C8 9936   3.482   2.830  13.992 -0.1908 -0.3216  0.1901
  671TMC3    O1 9937   3.181   2.560  13.722  0.2950  0.2469  0.1193
  671TMC3    O2 9938   3.457   2.827  14.111  0.0960 -0.7742  0.0467
  672MPD2     C 9939   3.727   2.310   0.825 -0.7057  0.3033 -0.1217
  672MPD2    C1 9940   3.786   2.433   0.803 -0.0011  0.4694  0.6560
  672MPD2    C2 9941   3.755   2.534   0.894  0.2472  0.6681  0.0829
  672MPD2    C3 9942   3.664   2.512   0.991  0.2826 -0.4361  0.3320
  672MPD2    C4 9943   3.600   2.390   0.998 -0.6122  0.0181 -0.0961
  672MPD2    C5 9944   3.639   2.285   0.922  0.2589  0.4309 -0.1425
  672MPD2     H 9945   3.804   2.630   0.890  0.9260  0.4108  2.1958
  672MPD2    H1 9946   3.520   2.373   1.070  0.1215  0.8058  0.9041
  672MPD2    H2 9947   3.751   2.235   0.750  1.8147  0.3216  0.6520
  672MPD2    H3 9948   3.602   2.186   0.945 -1.5886  1.0740 -0.3372
  672MPD2     N 9949   3.651   2.608   1.095 -1.0411  0.0420  0.0069
  672MPD2    H5 9950   3.598   2.594   1.180  0.0650  1.4516  0.9275
  672MPD2    N1 9951   3.874   2.443   0.697  0.5368  0.5645  0.1292
  672MPD2    H7 9952   3.895   2.352   0.658  1.0041  1.2874 -1.3095
  673TMC3    C1 9953   3.987   2.563   0.522 -0.0317 -0.5030  0.2224
  673TMC3    C2 9954   4.074   2.463   0.505 -0.0914 -0.4223 -0.5117
  673TMC3    C3 9955   4.122   2.444   0.373 -1.4115  0.1034 -0.4425
  673TMC3    C4 9956   3.951   2.641   0.411 -0.1454 -0.2645 -0.3481
  673TMC3    C5 9957   4.015   2.623   0.292 -0.1565 -0.0406  1.0986
  673TMC3    C6 9958   4.105   2.523   0.269 -0.4743 -1.2273  0.0646
  673TMC3     C 9959   3.908   2.563   0.637 -0.6069 -0.1599  0.4086
  673TMC3     O 9960   3.869   2.674   0.663 -0.5381 -0.0974 -0.4908
  673TMC3     H 9961   4.083   2.391   0.585  0.3650 -0.4918 -0.6265
  673TMC3    H1 9962   3.865   2.706   0.418  0.4686  0.4180  0.9109
  673TMC3    H2 9963   4.163   2.510   0.178  0.7025 -0.6961  0.7410
  673TMC3    C7 9964   3.984   2.707   0.179  0.3113 -0.2120  0.1471
  673TMC3    C8 9965   4.224   2.337   0.359 -0.1627  0.4992  0.0173
  673TMC3    O1 9966   4.032   2.671   0.071 -0.4097  0.4362  0.1626
  673TMC3    O2 9967   4.246   2.281   0.256 -0.4323  0.5323 -1.0187
  674MPD2     C 9968   3.834   2.349   0.056  0.2302 -0.1458  0.8820
  674MPD2    C1 9969   3.819   2.259   0.159 -0.6715  0.1250 -0.8506
  674MPD2    C2 9970   3.755   2.291   0.278 -0.6412  1.2130 -0.0787
  674MPD2    C3 9971   3.699   2.417   0.287  0.0608  0.0397 -0.1490
  674MPD2    C4 9972   3.712   2.509   0.185 -0.1573 -0.1925 -0.3847
  674MPD2    C5 9973   3.779   2.473   0.073 -0.1497  0.5015  0.5204
  674MPD2     H 9974   3.741   2.215   0.353  0.3765  1.5188  0.4347
  674MPD2    H1 9975   3.681   2.613   0.184  0.4530  0.0039  1.5402
  674MPD2    H2 9976   3.880   2.333  17.629 -1.3266 -0.7162  0.2335
  674MPD2    H3 9977   3.794   2.545  17.663  0.2911 -0.3921 -0.1978
  674MPD2     N 9978   3.638   2.450   0.409  0.4075  1.0308  0.0760
  674MPD2    H5 9979   3.646   2.374   0.476 -0.4069 -0.4094 -1.4661
  674MPD2    N1 9980   3.883   2.136   0.134 -0.0037  0.1947  0.2196
  674MPD2    H7 9981   3.922   2.129   0.041  0.7269 -0.5059  0.5844
  675TMC3    C1 9982   3.996   1.933   0.166 -0.4667  0.5369  0.2883
  675TMC3    C2 9983   3.976   1.804   0.203 -0.5049  1.2248  0.4773
  675TMC3    C3 9984   4.067   1.709   0.153 -0.6730 -0.1960  0.3088
  675TMC3    C4 9985   4.099   1.970   0.079 -0.1443  0.4857 -0.2151
  675TMC3    C5 9986   4.184   1.872   0.036  0.0277  0.5922  0.1706
  675TMC3    C6 9987   4.167   1.741   0.067  0.0319 -0.9857 -0.1667
  675TMC3     C 9988   3.910   2.036   0.226  0.4857  0.6624 -0.4358
  675TMC3     O 9989   3.874   2.023   0.343 -0.8394 -0.5346 -0.7735
  675TMC3     H 9990   3.893   1.773   0.266 -0.9295 -0.1693 -0.7701
  675TMC3    H1 9991   4.112   2.078   0.078 -0.4043  0.5140 -0.7498
  675TMC3    H2 9992   4.220   1.674   0.001 -0.3785  0.0847 -1.5756
  675TMC3    C7 9993   4.318   1.912  17.668  0.0423  0.2369  0.1781
  675TMC3    C8 9994   4.026   1.569   0.147  0.2356 -0.7037 -0.3002
  675TMC3    O1 9995   4.414   1.840   0.025  0.0351 -0.3816  0.3505
  675TMC3    O2 9996   4.075   1.513   0.056  0.2174 -0.0427 -0.0403
  676MPD2     C 9997   1.571   1.823  10.761 -0.2868  0.1877  0.3057
  676MPD2    C1 9998   1.559   1.754  10.874  0.2379 -0.8440  0.3556
  676MPD2    C2 9999   1.569   1.621  10.875  0.4302 -0.4147  0.1627
  676MPD2    C310000   1.612   1.555  10.761  0.9753 -0.0633 -0.3783
  676MPD2    C410001   1.618   1.627  10.640  0.2096  0.3823  0.1398
  676MPD2    C510002   1.593   1.758  10.641 -0.1352 -0.0064  0.3114
  676MPD2     H10003   1.559   1.569  10.970 -0.1544 -1.6646 -0.5819
  676MPD2    H110004   1.635   1.582  10.543 -0.1505  1.7772 -0.5687
  676MPD2    H210005   1.557   1.931  10.762  0.1203  0.2369  0.8327
  676MPD2    H310006   1.595   1.810  10.546 -1.7808 -2.3309 -1.0008
  676MPD2     N10007   1.618   1.410  10.746  0.1105 -0.6349 -0.5207
  676MPD2    H510008   1.636   1.377  10.652  1.8186  1.3893 -0.9008
  676MPD2    N110009   1.536   1.818  10.999 -0.0574  0.4834 -0.2565
  676MPD2    H710010   1.533   1.768  11.088 -1.0273 -1.1214 -1.1985
  677TMC3    C110011   1.483   1.989  11.155 -0.3025 -0.1095 -0.3765
  677TMC3    C210012   1.416   1.899  11.243 -0.1318 -0.2270 -0.2649
  677TMC3    C310013   1.350   1.955  11.347  0.6967 -0.8911 -0.1106
  677TMC3    C410014   1.475   2.123  11.173 -0.1227  0.0681  0.1777
  677TMC3    C510015   1.405   2.167  11.282 -0.1029 -0.5213 -0.2536
  677TMC3    C610016   1.345   2.089  11.375 -0.4829  0.6162  0.0202
  677TMC3     C10017   1.518   1.952  11.019 -0.9400  0.2900 -0.1506
  677TMC3     O10018   1.531   2.051  10.945  0.3291 -0.1333  0.3258
  677TMC3     H10019   1.403   1.791  11.236  2.5528 -0.5846  0.2263
  677TMC3    H110020   1.505   2.191  11.094  1.7919 -0.9979 -0.0244
  677TMC3    H210021   1.302   2.128  11.466  0.2327  1.8626 -0.1694
  677TMC3    C710022   1.459   2.288  11.342 -0.0742 -0.8054 -0.2899
  677TMC3    C810023   1.371   1.884  11.474  0.1421  0.1843  0.4115
  677TMC3    O110024   1.385   2.345  11.420 -0.4105 -0.1334  0.7232
  677TMC3    O210025   1.471   1.815  11.481  0.0447 -0.4193  0.6121
  678MPD2     C10026   2.671   0.497   1.753  0.2865  0.1704  0.3211
  678MPD2    C110027   2.667   0.519   1.612  0.8331 -0.4458 -0.7221
  678MPD2    C210028   2.575   0.612   1.563  0.2527  0.1221 -0.2252
  678MPD2    C310029   2.492   0.677   1.653  0.2592  0.4591 -1.1031
  678MPD2    C410030   2.483   0.639   1.783 -0.4551 -0.0460 -0.1017
  678MPD2    C510031   2.575   0.547   1.827 -0.1791 -0.5822 -0.2310
  678MPD2     H10032   2.576   0.642   1.459 -1.1701 -1.4144 -0.6908
  678MPD2    H110033   2.409   0.682   1.850 -1.1554 -1.1343 -0.1718
  678MPD2    H210034   2.739   0.428   1.801 -0.5636 -1.3626 -0.6989
  678MPD2    H310035   2.570   0.518   1.931  1.2916 -0.1641 -0.0496
  678MPD2     N10036   2.404   0.773   1.597 -0.2592 -0.4618  0.6184
  678MPD2    H510037   2.405   0.779   1.496 -1.6382 -3.5250  0.4339
  678MPD2    N110038   2.761   0.456   1.527  1.4976 -0.2046 -0.6640
  678MPD2    H710039   2.750   0.483   1.430  0.4438  0.1223 -0.4544
  679TMC3    C110040   3.116   0.216   1.362  0.1720  0.0062 -0.3978
  679TMC3    C210041   3.035   0.241   1.464 -0.3231  0.1230 -0.8312
  679TMC3    C310042   2.956   0.354   1.463  0.2326  0.1361  0.1285
  679TMC3    C410043   3.120   0.296   1.252 -0.2791 -0.5219  0.4016
  679TMC3    C510044   3.042   0.409   1.251 -0.7293  0.2562  0.6065
  679TMC3    C610045   2.957   0.434   1.345 -0.5332 -0.1095  0.0108
  679TMC3     C10046   3.242   0.141   1.378 -0.5300 -0.0404  0.3068
  679TMC3     O10047   3.287   0.099   1.270 -0.5909  0.0862 -1.0834
  679TMC3     H10048   3.033   0.177   1.552  2.5328  1.4408  0.1692
  679TMC3    H110049   3.195   0.281   1.176  0.4504  0.7442  0.8877
  679TMC3    H210050   2.912   0.532   1.347 -1.8014 -0.7839  4.6922
  679TMC3    C710051   3.015   0.474   1.124 -0.1732 -0.0962  0.3515
  679TMC3    C810052   2.849   0.353   1.564 -0.2270  0.5388 -0.3868
  679TMC3    O110053   2.947   0.572   1.123 -0.1799 -0.6659 -0.1430
  679TMC3    O210054   2.865   0.288   1.667 -0.1927  1.0760  0.5168
  680MPD2     C10055   3.315   0.560  13.364  0.4116 -0.0692  0.3859
  680MPD2    C110056   3.431   0.493  13.405 -0.4104 -0.1300  0.2677
  680MPD2    C210057   3.532   0.570  13.458 -0.9580 -0.7209  0.6055
  680MPD2    C310058   3.524   0.706  13.470  0.0221  0.2538  0.5988
  680MPD2    C410059   3.412   0.770  13.422 -0.2047 -0.1180  0.1857
  680MPD2    C510060   3.311   0.691  13.365  0.0214  0.0980 -0.0604
  680MPD2     H10061   3.614   0.518  13.505 -0.3468 -2.0305 -1.8893
  680MPD2    H110062   3.401   0.877  13.428 -0.5486 -0.1786  0.6874
  680MPD2    H210063   3.221   0.511  13.340  0.5964 -0.1850 -0.1060
  680MPD2    H310064   3.219   0.737  13.332  0.4014  0.6811 -0.3138
  680MPD2     N10065   3.619   0.793  13.523  0.1027 -0.5002 -0.2748
  680MPD2    H510066   3.603   0.893  13.517  2.3054 -0.0945  0.3659
  680MPD2    N110067   3.431   0.352  13.423 -0.0633  0.0115 -0.1054
  680MPD2    H710068   3.521   0.306  13.439 -0.1275 -1.2763 -3.4334
  681TMC3    C110069   3.353   0.137  13.431  0.1627 -0.2934  0.2765
  681TMC3    C210070   3.289   0.070  13.531 -0.1584  0.0098 -0.0623
  681TMC3    C310071   3.306   4.656  13.523  0.2966 -0.2217 -0.4509
  681TMC3    C410072   3.423   0.079  13.327  0.6068  0.2814 -0.4078
  681TMC3    C510073   3.440   4.657  13.329 -0.1854  0.4469 -0.0830
  681TMC3    C610074   3.377   4.588  13.429 -0.4714 -0.3176 -0.2349
  681TMC3     C10075   3.324   0.275  13.429 -0.0477  0.6338  0.2029
  681TMC3     O10076   3.211   0.309  13.463 -0.1892  0.2256  0.1825
  681TMC3     H10077   3.233   0.115  13.612  1.1485  1.0979  0.2303
  681TMC3    H110078   3.469   0.145  13.254  2.7540  1.7260  2.2515
  681TMC3    H210079   3.390   4.481  13.442 -1.7274 -0.5171 -0.6832
  681TMC3    C710080   3.521   4.586  13.234 -0.9540 -0.1858  0.6054
  681TMC3    C810081   3.252   4.578  13.624 -0.2902 -0.0428  0.0356
  681TMC3    O110082   3.518   4.465  13.238  0.7386  0.0345 -0.3161
  681TMC3    O210083   3.208   4.465  13.593  0.2308  0.5866  0.0787
  682MPD2     C10084   0.806   1.536  10.008  0.5400 -0.8123 -0.0975
  682MPD2    C110085   0.743   1.412  10.007  0.1132  0.7168  0.3989
  682MPD2    C210086   0.744   1.331  10.121 -0.2625  0.0582  0.7132
  682MPD2    C310087   0.827   1.372  10.223  0.2379  0.0183  0.3784
  682MPD2    C410088   0.890   1.494  10.221  0.0913  0.1698  0.1215
  682MPD2    C510089   0.877   1.578  10.117 -0.2924  0.0002  0.2474
  682MPD2     H10090   0.684   1.242  10.135 -0.3032  0.0540  0.5140
  682MPD2    H110091   0.954   1.527  10.302 -0.3781 -0.3246  0.6904
  682MPD2    H210092   0.801   1.603   9.923  0.7136 -1.6619 -0.7865
  682MPD2    H310093   0.934   1.670  10.111 -1.6864  0.9323  1.5118
  682MPD2     N10094   0.850   1.281  10.337 -0.4809 -0.1729  1.7080
  682MPD2    H510095   0.901   1.321  10.415  1.6864 -3.7923  2.1678
  682MPD2    N110096   0.669   1.356   9.900  1.0212 -0.0188  1.5271
  682MPD2    H710097   0.621   1.268   9.918 -2.1591  1.4250 -0.0446
  683TMC3    C110098   0.802   1.105  10.700 -0.9643  0.2811  1.0375
  683TMC3    C210099   0.789   0.967  10.710 -0.0205 -0.1362  0.2450
  683TMC3    C310100   0.817   0.891  10.600 -0.3605 -0.0026 -0.2833
  683TMC3    C410101   0.827   1.167  10.582 -0.6633  0.1244  0.5013
  683TMC3    C510102   0.841   1.091  10.470  0.5210  0.2698 -0.5275
  683TMC3    C610103   0.835   0.954  10.477 -0.0937  1.1781 -0.5767
  683TMC3     C10104   0.784   1.189  10.815  0.0973 -0.0418  0.3640
  683TMC3     O10105   0.738   1.302  10.819  0.1288 -0.2466 -0.3535
  683TMC3     H10106   0.748   0.921  10.799 -1.3653  0.6532  0.0337
  683TMC3    H110107   0.800   1.272  10.578  1.0773  0.5779  0.8818
  683TMC3    H210108   0.863   0.898  10.388  1.0191 -0.5706  0.8651
  683TMC3    C710109   0.827   1.147  10.336 -0.0155  0.4146 -0.5226
  683TMC3    C810110   0.782   0.747  10.600 -0.0628  0.3919 -0.0755
  683TMC3    O110111   0.807   1.073  10.243 -0.0231 -0.1537 -0.3602
  683TMC3    O210112   0.744   0.696  10.495  0.1125  0.0094 -0.6532
  684MPD2     C10113   3.597   1.202  15.693 -0.0364 -0.3257  0.4974
  684MPD2    C110114   3.729   1.191  15.735  0.5568  0.1138 -0.8067
  684MPD2    C210115   3.792   1.295  15.791  0.3458 -0.4408  0.4078
  684MPD2    C310116   3.717   1.408  15.820  0.4272 -0.4295 -0.0588
  684MPD2    C410117   3.590   1.420  15.766 -0.3462  0.0225  0.4693
  684MPD2    C510118   3.529   1.319  15.703 -0.0252 -0.1248  0.0808
  684MPD2     H10119   3.891   1.279  15.833  1.0339  2.7256  0.0157
  684MPD2    H110120   3.528   1.508  15.782  0.8518  1.1098 -0.7732
  684MPD2    H210121   3.535   1.121  15.656  0.8282 -1.5642  1.7648
  684MPD2    H310122   3.432   1.333  15.657  0.0616  1.5712  0.3939
  684MPD2     N10123   3.767   1.516  15.896 -0.5571  0.6209 -0.0826
  684MPD2    H510124   3.714   1.603  15.897 -0.3596  0.7596 -1.6564
  684MPD2    N110125   3.800   1.060  15.725 -0.0850  0.5754 -0.0413
  684MPD2    H710126   3.892   1.053  15.766 -0.2731 -0.4618  0.1835
  685TMC3    C110127   3.850   0.853  15.658 -0.1202 -1.0757  0.0502
  685TMC3    C210128   3.836   0.749  15.569  0.4790  0.5811  0.4742
  685TMC3    C310129   3.946   0.661  15.559 -0.1889  0.1892  0.1366
  685TMC3    C410130   3.965   0.865  15.735  0.6383 -0.6767  0.7965
  685TMC3    C510131   4.074   0.790  15.708  0.5662  0.0641 -0.1860
  685TMC3    C610132   4.072   0.692  15.615 -0.3370 -0.2365  0.9874
  685TMC3     C10133   3.761   0.963  15.646  0.6985  0.3338 -0.4589
  685TMC3     O10134   3.661   0.950  15.574 -0.0135 -0.0750 -0.3325
  685TMC3     H10135   3.735   0.734  15.534  1.3245 -5.2646  0.4983
  685TMC3    H110136   3.975   0.929  15.822  3.7551 -1.4120  0.9969
  685TMC3    H210137   4.157   0.632  15.583  1.0504  2.0358  0.4015
  685TMC3    C710138   4.199   0.817  15.780  0.0610 -0.1063  0.4363
  685TMC3    C810139   3.921   0.526  15.512  0.0754 -0.7432 -0.4334
  685TMC3    O110140   4.185   0.845  15.900 -0.3198  0.2311 -0.1841
  685TMC3    O210141   4.021   0.459  15.484  0.5231  0.2186  0.2085
  686MPD2     C10142   4.589   0.154  14.976  0.4569  0.2026 -0.3996
  686MPD2    C110143   4.648   0.135  15.099  0.1529  0.1437  0.4430
  686MPD2    C210144   0.029   0.042  15.112  0.7691  0.7165 -0.7037
  686MPD2    C310145   0.053   4.660  15.022 -0.3164 -0.3327  0.4220
  686MPD2    C410146   4.703   4.677  14.901 -0.5782  0.1938 -0.1451
  686MPD2    C510147   4.623   0.066  14.877 -0.0991  0.2929  0.0358
  686MPD2     H10148   0.085   0.029  15.205  1.3135 -2.7284 -1.4977
  686MPD2    H110149   0.011   4.616  14.814  3.7284 -0.9344  1.8580
  686MPD2    H210150   4.514   0.228  14.950 -0.1178  0.1446  1.1077
  686MPD2    H310151   4.575   0.074  14.780  2.0332  0.3913 -1.0104
  686MPD2     N10152   0.126   4.540  15.040  0.1017  0.4100  0.1788
  686MPD2    H510153   0.142   4.487  14.954 -0.4412  1.0125 -0.2885
  686MPD2    N110154   4.609   0.226  15.207 -0.0400  0.2409  0.2946
  686MPD2    H710155   4.535   0.290  15.179  1.9824  2.4801  0.0581
  687TMC3    C110156   0.121   4.530  15.279  0.0632 -0.5702  0.5022
  687TMC3    C210157   4.703   4.530  15.307  0.1488 -0.9328 -0.1132
  687TMC3    C310158   4.665   4.503  15.435 -0.1037  1.1377 -0.0263
  687TMC3    C410159   0.209   4.508  15.385 -0.0648 -0.0612 -0.2935
  687TMC3    C510160   0.170   4.468  15.511  0.1651 -0.6023  0.3666
  687TMC3    C610161   0.039   4.476  15.545 -0.1088  0.0105  0.0612
  687TMC3     C10162   0.183   4.493  15.153  0.8359  0.0856  0.8597
  687TMC3     O10163   0.287   4.432  15.161 -1.3288 -0.0844 -0.6011
  687TMC3     H10164   4.624   4.540  15.234  1.2593  2.9124 -0.7640
  687TMC3    H110165   0.316   4.518  15.368 -0.3732  1.3969 -1.4185
  687TMC3    H210166   4.716   4.459  15.645 -1.1476 -0.4585 -0.4327
  687TMC3    C710167   0.276   4.469  15.612  0.1713 -0.0786 -0.2458
  687TMC3    C810168   4.522   4.533  15.469  0.2743 -0.1375  0.5229
  687TMC3    O110169   0.392   4.482  15.577  0.5824  0.2067  0.6920
  687TMC3    O210170   4.501   4.532  15.590 -0.4687  0.2004  0.8623
  688MPD2     C10171   0.208   3.875  17.648  0.9162 -0.2045 -0.0451
  688MPD2    C110172   0.163   3.749  17.605  0.2090 -0.3894 -0.0913
  688MPD2    C210173   0.216   3.705  17.483 -0.4952 -0.6584 -0.2479
  688MPD2    C310174   0.297   3.781  17.402 -0.7947 -0.3320  0.5737
  688MPD2    C410175   0.333   3.906  17.444  0.4475  0.0450  0.9445
  688MPD2    C510176   0.294   3.947  17.573  0.0589  0.1777  1.0303
  688MPD2     H10177   0.186   3.603  17.459 -1.2840 -0.6514  0.7288
  688MPD2    H110178   0.394   3.969  17.380  0.4671 -3.2761 -2.2729
  688MPD2    H210179   0.188   3.913   0.078  3.3619  0.0079  0.3467
  688MPD2    H310180   0.334   4.045  17.599  1.3474  0.0937 -0.5821
  688MPD2     N10181   0.329   3.749  17.268  0.5846 -0.1994  0.3011
  688MPD2    H510182   0.365   3.820  17.204 -0.8861  0.2763  0.0057
  688MPD2    N110183   0.068   3.675   0.006 -0.1626 -0.7484  0.2509
  688MPD2    H710184   0.038   3.595  17.622  0.3183 -0.6013 -0.2328
  689TMC3    C110185   4.621   3.628   0.159  0.0614 -0.1648 -0.2418
  689TMC3    C210186   4.509   3.701   0.207 -0.2541  0.5225  0.1445
  689TMC3    C310187   4.385   3.641   0.222 -0.0225 -0.1569  0.1393
  689TMC3    C410188   4.610   3.492   0.133  0.0215 -0.3017 -0.2605
  689TMC3    C510189   4.484   3.435   0.156  0.4741  0.1149  0.7923
  689TMC3    C610190   4.375   3.502   0.209 -0.0376  0.8670 -0.2753
  689TMC3     C10191   0.019   3.708   0.130 -0.4890 -0.4347 -0.0638
  689TMC3     O10192   0.039   3.802   0.204 -0.1001  0.0930  0.6045
  689TMC3     H10193   4.524   3.806   0.233 -0.2131  0.1442  1.6490
  689TMC3    H110194   4.697   3.436   0.102  0.2077  1.1855 -2.4059
  689TMC3    H210195   4.288   3.443   0.238  0.4695 -0.2312 -0.9533
  689TMC3    C710196   4.485   3.289   0.151  0.2213 -0.4939 -0.6219
  689TMC3    C810197   4.289   3.692   0.314  0.1164  0.2047 -0.0828
  689TMC3    O110198   4.583   3.229   0.198 -0.0624 -0.0686 -0.2762
  689TMC3    O210199   4.271   3.622   0.413  0.2235  0.3640  0.5805
  690MPD2     C10200   1.698   1.195  15.478  0.8163  0.2665  0.8883
  690MPD2    C110201   1.716   1.221  15.345 -0.0565 -0.1792 -0.9363
  690MPD2    C210202   1.849   1.238  15.302  0.0311  0.1918  0.3154
  690MPD2    C310203   1.949   1.255  15.394  0.0978 -0.1019 -0.5020
  690MPD2    C410204   1.929   1.240  15.530 -0.2862  0.0314 -0.0456
  690MPD2    C510205   1.804   1.195  15.566 -0.3285  0.0857  0.0979
  690MPD2     H10206   1.864   1.258  15.196  0.8650  0.9711  0.5846
  690MPD2    H110207   2.006   1.244  15.606  1.5278  0.7694 -1.9269
  690MPD2    H210208   1.600   1.165  15.514  1.6721 -3.5805  0.0080
  690MPD2    H310209   1.791   1.185  15.673  0.9579 -1.0824  0.1397
  690MPD2     N10210   2.075   1.308  15.352 -0.3665 -0.8698 -0.2818
  690MPD2    H510211   2.089   1.344  15.258  0.9437 -1.0055 -0.1342
  690MPD2    N110212   1.604   1.215  15.256  0.3083  0.2403 -0.4801
  690MPD2    H710213   1.621   1.217  15.156 -0.3605  1.0913 -0.5789
  691TMC3    C110214   1.380   1.174  15.201  0.3478  0.3338  0.1148
  691TMC3    C210215   1.252   1.205  15.236 -0.5355 -0.0975 -0.5270
  691TMC3    C310216   1.158   1.107  15.203  0.2677  0.9240  0.6546
  691TMC3    C410217   1.413   1.051  15.150 -0.2704 -0.2405 -0.7567
  691TMC3    C510218   1.313   0.958  15.120  0.6535 -0.8740 -0.8068
  691TMC3    C610219   1.188   0.988  15.144 -0.3103  0.3022 -0.5963
  691TMC3     C10220   1.476   1.232  15.295  0.2368  0.1947 -0.9312
  691TMC3     O10221   1.429   1.271  15.400  0.6207 -0.6571 -0.1390
  691TMC3     H10222   1.222   1.298  15.283 -0.7227 -0.7929  0.7089
  691TMC3    H110223   1.515   1.018  15.132 -0.4818 -1.2451 -0.1095
  691TMC3    H210224   1.114   0.919  15.106 -0.7936  0.8226 -0.6080
  691TMC3    C710225   1.361   0.820  15.111 -0.4461 -0.6566 -0.1945
  691TMC3    C810226   1.019   1.119  15.242  0.1550  0.1077 -0.5951
  691TMC3    O110227   1.463   0.795  15.058  0.5263  0.7215 -0.1996
  691TMC3    O210228   0.949   1.028  15.201 -0.0820  0.2278 -0.1192
  692TMC3    C110229   3.534   2.895  15.983  0.3898  0.3827  0.4567
  692TMC3    C210230   3.664   2.939  16.015  0.6985 -0.1441  0.1939
  692TMC3    C310231   3.768   2.867  15.953  0.2567 -0.1989 -0.1114
  692TMC3    C410232   3.508   2.776  15.914  0.0219  0.6698  0.1896
  692TMC3    C510233   3.621   2.694  15.908 -0.0620 -0.4995 -0.5780
  692TMC3    C610234   3.750   2.735  15.927 -0.9477  0.3979 -0.5173
  692TMC3     C10235   3.416   2.964  16.038  0.2482  0.8981 -1.4403
  692TMC3     O10236   3.316   2.892  16.049  0.7090 -0.1734 -0.1401
  692TMC3     H10237   3.685   3.046  16.012  2.2351 -0.4479 -0.2520
  692TMC3    H110238   3.407   2.738  15.899 -0.3267  2.4211 -1.8982
  692TMC3    H210239   3.822   2.663  15.890 -0.0405  0.1904  1.6812
  692TMC3    C710240   3.583   2.571  15.850 -0.2682  0.0395 -0.2697
  692TMC3    C810241   3.894   2.876  16.018  0.4729  0.1795  0.7057
  692TMC3    O110242   3.504   2.573  15.758 -0.5072  0.0148 -0.2119
  692TMC3    O210243   3.991   2.862  15.943 -0.0225 -0.9347 -0.4428
  693MPD2     C10244   2.905   0.693  10.203  0.1663  0.0119  0.3052
  693MPD2    C110245   2.888   0.561  10.252 -1.4155  0.2102 -0.6863
  693MPD2    C210246   2.997   0.473  10.248  0.4233 -0.3975  0.5108
  693MPD2    C310247   3.120   0.520  10.205  0.2213  0.3099 -0.7820
  693MPD2    C410248   3.133   0.646  10.157  0.4586 -0.5754 -0.8530
  693MPD2    C510249   3.027   0.731  10.158  0.1948  0.5415 -0.3691
  693MPD2     H10250   2.983   0.378  10.298 -0.4267  0.3511  1.7180
  693MPD2    H110251   3.227   0.688  10.122 -0.2735 -0.5807 -2.8241
  693MPD2    H210252   2.820   0.757  10.182  0.2947  1.0807  3.0236
  693MPD2    H310253   3.036   0.827  10.109  0.7388  0.0426 -1.2536
  693MPD2     N10254   3.240   0.456  10.245 -0.5473  0.1576 -0.3840
  693MPD2    H510255   3.315   0.522  10.263 -0.4756  0.3019 -1.2179
  693MPD2    N110256   2.769   0.523  10.302 -0.2195  0.1444 -0.3203
  693MPD2    H710257   2.743   0.426  10.310 -0.8280  0.2461 -1.0697
  694TMC3    C110258   2.571   0.535  10.422  0.9664 -0.0170 -0.0271
  694TMC3    C210259   2.513   0.427  10.360  0.1042  0.7839 -0.8674
  694TMC3    C310260   2.401   0.373  10.413 -0.5148 -0.1445 -0.3432
  694TMC3    C410261   2.511   0.595  10.535  0.2405  0.2455 -0.1352
  694TMC3    C510262   2.404   0.535  10.590  0.3924  0.2588  0.0662
  694TMC3    C610263   2.342   0.434  10.522  0.2568  0.2853  0.8334
  694TMC3     C10264   2.685   0.611  10.367  0.2187 -0.6990 -0.4349
  694TMC3     O10265   2.690   0.731  10.394  0.2800  0.3317  0.0155
  694TMC3     H10266   2.562   0.382  10.274 -2.8361  0.6181 -2.4642
  694TMC3    H110267   2.567   0.674  10.582 -2.0864  1.1708  1.1062
  694TMC3    H210268   2.253   0.386  10.561 -0.3343  1.4482  0.9037
  694TMC3    C710269   2.359   0.593  10.715 -0.5521  0.6039 -0.1688
  694TMC3    C810270   2.315   0.286  10.332  0.1910 -0.2337 -0.8112
  694TMC3    O110271   2.418   0.691  10.763 -0.4902  0.3321 -0.1856
  694TMC3    O210272   2.234   0.217  10.394 -0.4312 -0.6370 -0.3675
  695MPD2     C10273   3.666   2.302  13.197 -0.3781  0.4893 -0.3175
  695MPD2    C110274   3.684   2.228  13.316  0.2297  0.2470 -0.0963
  695MPD2    C210275   3.572   2.168  13.373 -0.3619  0.8447  0.0897
  695MPD2    C310276   3.446   2.182  13.316 -0.1776  0.1805  0.6150
  695MPD2    C410277   3.434   2.257  13.193 -0.3039  0.1406 -0.6684
  695MPD2    C510278   3.541   2.318  13.140 -0.1280 -0.2026 -0.1017
  695MPD2     H10279   3.581   2.113  13.466 -1.1287 -1.7054 -1.3486
  695MPD2    H110280   3.339   2.287  13.148 -1.3112 -1.9825  0.0358
  695MPD2    H210281   3.740   2.360  13.142  0.7079 -0.0903  0.5343
  695MPD2    H310282   3.533   2.387  13.057  2.0845  1.5811  1.1451
  695MPD2     N10283   3.332   2.138  13.384  0.5285  0.0802 -0.2819
  695MPD2    H510284   3.345   2.083  13.468  0.6626  0.6228  0.0495
  695MPD2    N110285   3.803   2.216  13.381  0.1484 -0.0293 -0.1320
  695MPD2    H710286   3.807   2.159  13.464  3.5840  0.1184 -0.1928
  696TMC3    C110287   3.093   2.112  13.443 -0.5544 -0.3372 -0.2507
  696TMC3    C210288   3.144   2.053  13.563 -0.1984  0.2970 -0.5426
  696TMC3    C310289   3.057   2.042  13.670 -0.0233  0.3458  0.1173
  696TMC3    C410290   2.957   2.139  13.429  0.2537 -0.0871 -0.2227
  696TMC3    C510291   2.869   2.084  13.526 -0.2149  0.4619  0.4481
  696TMC3    C610292   2.922   2.043  13.648 -0.4852 -0.1933 -0.3215
  696TMC3     C10293   3.197   2.175  13.359  0.3316  0.6073 -0.5262
  696TMC3     O10294   3.152   2.261  13.289  0.1309  0.4276  0.0078
  696TMC3     H10295   3.251   2.039  13.575 -0.1893  2.0222  1.4435
  696TMC3    H110296   2.921   2.204  13.351  0.9890 -2.0808 -2.2140
  696TMC3    H210297   2.847   2.017  13.722 -0.7141 -2.6977 -1.4234
  696TMC3    C710298   2.743   2.149  13.551  0.0099 -0.2105 -0.7047
  696TMC3    C810299   3.109   2.127  13.772 -0.0403 -0.0020 -0.5738
  696TMC3    O110300   2.642   2.085  13.588 -0.6128  0.8979 -0.1169
  696TMC3    O210301   3.217   2.185  13.748 -0.2223 -1.0258 -0.0635
  697MPD2     C10302   3.136   4.066  15.718  0.8076  0.0026  0.1071
  697MPD2    C110303   3.078   4.067  15.592  0.0418  0.5568 -0.6564
  697MPD2    C210304   3.124   4.159  15.506  0.6313  0.1194  0.8459
  697MPD2    C310305   3.222   4.253  15.543 -0.1613 -0.1969 -0.1490
  697MPD2    C410306   3.268   4.260  15.674  0.3715 -0.0133  0.7892
  697MPD2    C510307   3.223   4.167  15.758  0.5767 -0.0952  0.1904
  697MPD2     H10308   3.093   4.159  15.402  1.8939 -2.3124  0.4891
  697MPD2    H110309   3.342   4.333  15.704 -2.2783  3.2074 -0.5284
  697MPD2    H210310   3.105   3.993  15.793 -1.0882  1.3525  0.6189
  697MPD2    H310311   3.261   4.162  15.859 -2.2506 -0.0896  1.2727
  697MPD2     N10312   3.269   4.333  15.441 -0.0893  0.1191  0.0404
  697MPD2    H510313   3.235   4.311  15.348 -1.1986 -0.6947  0.6443
  697MPD2    N110314   2.982   3.978  15.553 -0.1970 -0.3601  0.2928
  697MPD2    H710315   2.946   3.910  15.620  0.3054 -0.0344  0.8936
  698TMC3    C110316   3.401   4.500  15.338 -0.4497 -0.4747 -0.0793
  698TMC3    C210317   3.451   4.634  15.338 -0.2803 -0.3615  0.3521
  698TMC3    C310318   3.483   4.693  15.217 -0.3355  0.0242  0.2918
  698TMC3    C410319   3.394   4.424  15.227 -0.4690 -0.1580  0.1320
  698TMC3    C510320   3.423   4.491  15.110 -0.0745  0.4972 -0.0750
  698TMC3    C610321   3.465   4.622  15.103 -0.0835  0.3159 -0.4842
  698TMC3     C10322   3.350   4.445  15.458 -0.2512  0.5391  0.5852
  698TMC3     O10323   3.384   4.502  15.562 -0.6730  0.0954  0.0301
  698TMC3     H10324   3.451   4.705  15.419 -0.3808 -1.1709  1.0576
  698TMC3    H110325   3.359   4.321  15.227  0.8657 -0.6110 -0.6357
  698TMC3    H210326   3.467   4.672  15.007  0.0014 -1.8308 -1.6158
  698TMC3    C710327   3.374   4.429  14.976 -0.0747  0.2509 -0.0901
  698TMC3    C810328   3.517   0.112  15.212 -0.6089  0.5626 -0.1470
  698TMC3    O110329   3.277   4.355  14.983  0.5386 -0.3656  0.0059
  698TMC3    O210330   3.476   0.178  15.309  0.1657  0.3818  1.2207
  699TMC3    C110331   2.905   2.389  12.908 -0.3686  0.6036 -0.3215
  699TMC3    C210332   2.982   2.286  12.964 -0.4850  0.2673 -0.3188
  699TMC3    C310333   2.911   2.174  13.011 -0.7226 -0.1050 -0.0675
  699TMC3    C410334   2.770   2.376  12.892  0.4815  0.1897 -0.7094
  699TMC3    C510335   2.706   2.268  12.933  0.8609 -0.3481  0.0818
  699TMC3    C610336   2.774   2.167  12.998 -0.3915  0.4206  0.5429
  699TMC3     C10337   2.967   2.480  12.818  0.4495  0.1015 -0.0602
  699TMC3     O10338   2.905   2.531  12.728  0.0947  0.1829 -0.2089
  699TMC3     H10339   3.090   2.297  12.971 -0.6727  2.2206 -0.4835
  699TMC3    H110340   2.718   2.461  12.848 -1.6824 -1.5358 -1.4608
  699TMC3    H210341   2.713   2.098  13.055  0.7499 -0.8672  0.1847
  699TMC3    C710342   2.564   2.273  12.934  0.4015  0.5707  0.0029
  699TMC3    C810343   2.987   2.057  13.054  0.2743 -0.1138  0.5963
  699TMC3    O110344   2.519   2.387  12.933 -0.3145 -0.4989 -0.1769
  699TMC3    O210345   2.937   1.965  13.120 -0.1721  0.0408 -0.3915
  700TMC3    C110346   2.643   3.815  16.810 -0.1009 -0.7418 -0.0983
  700TMC3    C210347   2.771   3.769  16.814  0.3207  0.1270 -0.1433
  700TMC3    C310348   2.869   3.832  16.880  0.7441 -0.0822 -0.0153
  700TMC3    C410349   2.606   3.895  16.916  0.2055 -0.2445  0.1482
  700TMC3    C510350   2.703   3.946  16.998  0.6156 -0.6109 -0.0934
  700TMC3    C610351   2.840   3.921  16.982  0.2579  0.6901 -0.3490
  700TMC3     C10352   2.600   3.873  16.681  0.7288  0.3185 -1.0342
  700TMC3     O10353   2.616   3.802  16.583  0.2747  0.2918  0.1650
  700TMC3     H10354   2.796   3.700  16.734  2.6785  0.0238  0.6871
  700TMC3    H110355   2.502   3.899  16.946 -0.0797 -1.3852 -0.6807
  700TMC3    H210356   2.912   3.984  17.033  1.2918  0.0469 -1.0030
  700TMC3    C710357   2.677   4.088  17.010 -1.4892  0.2482  0.2691
  700TMC3    C810358   3.010   3.800  16.862 -0.3925  0.1461  0.0473
  700TMC3    O110359   2.598   4.133  16.930 -0.1216 -0.1595 -0.0287
  700TMC3    O210360   3.031   3.732  16.764  0.0904 -0.3382  0.2701
  701TMC3    C110361   2.260   3.265  15.618 -0.7699 -0.6935  0.1488
  701TMC3    C210362   2.309   3.200  15.507  0.3220 -0.1576 -0.3972
  701TMC3    C310363   2.335   3.291  15.410 -0.3080  0.6025  0.7369
  701TMC3    C410364   2.239   3.397  15.633  0.7959  0.1668  0.0016
  701TMC3    C510365   2.271   3.478  15.528 -1.2001 -0.0979  0.7147
  701TMC3    C610366   2.319   3.425  15.411 -0.1891  0.0646  0.4862
  701TMC3     C10367   2.221   3.176  15.724  0.1689 -0.1051 -0.0494
  701TMC3     O10368   2.227   3.227  15.836 -0.1804  0.9483 -0.1983
  701TMC3     H10369   2.331   3.094  15.506 -2.9923 -0.8871  1.5269
  701TMC3    H110370   2.165   3.426  15.706 -2.2781  1.1463 -3.4720
  701TMC3    H210371   2.329   3.479  15.317 -0.4548  3.5491  2.4738
  701TMC3    C710372   2.223   3.612  15.528  0.5990  0.5432  0.2728
  701TMC3    C810373   2.396   3.244  15.288  0.0822 -0.2469 -0.0967
  701TMC3    O110374   2.228   3.669  15.419  0.1056 -0.0400 -0.3559
  701TMC3    O210375   2.494   3.299  15.249  0.0391 -0.4864 -1.1526
  702MPD2     C10376   1.970   1.002  10.297 -0.0164 -0.1512 -0.4441
  702MPD2    C110377   1.892   1.114  10.328  0.8655 -0.1506 -0.0103
  702MPD2    C210378   1.921   1.227  10.260  0.2912 -0.2365 -0.9510
  702MPD2    C310379   2.023   1.227  10.161  0.2711  0.3407 -0.3129
  702MPD2    C410380   2.103   1.116  10.144 -0.3123  0.2809  0.3859
  702MPD2    C510381   2.074   1.003  10.208 -0.1810 -0.0526  0.1591
  702MPD2     H10382   1.854   1.312  10.270  1.0467  0.2136  0.2928
  702MPD2    H110383   2.186   1.112  10.074  2.3488  0.8810  3.4846
  702MPD2    H210384   1.964   0.903  10.343  2.2673 -0.3697 -0.5993
  702MPD2    H310385   2.138   0.917  10.187 -1.8170 -1.3456  0.4950
  702MPD2     N10386   2.056   1.348  10.087  0.4273  0.3209  0.1749
  702MPD2    H510387   2.148   1.340  10.045 -0.2824  3.6168 -1.9353
  702MPD2    N110388   1.793   1.112  10.428  0.0163 -0.0719  0.1090
  702MPD2    H710389   1.738   1.195  10.446  1.1723  0.6751  0.1886
  703TMC3    C110390   2.036   1.582  10.029  0.3757  0.7268  0.4929
  703TMC3    C210391   1.964   1.697  10.061 -0.7497 -0.1719 -0.6298
  703TMC3    C310392   2.015   1.826  10.037  0.2506 -0.5330  0.3849
  703TMC3    C410393   2.167   1.595   9.988 -0.4652  0.0928  0.2134
  703TMC3    C510394   2.226   1.718   9.989 -0.1169 -0.0778  0.1188
  703TMC3    C610395   2.150   1.833  10.001  0.6676  0.0066  0.8217
  703TMC3     C10396   1.976   1.458  10.078  0.4118 -0.0739  0.6644
  703TMC3     O10397   1.860   1.457  10.111  0.2535 -0.2179  0.1636
  703TMC3     H10398   1.866   1.689  10.106 -0.3605  1.0720  0.4493
  703TMC3    H110399   2.224   1.507   9.959  1.4810  0.8882  1.6605
  703TMC3    H210400   2.190   1.933   9.989 -1.0924  0.3414 -2.1381
  703TMC3    C710401   2.362   1.739   9.968 -0.3966 -0.0252  0.4911
  703TMC3    C810402   1.971   1.924  10.128 -0.0264  0.1367  0.3564
  703TMC3    O110403   2.400   1.848   9.937  0.1124  0.1879 -0.0838
  703TMC3    O210404   2.057   1.998  10.174 -0.0394  0.0589 -0.1036
  704TMC3    C110405   4.021   3.959  12.301  0.0831  1.0305  0.6466
  704TMC3    C210406   4.123   4.000  12.218 -1.0521 -0.3977 -0.8313
  704TMC3    C310407   4.227   4.067  12.283 -0.1527 -0.3478  0.1560
  704TMC3    C410408   4.015   3.987  12.437  0.0020  0.0297  0.3864
  704TMC3    C510409   4.124   4.046  12.490  0.3577 -0.1445 -0.0666
  704TMC3    C610410   4.222   4.106  12.417  0.3136  0.5966 -0.1972
  704TMC3     C10411   3.945   3.831  12.267 -0.2891 -0.5551 -0.6066
  704TMC3     O10412   3.908   3.773  12.367 -0.2665  0.0544 -0.1946
  704TMC3     H10413   4.123   3.986  12.111 -1.1316  2.4309 -1.2016
  704TMC3    H110414   3.944   3.947  12.508 -1.3543  1.8414  0.0703
  704TMC3    H210415   4.312   4.148  12.460  0.8382  0.8650 -1.5800
  704TMC3    C710416   4.154   4.043  12.631  0.1130  0.6265 -0.3328
  704TMC3    C810417   4.331   4.107  12.192 -0.1765  0.6316  0.3828
  704TMC3    O110418   4.211   4.149  12.662  0.4414  0.1162 -0.0791
  704TMC3    O210419   4.351   4.032  12.095  0.0665 -0.0843 -0.1563
  705MPD2     C10420   4.237   2.235  16.579  0.5927  0.1202 -1.0438
  705MPD2    C110421   4.127   2.237  16.500  0.1217  0.2456 -0.1857
  705MPD2    C210422   4.002   2.268  16.563  0.1839  0.0520 -0.6980
  705MPD2    C310423   3.997   2.288  16.701 -0.3862  0.5636  1.1078
  705MPD2    C410424   4.109   2.285  16.775  0.2456  0.0546 -0.0648
  705MPD2    C510425   4.222   2.240  16.716 -0.2799  0.1426  0.7715
  705MPD2     H10426   3.913   2.276  16.501  0.4119 -0.2780 -1.0668
  705MPD2    H110427   4.109   2.303  16.882 -2.4118 -0.6740  0.0573
  705MPD2    H210428   4.337   2.209  16.548  0.9983  0.2817  0.1312
  705MPD2    H310429   4.304   2.234  16.788  0.4169 -0.3530 -0.0675
  705MPD2     N10430   3.879   2.329  16.764 -0.1589  0.5514  0.1799
  705MPD2    H510431   3.888   2.359  16.860  0.2752  1.0628 -0.0191
  705MPD2    N110432   4.134   2.235  16.363  0.2979  0.1179  0.2208
  705MPD2    H710433   4.048   2.250  16.311 -0.7660  1.2304  2.2862
  706TMC3    C110434   4.297   2.120  15.935  0.2501 -0.1388 -0.0186
  706TMC3    C210435   4.226   2.213  15.869  0.4360 -0.6567 -0.7662
  706TMC3    C310436   4.146   2.296  15.946 -0.0652  0.2803  0.6725
  706TMC3    C410437   4.297   2.111  16.075  0.0926  0.4496  0.6300
  706TMC3    C510438   4.209   2.189  16.145  0.0963 -0.1548 -0.1675
  706TMC3    C610439   4.139   2.288  16.083  0.5688 -0.5014 -0.7413
  706TMC3     C10440   4.393   2.036  15.865 -0.1082  0.4827 -0.3824
  706TMC3     O10441   4.475   1.981  15.943  0.0394  0.3415 -0.2184
  706TMC3     H10442   4.229   2.234  15.763  0.9271 -1.1801 -0.8548
  706TMC3    H110443   4.342   2.028  16.129 -0.9416  0.4143  1.4173
  706TMC3    H210444   4.079   2.361  16.136  0.9914 -1.1692  0.6656
  706TMC3    C710445   4.240   2.190  16.286 -0.9358  0.3205  0.4718
  706TMC3    C810446   4.126   2.429  15.903 -0.0692 -0.1151  0.3150
  706TMC3    O110447   4.352   2.153  16.321 -0.5393  0.1915 -0.6198
  706TMC3    O210448   4.019   2.460  15.853  0.1812  0.4402  0.1762
  707TMC3    C110449   0.844   1.443   1.124 -0.9928  0.5026  0.0164
  707TMC3    C210450   0.753   1.346   1.092 -0.1208 -0.9725 -1.1388
  707TMC3    C310451   0.631   1.375   1.050 -0.0197  0.1202 -0.2959
  707TMC3    C410452   0.821   1.579   1.105 -0.0049 -0.1383  0.2543
  707TMC3    C510453   0.686   1.603   1.067  0.6186 -0.6987  0.6081
  707TMC3    C610454   0.596   1.506   1.035  0.8417 -0.2428 -0.2605
  707TMC3     C10455   0.974   1.389   1.174  0.3750  0.5639  0.1047
  707TMC3     O10456   0.969   1.275   1.228 -0.1398 -0.2961  0.2357
  707TMC3     H10457   0.799   1.248   1.083  1.7945  0.2346 -4.1502
  707TMC3    H110458   0.884   1.652   1.152 -2.7474  0.8350  2.4335
  707TMC3    H210459   0.501   1.518   0.985  0.3913 -2.5802  0.0486
  707TMC3    C710460   0.668   1.728   0.999 -0.4609 -0.3438 -0.6522
  707TMC3    C810461   0.540   1.268   1.011  0.0290 -0.3859  0.6515
  707TMC3    O110462   0.775   1.782   0.972 -0.1353  0.3192 -0.3844
  707TMC3    O210463   0.429   1.299   0.965  0.5927  0.4694 -0.2377
  708MPD2     C10464   2.928   0.606  13.446 -0.7339  0.1387  0.2406
  708MPD2    C110465   2.795   0.611  13.423 -0.0774  0.1418 -0.3128
  708MPD2    C210466   2.708   0.553  13.517  0.1137 -0.7865 -0.2120
  708MPD2    C310467   2.751   0.478  13.622  0.1589 -0.1210 -1.0314
  708MPD2    C410468   2.884   0.460  13.633  0.3429  0.1140  0.0972
  708MPD2    C510469   2.973   0.515  13.544 -0.1877  0.5391  0.1465
  708MPD2     H10470   2.602   0.577  13.507  0.6497  1.3823 -0.6428
  708MPD2    H110471   2.929   0.413  13.720 -0.3957 -0.9608 -0.0943
  708MPD2    H210472   3.002   0.644  13.376 -1.7661 -0.3617 -1.1104
  708MPD2    H310473   3.078   0.492  13.560 -0.4482 -0.7406  0.0180
  708MPD2     N10474   2.653   0.436  13.718 -0.3566 -0.2369 -0.5130
  708MPD2    H510475   2.561   0.472  13.697 -1.6286 -3.3111 -0.2507
  708MPD2    N110476   2.739   0.684  13.315  0.7143 -0.0758  0.2590
  708MPD2    H710477   2.644   0.658  13.289  0.4481  1.6363 -0.5065
  709TMC3    C110478   2.701   0.810  13.131 -0.3764 -0.2676 -0.0349
  709TMC3    C210479   2.711   0.942  13.112 -0.7250  0.0359  0.0913
  709TMC3    C310480   2.586   1.002  13.117 -0.6199  0.5171  0.0269
  709TMC3    C410481   2.581   0.742  13.142  0.4742  0.0350 -0.0398
  709TMC3    C510482   2.464   0.807  13.153  0.8184  0.3959  0.4792
  709TMC3    C610483   2.469   0.941  13.148  0.0037 -0.3480 -0.2409
  709TMC3     C10484   2.798   0.757  13.214  0.5524  0.4667 -0.7537
  709TMC3     O10485   2.912   0.802  13.207  0.4852  0.3608  0.5142
  709TMC3     H10486   2.796   1.009  13.101  0.4090 -1.3671  0.4292
  709TMC3    H110487   2.579   0.634  13.145  1.3885  0.0146 -0.3011
  709TMC3    H210488   2.382   1.003  13.164  0.6505  0.7115 -0.8071
  709TMC3    C710489   2.391   0.744  13.264 -0.0032  0.3553  0.3801
  709TMC3    C810490   2.577   1.132  13.072 -0.6596  0.8194 -0.1288
  709TMC3    O110491   2.453   0.662  13.334 -0.0189  0.3139  0.4321
  709TMC3    O210492   2.678   1.204  13.078  0.2208 -0.9141  0.5174
  710TMC3    C110493   2.859   1.094   0.594 -0.1980  0.2505 -0.8287
  710TMC3    C210494   2.937   1.128   0.483  0.1571  0.2615  0.3333
  710TMC3    C310495   3.062   1.076   0.478  0.2734 -0.0846  0.4974
  710TMC3    C410496   2.909   1.025   0.702 -0.4399 -0.5161 -0.3249
  710TMC3    C510497   3.023   0.957   0.682 -0.2360 -0.2168 -0.7652
  710TMC3    C610498   3.102   0.984   0.571 -1.4162  0.3367  0.0840
  710TMC3     C10499   2.737   1.161   0.613 -0.0444  0.7071  0.2836
  710TMC3     O10500   2.686   1.209   0.512  0.1728 -0.9464 -0.2357
  710TMC3     H10501   2.893   1.193   0.408  0.3298 -1.1186 -0.9486
  710TMC3    H110502   2.838   0.978   0.769  0.0460 -0.3503  0.3211
  710TMC3    H210503   3.200   0.938   0.568 -1.4593  0.3237 -1.1157
  710TMC3    C710504   3.052   0.851   0.777 -1.1591  0.0287 -0.1139
  710TMC3    C810505   3.155   1.116   0.372 -0.2684  0.2333  0.2470
  710TMC3    O110506   3.005   0.859   0.891  0.5648 -0.0175  0.4169
  710TMC3    O210507   3.227   1.028   0.328  0.5267  0.1411  0.6843
  711TMC3    C110508   2.743   3.041  15.236 -0.8201  1.0012 -0.3089
  711TMC3    C210509   2.786   3.126  15.339  0.3275  0.4650 -0.4892
  711TMC3    C310510   2.896   3.205  15.323 -0.4423 -0.1791 -0.7010
  711TMC3    C410511   2.807   3.038  15.118  0.4748 -0.0373 -0.0481
  711TMC3    C510512   2.919   3.121  15.105 -0.0696 -0.1458  0.6550
  711TMC3    C610513   2.960   3.208  15.204 -0.2620 -0.7265 -0.2179
  711TMC3     C10514   2.647   2.927  15.254  0.6132  0.8907  0.4568
  711TMC3     O10515   2.640   2.842  15.166  0.6009  0.0273  0.1209
  711TMC3     H10516   2.727   3.130  15.430 -0.5931  0.4394 -1.0838
  711TMC3    H110517   2.780   2.966  15.043  0.8566  2.3277 -2.4780
  711TMC3    H210518   3.046   3.274  15.192 -1.0692  0.4325  0.4809
  711TMC3    C710519   3.037   3.055  15.056  0.4900  0.3242 -0.2325
  711TMC3    C810520   2.973   3.199  15.453 -0.1021  0.4255 -0.0619
  711TMC3    O110521   3.136   3.066  15.124  0.3067 -0.2502  0.5042
  711TMC3    O210522   2.920   3.187  15.562 -0.4388  0.2001  0.0076
  712MPD2     C10523   3.742   4.434  13.504 -0.2851 -0.2720  0.2171
  712MPD2    C110524   3.845   4.343  13.505 -0.2035 -0.0325 -0.2933
  712MPD2    C210525   3.970   4.391  13.469  0.1151  0.7419  0.0350
  712MPD2    C310526   4.002   4.524  13.442 -0.1424 -0.4335 -0.7231
  712MPD2    C410527   3.898   4.612  13.448  0.5104  0.6215 -0.1369
  712MPD2    C510528   3.772   4.562  13.472 -0.0589 -0.0376 -0.0818
  712MPD2     H10529   4.053   4.321  13.462  0.8894  1.6539  0.1661
  712MPD2    H110530   3.906   0.002  13.431  1.2914  0.3835 -1.2598
  712MPD2    H210531   3.642   4.417  13.540  0.2903 -3.6154  0.3012
  712MPD2    H310532   3.702   4.645  13.482 -0.9883 -0.6587 -1.3468
  712MPD2     N10533   4.133   4.580  13.409 -0.3721  0.2822 -0.1511
  712MPD2    H510534   4.129   4.677  13.379  0.0292 -0.0178 -1.2034
  712MPD2    N110535   3.832   4.210  13.546  0.1587  0.2630 -0.6390
  712MPD2    H710536   3.912   4.148  13.537  0.0894  0.2801 -1.4513
  713TMC3    C110537   4.363   4.621  13.375 -0.3607 -0.0104 -0.0204
  713TMC3    C210538   4.494   4.583  13.387 -0.7355  0.2433 -0.0814
  713TMC3    C310539   4.584   4.666  13.327 -0.2649  0.4238 -0.1687
  713TMC3    C410540   4.324   0.023  13.305  0.3621  0.3824  0.6461
  713TMC3    C510541   4.418   0.099  13.249  0.4297 -0.5459  0.0480
  713TMC3    C610542   4.548   0.060  13.259  0.4134  0.3596 -0.9601
  713TMC3     C10543   4.258   4.524  13.429 -0.6991 -0.1266  0.3563
  713TMC3     O10544   4.292   4.408  13.447 -0.2541  0.0832 -0.3166
  713TMC3     H10545   4.514   4.491  13.441 -1.4287 -0.4031 -0.9314
  713TMC3    H110546   4.223   0.062  13.317  0.5467  0.6597  1.3555
  713TMC3    H210547   4.620   0.128  13.214  1.6026 -0.7603 -0.7210
  713TMC3    C710548   4.382   0.228  13.194  0.3646 -0.4851  0.0457
  713TMC3    C810549   0.008   4.634  13.322 -0.1218 -0.3236  0.2421
  713TMC3    O110550   4.466   0.317  13.194  0.0667 -0.1310  0.7055
  713TMC3    O210551   0.075   4.690  13.232 -0.1225  0.0021  0.2039
  714MPD2     C10552   1.814   2.261   1.791  0.7074  0.9335  0.0126
  714MPD2    C110553   1.832   2.174   1.681  0.1771  0.9202  0.2283
  714MPD2    C210554   1.799   2.225   1.551 -0.1673 -0.0303 -0.3997
  714MPD2    C310555   1.746   2.355   1.532 -0.6799 -0.3126  0.0951
  714MPD2    C410556   1.733   2.435   1.646 -0.3367  0.6484  0.4059
  714MPD2    C510557   1.760   2.389   1.772  0.0814  0.5050  0.5497
  714MPD2     H10558   1.807   2.175   1.455  1.3911  1.1702 -0.8951
  714MPD2    H110559   1.679   2.529   1.639 -1.3137  0.0171 -0.4968
  714MPD2    H210560   1.833   2.228   1.892  0.0137 -0.8344 -0.4335
  714MPD2    H310561   1.726   2.444   1.860  1.5851  0.9902  0.8320
  714MPD2     N10562   1.720   2.399   1.393 -0.3592  0.0627  0.1273
  714MPD2    H510563   1.733   2.333   1.317  0.3608  0.4722 -0.1029
  714MPD2    N110564   1.901   2.051   1.707 -0.1979 -0.3587 -0.5591
  714MPD2    H710565   1.936   2.033   1.800 -2.3313 -0.2560  0.2624
  715TMC3    C110566   2.015   1.850   1.675 -0.5588 -0.3354 -0.3811
  715TMC3    C210567   2.049   1.744   1.590 -0.4697  0.9557 -0.5184
  715TMC3    C310568   2.159   1.666   1.628 -0.1308  0.5157 -0.2207
  715TMC3    C410569   2.092   1.882   1.785 -0.3961  0.6961  0.0133
  715TMC3    C510570   2.193   1.797   1.812 -0.3908 -0.0006  0.3319
  715TMC3    C610571   2.231   1.687   1.740  0.9430 -0.2150  0.9465
  715TMC3     C10572   1.930   1.955   1.616  0.2744  0.1533 -0.3609
  715TMC3     O10573   1.899   1.945   1.498 -0.0592  0.2492  0.0085
  715TMC3     H10574   2.009   1.734   1.490 -0.7157  0.0880 -0.3298
  715TMC3    H110575   2.095   1.982   1.826 -0.1355  0.5691  0.3049
  715TMC3    H210576   2.326   1.641   1.762  0.2858 -2.3055 -0.6412
  715TMC3    C710577   2.272   1.833   1.931 -0.2807 -0.3671  0.0266
  715TMC3    C810578   2.221   1.587   1.526 -0.3303  0.0123  0.0981
  715TMC3    O110579   2.392   1.798   1.921 -0.4854  0.7629  0.1097
  715TMC3    O210580   2.180   1.583   1.410  0.0623 -0.5040 -0.2391
  716MPD2     C10581   1.863   0.719   9.762 -0.1876  0.5869 -0.2238
  716MPD2    C110582   1.926   0.749   9.639  0.0818 -0.7418 -0.1247
  716MPD2    C210583   1.984   0.650   9.562  0.3104  0.3063  0.4579
  716MPD2    C310584   1.971   0.517   9.603  0.0938  0.5366 -1.1317
  716MPD2    C410585   1.904   0.488   9.722 -0.3425 -0.1844  0.0203
  716MPD2    C510586   1.854   0.586   9.800 -0.2698 -0.5481 -0.0430
  716MPD2     H10587   2.034   0.677   9.470  0.2978 -1.9317 -0.1978
  716MPD2    H110588   1.896   0.388   9.761  1.4022 -1.2063 -2.2382
  716MPD2    H210589   1.812   0.787   9.828 -0.2314 -0.8196  1.1942
  716MPD2    H310590   1.808   0.551   9.891  1.1321  1.4402  1.4217
  716MPD2     N10591   2.048   0.420   9.525  0.4104  0.0017  0.3731
  716MPD2    H510592   2.109   0.467   9.459 -0.8691  0.1096 -0.7246
  716MPD2    N110593   1.924   0.882   9.595 -0.5994 -0.4378  0.0619
  716MPD2    H710594   1.868   0.949   9.648 -0.6095  0.3854 -0.9700
  717TMC3    C110595   2.129   0.203   9.449  0.6743 -0.9051 -0.1853
  717TMC3    C210596   2.127   0.258   9.319 -0.2655  0.1089 -0.3806
  717TMC3    C310597   2.112   0.167   9.216 -0.3613  0.2506 -0.0425
  717TMC3    C410598   2.133   0.067   9.470 -0.6889  0.3711  0.6046
  717TMC3    C510599   2.139   4.698   9.364 -0.0863 -0.8099 -0.6568
  717TMC3    C610600   2.115   0.028   9.236  0.1397  0.1017 -0.0477
  717TMC3     C10601   2.051   0.285   9.547 -0.0918 -0.5051  0.2572
  717TMC3     O10602   1.996   0.223   9.636 -0.2324 -0.3649  0.3269
  717TMC3     H10603   2.103   0.363   9.306 -1.6616 -0.2138 -0.3433
  717TMC3    H110604   2.125   0.044   9.576  1.1832  2.0365  1.1045
  717TMC3    H210605   2.110   4.664   9.164  0.1673 -1.0578  1.2512
  717TMC3    C710606   2.197   4.568   9.371  0.0888 -0.1631 -0.3603
  717TMC3    C810607   2.029   0.223   9.103  0.0698 -0.3955 -0.4796
  717TMC3    O110608   2.208   4.497   9.270 -0.7769  0.3440  0.2926
  717TMC3    O210609   2.031   0.342   9.093 -0.3189 -0.1497 -0.0856
  718MPD2     C10610   1.322   4.018  12.458 -0.0142  0.3548 -0.1117
  718MPD2    C110611   1.220   4.103  12.421 -0.6083  0.8240 -0.1292
  718MPD2    C210612   1.128   4.146  12.511  0.2901 -0.1832 -0.5231
  718MPD2    C310613   1.142   4.107  12.645 -0.3181  0.4166 -0.9633
  718MPD2    C410614   1.245   4.022  12.678  0.2594  0.3666  0.3662
  718MPD2    C510615   1.331   3.980  12.587 -0.2333  0.1385  0.1361
  718MPD2     H10616   1.044   4.210  12.487 -0.4825 -1.1219 -0.3321
  718MPD2    H110617   1.246   3.980  12.778 -1.7479  0.0251  0.2280
  718MPD2    H210618   1.391   3.972  12.387  0.7943  0.4917  0.5921
  718MPD2    H310619   1.407   3.913  12.628 -0.4514  1.2063  2.3174
  718MPD2     N10620   1.049   4.162  12.738  0.5219  0.1110 -0.3180
  718MPD2    H510621   0.976   4.225  12.707  1.2192  0.5221 -1.1492
  718MPD2    N110622   1.211   4.132  12.281  0.1897  0.4399 -0.4517
  718MPD2    H710623   1.294   4.137  12.222  0.7691 -0.7105  0.2721
  719TMC3    C110624   1.102   4.285  12.129 -0.9961  0.0090 -0.3266
  719TMC3    C210625   0.974   4.334  12.114 -0.2397  0.1638  0.2356
  719TMC3    C310626   0.954   4.470  12.114 -0.5220 -0.3716  0.1862
  719TMC3    C410627   1.204   4.374  12.139  0.2154  0.0830  0.3223
  719TMC3    C510628   1.179   4.507  12.133 -0.4896 -0.6029  0.3970
  719TMC3    C610629   1.054   4.563  12.117 -0.1789  0.3539  0.4598
  719TMC3     C10630   1.093   4.169  12.217 -0.6661  0.6021  0.6019
  719TMC3     O10631   0.977   4.137  12.248  0.5693 -0.1072  0.5064
  719TMC3     H10632   0.886   4.272  12.108  0.2257 -0.2539 -2.1011
  719TMC3    H110633   1.306   4.338  12.134  0.8312  1.5992  2.2146
  719TMC3    H210634   1.039   4.669  12.099 -1.3126 -0.2664 -2.3415
  719TMC3    C710635   1.284   4.603  12.110 -0.4077 -0.5026 -0.3614
  719TMC3    C810636   0.850   4.489  12.210  0.3513  0.1166  0.1746
  719TMC3    O110637   1.260   4.701  12.041 -0.2373  0.1409 -0.2774
  719TMC3    O210638   0.780   4.394  12.244  0.9615 -0.2782 -0.2985
  720MPD2     C10639   4.274   1.397  13.940 -0.0008  0.6303 -0.5254
  720MPD2    C110640   4.363   1.330  13.859 -0.2283 -0.2172  0.5768
  720MPD2    C210641   4.448   1.243  13.924  0.4755  0.7831  0.6062
  720MPD2    C310642   4.457   1.238  14.065 -0.2334 -0.4612 -0.6287
  720MPD2    C410643   4.367   1.306  14.138  1.0290  0.7746  0.1636
  720MPD2    C510644   4.278   1.389  14.083 -0.0289  0.1834  0.5859
  720MPD2     H10645   4.508   1.173  13.868 -0.3415 -1.0287  1.9914
  720MPD2    H110646   4.386   1.323  14.243 -2.6219 -0.4481  1.0362
  720MPD2    H210647   4.210   1.470  13.891 -1.2954 -1.5368 -2.0878
  720MPD2    H310648   4.211   1.447  14.146 -1.0281 -0.1616 -0.1698
  720MPD2     N10649   4.566   1.167  14.121 -0.0242  0.2865 -0.2386
  720MPD2    H510650   4.628   1.120  14.056  0.4518  0.7076 -0.0822
  720MPD2    N110651   4.367   1.346  13.716  0.0725 -0.3425  0.6245
  720MPD2    H710652   4.431   1.288  13.661  0.1997  0.0991  0.3118
  721TMC3    C110653   0.014   1.088  14.272 -0.2712  0.9002 -0.1857
  721TMC3    C210654   0.029   1.047  14.406  0.1076  0.4234 -0.5169
  721TMC3    C310655   0.157   1.011  14.447  0.4425 -0.0344  0.2891
  721TMC3    C410656   0.125   1.102  14.187  0.0128  0.0853 -0.2199
  721TMC3    C510657   0.243   1.071  14.242  0.4041  0.2990 -0.0297
  721TMC3    C610658   0.258   1.025  14.367  0.6990  0.0316 -1.0556
  721TMC3     C10659   4.604   1.156  14.256  0.0549  0.4622 -0.5402
  721TMC3     O10660   4.552   1.207  14.356 -0.7930 -0.6503 -0.5571
  721TMC3     H10661   4.662   1.065  14.473 -0.4030 -0.4485 -0.9291
  721TMC3    H110662   0.119   1.138  14.085 -1.0696  2.2834  0.6058
  721TMC3    H210663   0.357   0.999  14.404  0.3371 -0.5484 -0.4966
  721TMC3    C710664   0.360   1.106  14.166  0.5127  0.2576  0.8643
  721TMC3    C810665   0.169   0.973  14.585  1.2590 -0.3518 -0.7086
  721TMC3    O110666   0.347   1.181  14.069 -0.6013 -0.3618  0.0825
  721TMC3    O210667   0.281   0.960  14.623 -0.0828 -0.6349 -0.2434
  722MPD2     C10668   3.195   0.081  13.118 -0.2169  0.7982 -0.3461
  722MPD2    C110669   3.189   0.216  13.123  0.5258  0.1683 -0.3411
  722MPD2    C210670   3.079   0.279  13.178 -0.5130 -0.6268  0.4850
  722MPD2    C310671   2.997   0.208  13.258 -0.2417  0.1714  0.2605
  722MPD2    C410672   3.025   0.070  13.280  0.0835 -0.0887 -0.4950
  722MPD2    C510673   3.119   0.007  13.201  0.0609 -0.0364 -0.1479
  722MPD2     H10674   3.053   0.384  13.166  0.3064 -0.8659 -3.3574
  722MPD2    H110675   2.976   0.011  13.356  0.9741  0.7922  0.7765
  722MPD2    H210676   3.273   0.022  13.070  0.7242  0.3105  1.7855
  722MPD2    H310677   3.145   4.618  13.208 -0.9209 -0.2501  0.2369
  722MPD2     N10678   2.883   0.276  13.312 -0.3750  0.3444  0.0095
  722MPD2    H510679   2.866   0.372  13.284  0.6504  0.2468 -0.9586
  722MPD2    N110680   3.280   0.300  13.059  0.5011 -1.2495 -0.1231
  722MPD2    H710681   3.241   0.394  13.053  1.9614 -0.6285  0.3378
  723TMC3    C110682   2.653   0.271  13.365 -0.6776 -0.0485  0.6453
  723TMC3    C210683   2.553   0.193  13.411  0.4012  0.4455  0.0862
  723TMC3    C310684   2.445   0.164  13.330  0.6828 -1.0799  0.4398
  723TMC3    C410685   2.637   0.334  13.237  0.2835  0.4254  0.5360
  723TMC3    C510686   2.514   0.319  13.177 -0.2626  0.9769  0.0178
  723TMC3    C610687   2.421   0.229  13.218  0.5287  0.1151  0.1730
  723TMC3     C10688   2.785   0.214  13.384  0.0840  0.6945  0.2172
  723TMC3     O10689   2.774   0.094  13.419 -0.3420 -0.0297 -0.5414
  723TMC3     H10690   2.572   0.128  13.495  2.6310  0.5671 -0.3174
  723TMC3    H110691   2.705   0.408  13.199  0.9647 -0.0300  0.8714
  723TMC3    H210692   2.333   0.207  13.158  1.9261 -1.4298 -1.2933
  723TMC3    C710693   2.494   0.395  13.055  0.9006  0.9228  0.1022
  723TMC3    C810694   2.367   0.047  13.368 -0.1365  0.5592 -0.4779
  723TMC3    O110695   2.588   0.428  12.984  0.2371 -0.2686 -0.4123
  723TMC3    O210696   2.371   0.011  13.484 -0.3973  0.2637 -0.5822
  724TMC3    C110697   3.019   3.590   9.173  0.0560 -0.0032  0.5889
  724TMC3    C210698   3.085   3.564   9.290  0.0225 -0.3507  1.0459
  724TMC3    C310699   3.221   3.589   9.297  0.5918 -0.5824  0.9204
  724TMC3    C410700   3.080   3.625   9.057 -0.0259 -0.0421 -0.1313
  724TMC3    C510701   3.218   3.646   9.072  0.8099 -0.2270 -0.1934
  724TMC3    C610702   3.293   3.634   9.188  0.2187 -0.6638  1.0013
  724TMC3     C10703   2.882   3.556   9.174 -0.2831  0.9161 -0.2787
  724TMC3     O10704   2.810   3.620   9.100 -0.1416 -0.2821 -0.3781
  724TMC3     H10705   3.032   3.551   9.384  0.2646  3.4970  1.7330
  724TMC3    H110706   3.023   3.653   8.969 -1.2935 -0.2196  0.6242
  724TMC3    H210707   3.401   3.639   9.190  0.2534 -1.2079  0.4914
  724TMC3    C710708   3.295   3.621   8.953 -0.0992  0.6483 -0.0237
  724TMC3    C810709   3.302   3.551   9.410  0.3119 -0.4850 -0.1946
  724TMC3    O110710   3.399   3.560   8.976 -0.0439 -0.2929  0.4626
  724TMC3    O210711   3.238   3.484   9.483  0.6464 -0.7044  0.2944
  725TMC3    C110712   0.061   1.511  12.380 -0.6453  0.3397 -0.0260
  725TMC3    C210713   0.007   1.501  12.252 -0.1849 -0.4130  0.2077
  725TMC3    C310714   0.045   1.389  12.187 -0.4848 -0.1500 -0.2137
  725TMC3    C410715   0.159   1.426  12.433 -0.3961 -0.7341  0.2741
  725TMC3    C510716   0.197   1.316  12.358 -0.6225 -0.0643  0.2343
  725TMC3    C610717   0.127   1.298  12.243 -0.3436  0.1168 -0.6511
  725TMC3     C10718   0.068   1.646  12.426 -0.6125  0.3847  0.0217
  725TMC3     O10719   0.053   1.726  12.334  0.6364  0.0205  0.7390
  725TMC3     H10720   4.652   1.568  12.206  0.3248 -0.5265 -0.7423
  725TMC3    H110721   0.219   1.450  12.520 -1.6576 -1.6022  1.3793
  725TMC3    H210722   0.140   1.209  12.183  2.7033 -0.5774  1.0847
  725TMC3    C710723   0.328   1.263  12.345  0.3076  0.3233 -0.1392
  725TMC3    C810724   0.071   1.422  12.046 -0.3516 -0.0293 -0.2650
  725TMC3    O110725   0.349   1.211  12.238 -0.0734  0.2404 -0.1649
  725TMC3    O210726   4.703   1.491  11.994  0.9040 -1.0909  0.0771
  726MPD2     C10727   2.902   3.432  10.173 -0.3714 -0.1819 -0.2738
  726MPD2    C110728   2.769   3.443  10.167  0.7962  0.3741 -0.4543
  726MPD2    C210729   2.690   3.335  10.144  1.0098 -0.2107 -0.0639
  726MPD2    C310730   2.744   3.206  10.145 -0.4724  1.1115  0.2207
  726MPD2    C410731   2.879   3.198  10.144  1.1646 -0.1552  0.2950
  726MPD2    C510732   2.959   3.309  10.167 -0.9213  0.0381 -0.3317
  726MPD2     H10733   2.584   3.350  10.131  0.7145  0.1768  2.7967
  726MPD2    H110734   2.927   3.101  10.138  0.1445 -0.4940 -2.1813
  726MPD2    H210735   2.969   3.516  10.189 -1.2790  0.3626  0.6555
  726MPD2    H310736   3.065   3.292  10.158 -0.9593  0.0849 -0.8698
  726MPD2     N10737   2.672   3.088  10.156  0.4332  0.1418 -0.2325
  726MPD2    H510738   2.722   3.001  10.170 -1.2541 -0.4333  2.2797
  726MPD2    N110739   2.709   3.572  10.159 -1.1158 -0.0889  0.2656
  726MPD2    H710740   2.609   3.564  10.150 -1.0725  0.5238 -0.7638
  727TMC3    C110741   2.692   3.808  10.119 -0.2950 -0.3421 -0.0308
  727TMC3    C210742   2.716   3.932  10.172  0.6861  0.2624 -0.6174
  727TMC3    C310743   2.640   4.038  10.127  0.2984 -0.2989 -0.4764
  727TMC3    C410744   2.577   3.780  10.040 -0.8488  0.5158 -0.0024
  727TMC3    C510745   2.502   3.887  10.002  0.2795  0.7044 -0.0416
  727TMC3    C610746   2.530   4.018  10.045  0.2280  0.0813  0.1804
  727TMC3     C10747   2.771   3.700  10.177 -0.0823  0.3073 -0.0094
  727TMC3     O10748   2.875   3.734  10.212 -0.2982  0.0920  0.1667
  727TMC3     H10749   2.798   3.941  10.242  0.4471 -0.6551 -0.2141
  727TMC3    H110750   2.566   3.684   9.992  1.8495 -0.9503  2.2817
  727TMC3    H210751   2.481   4.104  10.000  0.6655 -0.5465 -1.5053
  727TMC3    C710752   2.418   3.875   9.883  0.4322 -0.1818 -1.0383
  727TMC3    C810753   2.673   4.173  10.163  1.1767  0.2361 -0.0576
  727TMC3    O110754   2.306   3.922   9.889  0.1331 -0.4430 -0.0432
  727TMC3    O210755   2.630   4.263  10.089 -0.2337  0.2722  0.0436
  728TMC3    C110756   2.304   1.366  15.368  0.0291  0.4319 -0.7669
  728TMC3    C210757   2.424   1.300  15.402  0.7021 -0.0300  0.3744
  728TMC3    C310758   2.540   1.332  15.336  0.3387  0.5121  0.0402
  728TMC3    C410759   2.296   1.456  15.269  0.3770  0.3476 -0.1143
  728TMC3    C510760   2.408   1.479  15.193  0.6840 -0.7998  1.1884
  728TMC3    C610761   2.530   1.418  15.228 -0.5487 -0.1300  0.6505
  728TMC3     C10762   2.189   1.305  15.433 -0.0123 -0.0630 -0.2118
  728TMC3     O10763   2.207   1.248  15.539 -0.0013  0.0977  0.1344
  728TMC3     H10764   2.417   1.226  15.480 -2.1856 -1.8594 -1.5928
  728TMC3    H110765   2.200   1.502  15.246  0.5544  0.3938 -0.7694
  728TMC3    H210766   2.617   1.434  15.165 -0.4093 -0.0195  0.8739
  728TMC3    C710767   2.404   1.580  15.082 -0.1502 -0.1275 -0.1488
  728TMC3    C810768   2.640   1.228  15.342 -0.4744  0.3860 -0.2769
  728TMC3    O110769   2.461   1.542  14.980  0.0160  0.5847  0.4955
  728TMC3    O210770   2.607   1.122  15.396  0.0012 -0.1462 -0.3621
  729MPD2     C10771   4.564   2.125  16.642  0.4529  0.1031  0.0479
  729MPD2    C110772   4.616   2.253  16.649  0.0145  0.2261 -0.0634
  729MPD2    C210773   4.616   2.318  16.776  0.2828 -0.0535 -0.7749
  729MPD2    C310774   4.574   2.249  16.890 -0.0813  0.2287  0.3553
  729MPD2    C410775   4.534   2.118  16.881 -0.2458 -0.1088 -0.4526
  729MPD2    C510776   4.533   2.058  16.757  0.2403  1.0650 -0.5217
  729MPD2     H10777   4.668   2.413  16.781  0.4536 -0.1418 -0.8788
  729MPD2    H110778   4.499   2.062  16.967 -1.7371 -0.2270 -1.1443
  729MPD2    H210779   4.534   2.075  16.551 -1.0786 -0.8724  1.0950
  729MPD2    H310780   4.506   1.953  16.751  0.3557  1.0254 -0.3384
  729MPD2     N10781   4.582   2.295  17.023 -0.3366  0.0015  0.0547
  729MPD2    H510782   4.565   2.232  17.101 -1.1516  0.1269 -0.0222
  729MPD2    N110783   4.672   2.313  16.533  0.0857 -0.1219  0.0182
  729MPD2    H710784   4.689   2.253  16.453  1.5246  2.2463 -1.4435
  730TMC3    C110785   0.005   2.411  17.170 -0.2507 -0.3152  0.3702
  730TMC3    C210786   0.125   2.347  17.141  0.2499  0.0705 -0.3337
  730TMC3    C310787   0.241   2.416  17.164 -0.2452  0.1679  0.0305
  730TMC3    C410788   0.004   2.531  17.238 -1.0160  0.2578 -0.1922
  730TMC3    C510789   0.122   2.586  17.279 -0.2340 -1.0394 -0.3892
  730TMC3    C610790   0.238   2.533  17.234 -0.5614 -0.5511 -0.2036
  730TMC3     C10791   4.630   2.415  17.058 -0.7815 -0.1041  0.2825
  730TMC3     O10792   4.623   2.512  16.992 -0.4166 -0.2637 -0.3367
  730TMC3     H10793   0.129   2.267  17.068  1.6501 -0.1769  0.0133
  730TMC3    H110794   4.625   2.578  17.260 -1.0821  0.2513 -0.4763
  730TMC3    H210795   0.331   2.570  17.276  0.3980 -3.9842  0.6653
  730TMC3    C710796   0.117   2.732  17.279 -0.3575  0.1359 -0.5942
  730TMC3    C810797   0.351   2.388  17.074 -0.0285  0.7413  0.0773
  730TMC3    O110798   0.208   2.792  17.213 -0.1217  0.4862  1.0873
  730TMC3    O210799   0.337   2.291  16.998  0.0382  0.4341 -0.5240
  731MPD2     C10800   4.545   1.156  11.976  0.3350 -0.0698 -0.3191
  731MPD2    C110801   4.663   1.088  11.955 -1.5796 -0.2216  0.0214
  731MPD2    C210802   0.006   1.021  12.063  0.3274 -0.5657  0.1804
  731MPD2    C310803   4.668   1.021  12.192 -0.2218 -0.2643 -0.3026
  731MPD2    C410804   4.553   1.104  12.207  0.4238 -0.0133 -0.6525
  731MPD2    C510805   4.496   1.166  12.100 -0.9557  1.0585 -0.1343
  731MPD2     H10806   0.094   0.960  12.050  1.4741  0.7914  1.6769
  731MPD2    H110807   4.498   1.100  12.300 -0.4532 -1.9141 -1.2518
  731MPD2    H210808   4.495   1.209  11.896  0.2902  0.3535 -0.0126
  731MPD2    H310809   4.405   1.219  12.124 -1.3100 -0.4711  1.8864
  731MPD2     N10810   0.020   0.957  12.296 -0.1978 -0.1271 -0.1672
  731MPD2    H510811   0.099   0.903  12.262 -0.0409 -0.9078  1.4527
  731MPD2    N110812   0.005   1.094  11.830 -0.1524 -0.5556 -0.6387
  731MPD2    H710813   4.672   1.140  11.754  0.9362 -2.0351 -2.2177
  732TMC3    C110814   0.134   1.015  11.661 -0.2156 -0.4586 -0.1386
  732TMC3    C210815   0.026   0.936  11.614 -0.3867 -0.1786  0.3633
  732TMC3    C310816   0.056   0.855  11.508 -0.0246 -1.1476  0.0671
  732TMC3    C410817   0.258   0.995  11.618 -0.3359  0.0562 -0.6234
  732TMC3    C510818   0.281   0.914  11.507  0.4893  0.3408 -0.2694
  732TMC3    C610819   0.177   0.854  11.441  0.8558  0.0208 -0.5250
  732TMC3     C10820   0.127   1.053  11.798 -0.6276  0.3409  0.6369
  732TMC3     O10821   0.218   1.026  11.876  0.2876  0.2856  0.1055
  732TMC3     H10822   4.643   0.946  11.655 -0.5358  0.8201 -0.2212
  732TMC3    H110823   0.331   1.051  11.675 -0.4254  1.4692 -1.8918
  732TMC3    H210824   0.190   0.798  11.349 -2.1286  0.7439 -1.3701
  732TMC3    C710825   0.417   0.892  11.468  0.4974 -0.3299 -0.0300
  732TMC3    C810826   4.675   0.767  11.454  0.3595  0.1026  0.3619
  732TMC3    O110827   0.431   0.842  11.357 -0.1865 -0.3048  0.4034
  732TMC3    O210828   4.710   0.666  11.394  0.6225 -0.2225 -0.0348
  733TMC3    C110829   0.723   4.220  13.014 -0.3376  0.5203 -0.5078
  733TMC3    C210830   0.833   4.143  12.990 -0.0282  0.9679 -0.2864
  733TMC3    C310831   0.931   4.209  12.921 -0.4872 -0.2842  0.8948
  733TMC3    C410832   0.710   4.357  12.987 -0.1169  0.3205  0.4874
  733TMC3    C510833   0.818   4.416  12.935  0.3380  0.2239  0.2816
  733TMC3    C610834   0.930   4.344  12.903 -0.0959  0.8223  0.5285
  733TMC3     C10835   0.591   4.166  13.025  0.2368 -0.2731 -0.5931
  733TMC3     O10836   0.502   4.228  12.971 -0.1902 -0.4100  0.0495
  733TMC3     H10837   0.828   4.035  13.001 -1.7557  1.1231  0.4522
  733TMC3    H110838   0.617   4.411  12.997  0.0264  0.6382  0.1034
  733TMC3    H210839   1.017   4.394  12.862  0.1840 -1.9059 -2.1502
  733TMC3    C710840   0.805   4.540  12.871 -0.2520 -0.4293 -0.1496
  733TMC3    C810841   1.043   4.136  12.868 -0.3155  0.0318  0.7753
  733TMC3    O110842   0.793   4.643  12.939  0.4071 -0.2531 -0.2667
  733TMC3    O210843   1.092   4.043  12.926  0.3288  0.1243 -0.1639
  734MPD2     C10844   2.654   2.322  12.194 -0.4768 -0.8961 -0.1270
  734MPD2    C110845   2.677   2.201  12.133  0.4685  0.2016 -0.0866
  734MPD2    C210846   2.757   2.202  12.019 -0.3647 -0.6481  0.1944
  734MPD2    C310847   2.820   2.307  11.960  0.0530  0.5687  0.4854
  734MPD2    C410848   2.782   2.430  12.013 -0.0516 -0.0005 -0.3797
  734MPD2    C510849   2.705   2.434  12.124 -0.2891  0.2330  0.7470
  734MPD2     H10850   2.780   2.109  11.969 -2.2845 -1.5324  0.9658
  734MPD2    H110851   2.809   2.522  11.964  2.5740 -0.9087 -0.6096
  734MPD2    H210852   2.576   2.329  12.269  0.5361 -1.1681  0.9572
  734MPD2    H310853   2.667   2.528  12.159 -0.6218  1.4752 -2.9725
  734MPD2     N10854   2.902   2.284  11.852 -0.2358  0.6078 -0.5334
  734MPD2    H510855   2.918   2.185  11.834  1.9912  1.1679 -1.6085
  734MPD2    N110856   2.612   2.091  12.177 -0.1347  0.0009  0.1490
  734MPD2    H710857   2.555   2.105  12.260 -0.5581  2.6504 -0.6036
  735TMC3    C110858   2.533   1.868  12.192 -0.8247 -0.1878  0.0431
  735TMC3    C210859   2.450   1.821  12.095  0.2385  0.4189  0.0767
  735TMC3    C310860   2.448   1.679  12.070  0.2030  0.0553 -0.5444
  735TMC3    C410861   2.599   1.771  12.264 -0.7332  0.4163  0.1205
  735TMC3    C510862   2.582   1.639  12.244  0.2173  0.4793 -0.1712
  735TMC3    C610863   2.504   1.586  12.148  0.2595  0.2758  0.1570
  735TMC3     C10864   2.614   1.967  12.127  0.4686 -0.0528 -0.1236
  735TMC3     O10865   2.671   1.922  12.028  0.0980  0.0067  0.0927
  735TMC3     H10866   2.396   1.887  12.029 -0.1808 -0.8767 -0.8697
  735TMC3    H110867   2.677   1.799  12.334 -2.0374  2.0158  0.9165
  735TMC3    H210868   2.538   1.494  12.102  0.1345 -0.9002  2.4581
  735TMC3    C710869   2.708   1.573  12.252  0.7755  0.8312  0.2277
  735TMC3    C810870   2.461   1.646  11.931 -0.7484  0.6086 -0.0273
  735TMC3    O110871   2.809   1.637  12.218  0.5888 -0.2015 -0.3506
  735TMC3    O210872   2.434   1.531  11.898 -0.4625  0.0399  0.2727
  736MPD2     C10873   2.746   1.217  12.268  0.0347 -0.5985 -0.2059
  736MPD2    C110874   2.780   1.339  12.226  0.2535 -0.3103 -0.1422
  736MPD2    C210875   2.888   1.360  12.145 -0.5002 -0.1662  0.3283
  736MPD2    C310876   2.967   1.255  12.109  0.4276 -0.0558 -0.0266
  736MPD2    C410877   2.936   1.134  12.163 -0.1400  0.3142  0.0803
  736MPD2    C510878   2.828   1.115  12.242 -0.3938  0.1697  0.5044
  736MPD2     H10879   2.907   1.462  12.115  0.0196 -0.3956 -0.1280
  736MPD2    H110880   3.003   1.049  12.154 -0.3506  0.3079 -1.5828
  736MPD2    H210881   2.662   1.206  12.335  0.0859  1.8547  0.2528
  736MPD2    H310882   2.813   1.018  12.287  0.1897  0.1003  0.5500
  736MPD2     N10883   3.067   1.264  12.016 -0.9581  0.0466  1.0366
  736MPD2    H510884   3.110   1.175  11.994 -0.0239  0.3823  1.4613
  736MPD2    N110885   2.690   1.440  12.267  0.6047  0.4657 -0.9087
  736MPD2    H710886   2.596   1.416  12.300  0.0445  5.0348  0.7802
  737TMC3    C110887   3.180   1.354  11.831 -0.2557  0.1562  0.4747
  737TMC3    C210888   3.213   1.461  11.757  1.1768 -0.1695 -0.4345
  737TMC3    C310889   3.257   1.443  11.630 -0.3401  0.5288  0.7663
  737TMC3    C410890   3.195   1.230  11.776  0.3508  1.2332 -0.2277
  737TMC3    C510891   3.229   1.215  11.647  0.0456 -0.1133  0.5798
  737TMC3    C610892   3.274   1.320  11.575 -0.0938 -0.3335  0.1908
  737TMC3     C10893   3.103   1.378  11.950  0.0989  0.5654  0.5634
  737TMC3     O10894   3.083   1.495  11.980 -0.1896 -0.0872 -0.2806
  737TMC3     H10895   3.190   1.562  11.786 -0.4648 -0.4289 -0.8117
  737TMC3    H110896   3.173   1.139  11.831  2.2302  1.0663  0.2519
  737TMC3    H210897   3.297   1.303  11.470  1.8407  0.8660  0.4322
  737TMC3    C710898   3.251   1.079  11.592 -0.4215  0.1461  1.0570
  737TMC3    C810899   3.296   1.571  11.566 -0.1430 -0.6632 -0.1771
  737TMC3    O110900   3.188   0.991  11.654  0.5233  0.0089  0.0450
  737TMC3    O210901   3.288   1.670  11.638  0.7230  0.0276  0.4485
  738MPD2     C10902   3.653   0.378  15.160 -0.0321 -0.6550 -0.5003
  738MPD2    C110903   3.681   0.267  15.084  0.5627 -0.1923 -0.1546
  738MPD2    C210904   3.777   0.271  14.982 -0.3699 -0.5277 -0.3638
  738MPD2    C310905   3.837   0.395  14.966  0.1159 -0.4195  0.1023
  738MPD2    C410906   3.823   0.502  15.053 -0.5478  0.4157  0.2748
  738MPD2    C510907   3.732   0.491  15.152 -0.5521 -0.1197 -0.4190
  738MPD2     H10908   3.803   0.185  14.922  3.1799 -0.5858  1.2246
  738MPD2    H110909   3.871   0.599  15.052 -0.2684  0.2805  0.5267
  738MPD2    H210910   3.590   0.362  15.247  1.7699 -0.5128  0.8197
  738MPD2    H310911   3.704   0.572  15.218  1.4604 -0.7692  1.2625
  738MPD2     N10912   3.932   0.423  14.866 -1.2338 -0.3491 -0.4005
  738MPD2    H510913   3.960   0.520  14.859 -0.2300 -0.4943  1.5265
  738MPD2    N110914   3.611   0.148  15.105  0.8799 -0.5911 -0.0699
  738MPD2    H710915   3.617   0.079  15.031  1.9686  0.2775 -0.7918
  739TMC3    C110916   4.064   0.391  14.674  0.6917  0.4375  0.1121
  739TMC3    C210917   4.047   0.380  14.540  0.3529 -0.5365  0.4457
  739TMC3    C310918   4.151   0.424  14.462 -0.0266  0.0901 -0.3284
  739TMC3    C410919   4.168   0.451  14.732  0.1975  0.3733 -0.5506
  739TMC3    C510920   4.265   0.495  14.644  0.2302  0.3640 -0.3519
  739TMC3    C610921   4.260   0.490  14.511  0.3375  0.3672  0.6730
  739TMC3     C10922   3.966   0.334  14.763 -0.5643  0.2245 -0.3922
  739TMC3     O10923   3.920   0.224  14.734  0.1902 -0.0404  0.1458
  739TMC3     H10924   3.962   0.324  14.502  0.0974 -0.0153  0.2506
  739TMC3    H110925   4.182   0.444  14.840  0.0976  1.9340 -0.4239
  739TMC3    H210926   4.336   0.525  14.443  0.1752 -0.8036 -0.1105
  739TMC3    C710927   4.393   0.477  14.706 -0.3225 -1.3286 -0.2670
  739TMC3    C810928   4.129   0.429  14.328 -0.1099 -0.7409 -0.2309
  739TMC3    O110929   4.401   0.403  14.803 -0.3456  0.4178  0.2187
  739TMC3    O210930   4.020   0.437  14.285  0.6090  0.1038  0.3082
  740TMC3    C110931   4.580   1.599  14.201 -0.1309  0.3209 -0.1181
  740TMC3    C210932   4.668   1.556  14.293  0.8579  0.1658  0.2187
  740TMC3    C310933   0.050   1.474  14.254 -0.1909  0.1772  0.2894
  740TMC3    C410934   4.589   1.576  14.068 -0.4894  0.3664 -0.4150
  740TMC3    C510935   4.705   1.509  14.029 -0.2344 -0.5646  0.1090
  740TMC3    C610936   0.083   1.461  14.117  0.4318  0.3934  0.2443
  740TMC3     C10937   4.479   1.695  14.236  0.8442 -0.0400 -0.1182
  740TMC3     O10938   4.468   1.789  14.153  0.6461  0.2654 -0.0951
  740TMC3     H10939   4.665   1.596  14.393 -0.6945 -0.9584  0.6265
  740TMC3    H110940   4.515   1.614  13.998  0.0864  1.1073 -0.6200
  740TMC3    H210941   0.171   1.404  14.089 -0.7566 -0.1728 -2.3153
  740TMC3    C710942   0.008   1.473  13.895  0.0601  0.1693  0.4775
  740TMC3    C810943   0.152   1.418  14.347  0.5451 -0.1277 -0.7350
  740TMC3    O110944   0.089   1.382  13.873 -0.0211 -0.2212 -0.0191
  740TMC3    O210945   0.268   1.408  14.318 -0.6506  0.2552  0.2055
  741TMC3    C110946   4.213   0.829  14.473 -0.0723 -0.7168 -0.2884
  741TMC3    C210947   4.093   0.816  14.404 -0.7732  0.1715 -0.4335
  741TMC3    C310948   3.976   0.846  14.470 -0.8648  1.1517  0.4128
  741TMC3    C410949   4.218   0.881  14.603 -1.0289  1.2906  0.2556
  741TMC3    C510950   4.099   0.932  14.662  0.5962  0.4205 -0.4018
  741TMC3    C610951   3.973   0.910  14.593  0.1327 -0.6175  0.5081
  741TMC3     C10952   4.333   0.804  14.406  0.5496 -0.3814 -0.1646
  741TMC3     O10953   4.427   0.765  14.467  0.0656  0.7464  0.3497
  741TMC3     H10954   4.092   0.762  14.310 -0.1480 -2.8586  1.3089
  741TMC3    H110955   4.308   0.892  14.662 -0.7325  1.3016 -0.1946
  741TMC3    H210956   3.885   0.964  14.626  0.3234 -0.1875  0.3149
  741TMC3    C710957   4.093   1.011  14.780 -0.4174  0.4037  0.0092
  741TMC3    C810958   3.864   0.773  14.426  0.0096  0.0564  0.2977
  741TMC3    O110959   3.983   1.023  14.833 -0.1196  0.2079  0.1335
  741TMC3    O210960   3.852   0.756  14.302 -0.1059  0.4769  0.1272
  742TMC3    C110961   3.515   3.851  15.698  0.3163 -0.1734 -0.0844
  742TMC3    C210962   3.465   3.858  15.562  0.3170  0.5518  0.1821
  742TMC3    C310963   3.480   3.745  15.490  0.2608 -0.2881 -0.7346
  742TMC3    C410964   3.605   3.759  15.734 -0.3658  0.3780 -0.1603
  742TMC3    C510965   3.634   3.656  15.648  0.2194 -0.2543  0.1115
  742TMC3    C610966   3.567   3.646  15.525 -0.0346 -0.0438  0.4396
  742TMC3     C10967   3.514   3.969  15.778  0.5698 -1.4742  0.3027
  742TMC3     O10968   3.525   3.966  15.898 -0.1984 -0.3056  0.3304
  742TMC3     H10969   3.382   3.928  15.550 -1.1015 -1.1475 -0.0198
  742TMC3    H110970   3.651   3.770  15.832  1.2117  2.6407 -1.1542
  742TMC3    H210971   3.581   3.550  15.476 -2.9005  0.4487 -1.3292
  742TMC3    C710972   3.760   3.584  15.651 -0.6896 -0.6548  0.1407
  742TMC3    C810973   3.430   3.738  15.348  0.4497  0.2072  0.3137
  742TMC3    O110974   3.768   3.489  15.574  0.1056  0.2626  0.3837
  742TMC3    O210975   3.465   3.645  15.281  0.0254  0.0895  0.0738
  743MPD2     C10976   1.024   0.636   1.727 -0.0590 -0.4293  0.7485
  743MPD2    C110977   1.077   0.533   1.640  0.3851 -0.3067 -0.1773
  743MPD2    C210978   1.200   0.475   1.673 -0.3185  0.3565 -0.0374
  743MPD2    C310979   1.258   0.493   1.799  0.0605  0.1887 -1.0218
  743MPD2    C410980   1.187   0.580   1.888  0.4696  0.7215 -0.6845
  743MPD2    C510981   1.070   0.648   1.848  0.8001 -0.8962  0.3380
  743MPD2     H10982   1.243   0.403   1.605  0.4269  0.4340  0.3470
  743MPD2    H110983   1.231   0.600   1.985 -3.1276  1.4921  0.8075
  743MPD2    H210984   0.935   0.692   1.701  1.9658  1.5749 -1.8335
  743MPD2    H310985   1.030   0.731   1.904 -0.5720 -1.5037  0.2657
  743MPD2     N10986   1.383   0.435   1.826 -0.4224 -0.4056  0.4183
  743MPD2    H510987   1.437   0.396   1.748 -0.6913  0.4029 -0.1750
  743MPD2    N110988   1.006   0.513   1.517  0.2614  0.2616 -0.3038
  743MPD2    H710989   0.926   0.573   1.499 -1.3642 -1.7826  0.1542
  744TMC3    C110990   0.944   0.422   1.309 -0.0455 -0.3714 -0.3349
  744TMC3    C210991   0.886   0.550   1.280 -0.3046  0.0445 -0.8666
  744TMC3    C310992   0.812   0.555   1.170  0.3393  0.1309 -0.1658
  744TMC3    C410993   0.940   0.316   1.223  0.5069  0.0826 -0.0987
  744TMC3    C510994   0.874   0.336   1.111 -0.3711 -0.0943  0.0523
  744TMC3    C610995   0.804   0.453   1.077 -0.0539 -0.7044  0.1113
  744TMC3     C10996   1.040   0.418   1.420  0.0606  0.1428 -0.0608
  744TMC3     O10997   1.108   0.316   1.436  0.2987 -0.5835 -0.6250
  744TMC3     H10998   0.884   0.630   1.353  1.2512  0.5381 -1.3808
  744TMC3    H110999   1.005   0.231   1.240 -1.1494 -0.6529  2.6531
  744TMC3    H211000   0.750   0.452   0.983 -0.9321  2.5511  0.5775
  744TMC3    C711001   0.887   0.231   1.010  0.5584  0.0307 -0.5724
  744TMC3    C811002   0.757   0.686   1.146 -0.4051  0.7194 -0.2882
  744TMC3    O111003   0.951   0.132   1.043  0.5925  0.2240  0.1657
  744TMC3    O211004   0.788   0.772   1.225  0.2646  0.2058  0.3606
  745TMC3    C111005   3.739   4.014  13.599  0.4977  0.1693 -0.6616
  745TMC3    C211006   3.698   3.959  13.717  0.6331  0.2907 -0.1215
  745TMC3    C311007   3.711   3.821  13.733 -0.9849 -0.1410  0.0509
  745TMC3    C411008   3.794   3.936  13.493  0.4833  0.1075 -0.4932
  745TMC3    C511009   3.806   3.802  13.517 -0.0622 -0.3361  0.0163
  745TMC3    C611010   3.760   3.744  13.635  0.6427 -0.0252 -0.6096
  745TMC3     C11011   3.714   4.151  13.588 -0.6622  0.6940  0.2633
  745TMC3     O11012   3.607   4.192  13.633 -0.1744  0.0228  0.6576
  745TMC3     H11013   3.661   4.021  13.798 -1.7673 -1.0565 -0.1815
  745TMC3    H111014   3.815   3.974  13.394  0.1348 -0.0383 -0.6268
  745TMC3    H211015   3.777   3.640  13.658 -2.2466 -1.0771 -3.2324
  745TMC3    C711016   3.861   3.713  13.414 -0.6250  0.9741 -0.2109
  745TMC3    C811017   3.720   3.763  13.868 -0.0478  0.1124 -0.0709
  745TMC3    O111018   3.865   3.591  13.428  0.1162 -0.1707 -0.2476
  745TMC3    O211019   3.696   3.642  13.877 -0.2497  0.3016  0.1141
  746TMC3    C111020   1.627   1.183  10.801  0.6033 -0.0849 -0.8837
  746TMC3    C211021   1.694   1.168  10.685 -0.3866 -0.6238  0.1068
  746TMC3    C311022   1.682   1.049  10.626  0.2010 -0.0772  0.8693
  746TMC3    C411023   1.536   1.095  10.856 -1.0931  0.5742  0.1654
  746TMC3    C511024   1.520   0.976  10.781 -0.4166 -0.2111 -0.2040
  746TMC3    C611025   1.596   0.950  10.671 -0.2970  0.3792 -0.2208
  746TMC3     C11026   1.623   1.317  10.847 -0.6120 -0.8745  0.1128
  746TMC3     O11027   1.625   1.331  10.968 -0.1455 -0.4457  0.2106
  746TMC3     H11028   1.766   1.242  10.656 -2.7066  1.1384 -1.1459
  746TMC3    H111029   1.468   1.120  10.937 -0.3899  0.9502  0.6420
  746TMC3    H211030   1.593   0.857  10.615  0.2841  0.3292 -0.1629
  746TMC3    C711031   1.419   0.879  10.822 -0.1723  0.1040 -0.6958
  746TMC3    C811032   1.771   1.012  10.516  0.0344 -0.1571  0.2459
  746TMC3    O111033   1.409   0.861  10.939  0.4489 -0.0736 -0.3643
  746TMC3    O211034   1.793   0.892  10.507 -0.0814  0.2168 -0.0183
  747TMC3    C111035   3.880   0.857  10.789  0.0638 -0.0270  0.2857
  747TMC3    C211036   3.771   0.814  10.861  0.3454 -0.4538  0.5253
  747TMC3    C311037   3.777   0.841  10.993 -0.3964  0.2786  0.3561
  747TMC3    C411038   3.974   0.936  10.846 -0.4232 -0.0944  0.0129
  747TMC3    C511039   3.966   0.975  10.978  0.4530 -0.0097 -0.4514
  747TMC3    C611040   3.870   0.909  11.055 -0.1896  0.6054 -0.1467
  747TMC3     C11041   3.902   0.819  10.652 -0.5768  0.6690 -0.4038
  747TMC3     O11042   4.004   0.852  10.597  0.0788 -0.1521  0.1670
  747TMC3     H11043   3.692   0.754  10.817 -0.2767 -0.3733  1.5338
  747TMC3    H111044   4.062   0.972  10.795  0.5730 -0.3854  1.5355
  747TMC3    H211045   3.877   0.908  11.163 -1.2734 -0.5314 -0.0858
  747TMC3    C711046   4.093   0.989  11.045 -0.2084  0.1238 -0.6630
  747TMC3    C811047   3.678   0.777  11.076  0.2476 -0.4760  0.2186
  747TMC3    O111048   4.122   1.083  11.120  0.0263  0.1261 -0.7825
  747TMC3    O211049   3.649   0.661  11.048 -0.0263 -0.5007  0.1360
  748MPD2     C11050   0.517   1.563   1.440 -0.4513 -0.2717  0.0851
  748MPD2    C111051   0.594   1.450   1.434  0.0964  0.7478  0.2263
  748MPD2    C211052   0.731   1.466   1.443 -0.4984  0.3656 -0.3721
  748MPD2    C311053   0.786   1.588   1.450 -0.2961  0.4398 -0.7822
  748MPD2    C411054   0.705   1.707   1.448  0.2668  0.5816  0.3680
  748MPD2    C511055   0.568   1.692   1.457 -0.1362 -0.1490 -0.3235
  748MPD2     H11056   0.786   1.373   1.430  0.7445  0.7446  2.1086
  748MPD2    H111057   0.748   1.806   1.440 -1.2014  1.1973  0.0329
  748MPD2    H211058   0.411   1.561   1.421 -0.4611 -0.6042  0.1824
  748MPD2    H311059   0.497   1.771   1.435 -0.9555 -1.0951 -1.0251
  748MPD2     N11060   0.928   1.589   1.458 -0.0411 -0.1062  0.0996
  748MPD2    H511061   0.975   1.499   1.463  0.7524  0.3729  1.0896
  748MPD2    N111062   0.529   1.324   1.405  0.0277  0.1932 -0.4936
  748MPD2    H711063   0.430   1.335   1.385 -0.0327  1.9321  0.7040
  749TMC3    C111064   1.136   1.689   1.426 -0.2834 -0.0033 -0.4449
  749TMC3    C211065   1.200   1.599   1.503  0.0663 -0.1793  0.1950
  749TMC3    C311066   1.333   1.579   1.490 -0.5165  0.3040  0.0795
  749TMC3    C411067   1.207   1.760   1.329  0.3051  0.5572 -0.0756
  749TMC3    C511068   1.339   1.731   1.315 -0.4146  0.2498  0.3277
  749TMC3    C611069   1.411   1.647   1.398  0.8037 -0.5892  0.2650
  749TMC3     C11070   0.996   1.704   1.418  0.4185 -0.1483 -0.0955
  749TMC3     O11071   0.956   1.802   1.364 -0.5351  0.2812 -0.4637
  749TMC3     H11072   1.151   1.556   1.589 -1.1449 -4.0183 -2.4093
  749TMC3    H111073   1.157   1.827   1.259  0.1898  2.6204  1.9710
  749TMC3    H211074   1.519   1.637   1.391  0.5962 -2.6651  0.1123
  749TMC3    C711075   1.409   1.821   1.222 -0.3251 -0.6888  0.0082
  749TMC3    C811076   1.392   1.518   1.605 -0.2912  0.4923 -0.0466
  749TMC3    O111077   1.528   1.839   1.244 -0.5582  0.6742 -0.1431
  749TMC3    O211078   1.333   1.521   1.709 -0.1506  0.7120  0.0471
  750MPD2     C11079   2.268   3.146  11.078 -0.0764 -0.0347 -0.1525
  750MPD2    C111080   2.129   3.147  11.061 -0.1314  0.0842 -0.1312
  750MPD2    C211081   2.067   3.026  11.025 -0.0642  0.2278  0.0240
  750MPD2    C311082   2.140   2.907  10.999  0.1635  0.3019  0.4185
  750MPD2    C411083   2.275   2.916  11.017  0.3673 -0.1988  0.4452
  750MPD2    C511084   2.336   3.027  11.062 -0.3421 -0.0029 -0.2962
  750MPD2     H11085   1.960   3.034  11.011  0.2677  2.2493 -1.3740
  750MPD2    H111086   2.337   2.828  11.003 -0.0704 -0.2707 -1.0764
  750MPD2    H211087   2.317   3.238  11.106 -0.5877  0.9690 -2.5775
  750MPD2    H311088   2.444   3.026  11.074 -0.4281  1.0248  0.6018
  750MPD2     N11089   2.075   2.785  10.955 -0.5503 -0.0654 -0.5492
  750MPD2    H511090   2.132   2.708  10.920 -0.6255  0.6914 -2.3141
  750MPD2    N111091   2.065   3.279  11.070  0.1563 -0.4943  0.5086
  750MPD2    H711092   2.127   3.359  11.083  0.9607 -0.9886 -0.2685
  751TMC3    C111093   1.911   2.610  10.909 -0.0754 -0.4683 -0.4091
  751TMC3    C211094   1.779   2.578  10.904 -0.3085  0.2317 -0.3825
  751TMC3    C311095   1.740   2.469  10.827  0.0244 -0.3028 -0.4894
  751TMC3    C411096   1.998   2.546  10.817 -0.4022 -0.5772  0.4024
  751TMC3    C511097   1.951   2.443  10.739 -0.0212  0.2490  0.1765
  751TMC3    C611098   1.824   2.398  10.752 -0.1639  0.0825 -0.0956
  751TMC3     C11099   1.940   2.749  10.954  0.8917  0.2427 -0.7491
  751TMC3     O11100   1.852   2.821  10.996  0.1014 -0.1645 -0.0317
  751TMC3     H11101   1.709   2.638  10.961  0.1159  0.3559  0.0127
  751TMC3    H111102   2.106   2.556  10.815 -0.2441 -1.7352  2.7009
  751TMC3    H211103   1.787   2.319  10.688  2.5182 -0.5239 -0.8970
  751TMC3    C711104   2.056   2.356  10.679 -0.6795 -0.2223  0.4494
  751TMC3    C811105   1.606   2.423  10.827  0.2457 -0.2376 -0.3760
  751TMC3    O111106   2.171   2.391  10.655  0.1440  0.5723 -0.1512
  751TMC3    O211107   1.584   2.360  10.726 -0.3702  0.6602  0.1355
  752TMC3    C111108   0.590   1.731  16.926 -0.5736 -0.0275  0.5884
  752TMC3    C211109   0.624   1.598  16.920  0.0095 -0.3237  0.3287
  752TMC3    C311110   0.592   1.519  17.026  0.0408  0.2129  0.0626
  752TMC3    C411111   0.516   1.782  17.025 -0.1905 -0.4577 -0.3110
  752TMC3    C511112   0.485   1.703  17.128  0.3204  0.5988 -0.8597
  752TMC3    C611113   0.523   1.575  17.133  0.3315  0.1372 -0.0942
  752TMC3     C11114   0.649   1.802  16.818  0.9707 -0.3558  0.1407
  752TMC3     O11115   0.741   1.750  16.760 -0.5538 -0.1229 -0.0007
  752TMC3     H11116   0.664   1.552  16.830 -0.6913  0.4641 -0.3805
  752TMC3    H111117   0.503   1.889  17.037  0.0899 -0.3338 -1.1317
  752TMC3    H211118   0.509   1.522  17.226 -0.1117 -0.3913 -0.4654
  752TMC3    C711119   0.409   1.770  17.241 -0.0244  0.5979 -0.0209
  752TMC3    C811120   0.666   1.393  17.044 -0.3816  0.3938 -0.7815
  752TMC3    O111121   0.416   1.890  17.254  0.0507 -0.1080  0.1119
  752TMC3    O211122   0.664   1.350  17.157  0.0937  0.3358  0.1057
  753TMC3    C111123   2.341   3.641  13.552  0.3057  0.1125  0.0318
  753TMC3    C211124   2.461   3.639  13.616  0.2794 -0.1798  0.2449
  753TMC3    C311125   2.524   3.515  13.632 -0.3333  0.0391  0.0868
  753TMC3    C411126   2.293   3.526  13.490  0.1089 -0.2195 -0.3030
  753TMC3    C511127   2.364   3.406  13.494 -0.6608  0.0987 -0.3145
  753TMC3    C611128   2.481   3.400  13.569 -0.2999  0.4516  0.3240
  753TMC3     C11129   2.255   3.757  13.557  0.6153  0.8849 -0.3849
  753TMC3     O11130   2.153   3.751  13.490 -0.2435  0.6981  0.1519
  753TMC3     H11131   2.502   3.730  13.658 -1.8394  0.8225  0.1133
  753TMC3    H111132   2.198   3.528  13.439  0.8938  3.4140 -1.6177
  753TMC3    H211133   2.536   3.307  13.569 -0.1503  0.5417  0.0677
  753TMC3    C711134   2.295   3.283  13.468  0.4872 -0.4578 -0.4413
  753TMC3    C811135   2.662   3.508  13.675  0.1730  0.0409  0.2300
  753TMC3    O111136   2.322   3.191  13.547  0.0469 -0.2565 -0.6202
  753TMC3    O211137   2.736   3.422  13.631  0.4361  0.7220  0.1800
  754MPD2     C11138   0.573   1.960  12.527 -0.0069  0.1656 -0.0433
  754MPD2    C111139   0.533   2.077  12.576 -0.2758 -0.1204  0.0920
  754MPD2    C211140   0.554   2.194  12.501  0.3083  0.3815 -0.2056
  754MPD2    C311141   0.586   2.185  12.364  0.3506 -0.0746 -0.4875
  754MPD2    C411142   0.632   2.059  12.315  0.1933 -1.2002  0.1640
  754MPD2    C511143   0.619   1.952  12.394  0.2575 -0.3452 -0.0625
  754MPD2     H11144   0.529   2.285  12.554 -2.6108 -0.0792 -0.7882
  754MPD2    H111145   0.674   2.048  12.215  3.1700 -1.1908  1.4043
  754MPD2    H211146   0.575   1.871  12.589  3.4620  0.3058  0.0551
  754MPD2    H311147   0.658   1.863  12.344 -0.7379 -0.7849 -0.0432
  754MPD2     N11148   0.600   2.304  12.288  0.4263  0.6700 -0.0736
  754MPD2    H511149   0.662   2.292  12.208  0.1591 -0.1995 -0.1569
  754MPD2    N111150   0.472   2.069  12.705 -0.1956  0.1659  0.3531
  754MPD2    H711151   0.488   1.985  12.760 -0.8073  0.6371  1.2449
  755MPD2     C11152   0.199   3.063  12.844  0.1122 -0.2524  0.1856
  755MPD2    C111153   0.201   2.936  12.897 -0.0468  0.0486  0.1901
  755MPD2    C211154   0.233   2.827  12.815 -0.4509 -0.8642  0.1057
  755MPD2    C311155   0.248   2.840  12.675 -0.0577  0.0682  0.6807
  755MPD2    C411156   0.250   2.967  12.628  0.2665 -0.1376 -0.0887
  755MPD2    C511157   0.227   3.073  12.712  0.3078 -0.1355 -0.5574
  755MPD2     H11158   0.256   2.735  12.868 -0.0610 -0.8167  0.0180
  755MPD2    H111159   0.257   2.990  12.523  0.6593 -1.4816 -0.3672
  755MPD2    H211160   0.185   3.157  12.896  3.0435 -0.1208  0.7431
  755MPD2    H311161   0.231   3.172  12.668  0.8158 -0.9103 -2.2868
  755MPD2     N11162   0.268   2.734  12.589 -0.2006 -0.0418 -0.7556
  755MPD2    H511163   0.290   2.768  12.496  1.2564  0.9672 -0.0348
  755MPD2    N111164   0.161   2.905  13.028  0.2113 -0.1577  0.8963
  755MPD2    H711165   0.144   2.808  13.052  1.3503 -0.8397 -1.0753
  756MPD2     C11166   1.433   3.528   9.510  0.2073 -0.0188 -0.2562
  756MPD2    C111167   1.382   3.450   9.605  0.3488  0.5497  0.2976
  756MPD2    C211168   1.278   3.364   9.574  0.6233 -0.6837  0.0042
  756MPD2    C311169   1.241   3.345   9.450 -0.4370  1.1126 -0.2953
  756MPD2    C411170   1.309   3.413   9.349 -0.2946  0.2781 -0.6458
  756MPD2    C511171   1.399   3.509   9.377  0.0633 -0.0957 -0.1401
  756MPD2     H11172   1.230   3.295   9.643 -1.9751  0.8819 -0.2422
  756MPD2    H111173   1.282   3.407   9.244  0.8137 -0.8200 -0.8751
  756MPD2    H211174   1.513   3.596   9.537  0.2485 -0.1302 -0.1041
  756MPD2    H311175   1.458   3.563   9.305 -0.4919  0.2453 -0.3396
  756MPD2     N11176   1.133   3.258   9.440 -0.5350 -0.3867  0.1643
  756MPD2    H511177   1.094   3.220   9.526 -1.4051  0.5385  0.1795
  756MPD2    N111178   1.398   3.491   9.742 -0.8240 -0.5649 -0.6857
  756MPD2    H711179   1.339   3.447   9.812 -1.6974  2.4791  0.4691
  757MPD2     C11180   0.392   2.751   8.840  0.4020 -1.1022  0.4217
  757MPD2    C111181   0.351   2.728   8.970  0.2036  0.5514  0.0774
  757MPD2    C211182   0.417   2.801   9.067 -0.8795 -0.4126 -0.0971
  757MPD2    C311183   0.524   2.890   9.036 -0.2583  0.2175 -1.4288
  757MPD2    C411184   0.547   2.912   8.903  0.0416  1.2931  0.4010
  757MPD2    C511185   0.484   2.841   8.809  0.5212 -0.4863  0.0354
  757MPD2     H11186   0.386   2.798   9.170  0.8087 -0.7150  0.3935
  757MPD2    H111187   0.617   2.988   8.872 -0.9459  1.6344 -0.9643
  757MPD2    H211188   0.356   2.683   8.764  0.9075  0.8107 -1.5065
  757MPD2    H311189   0.510   2.861   8.706  1.4906 -0.4008  0.2999
  757MPD2     N11190   0.584   2.954   9.144  0.2085  0.3072 -0.0103
  757MPD2    H511191   0.544   2.946   9.236  2.6374  2.5360  1.2370
  757MPD2    N111192   0.250   2.625   8.988  0.0310 -0.1116  0.6248
  757MPD2    H711193   0.225   2.570   8.907  4.5519  0.0174 -0.8312
  758MPD2     C11194   0.973   1.509  16.252  1.0916  0.0524 -0.1315
  758MPD2    C111195   1.104   1.543  16.209  0.3367  0.5058 -0.4759
  758MPD2    C211196   1.179   1.634  16.285  0.4514  0.0039 -0.3801
  758MPD2    C311197   1.122   1.685  16.403  0.2176  0.3000  0.0586
  758MPD2    C411198   0.998   1.651  16.446 -0.2761  0.1472 -0.1361
  758MPD2    C511199   0.919   1.571  16.365 -0.7592  0.3214 -0.1931
  758MPD2     H11200   1.285   1.648  16.271  0.7136  0.1529  1.7717
  758MPD2    H111201   0.961   1.682  16.543  0.4832  2.1171 -0.4803
  758MPD2    H211202   0.911   1.440  16.195 -0.4315  0.3264  1.2025
  758MPD2    H311203   0.816   1.545  16.391 -0.9072  0.1387 -0.9749
  758MPD2     N11204   1.197   1.777  16.482 -0.2483 -0.0822  0.6806
  758MPD2    H511205   1.151   1.793  16.571  2.6925  0.4310  2.1166
  758MPD2    N111206   1.176   1.483  16.104 -0.1265 -0.0513  0.4256
  758MPD2    H711207   1.274   1.507  16.092  0.6205 -2.6288  1.3253
  759MPD2     C11208   0.753   0.292   9.958  0.0415 -0.0557  0.2604
  759MPD2    C111209   0.633   0.362   9.982 -0.2663  0.1111  0.0054
  759MPD2    C211210   0.580   0.425   9.875 -0.5498 -0.2170 -0.3486
  759MPD2    C311211   0.643   0.438   9.748 -0.5811 -0.2981 -0.0777
  759MPD2    C411212   0.762   0.371   9.731  0.4136 -0.5151  0.1347
  759MPD2    C511213   0.815   0.298   9.838 -0.6034 -0.2384 -0.3045
  759MPD2     H11214   0.479   0.465   9.879 -0.6937 -0.7391  1.2654
  759MPD2    H111215   0.817   0.374   9.638 -0.6755 -0.0828 -0.4897
  759MPD2    H211216   0.810   0.243  10.037 -0.8254 -1.6883 -0.1198
  759MPD2    H311217   0.909   0.248   9.821 -0.4381 -0.2785  0.7413
  759MPD2     N11218   0.593   0.534   9.655 -0.0986 -0.0521 -0.4640
  759MPD2    H511219   0.519   0.597   9.685  0.1490  1.4000 -2.8710
  759MPD2    N111220   0.557   0.354  10.101  0.5676 -0.1091  0.1389
  759MPD2    H711221   0.471   0.408  10.100 -0.1461 -1.2662 -1.0368
  760MPD2     C11222   4.427   2.373  11.699  0.3005  1.0029  0.2433
  760MPD2    C111223   4.521   2.409  11.602 -0.5936 -0.1802  0.3745
  760MPD2    C211224   4.592   2.306  11.546 -0.1351  1.2520  0.4978
  760MPD2    C311225   4.594   2.179  11.594 -0.4691  0.3941 -0.2374
  760MPD2    C411226   4.522   2.151  11.710  0.3181 -0.2976  0.3730
  760MPD2    C511227   4.433   2.248  11.749 -0.0155 -0.4002  0.2375
  760MPD2     H11228   4.648   2.336  11.458  0.3157  0.4549  0.5139
  760MPD2    H111229   4.533   2.052  11.755  0.4752  0.0216  1.0451
  760MPD2    H211230   4.354   2.447  11.730  0.3126  1.5448 -1.0071
  760MPD2    H311231   4.370   2.231  11.836  0.6791 -0.7157  0.6795
  760MPD2     N11232   4.673   2.079  11.539  0.0435  0.4085  0.3692
  760MPD2    H511233   4.682   1.994  11.594  0.5165  1.2641  1.6139
  760MPD2    N111234   4.525   2.542  11.545 -0.4526 -0.2632  0.3217
  760MPD2    H711235   4.570   2.552  11.454 -2.0964 -1.5477 -0.6295
  761MPD2     C11236   1.137   2.293  10.986 -0.5937 -0.5755 -0.2978
  761MPD2    C111237   1.223   2.237  10.893 -0.4988  0.0852  0.8943
  761MPD2    C211238   1.351   2.290  10.879  0.1697 -0.7956  0.5271
  761MPD2    C311239   1.393   2.409  10.948  0.5112 -0.1402  0.3511
  761MPD2    C411240   1.310   2.451  11.056  0.0433 -0.1453 -0.1391
  761MPD2    C511241   1.187   2.389  11.071  0.5478 -0.3635  0.5063
  761MPD2     H11242   1.424   2.230  10.826 -0.0510 -1.1506  0.6235
  761MPD2    H111243   1.339   2.533  11.121 -0.2424 -2.6014  3.0753
  761MPD2    H211244   1.046   2.242  11.015 -0.0174 -0.6921  1.2768
  761MPD2    H311245   1.130   2.412  11.160  1.8905  0.0864  1.2402
  761MPD2     N11246   1.525   2.455  10.937 -0.3093 -0.2203  0.3764
  761MPD2    H511247   1.558   2.521  11.007 -0.8737  0.0951  0.3477
  761MPD2    N111248   1.179   2.128  10.819  0.3297  0.0474  0.4316
  761MPD2    H711249   1.087   2.091  10.843 -0.5179  0.8793 -1.5191
  762MPD2     C11250   1.629   2.141  10.431 -0.0740 -0.6326 -0.1427
  762MPD2    C111251   1.564   2.048  10.359  0.1694 -0.2839 -0.7680
  762MPD2    C211252   1.628   1.980  10.260  0.5854  0.8113  0.1321
  762MPD2    C311253   1.761   2.013  10.233 -0.2710 -0.7539  0.1447
  762MPD2    C411254   1.829   2.105  10.315 -0.0814 -0.2423 -0.0858
  762MPD2    C511255   1.761   2.167  10.411  0.0067  0.7781 -0.4770
  762MPD2     H11256   1.580   1.904  10.200 -0.2636  0.5285  1.1740
  762MPD2    H111257   1.934   2.132  10.310 -0.3181  0.5618 -0.8483
  762MPD2    H211258   1.590   2.206  10.509 -1.8585  0.2766 -1.7906
  762MPD2    H311259   1.810   2.239  10.474  0.3600 -0.1164  0.2798
  762MPD2     N11260   1.834   1.936  10.141  0.7495  0.1088 -0.2569
  762MPD2    H511261   1.783   1.869  10.084  0.8208  0.7872 -1.1281
  762MPD2    N111262   1.431   2.011  10.397 -0.4914  0.2113 -0.6960
  762MPD2    H711263   1.383   2.072  10.462 -0.6541 -0.1240 -0.5042
  763MPD2     C11264   3.482   2.018  16.139  0.7560 -0.0215 -0.2155
  763MPD2    C111265   3.429   2.139  16.094 -0.4512  0.5309 -0.0277
  763MPD2    C211266   3.464   2.259  16.150  0.6416 -0.4317  0.1234
  763MPD2    C311267   3.546   2.258  16.265  0.4318 -0.0772 -0.2687
  763MPD2    C411268   3.586   2.139  16.321  0.5998  0.0134 -0.2644
  763MPD2    C511269   3.554   2.022  16.263 -0.1399  0.4295 -0.0542
  763MPD2     H11270   3.432   2.353  16.105  1.8023 -0.1608 -0.1419
  763MPD2    H111271   3.642   2.142  16.414  2.1298  0.9315 -1.2205
  763MPD2    H211272   3.473   1.921  16.092  2.8887  0.0420 -0.7412
  763MPD2    H311273   3.594   1.930  16.305 -0.2638  0.0830 -0.6886
  763MPD2     N11274   3.581   2.376  16.336 -0.3078  0.2296 -0.7056
  763MPD2    H511275   3.638   2.361  16.419 -0.1683 -1.4947 -1.1152
  763MPD2    N111276   3.355   2.135  15.976  0.0668 -0.2803  0.5628
  763MPD2    H711277   3.319   2.226  15.948 -2.4071 -1.2060  0.6906
  764MPD2     C11278   1.232   3.910  17.567  0.3159 -1.0488 -0.4324
  764MPD2    C111279   1.248   3.800  17.488 -0.1031 -0.5236  0.9371
  764MPD2    C211280   1.289   3.683  17.540 -0.1293  0.1090  0.7050
  764MPD2    C311281   1.328   3.672   0.006 -0.1512  0.1365  0.3072
  764MPD2    C411282   1.318   3.787   0.083  0.7324  0.3657 -0.2383
  764MPD2    C511283   1.273   3.902   0.025  0.4443  0.6702  0.4259
  764MPD2     H11284   1.293   3.590  17.485  1.5492  0.8651 -0.4369
  764MPD2    H111285   1.351   3.778   0.186  0.7779  0.1649 -0.2695
  764MPD2    H211286   1.198   4.007  17.532 -0.0217 -0.7771  0.6506
  764MPD2    H311287   1.280   3.988   0.092 -1.9690  1.9902 -1.0077
  764MPD2     N11288   1.383   3.548   0.050 -0.0909 -0.1779  0.1657
  764MPD2    H511289   1.396   3.478  17.647  2.3979  0.3295  0.1072
  764MPD2    N111290   1.218   3.817  17.352  0.2102  0.7166  0.4199
  764MPD2    H711291   1.163   3.897  17.325 -0.7703 -0.9765 -2.6369
  765MPD2     C11292   0.608   1.349  15.462 -0.2844  0.1572 -0.6121
  765MPD2    C111293   0.722   1.428  15.480 -0.1492  0.7101  0.0178
  765MPD2    C211294   0.845   1.388  15.434  0.1260  0.5128  0.6214
  765MPD2    C311295   0.857   1.274  15.362  0.2567  0.2865  0.2042
  765MPD2    C411296   0.750   1.199  15.338  0.2688 -0.0035  0.3411
  765MPD2    C511297   0.630   1.232  15.395  0.3809  0.3023  0.3319
  765MPD2     H11298   0.937   1.444  15.446  1.5364 -1.2047 -2.1310
  765MPD2    H111299   0.760   1.115  15.271 -0.3013 -0.7861  1.2335
  765MPD2    H211300   0.511   1.356  15.510  0.8600  1.4658  1.5056
  765MPD2    H311301   0.551   1.158  15.383  0.5896  0.2087 -0.4464
  765MPD2     N11302   0.987   1.240  15.311 -0.4814 -0.1614 -0.0350
  765MPD2    H511303   1.060   1.288  15.362 -2.0668  1.3032  0.8615
  765MPD2    N111304   0.708   1.559  15.540 -0.1546 -0.4441 -0.4552
  765MPD2    H711305   0.777   1.630  15.519 -0.4844  0.1035  0.3225
  766MPD2     C11306   0.184   1.739  15.154  0.2042 -0.1365  0.3879
  766MPD2    C111307   0.323   1.743  15.168  0.3177  0.3300 -0.3414
  766MPD2    C211308   0.393   1.698  15.059  0.0905  0.1179  0.0906
  766MPD2    C311309   0.332   1.650  14.943 -0.1637 -0.6985 -0.3056
  766MPD2    C411310   0.198   1.660  14.932  0.2939  0.7362  0.8489
  766MPD2    C511311   0.125   1.704  15.043 -0.0446  0.7900  0.4230
  766MPD2     H11312   0.500   1.696  15.076  0.2113  1.6035 -0.4590
  766MPD2    H111313   0.138   1.625  14.848 -1.8380 -0.8013  2.9863
  766MPD2    H211314   0.118   1.770  15.235  0.4348 -1.2957  1.0163
  766MPD2    H311315   0.017   1.717  15.041 -0.2508 -1.0897 -0.6251
  766MPD2     N11316   0.405   1.606  14.829  0.1101  0.1927  0.9830
  766MPD2    H511317   0.350   1.584  14.746 -0.2835 -1.7533  1.7537
  766MPD2    N111318   0.392   1.777  15.286 -0.1627 -0.4632  0.6439
  766MPD2    H711319   0.493   1.773  15.276 -0.1563  1.1988 -0.0639
  767MPD2     C11320   0.079   1.928  14.785 -0.3950  0.1592 -0.1276
  767MPD2    C111321   0.214   1.926  14.758 -0.5608 -0.1668 -0.1257
  767MPD2    C211322   0.252   1.874  14.638 -0.1473  0.4568 -0.2879
  767MPD2    C311323   0.162   1.840  14.538  1.0717 -0.2078 -0.1626
  767MPD2    C411324   0.020   1.847  14.565  0.0904  0.2585  0.0752
  767MPD2    C511325   4.701   1.885  14.688  0.0815 -0.5368 -0.3591
  767MPD2     H11326   0.356   1.876  14.607 -0.3236  1.7976 -0.7757
  767MPD2    H111327   4.654   1.822  14.499  1.3590 -0.3272 -1.2693
  767MPD2    H211328   0.044   1.966  14.881  1.7635  2.0891 -0.1069
  767MPD2    H311329   4.596   1.890  14.715  0.5680  0.2836  1.3712
  767MPD2     N11330   0.212   1.806  14.409  0.3289  0.4985  0.2558
  767MPD2    H511331   0.312   1.796  14.404  0.0866 -1.8536 -0.0600
  767MPD2    N111332   0.296   1.986  14.856 -0.1460 -0.0930 -0.3246
  767MPD2    H711333   0.255   2.023  14.941 -0.1047 -1.0245  0.1001
  768MPD2     C11334   1.527   0.607  10.136  0.1805  0.2156  0.8330
  768MPD2    C111335   1.442   0.541  10.226  0.3242 -0.2329  0.3870
  768MPD2    C211336   1.487   0.539  10.362  0.8042 -0.2546  0.9052
  768MPD2    C311337   1.600   0.611  10.404  0.0070  0.2920  0.0486
  768MPD2    C411338   1.667   0.684  10.310 -0.2268  0.4721 -0.0785
  768MPD2    C511339   1.631   0.685  10.178 -0.1166  0.3028 -0.7101
  768MPD2     H11340   1.420   0.481  10.424 -2.6182  0.4946 -2.0720
  768MPD2    H111341   1.755   0.742  10.337 -0.6047  0.5133  1.0868
  768MPD2    H211342   1.504   0.620  10.031  0.6248  1.8443  0.9265
  768MPD2    H311343   1.690   0.739  10.105 -1.1509 -1.7219 -3.0350
  768MPD2     N11344   1.645   0.626  10.535 -0.2549 -0.6650  0.0973
  768MPD2    H511345   1.720   0.694  10.534  0.9804 -2.0296  0.4742
  768MPD2    N111346   1.305   0.493  10.205 -0.1181 -0.2341  0.4976
  768MPD2    H711347   1.262   0.447  10.284  0.8441  2.8286  2.8050
  769MPD2     C11348   2.325   3.061  14.827 -0.1038  1.0138  0.0264
  769MPD2    C111349   2.232   3.003  14.909  0.2436 -0.0903  1.0263
  769MPD2    C211350   2.239   3.025  15.042  0.4227  0.7737 -0.5646
  769MPD2    C311351   2.340   3.104  15.096  0.0699 -0.0768  0.0693
  769MPD2    C411352   2.443   3.144  15.015  0.0350 -0.2173  0.7424
  769MPD2    C511353   2.426   3.132  14.886 -0.2522 -0.0899 -0.3562
  769MPD2     H11354   2.153   3.007  15.106  0.3664  0.8754 -0.6112
  769MPD2    H111355   2.536   3.189  15.049 -0.6619  0.4522  1.7406
  769MPD2    H211356   2.332   3.057  14.719 -2.1349  2.1747 -0.1402
  769MPD2    H311357   2.506   3.167  14.822  1.2971  0.2234  1.7461
  769MPD2     N11358   2.323   3.142  15.234 -0.1147 -0.2949 -0.4301
  769MPD2    H511359   2.239   3.118  15.285  0.4682 -1.1954  0.0963
  769MPD2    N111360   2.125   2.935  14.843 -0.3096 -0.5699  0.4870
  769MPD2    H711361   2.121   2.944  14.742  2.1515 -2.3683  0.2384
  770MPD2     C11362   1.380   2.210  14.964  0.0624 -0.0158  0.3088
  770MPD2    C111363   1.503   2.182  14.911 -0.3491  0.1112 -0.3674
  770MPD2    C211364   1.588   2.288  14.880  0.1247  0.0859  0.2784
  770MPD2    C311365   1.547   2.422  14.899  0.2601 -0.2579 -0.4171
  770MPD2    C411366   1.423   2.444  14.941 -0.7808  0.0337 -0.3946
  770MPD2    C511367   1.343   2.339  14.977 -0.2578  0.1686 -0.8248
  770MPD2     H11368   1.688   2.265  14.844  1.1454  1.3624  2.2647
  770MPD2    H111369   1.382   2.541  14.965  1.0924  0.9121 -0.6860
  770MPD2    H211370   1.316   2.127  14.989  1.8011 -0.7753  2.2279
  770MPD2    H311371   1.245   2.364  15.017 -0.7133 -1.9530 -0.6158
  770MPD2     N11372   1.628   2.528  14.858  0.5430  0.4993  0.2909
  770MPD2    H511373   1.717   2.509  14.813 -0.0542 -1.4345 -0.0592
  770MPD2    N111374   1.540   2.049  14.923  0.1784  0.0388  0.3837
  770MPD2    H711375   1.467   1.982  14.946  0.4321 -0.0513  0.9379
  771MPD2     C11376   3.261   1.050  13.176 -0.0047 -0.3164  0.3899
  771MPD2    C111377   3.168   1.147  13.207  0.0268 -0.3533  0.5307
  771MPD2    C211378   3.066   1.170  13.111  0.7021  0.1283 -0.5028
  771MPD2    C311379   3.053   1.094  12.998  0.3737  0.7991  0.4183
  771MPD2    C411380   3.134   0.985  12.991 -0.1530 -0.4719 -0.2545
  771MPD2    C511381   3.242   0.967  13.074 -0.7480  0.2154 -0.2243
  771MPD2     H11382   2.999   1.254  13.123  1.4772  0.4597  1.4273
  771MPD2    H111383   3.121   0.918  12.906  2.9134  0.1136 -1.1844
  771MPD2    H211384   3.325   1.020  13.258  1.2228 -0.9496 -0.7803
  771MPD2    H311385   3.308   0.883  13.051 -1.3932 -0.5700  0.8150
  771MPD2     N11386   2.944   1.116  12.912  0.2306  0.2353 -0.8738
  771MPD2    H511387   2.906   1.209  12.922 -0.7782 -0.5508  2.3612
  771MPD2    N111388   3.172   1.213  13.327 -0.4513 -0.0022  1.0236
  771MPD2    H711389   3.256   1.201  13.383 -0.3165  0.9495  1.0105
  772MPD2     C11390   2.869   1.624  14.013 -0.2298  0.3336 -0.8317
  772MPD2    C111391   2.817   1.547  13.912  0.3139 -0.0013  0.5586
  772MPD2    C211392   2.677   1.544  13.904 -0.0689 -0.3073 -0.3702
  772MPD2    C311393   2.598   1.607  13.998 -0.0749 -0.4146 -1.4199
  772MPD2    C411394   2.652   1.658  14.119  0.2572 -0.1508  1.5430
  772MPD2    C511395   2.785   1.670  14.112 -0.5392 -0.0059 -0.0475
  772MPD2     H11396   2.631   1.499  13.817  0.9115 -0.3521 -0.8592
  772MPD2    H111397   2.595   1.715  14.191 -3.1120 -1.0764 -0.3880
  772MPD2    H211398   2.977   1.636  14.020 -0.3272  1.2660 -0.8799
  772MPD2    H311399   2.840   1.733  14.182 -0.8225 -0.9557  1.0245
  772MPD2     N11400   2.458   1.609  13.989  0.4123 -0.3473 -0.3142
  772MPD2    H511401   2.421   1.680  14.050  0.3263  0.6455 -1.5205
  772MPD2    N111402   2.903   1.503  13.806  1.4040  0.3337 -0.2330
  772MPD2    H711403   2.864   1.460  13.723  4.4658  1.9181 -2.5271
  773MPD2     C11404   2.173   2.032   0.385 -0.4349  0.0947  0.5761
  773MPD2    C111405   2.153   1.984   0.252  0.8990  0.4802 -0.6802
  773MPD2    C211406   2.156   1.847   0.222 -0.0706  0.0836  0.1624
  773MPD2    C311407   2.193   1.753   0.320  0.9290  0.2541 -0.0464
  773MPD2    C411408   2.223   1.798   0.445 -0.1032 -0.0441  0.0488
  773MPD2    C511409   2.207   1.929   0.477 -0.4241 -0.0962 -0.1577
  773MPD2     H11410   2.140   1.810   0.121  0.6214 -0.9181  0.4196
  773MPD2    H111411   2.262   1.740   0.527 -2.0015  1.1863  1.8109
  773MPD2    H211412   2.165   2.134   0.420  0.8808  0.3295  0.1704
  773MPD2    H311413   2.218   1.964   0.579 -1.4522  1.0900 -0.4555
  773MPD2     N11414   2.209   1.622   0.279 -0.0208 -0.0623  0.1436
  773MPD2    H511415   2.210   1.596   0.181  0.3060 -0.7927  0.3380
  773MPD2    N111416   2.099   2.071   0.153  0.1866  0.0142  0.4564
  773MPD2    H711417   2.070   2.026   0.068  0.0886  2.1075 -0.6112
  774MPD2     C11418   0.495   1.528  13.523 -0.1150  0.1603  0.6270
  774MPD2    C111419   0.617   1.562  13.478 -0.6665  0.1002 -0.4141
  774MPD2    C211420   0.626   1.666  13.381 -0.0951  0.4011 -0.4983
  774MPD2    C311421   0.515   1.731  13.332 -0.2878 -0.0259  0.4564
  774MPD2    C411422   0.392   1.678  13.366 -0.1386 -0.7442  0.2461
  774MPD2    C511423   0.383   1.582  13.466 -0.3589 -0.6822 -0.8029
  774MPD2     H11424   0.726   1.696  13.349  1.0491 -2.0464  0.8184
  774MPD2    H111425   0.299   1.725  13.333 -1.5547 -3.1737  0.7967
  774MPD2    H211426   0.475   1.448  13.593 -2.5053  0.4950  0.3009
  774MPD2    H311427   0.287   1.556  13.508 -0.3059 -0.7785 -0.7434
  774MPD2     N11428   0.528   1.842  13.244  0.3574  0.1586 -0.0709
  774MPD2    H511429   0.622   1.879  13.239  0.4499  0.1059  1.3060
  774MPD2    N111430   0.724   1.485  13.528  0.1541  1.0778  0.5598
  774MPD2    H711431   0.695   1.422  13.602 -1.4681  0.4528 -0.5939
  775MPD2     C11432   2.934   3.372  16.095 -0.5628 -0.3870 -0.1950
  775MPD2    C111433   2.816   3.425  16.059  0.4227 -0.3324  0.1222
  775MPD2    C211434   2.800   3.478  15.931  0.5364 -0.6038  0.0945
  775MPD2    C311435   2.906   3.471  15.848 -0.3733  0.7263 -0.0532
  775MPD2    C411436   3.023   3.416  15.888 -0.6238  0.4586  0.1247
  775MPD2    C511437   3.043   3.374  16.018  0.6567  0.8591  1.0123
  775MPD2     H11438   2.704   3.514  15.896  1.2154  0.7986 -0.3253
  775MPD2    H111439   3.105   3.415  15.818 -0.7125  1.5290  0.0079
  775MPD2    H211440   2.933   3.332  16.195 -0.1578  0.6093  0.2143
  775MPD2    H311441   3.139   3.341  16.056 -0.1077  0.2978  2.4394
  775MPD2     N11442   2.900   3.511  15.716 -0.3984  0.2089 -0.8795
  775MPD2    H511443   2.981   3.488  15.660  0.3177  3.2492 -1.1333
  775MPD2    N111444   2.710   3.394  16.152 -0.2176 -0.4283  0.5288
  775MPD2    H711445   2.735   3.354  16.241  1.7405 -2.4505 -0.9393
  776MPD2     C11446   1.557   3.916  10.765 -0.1317 -0.1032  0.1678
  776MPD2    C111447   1.661   3.913  10.859  0.4491  0.0451 -1.1349
  776MPD2    C211448   1.739   4.028  10.873 -0.0612  0.1511  0.6318
  776MPD2    C311449   1.705   4.141  10.794 -0.4033  0.0464  0.4520
  776MPD2    C411450   1.604   4.135  10.697  1.0255  0.3436  0.4576
  776MPD2    C511451   1.524   4.027  10.687  0.3397  0.0789  0.3779
  776MPD2     H11452   1.824   4.025  10.941 -0.2358  1.1692  0.8805
  776MPD2    H111453   1.576   4.222  10.638  1.7004  1.8199  2.3488
  776MPD2    H211454   1.498   3.825  10.755  1.8054 -1.5609  2.1629
  776MPD2    H311455   1.445   4.031  10.612 -0.1249 -2.1690  0.7425
  776MPD2     N11456   1.758   4.268  10.814  0.6179 -0.2993  0.1557
  776MPD2    H511457   1.725   4.356  10.775  1.5476  0.1206  0.3269
  776MPD2    N111458   1.690   3.792  10.926  0.5806 -0.1160  0.0940
  776MPD2    H711459   1.617   3.721  10.918  2.1173 -1.5503 -1.1831
  777MPD2     C11460   1.600   0.719   0.898  0.6305 -0.1897  0.0773
  777MPD2    C111461   1.643   0.620   0.981  0.8296 -0.3790 -0.6523
  777MPD2    C211462   1.652   0.489   0.929  0.0813  0.5555  0.5076
  777MPD2    C311463   1.611   0.457   0.802 -0.0132  0.4827  0.4875
  777MPD2    C411464   1.561   0.555   0.718 -0.1385 -0.7292 -0.3786
  777MPD2    C511465   1.560   0.686   0.768  0.9017 -0.1921  0.0310
  777MPD2     H11466   1.697   0.416   0.995 -0.7325  0.1409  0.6007
  777MPD2    H111467   1.539   0.535   0.614  1.1363  1.8929 -1.1589
  777MPD2    H211468   1.589   0.823   0.925  0.6522 -0.5700  1.5135
  777MPD2    H311469   1.525   0.767   0.706 -0.6679 -1.4068 -0.6550
  777MPD2     N11470   1.624   0.319   0.765 -0.3749 -0.1386  0.1022
  777MPD2    H511471   1.626   0.254   0.843 -2.3878  0.2496  0.4767
  777MPD2    N111472   1.685   0.661   1.114  1.0308  0.0392  0.2085
  777MPD2    H711473   1.674   0.760   1.133  2.0250 -0.0372  1.2044
  778MPD2     C11474   3.028   1.081  14.882 -0.1633 -0.3055  0.2793
  778MPD2    C111475   3.078   1.011  14.770  0.2701 -0.0320 -0.0702
  778MPD2    C211476   3.175   1.062  14.683  0.5411 -0.4248  0.5232
  778MPD2    C311477   3.210   1.194  14.695 -0.3930 -0.3752  0.6248
  778MPD2    C411478   3.154   1.258  14.803 -0.2475  0.1983 -0.7743
  778MPD2    C511479   3.067   1.208  14.893  0.2074  0.4664  0.4602
  778MPD2     H11480   3.221   1.011  14.600  0.8618  2.3007 -0.9850
  778MPD2    H111481   3.183   1.361  14.821 -1.1988  0.2249  0.6488
  778MPD2    H211482   2.953   1.057  14.956 -1.5272  2.0323 -0.3284
  778MPD2    H311483   3.037   1.273  14.974  3.8587  1.0696  1.2847
  778MPD2     N11484   3.301   1.257  14.606  0.0251  0.2803 -0.1239
  778MPD2    H511485   3.328   1.208  14.521 -0.4251  0.0131 -0.1102
  778MPD2    N111486   3.051   0.874  14.757 -0.6374  0.2401  0.1969
  778MPD2    H711487   3.080   0.814  14.681  1.1889  1.9434 -0.4546
  779MPD2     C11488   2.655   4.683  14.211  0.1001  0.3790  0.0717
  779MPD2    C111489   2.795   4.658  14.235  0.0942  0.5149  1.0381
  779MPD2    C211490   2.887   0.043  14.203  0.1855  0.6318  0.5140
  779MPD2    C311491   2.852   0.173  14.168  0.7858  0.3841 -0.4944
  779MPD2    C411492   2.715   0.192  14.148  0.1004 -0.2974  0.2389
  779MPD2    C511493   2.619   0.091  14.174  0.6525 -0.1154 -0.5160
  779MPD2     H11494   2.993   0.028  14.214 -0.1430 -0.8618  1.6041
  779MPD2    H111495   2.679   0.291  14.120 -0.1347 -1.1079 -2.3704
  779MPD2    H211496   2.571   4.615  14.218  0.5865 -0.2404 -0.1012
  779MPD2    H311497   2.516   0.109  14.146 -0.1337 -2.4206  0.8659
  779MPD2     N11498   2.941   0.269  14.113 -0.0846  0.1415  0.1766
  779MPD2    H511499   2.897   0.338  14.053 -1.5261 -0.4579  0.5466
  779MPD2    N111500   2.851   4.535  14.273 -0.1419  0.2800  0.0172
  779MPD2    H711501   2.945   4.536  14.309 -0.2025 -0.2613  0.1872
  780MPD2     C11502   2.600   4.655   1.472 -0.5915  0.0511 -0.5737
  780MPD2    C111503   2.578   4.566   1.370  0.6384  0.5166 -0.0696
  780MPD2    C211504   2.602   4.598   1.240  0.0286  0.2126  0.0455
  780MPD2    C311505   2.648   0.005   1.204 -0.1969 -0.2369 -0.3653
  780MPD2    C411506   2.677   0.098   1.306 -0.2666  0.5804  0.8237
  780MPD2    C511507   2.650   0.061   1.437 -0.0537 -0.1809 -0.1274
  780MPD2     H11508   2.589   4.520   1.165 -1.7522 -0.0142  0.6147
  780MPD2    H111509   2.701   0.201   1.286 -0.8359  0.9764  2.2257
  780MPD2    H211510   2.584   4.632   1.576 -1.5392  1.9996 -0.2937
  780MPD2    H311511   2.669   0.131   1.518  1.5229  1.3615 -1.8432
  780MPD2     N11512   2.689   0.027   1.071 -0.4828  0.8517 -0.3878
  780MPD2    H511513   2.664   4.666   1.010 -1.9980  2.5234 -1.9017
  780MPD2    N111514   2.517   4.448   1.412 -0.0391 -0.1572 -0.4663
  780MPD2    H711515   2.509   4.435   1.512  0.5195  0.9903 -0.2736
  781MPD2     C11516   4.454   1.766  11.643 -0.3507 -0.3227  0.2642
  781MPD2    C111517   4.504   1.658  11.720 -0.4283 -0.4347 -0.7858
  781MPD2    C211518   4.582   1.560  11.656 -0.3813  0.8287  0.2064
  781MPD2    C311519   4.626   1.577  11.522  0.1198  0.3364 -0.2343
  781MPD2    C411520   4.605   1.695  11.470 -0.2543 -0.4438  0.0548
  781MPD2    C511521   4.514   1.785  11.522  0.2750 -0.0207 -0.2796
  781MPD2     H11522   4.619   1.476  11.714 -0.8252  0.4381 -0.0827
  781MPD2    H111523   4.633   1.716  11.368 -1.1716  0.1213 -0.0779
  781MPD2    H211524   4.378   1.836  11.677 -1.0685 -0.6228 -0.6954
  781MPD2    H311525   4.493   1.867  11.455 -0.6657 -0.2250 -0.2393
  781MPD2     N11526   4.691   1.479  11.448  0.1910 -0.5262  0.1791
  781MPD2    H511527   0.003   1.506  11.355 -1.4052  0.3757 -0.0540
  781MPD2    N111528   4.476   1.647  11.853 -0.0668 -0.7383  0.1197
  781MPD2    H711529   4.502   1.560  11.898  0.7735  0.2803  1.6229
  782MPD2     C11530   2.291   2.205   9.895 -0.9840 -0.6684 -0.3543
  782MPD2    C111531   2.394   2.220   9.980  0.0112  0.2501  0.1306
  782MPD2    C211532   2.428   2.352  10.013 -0.3468  0.6384 -0.2655
  782MPD2    C311533   2.343   2.455   9.987 -0.3105  0.5185 -0.2228
  782MPD2    C411534   2.236   2.436   9.907  0.4905 -0.2928 -0.3588
  782MPD2    C511535   2.216   2.312   9.855 -0.2031 -0.1807 -0.1336
  782MPD2     H11536   2.509   2.376  10.081  0.9423  0.7183 -1.8437
  782MPD2    H111537   2.173   2.518   9.873 -0.7635 -0.6140  1.1921
  782MPD2    H211538   2.269   2.105   9.861  0.8736 -1.5081  0.9413
  782MPD2    H311539   2.137   2.296   9.783  0.0487  0.6094 -0.5728
  782MPD2     N11540   2.373   2.572  10.051 -0.2028 -0.1058 -0.6231
  782MPD2    H511541   2.454   2.570  10.112 -0.3444 -1.1468 -0.4652
  782MPD2    N111542   2.468   2.104  10.016 -0.7378 -0.0510  0.3100
  782MPD2    H711543   2.433   2.012   9.992 -0.1066  0.1344 -1.3178
  783MPD2     C11544   1.994   2.003  10.659  0.0545 -1.1005 -0.0019
  783MPD2    C111545   2.073   2.112  10.634 -0.4050 -0.4223  0.5981
  783MPD2    C211546   2.191   2.100  10.569  0.9223 -0.0933  0.1730
  783MPD2    C311547   2.240   1.972  10.540 -0.0689  0.0707 -0.7620
  783MPD2    C411548   2.163   1.861  10.568  0.1028  0.0406 -0.0998
  783MPD2    C511549   2.033   1.874  10.624 -1.0785  0.7856  0.1199
  783MPD2     H11550   2.239   2.194  10.542  2.6836 -1.6693 -2.1372
  783MPD2    H111551   2.194   1.757  10.564  1.3227  0.4897 -2.2031
  783MPD2    H211552   1.896   2.017  10.704 -0.4567 -0.8796 -1.1809
  783MPD2    H311553   1.978   1.784  10.649  1.2934 -1.1249 -1.5807
  783MPD2     N11554   2.359   1.959  10.471  0.3998 -0.3901  0.2731
  783MPD2    H511555   2.407   2.043  10.440 -0.1589  0.0464  0.5664
  783MPD2    N111556   2.009   2.228  10.675 -0.8097 -0.1850  0.3499
  783MPD2    H711557   1.924   2.211  10.727 -0.7721 -1.1707  0.0878
  784MPD2     C11558   4.418   1.998   0.678 -0.0343 -0.5040 -0.0839
  784MPD2    C111559   4.415   2.117   0.740 -0.6180  0.1073  0.2289
  784MPD2    C211560   4.374   2.229   0.672 -0.2617  0.4041 -0.6043
  784MPD2    C311561   4.340   2.218   0.539  0.4538 -0.5589 -0.1403
  784MPD2    C411562   4.355   2.099   0.473 -0.7968  0.0239  1.2662
  784MPD2    C511563   4.391   1.988   0.545 -0.1517  0.4510 -0.4285
  784MPD2     H11564   4.376   2.328   0.716  2.2336 -0.2672  0.7970
  784MPD2    H111565   4.333   2.085   0.367  2.0257  0.4638  0.6187
  784MPD2    H211566   4.439   1.906   0.732 -0.1628 -1.1731 -1.1738
  784MPD2    H311567   4.395   1.891   0.497 -2.0495 -0.9438  2.2197
  784MPD2     N11568   4.285   2.329   0.477  0.0220  0.0866  0.4630
  784MPD2    H511569   4.260   2.402   0.544  0.2118 -0.3073  0.9644
  784MPD2    N111570   4.455   2.128   0.879 -0.0536 -0.0853 -0.2957
  784MPD2    H711571   4.451   2.224   0.912  0.1434  0.2653 -1.2762
  785MPD2     C11572   0.402   0.607  10.591 -0.5026  0.2671 -0.8411
  785MPD2    C111573   0.347   0.728  10.588 -0.1613  0.6379 -0.1201
  785MPD2    C211574   0.209   0.731  10.565 -0.1897  0.5168  0.1002
  785MPD2    C311575   0.138   0.615  10.548  0.6903 -0.0197  0.3926
  785MPD2    C411576   0.203   0.496  10.555 -0.4837  0.2948 -0.3002
  785MPD2    C511577   0.331   0.493  10.577  0.0696  0.2115  0.2429
  785MPD2     H11578   0.157   0.826  10.574 -2.1414 -0.5480  0.1013
  785MPD2    H111579   0.147   0.404  10.549  1.0552 -0.8352  2.2766
  785MPD2    H211580   0.509   0.596  10.604 -0.7758 -3.0093 -1.4517
  785MPD2    H311581   0.388   0.401  10.586  0.7819  0.6859  0.6495
  785MPD2     N11582   4.714   0.629  10.548 -0.3638 -0.5712 -0.2953
  785MPD2    H511583   4.690   0.727  10.551 -0.4294 -0.6670  2.1858
  785MPD2    N111584   0.429   0.842  10.607 -0.4777 -0.0201 -0.0053
  785MPD2    H711585   0.527   0.826  10.626 -0.1558 -0.5076 -2.1503
  786MPD2     C11586   3.193   3.953  14.954 -1.2951  0.3592 -0.1946
  786MPD2    C111587   3.293   3.863  14.949 -0.4680 -0.0139  0.4870
  786MPD2    C211588   3.341   3.821  15.073  0.2595 -0.2658  0.3340
  786MPD2    C311589   3.309   3.878  15.194  0.2372  0.1254 -0.8097
  786MPD2    C411590   3.221   3.972  15.188  0.0758 -1.1391 -0.3090
  786MPD2    C511591   3.153   3.999  15.074 -0.0220  0.0876 -0.1398
  786MPD2     H11592   3.427   3.755  15.064  0.0683 -0.8166  2.5213
  786MPD2    H111593   3.190   4.024  15.278  2.6812  1.6062 -1.0026
  786MPD2    H211594   3.134   3.985  14.869  0.8912  0.5957 -1.6066
  786MPD2    H311595   3.074   4.073  15.074 -0.0327  0.0746  0.0592
  786MPD2     N11596   3.361   3.850  15.316 -0.0930 -0.1102  0.5803
  786MPD2    H511597   3.333   3.907  15.395  2.7360  0.8507  0.8762
  786MPD2    N111598   3.336   3.804  14.827  0.5299 -0.3121 -0.2518
  786MPD2    H711599   3.410   3.735  14.835 -0.4869 -1.4835 -1.0491
  787MPD2     C11600   3.701   3.352  14.929 -0.0804 -0.2215 -0.8490
  787MPD2    C111601   3.703   3.363  14.792  0.1942 -0.4772  0.0205
  787MPD2    C211602   3.749   3.256  14.720  0.2367 -0.7698  0.3645
  787MPD2    C311603   3.796   3.140  14.777 -0.4446  0.7030  0.1579
  787MPD2    C411604   3.785   3.135  14.913 -0.4721 -0.8101  0.7039
  787MPD2    C511605   3.744   3.236  14.985  0.0785 -0.7372  0.7606
  787MPD2     H11606   3.723   3.257  14.615 -0.9678  1.5717  0.6890
  787MPD2    H111607   3.807   3.045  14.969  0.0408  0.7520  3.0071
  787MPD2    H211608   3.673   3.427  15.002 -0.4408 -0.2584 -0.9481
  787MPD2    H311609   3.736   3.223  15.093  0.6992 -0.7943  0.7963
  787MPD2     N11610   3.842   3.036  14.691 -0.4681 -0.7326 -0.3937
  787MPD2    H511611   3.862   3.058  14.594 -0.5887 -0.0192 -0.2597
  787MPD2    N111612   3.646   3.476  14.734  0.0083  0.5896 -1.0383
  787MPD2    H711613   3.607   3.548  14.795 -0.2458 -1.2804  1.0060
  788MPD2     C11614   0.934   1.099   0.830 -0.7103  0.3871 -0.1505
  788MPD2    C111615   0.825   1.122   0.756 -0.4004 -0.6659  0.0670
  788MPD2    C211616   0.800   1.246   0.710 -0.5399  0.3062  0.4397
  788MPD2    C311617   0.893   1.345   0.737 -0.2156  0.5481 -0.0518
  788MPD2    C411618   1.008   1.318   0.808  0.3269 -0.5938 -0.8613
  788MPD2    C511619   1.025   1.196   0.866 -0.4683 -0.2392 -0.0931
  788MPD2     H11620   0.720   1.273   0.642 -0.6129 -1.7208 -0.2796
  788MPD2    H111621   1.078   1.397   0.835 -1.4326  0.5673  0.2507
  788MPD2    H211622   0.941   1.005   0.883 -1.9465  1.3463  1.7652
  788MPD2    H311623   1.109   1.173   0.931 -0.5020 -0.7168 -0.2201
  788MPD2     N11624   0.873   1.483   0.709 -0.2493 -0.1436 -0.0553
  788MPD2    H511625   0.955   1.541   0.696 -0.7899  0.8132  0.8638
  788MPD2    N111626   0.731   1.018   0.726 -0.3843  0.1725  0.6401
  788MPD2    H711627   0.649   1.039   0.670  0.0324 -1.5469 -0.6398
  789MPD2     C11628   0.958   1.736  15.844 -0.4758 -0.5425  0.2280
  789MPD2    C111629   0.871   1.648  15.910 -0.7573  0.4192  0.4601
  789MPD2    C211630   0.780   1.702  16.004  0.2671  0.3980  0.0899
  789MPD2    C311631   0.771   1.839  16.017  0.5250 -0.7791 -0.5540
  789MPD2    C411632   0.844   1.923  15.933 -0.4046  0.5618 -0.4328
  789MPD2    C511633   0.943   1.868  15.853  0.1063 -0.8179 -0.1672
  789MPD2     H11634   0.709   1.633  16.048  0.0793 -0.2444 -1.2249
  789MPD2    H111635   0.829   2.030  15.942 -0.9126  0.3813  0.9691
  789MPD2    H211636   1.036   1.696  15.782 -0.9070 -1.7787  0.4782
  789MPD2    H311637   1.003   1.939  15.797 -0.1864  0.0058  0.5660
  789MPD2     N11638   0.680   1.901  16.102  0.4922  0.6476 -0.6392
  789MPD2    H511639   0.670   2.002  16.100  1.4085  0.7615  0.8268
  789MPD2    N111640   0.868   1.515  15.885  0.5693 -0.5078 -0.5508
  789MPD2    H711641   0.808   1.468  15.952  0.6303  0.7878  0.4076
  790MPD2     C11642   1.572   3.240  13.660 -0.3201 -0.7215 -0.7651
  790MPD2    C111643   1.657   3.325  13.597 -0.1754  0.1611  0.3302
  790MPD2    C211644   1.617   3.374  13.476  0.2916  0.4658  0.0255
  790MPD2    C311645   1.488   3.361  13.436 -0.0114 -0.6522 -1.1156
  790MPD2    C411646   1.402   3.289  13.514 -0.1842 -0.6241 -0.4668
  790MPD2    C511647   1.443   3.229  13.633  0.5805  0.1281 -0.1210
  790MPD2     H11648   1.683   3.439  13.420 -2.1822  1.8996 -1.2298
  790MPD2    H111649   1.300   3.263  13.488 -1.1329 -0.6145  3.1485
  790MPD2    H211650   1.595   3.205  13.760  2.7220  2.0997 -0.4606
  790MPD2    H311651   1.367   3.182  13.695 -0.7650  1.7684 -0.5490
  790MPD2     N11652   1.456   3.435  13.323 -0.5330  0.5609 -0.1891
  790MPD2    H511653   1.525   3.477  13.261 -1.0814  2.8197  0.7429
  790MPD2    N111654   1.774   3.357  13.668 -0.0091  0.3330 -0.6448
  790MPD2    H711655   1.780   3.313  13.760 -0.3905  0.2381 -0.6668
  791MPD2     C11656   1.019   3.774  12.557  0.2675  0.6717 -0.2565
  791MPD2    C111657   1.002   3.661  12.641  0.3394  0.4955 -0.2110
  791MPD2    C211658   0.906   3.567  12.613  0.0455 -0.1026  0.1293
  791MPD2    C311659   0.824   3.591  12.507  0.2111 -0.8487  0.7563
  791MPD2    C411660   0.836   3.701  12.437  0.5758 -0.6847 -0.4043
  791MPD2    C511661   0.937   3.791  12.448 -0.6591 -0.8251  0.5800
  791MPD2     H11662   0.898   3.477  12.673  0.0127  0.7267  1.3879
  791MPD2    H111663   0.772   3.714  12.351  1.3509 -2.1389 -1.2198
  791MPD2    H211664   1.097   3.847  12.577 -0.0793  1.1468 -0.6499
  791MPD2    H311665   0.945   3.877  12.383  3.2808 -1.3679  0.3734
  791MPD2     N11666   0.727   3.490  12.490  0.0372 -0.0597 -0.1020
  791MPD2    H511667   0.736   3.412  12.554 -0.2841  1.7634  2.1629
  791MPD2    N111668   1.094   3.661  12.755 -0.1652 -0.0481  0.0228
  791MPD2    H711669   1.169   3.729  12.751 -1.8504  1.8827  1.2485
  792MPD2     C11670   2.379   3.589  10.771  0.5541  0.4950  0.5377
  792MPD2    C111671   2.250   3.607  10.708 -0.3850  0.5728 -0.2823
  792MPD2    C211672   2.177   3.494  10.689 -0.1524  0.2076  0.5612
  792MPD2    C311673   2.226   3.367  10.729 -0.1623 -0.0698  0.3120
  792MPD2    C411674   2.351   3.357  10.784 -0.3111 -0.2409  0.0713
  792MPD2    C511675   2.428   3.466  10.794 -0.1966  0.5888  0.5782
  792MPD2     H11676   2.083   3.503  10.636 -0.0953 -1.9109  0.0960
  792MPD2    H111677   2.376   3.265  10.837  0.8182 -0.2055 -0.3985
  792MPD2    H211678   2.445   3.673  10.791  1.2061  0.2715 -0.7015
  792MPD2    H311679   2.524   3.447  10.841 -0.3520  2.4449  1.6376
  792MPD2     N11680   2.151   3.254  10.719 -0.0611  1.0349 -0.5036
  792MPD2    H511681   2.200   3.167  10.738 -1.3566  0.0637 -1.6318
  792MPD2    N111682   2.220   3.739  10.672  0.0343 -0.5911 -0.2378
  792MPD2    H711683   2.287   3.806  10.708 -2.4210  0.5628  2.1326
  793MPD2     C11684   1.264   3.215  10.389 -0.4434 -0.5975  0.7456
  793MPD2    C111685   1.370   3.302  10.404  0.7248 -0.1268 -0.0164
  793MPD2    C211686   1.470   3.267  10.497  0.5636 -0.3128  0.2828
  793MPD2    C311687   1.459   3.154  10.570 -0.1876 -0.3222 -0.2182
  793MPD2    C411688   1.349   3.071  10.557 -0.2906 -0.0955  1.0104
  793MPD2    C511689   1.249   3.106  10.471  0.2914 -0.2823  0.0984
  793MPD2     H11690   1.557   3.331  10.500 -0.6399  1.4019 -0.8107
  793MPD2    H111691   1.343   2.979  10.613 -1.2843 -1.4100 -1.2611
  793MPD2    H211692   1.193   3.227  10.307 -2.3093  0.7117  2.5436
  793MPD2    H311693   1.166   3.039  10.450  0.8386 -0.8815 -0.1669
  793MPD2     N11694   1.574   3.130  10.647  0.1252 -0.0909 -0.3405
  793MPD2    H511695   1.635   3.208  10.668 -0.6192  1.0046 -2.3043
  793MPD2    N111696   1.409   3.407  10.316  0.4211  0.0326 -0.1248
  793MPD2    H711697   1.509   3.425  10.326  0.5896 -0.6811 -0.5465
  794MPD2     C11698   1.956   2.824  17.400 -0.4232  0.3558 -0.4216
  794MPD2    C111699   1.906   2.707  17.346  0.0352  0.0474  0.2288
  794MPD2    C211700   1.851   2.702  17.226 -0.3745  0.3578  0.8627
  794MPD2    C311701   1.830   2.825  17.157 -0.0691 -0.8659  0.3002
  794MPD2    C411702   1.887   2.938  17.206  0.4020 -0.0294 -0.0586
  794MPD2    C511703   1.946   2.939  17.331 -0.2835  0.1786 -0.3571
  794MPD2     H11704   1.819   2.608  17.184  1.4570  1.2690 -2.6339
  794MPD2    H111705   1.885   3.030  17.149 -1.6269 -0.8161 -1.2821
  794MPD2    H211706   2.002   2.836  17.498 -1.0462  0.3428 -0.1273
  794MPD2    H311707   1.983   3.030  17.378  0.2712  0.2936 -1.0122
  794MPD2     N11708   1.747   2.834  17.035  0.0530  0.0442 -0.2910
  794MPD2    H511709   1.727   2.928  17.002  0.7047 -0.3411 -1.7576
  794MPD2    N111710   1.896   2.586  17.419 -0.7269  1.1414  0.5566
  794MPD2    H711711   1.844   2.515  17.367  0.3229  0.9748 -0.2624
  795MPD2     C11712   4.091   0.539  12.908  0.1541 -0.3161 -0.0601
  795MPD2    C111713   4.002   0.447  12.968 -0.5775  0.4075  0.4118
  795MPD2    C211714   4.055   0.352  13.053  0.4434  0.1156 -0.3281
  795MPD2    C311715   4.192   0.346  13.083  0.6763  0.1483 -0.2594
  795MPD2    C411716   4.274   0.446  13.030  0.2109 -0.1654  0.3603
  795MPD2    C511717   4.222   0.535  12.945  0.2819  0.0186 -0.6835
  795MPD2     H11718   3.984   0.282  13.094  0.2829  0.5935  0.2142
  795MPD2    H111719   4.371   0.472  13.068  0.4102  1.1323 -1.0157
  795MPD2    H211720   4.061   0.610  12.831 -0.6088  1.1088  1.5319
  795MPD2    H311721   4.297   0.608  12.915 -1.5834  1.1030 -2.6977
  795MPD2     N11722   4.248   0.240  13.155  0.0153  0.0155 -0.3499
  795MPD2    H511723   4.188   0.159  13.169 -2.2584  1.7594 -0.0103
  795MPD2    N111724   3.864   0.445  12.953 -0.5146  0.1880 -0.7731
  795MPD2    H711725   3.809   0.388  13.017 -1.0614  1.9648  0.3349
  796MPD2     C11726   3.666   2.085  15.748  0.3460  0.5408 -0.1945
  796MPD2    C111727   3.725   2.108  15.867  0.1980  1.0841 -0.2127
  796MPD2    C211728   3.735   2.240  15.909  0.5425 -0.2895 -0.5938
  796MPD2    C311729   3.666   2.339  15.835 -0.7304 -0.2896  0.3159
  796MPD2    C411730   3.616   2.311  15.711  0.0184  0.1728  0.4616
  796MPD2    C511731   3.629   2.184  15.663 -0.3942  0.1162  0.7635
  796MPD2     H11732   3.775   2.256  16.008 -0.9208  0.2720 -0.0869
  796MPD2    H111733   3.566   2.379  15.642  0.5812  1.1859  1.0577
  796MPD2    H211734   3.669   1.981  15.716  0.5841  0.4907 -0.0043
  796MPD2    H311735   3.599   2.153  15.564  1.7604  3.4314 -0.9677
  796MPD2     N11736   3.660   2.467  15.899  0.5994 -0.2881 -0.1761
  796MPD2    H511737   3.710   2.487  15.985 -1.3366 -0.3869  0.9694
  796MPD2    N111738   3.779   1.995  15.934  0.3084 -0.1273 -0.1572
  796MPD2    H711739   3.755   1.901  15.903 -1.5254  0.6049 -0.9265
  797MPD2     C11740   0.321   1.219  16.216 -0.1782  0.1639 -0.1334
  797MPD2    C111741   0.349   1.197  16.346 -0.2728 -0.8188  0.1307
  797MPD2    C211742   0.262   1.254  16.439  0.1330  0.4702 -0.7143
  797MPD2    C311743   0.144   1.319  16.411 -0.2534 -0.2050 -0.2647
  797MPD2    C411744   0.121   1.345  16.277 -0.0487 -0.0066  0.2020
  797MPD2    C511745   0.211   1.304  16.185 -0.2944  0.5559 -0.4914
  797MPD2     H11746   0.287   1.234  16.543 -4.0843  0.0842  0.2044
  797MPD2    H111747   0.028   1.387  16.239 -1.1906 -1.4615  1.3754
  797MPD2    H211748   0.392   1.182  16.143 -0.8355 -2.3531  0.4715
  797MPD2    H311749   0.185   1.308  16.080  1.2962  0.0649 -0.9151
  797MPD2     N11750   0.047   1.360  16.505  0.3776 -0.9536  0.5238
  797MPD2    H511751   4.678   1.406  16.473  0.5963  0.6821  2.3163
  797MPD2    N111752   0.458   1.119  16.404 -0.1079  0.9644 -0.0115
  797MPD2    H711753   0.469   1.125  16.504  2.0886  0.7957 -0.2439
  798MPD2     C11754   0.266   1.122  17.154 -0.1173  0.3114  0.0249
  798MPD2    C111755   0.248   1.160  17.024  0.1937 -0.1980 -0.6792
  798MPD2    C211756   0.350   1.148  16.937 -0.3963  0.3616 -0.2700
  798MPD2    C311757   0.465   1.076  16.968 -0.1971 -0.4770  0.9638
  798MPD2    C411758   0.477   1.046  17.101 -0.2454  0.1903  0.3504
  798MPD2    C511759   0.384   1.072  17.197  0.0321  0.2514 -0.1863
  798MPD2     H11760   0.341   1.187  16.836  0.7027  1.4935  0.0708
  798MPD2    H111761   0.570   1.000  17.133 -0.6283 -0.8701 -0.0836
  798MPD2    H211762   0.185   1.127  17.225 -0.6989  3.0569 -0.8422
  798MPD2    H311763   0.396   1.041  17.300  1.6173  0.5333 -0.2896
  798MPD2     N11764   0.568   1.041  16.878 -0.5997  0.4106  0.3276
  798MPD2    H511765   0.640   0.971  16.893 -0.3582  0.3873 -0.9474
  798MPD2    N111766   0.126   1.219  16.970  0.0117  0.6063  0.5510
  798MPD2    H711767   0.129   1.238  16.871 -0.9794  0.5717  0.5103
  799MPD2     C11768   3.146   2.996  14.604 -0.4107 -0.0138  0.0430
  799MPD2    C111769   3.190   2.913  14.501  0.2876 -0.3503  0.0722
  799MPD2    C211770   3.144   2.931  14.374 -0.4766  0.6557 -0.4270
  799MPD2    C311771   3.054   3.031  14.353  1.1254  0.2200  0.0380
  799MPD2    C411772   3.021   3.117  14.451 -0.4362  0.0178  0.2043
  799MPD2    C511773   3.062   3.104  14.576 -0.0339  0.2715 -0.8863
  799MPD2     H11774   3.177   2.862  14.298 -2.0940 -0.0553 -0.4880
  799MPD2    H111775   2.944   3.191  14.435 -0.4762  0.1695  1.0903
  799MPD2    H211776   3.181   2.976  14.705 -2.2137 -1.2605  0.4338
  799MPD2    H311777   3.030   3.174  14.653 -0.9207  0.9650 -1.8792
  799MPD2     N11778   2.994   3.047  14.222  0.2150 -0.1858  0.1906
  799MPD2    H511779   2.956   3.139  14.201  0.6595 -0.0320  0.0619
  799MPD2    N111780   3.273   2.797  14.522 -0.1732  0.0576 -0.5637
  799MPD2    H711781   3.286   2.737  14.442 -0.7531  0.8353 -1.2492
  800MPD2     C11782   3.921   3.774  14.328  0.0569 -0.0590 -0.2014
  800MPD2    C111783   3.938   3.895  14.275 -0.0223 -0.1340 -0.6144
  800MPD2    C211784   3.879   3.929  14.156 -0.5632 -0.2396  0.3132
  800MPD2    C311785   3.815   3.828  14.091  0.4075  0.5251 -0.0757
  800MPD2    C411786   3.807   3.702  14.144  1.0835 -0.4877  0.0906
  800MPD2    C511787   3.853   3.677  14.267  0.0896  0.1378 -0.3413
  800MPD2     H11788   3.892   4.025  14.107  2.2366 -1.3169 -1.0740
  800MPD2    H111789   3.773   3.612  14.094  2.3157  0.7185 -2.9134
  800MPD2    H211790   3.978   3.739  14.413  0.4230 -0.4134 -0.5956
  800MPD2    H311791   3.853   3.573  14.299 -0.1496  0.3152  0.2362
  800MPD2     N11792   3.775   3.852  13.959 -0.3059  0.4647 -0.1130
  800MPD2    H511793   3.796   3.941  13.914  0.8766  1.2750  2.0626
  800MPD2    N111794   4.014   3.994  14.346  0.1417  0.5962 -0.3067
  800MPD2    H711795   4.064   3.952  14.424 -2.9387 -1.8520  0.3751
  801MPD2     C11796   4.051   0.057  14.208  0.2030  0.1773 -0.3258
  801MPD2    C111797   4.034   4.704  14.329 -0.7995 -0.3346  0.9629
  801MPD2    C211798   3.914   0.013  14.394  0.5685 -0.7857  0.3107
  801MPD2    C311799   3.810   0.093  14.350 -0.4494 -0.1652  0.0136
  801MPD2    C411800   3.829   0.153  14.223  0.3123 -0.5039  0.3604
  801MPD2    C511801   3.952   0.136  14.159 -0.1660  0.1961 -0.4892
  801MPD2     H11802   3.903   4.673  14.486  2.1258  0.2073  1.1111
  801MPD2    H111803   3.753   0.213  14.175  2.0617 -0.9105 -2.9282
  801MPD2    H211804   4.133   0.042  14.139 -0.5701  2.3087 -1.6888
  801MPD2    H311805   3.967   0.198  14.072  0.2493 -0.1251 -0.6479
  801MPD2     N11806   3.681   0.109  14.408 -0.2935 -0.6258 -0.0372
  801MPD2    H511807   3.618   0.160  14.347 -0.1779 -0.6191 -0.1499
  801MPD2    N111808   4.107   4.589  14.371  0.1727  0.0219 -0.2877
  801MPD2    H711809   4.071   4.528  14.444  0.0538  0.8186  0.3234
  802MPD2     C11810   3.148   0.275  17.411 -0.5014  0.3386  0.1225
  802MPD2    C111811   3.241   0.288  17.514  0.3902 -0.6496  0.1248
  802MPD2    C211812   3.287   0.164  17.569  0.1926  0.3336  0.5393
  802MPD2    C311813   3.241   0.042  17.521 -0.6141 -0.2510  0.3005
  802MPD2    C411814   3.139   0.036  17.432 -0.6608  0.1269 -0.3130
  802MPD2    C511815   3.084   0.159  17.388  0.7256 -0.8483 -0.2628
  802MPD2     H11816   3.365   0.174  17.643 -0.4140 -0.8669  1.3359
  802MPD2    H111817   3.088   4.658  17.416  4.1495 -1.8522 -3.6823
  802MPD2    H211818   3.095   0.365  17.381 -0.1296  0.5836  0.1982
  802MPD2    H311819   3.003   0.162  17.316  0.4701  1.2127  0.1058
  802MPD2     N11820   3.294   4.637  17.579  0.2676 -0.4676  0.1393
  802MPD2    H511821   3.376   4.660  17.634  1.8188 -2.9956 -1.0962
  802MPD2    N111822   3.278   0.412  17.569 -0.0910 -0.6626 -0.1049
  802MPD2    H711823   3.326   0.412  17.658 -0.3724 -1.0719  0.0448
  803MPD2     C11824   4.452   3.849  11.481  0.0668  0.7782  0.6981
  803MPD2    C111825   4.519   3.833  11.599 -0.3580  0.5368 -0.5610
  803MPD2    C211826   4.465   3.749  11.695 -0.3005 -1.0295 -0.4787
  803MPD2    C311827   4.347   3.682  11.668  0.1130 -0.1035  0.1364
  803MPD2    C411828   4.291   3.695  11.546 -0.1648 -0.4523  0.2235
  803MPD2    C511829   4.335   3.787  11.456 -0.3034  0.0119 -0.1626
  803MPD2     H11830   4.510   3.744  11.793 -0.7258  1.6033 -0.1401
  803MPD2    H111831   4.202   3.642  11.515 -0.7625  0.0288  1.1444
  803MPD2    H211832   4.495   3.913  11.405  0.2312  0.5452  0.5948
  803MPD2    H311833   4.278   3.799  11.364 -0.8763 -0.3094  0.1498
  803MPD2     N11834   4.286   3.596  11.762 -0.0739 -0.1612 -0.4311
  803MPD2    H511835   4.221   3.530  11.721  0.4287 -1.2104  0.4755
  803MPD2    N111836   4.645   3.898  11.622 -0.5803  0.0265 -0.1785
  803MPD2    H711837   4.673   3.897  11.720  0.1558 -0.2512 -0.3876
  804MPD2     C11838   3.850   4.391  16.864 -0.3919  0.6984 -0.2939
  804MPD2    C111839   3.966   4.371  16.935 -1.0772 -0.4954  0.7369
  804MPD2    C211840   4.055   4.480  16.944  0.2313 -0.6089  0.2123
  804MPD2    C311841   4.020   4.603  16.892  0.5681 -0.3460  0.1677
  804MPD2    C411842   3.900   4.618  16.820  0.6252  0.6652  0.4994
  804MPD2    C511843   3.815   4.512  16.813  0.4181  0.1328  1.0396
  804MPD2     H11844   4.150   4.470  16.996  1.1608  0.1707 -1.3494
  804MPD2    H111845   3.860   4.712  16.785  0.1297 -0.4793 -2.0162
  804MPD2    H211846   3.774   4.315  16.853  1.1350 -0.7323 -0.9746
  804MPD2    H311847   3.723   4.518  16.755  0.4618 -0.2947  0.9227
  804MPD2     N11848   4.107   4.708  16.907 -0.3170  0.0863 -0.6560
  804MPD2    H511849   4.191   4.690  16.961 -0.1809 -0.5549 -1.0827
  804MPD2    N111850   4.003   4.251  16.995 -0.2974  0.1572 -0.3300
  804MPD2    H711851   4.072   4.255  17.069  0.0175  1.8679 -0.7285
  805MPD2     C11852   3.181   3.193  15.680 -0.4524 -0.4681  0.2350
  805MPD2    C111853   3.209   3.187  15.544 -0.1491  0.1607  0.1620
  805MPD2    C211854   3.344   3.170  15.506 -0.0741  0.1968 -0.3892
  805MPD2    C311855   3.448   3.150  15.595  0.1229  0.2615  0.7384
  805MPD2    C411856   3.416   3.147  15.731 -0.3686 -0.0263 -0.5398
  805MPD2    C511857   3.283   3.171  15.768  0.1608  0.2196 -0.1990
  805MPD2     H11858   3.375   3.163  15.402  2.6172  0.5077  0.4009
  805MPD2    H111859   3.483   3.122  15.812  0.1197  0.0796 -0.9085
  805MPD2    H211860   3.082   3.190  15.726 -0.7413 -1.0997 -0.4288
  805MPD2    H311861   3.262   3.163  15.874  0.4952  1.9534 -0.0145
  805MPD2     N11862   3.579   3.123  15.547  0.3664  0.6624  0.2311
  805MPD2    H511863   3.600   3.121  15.448  0.6618 -1.2525  0.3187
  805MPD2    N111864   3.115   3.197  15.442 -0.2530 -0.7804  0.3486
  805MPD2    H711865   3.151   3.186  15.348 -0.2080 -1.2202  0.4169
  806MPD2     C11866   3.774   1.141   0.264  0.6151  0.0975  0.0424
  806MPD2    C111867   3.707   1.249   0.312  0.2627  0.3557  0.1482
  806MPD2    C211868   3.759   1.376   0.296  0.2882  0.0324  0.2007
  806MPD2    C311869   3.866   1.398   0.220  0.1490  0.0991 -0.0703
  806MPD2    C411870   3.934   1.292   0.160 -0.2946  0.2820 -0.9648
  806MPD2    C511871   3.884   1.170   0.187 -0.1347  0.0426  0.1357
  806MPD2     H11872   3.717   1.464   0.344  1.1256  1.0045 -0.8519
  806MPD2    H111873   4.020   1.303   0.095 -2.4750  0.0012 -3.9061
  806MPD2    H211874   3.768   1.033   0.275  2.6908 -0.0514 -0.1493
  806MPD2    H311875   3.940   1.084   0.151 -2.5456 -1.3195 -0.3702
  806MPD2     N11876   3.919   1.528   0.223 -0.4050  0.4436  0.1801
  806MPD2    H511877   3.876   1.591   0.290  0.5744  3.2778 -1.8482
  806MPD2    N111878   3.600   1.226   0.397 -0.5995 -0.2357  0.4866
  806MPD2    H711879   3.574   1.131   0.421  0.3603 -0.9354 -1.2634
  807MPD2     C11880   3.453   0.666   0.859 -0.0721  0.2598 -0.6221
  807MPD2    C111881   3.424   0.782   0.929  0.0658 -0.5461  0.0174
  807MPD2    C211882   3.376   0.781   1.058  0.2455  0.9309  0.3275
  807MPD2    C311883   3.373   0.664   1.125 -0.3952  0.2839  0.3162
  807MPD2    C411884   3.414   0.547   1.063  1.0105 -0.4340  0.0102
  807MPD2    C511885   3.452   0.551   0.935  0.2673 -0.2004 -0.0851
  807MPD2     H11886   3.354   0.873   1.112  2.2528  0.4113  2.0235
  807MPD2    H111887   3.420   0.455   1.121 -0.6792  1.4449  3.2002
  807MPD2    H211888   3.502   0.661   0.762 -0.1815 -1.5238 -0.5731
  807MPD2    H311889   3.490   0.463   0.886  2.0675  0.0753  0.8188
  807MPD2     N11890   3.320   0.665   1.254  0.1971  0.0129  0.2262
  807MPD2    H511891   3.288   0.754   1.291  1.5590  0.2343  0.8678
  807MPD2    N111892   3.423   0.909   0.870  0.3932  0.6631 -0.0159
  807MPD2    H711893   3.403   0.985   0.935  3.1485  0.1949  1.4112
  808MPD2     C11894   4.235   4.336   9.214  0.9846 -0.1396 -0.1759
  808MPD2    C111895   4.237   4.339   9.357 -0.2462 -0.0314  0.1318
  808MPD2    C211896   4.268   4.454   9.429 -0.4508 -0.3036  0.1231
  808MPD2    C311897   4.276   4.575   9.358  0.4076 -0.6918 -0.1069
  808MPD2    C411898   4.243   4.575   9.224 -0.2934 -0.3752  0.8387
  808MPD2    C511899   4.240   4.456   9.150 -0.6639  0.4101 -0.0986
  808MPD2     H11900   4.284   4.448   9.536 -0.6083 -0.1110  0.1557
  808MPD2    H111901   4.244   4.668   9.168 -1.9415 -0.8492  0.0103
  808MPD2    H211902   4.220   4.242   9.162  0.0489 -0.4337  0.6200
  808MPD2    H311903   4.219   4.454   9.044 -1.1989 -3.2857  0.0584
  808MPD2     N11904   4.297   4.701   9.415  0.4231 -0.0554  0.0006
  808MPD2    H511905   4.324   0.063   9.356  0.3421  0.8164  1.1396
  808MPD2    N111906   4.228   4.217   9.428  0.0278  0.0546  0.8732
  808MPD2    H711907   4.223   4.230   9.528 -0.2351  1.5900  0.6616
  809MPD2     C11908   4.394   0.484   8.927 -0.4488 -0.2654 -0.5375
  809MPD2    C111909   4.478   0.446   9.023  0.3761  0.4443  0.7737
  809MPD2    C211910   4.439   0.463   9.156  0.0209  0.4266 -0.5443
  809MPD2    C311911   4.310   0.500   9.194 -0.3450 -0.0956  0.2144
  809MPD2    C411912   4.223   0.532   9.090  0.5614 -0.0640 -0.3989
  809MPD2    C511913   4.270   0.532   8.959 -0.4210  0.5206 -0.0572
  809MPD2     H11914   4.521   0.448   9.226 -0.4876  3.4339  0.7312
  809MPD2    H111915   4.123   0.561   9.121  0.7929 -0.2321  0.4916
  809MPD2    H211916   4.410   0.482   8.820 -2.7416  2.3764 -0.9142
  809MPD2    H311917   4.208   0.573   8.880 -0.3096  1.6443  0.4291
  809MPD2     N11918   4.259   0.474   9.326 -0.1988  0.0806 -0.5596
  809MPD2    H511919   4.158   0.462   9.334  0.0276 -1.2388  0.3112
  809MPD2    N111920   4.595   0.375   8.996 -0.4960  0.5072 -0.3474
  809MPD2    H711921   4.640   0.327   9.073  0.4573  1.2330 -0.4629
  810MPD2     C11922   3.696   3.643  10.967 -0.1038  1.1547 -0.0698
  810MPD2    C111923   3.629   3.655  10.854  0.0217  0.3864  0.5331
  810MPD2    C211924   3.560   3.775  10.821 -0.4454  0.1641 -0.0183
  810MPD2    C311925   3.583   3.887  10.897  0.2593  0.5313  0.1929
  810MPD2    C411926   3.659   3.876  11.008 -0.1501  0.5325  0.7865
  810MPD2    C511927   3.718   3.758  11.040  0.3770  0.6560 -0.4575
  810MPD2     H11928   3.487   3.780  10.741 -3.1558 -0.0625  2.4496
  810MPD2    H111929   3.664   3.956  11.082  0.4544 -0.1709  1.4999
  810MPD2    H211930   3.732   3.548  11.006  0.7786  1.1325 -0.9486
  810MPD2    H311931   3.773   3.745  11.132  4.7276  0.6279 -3.0618
  810MPD2     N11932   3.546   4.018  10.864 -0.0717  0.5056  0.0805
  810MPD2    H511933   3.587   4.096  10.915  0.4425  0.5376 -0.3753
  810MPD2    N111934   3.618   3.545  10.768  0.2061  0.3558  0.4281
  810MPD2    H711935   3.686   3.474  10.793  0.4548  0.9928  1.5574
  811MPD2     C11936   3.320   3.369   9.972 -0.4476  0.3330  0.1818
  811MPD2    C111937   3.395   3.465  10.035 -0.5760  0.2338 -0.5740
  811MPD2    C211938   3.388   3.594  10.004  0.1064  0.6468 -0.1043
  811MPD2    C311939   3.290   3.640   9.920 -0.1474 -0.4212 -0.3115
  811MPD2    C411940   3.199   3.543   9.864  0.0745 -0.1553  0.3680
  811MPD2    C511941   3.213   3.407   9.899  0.3372  0.7229  0.2158
  811MPD2     H11942   3.462   3.666  10.039  1.1486 -1.1957  1.4589
  811MPD2    H111943   3.121   3.562   9.792  0.7174  1.4636  0.0908
  811MPD2    H211944   3.331   3.264   9.993  1.0821  0.5631  0.5148
  811MPD2    H311945   3.140   3.332   9.868 -0.3605  0.6264  2.1326
  811MPD2     N11946   3.293   3.779   9.894 -0.2367 -0.2970  0.3064
  811MPD2    H511947   3.379   3.822   9.928 -1.5941  2.2304  0.5916
  811MPD2    N111948   3.490   3.417  10.131 -0.6893  0.6192  0.1477
  811MPD2    H711949   3.484   3.321  10.164 -0.9499  0.5273 -0.1722
  812MPD2     C11950   2.411   4.425  12.415 -0.1330  0.0202  0.1591
  812MPD2    C111951   2.373   4.296  12.372 -0.5168 -0.8002  0.1528
  812MPD2    C211952   2.372   4.193  12.464  0.2196  0.2117 -0.2713
  812MPD2    C311953   2.390   4.223  12.596  0.0760  0.5007 -0.2060
  812MPD2    C411954   2.422   4.355  12.637 -0.4661 -0.3798 -0.2690
  812MPD2    C511955   2.429   4.450  12.549 -0.1456  0.2657 -0.3230
  812MPD2     H11956   2.345   4.091  12.436 -1.5625  0.2341  1.3533
  812MPD2    H111957   2.452   4.385  12.736 -0.1300 -2.5087  0.2902
  812MPD2    H211958   2.426   4.511  12.351  1.3142  0.2113  0.7572
  812MPD2    H311959   2.481   4.539  12.585 -0.0508  0.6062 -1.2972
  812MPD2     N11960   2.378   4.116  12.692  0.6364 -0.2191 -0.1329
  812MPD2    H511961   2.360   4.022  12.659 -1.1643  0.4626 -1.1111
  812MPD2    N111962   2.333   4.269  12.234  0.1710  0.5537  0.5256
  812MPD2    H711963   2.304   4.173  12.220 -1.8250  1.3539 -0.7311
  813MPD2     C11964   1.864   0.726  12.614 -0.1846 -0.3585  0.0064
  813MPD2    C111965   1.759   0.818  12.616 -0.2964  0.1739 -1.0353
  813MPD2    C211966   1.636   0.778  12.666  0.0512  0.4188 -0.3724
  813MPD2    C311967   1.620   0.641  12.700 -0.4034 -0.2849  0.0496
  813MPD2    C411968   1.721   0.554  12.700  0.5950  0.1182  0.2792
  813MPD2    C511969   1.841   0.594  12.664  0.1997  0.0158 -0.3457
  813MPD2     H11970   1.551   0.843  12.687 -0.4072 -0.4891  0.5939
  813MPD2    H111971   1.714   0.451  12.734 -0.5067 -0.3940 -1.4696
  813MPD2    H211972   1.962   0.760  12.583  0.0069  0.1788  1.1923
  813MPD2    H311973   1.930   0.534  12.682 -0.8251 -1.0253  1.2980
  813MPD2     N11974   1.487   0.601  12.747  0.2151 -0.3137 -0.5109
  813MPD2    H511975   1.418   0.675  12.749  0.4895 -0.1038  2.4105
  813MPD2    N111976   1.782   0.950  12.573  0.0444 -0.4200  0.8345
  813MPD2    H711977   1.870   0.982  12.535 -0.6166  0.2856 -0.1298
  814MPD2     C11978   2.072   2.028  12.355  0.1865 -1.3913 -0.0362
  814MPD2    C111979   1.952   1.968  12.381  0.3666 -0.6531  0.2490
  814MPD2    C211980   1.870   2.021  12.473  0.2977 -0.1162 -0.6869
  814MPD2    C311981   1.915   2.133  12.544  0.6374  0.0611  1.0302
  814MPD2    C411982   2.050   2.178  12.537 -1.6212  0.2579  0.5478
  814MPD2    C511983   2.119   2.133  12.432 -0.0952  0.1731 -0.7132
  814MPD2     H11984   1.770   1.979  12.483  0.4476 -0.2065  0.4086
  814MPD2    H111985   2.094   2.256  12.597  0.5109 -1.3059  1.0032
  814MPD2    H211986   2.144   1.997  12.281  1.4879 -2.4236  1.6641
  814MPD2    H311987   2.224   2.159  12.419 -0.5064  1.5105 -1.3207
  814MPD2     N11988   1.832   2.195  12.642 -0.6379  0.2721 -0.2742
  814MPD2    H511989   1.866   2.284  12.678  1.3227 -0.2859 -0.7379
  814MPD2    N111990   1.902   1.860  12.300  0.7579  0.4015 -0.2784
  814MPD2    H711991   1.817   1.806  12.318 -0.5265  1.7230 -2.3426
  815MPD2     C11992   2.170   0.863  11.491  0.0995  0.1702  0.0271
  815MPD2    C111993   2.194   0.736  11.527 -0.4771 -0.2251  0.3181
  815MPD2    C211994   2.101   0.674  11.610  0.4554 -0.2148 -0.8006
  815MPD2    C311995   2.003   0.752  11.669 -0.3914  0.3573  0.4589
  815MPD2    C411996   1.997   0.894  11.644 -0.0706 -0.4308 -0.0824
  815MPD2    C511997   2.073   0.943  11.553  0.3247  0.1079 -0.0012
  815MPD2     H11998   2.105   0.567  11.627 -1.5584 -0.2605 -0.6319
  815MPD2    H111999   1.923   0.958  11.690 -0.9970 -0.5388 -1.4291
  815MPD2    H212000   2.232   0.922  11.424  1.2839 -0.4513  0.5658
  815MPD2    H312001   2.062   1.047  11.527  4.1060  0.8248  1.1542
  815MPD2     N12002   1.914   0.676  11.744  0.2971 -0.2120  0.0611
  815MPD2    H512003   1.927   0.576  11.739  2.3174  0.0128  0.5509
  815MPD2    N112004   2.310   0.667  11.476  0.6904  0.3019  0.4710
  815MPD2    H712005   2.363   0.712  11.402 -0.7516 -1.1087 -1.3858
  816MPD2     C12006   3.297   3.860  17.091  0.7573  0.5780  0.6932
  816MPD2    C112007   3.240   3.834  16.969  1.1691  0.6379  0.2641
  816MPD2    C212008   3.314   3.783  16.866  1.3750  0.1775  0.6268
  816MPD2    C312009   3.451   3.745  16.888 -0.0372 -0.4530 -1.3372
  816MPD2    C412010   3.516   3.783  17.006  0.2831  0.3282  0.6028
  816MPD2    C512011   3.432   3.838  17.107  1.4056 -0.1417  0.7090
  816MPD2     H12012   3.267   3.761  16.770  0.1159  1.2464  0.9920
  816MPD2    H112013   3.623   3.773  17.020  0.1785  0.0718  1.2132
  816MPD2    H212014   3.241   3.901  17.174 -2.2564 -2.2889  0.0699
  816MPD2    H312015   3.471   3.877  17.200  0.8981 -1.6808  1.5520
  816MPD2     N12016   3.524   3.696  16.772  0.2339 -0.4734 -0.5448
  816MPD2    H512017   3.473   3.694  16.684  2.4126  0.3307 -1.8145
  816MPD2    N112018   3.098   3.852  16.959  0.3837  1.0266 -0.4330
  816MPD2    H712019   3.054   3.917  17.025 -2.4300 -0.7358 -0.5965
  817MPD2     C12020   2.300   0.927   9.829  0.4839 -0.1701 -0.5801
  817MPD2    C112021   2.383   1.017   9.766 -0.1797  0.7305  0.1267
  817MPD2    C212022   2.327   1.142   9.741 -0.2337 -0.5444 -0.1707
  817MPD2    C312023   2.203   1.177   9.774  0.3838 -0.9808 -0.4995
  817MPD2    C412024   2.111   1.079   9.812 -0.0172  0.6973 -0.6692
  817MPD2    C512025   2.168   0.953   9.844 -0.3708  0.3652 -0.3447
  817MPD2     H12026   2.385   1.216   9.686 -1.4229  0.5412  0.0378
  817MPD2    H112027   2.005   1.087   9.835  0.0803  1.2560 -0.4125
  817MPD2    H212028   2.332   0.827   9.854 -3.1809 -1.5926 -1.6456
  817MPD2    H312029   2.096   0.878   9.875 -0.7855  1.2083  0.7587
  817MPD2     N12030   2.162   1.313   9.752 -0.1030 -0.2333 -0.5502
  817MPD2    H512031   2.238   1.367   9.712  2.9094 -1.8713  2.9662
  817MPD2    N112032   2.518   0.996   9.728 -0.4138 -0.6461 -0.1828
  817MPD2    H712033   2.558   1.075   9.679  0.1872 -1.7559 -1.4960
  818MPD2     C12034   0.946   0.955   9.281  0.4705 -0.3113  0.0080
  818MPD2    C112035   0.894   0.915   9.404 -0.2825  0.6779  0.0751
  818MPD2    C212036   0.922   0.790   9.458  0.0656 -0.0024  0.4543
  818MPD2    C312037   1.006   0.698   9.385 -0.5655  0.0633 -0.6217
  818MPD2    C412038   1.034   0.739   9.251  0.7494  0.1949  0.5922
  818MPD2    C512039   1.009   0.863   9.199 -0.2164  0.4665  0.2506
  818MPD2     H12040   0.890   0.769   9.559 -0.5655  0.8872  0.4427
  818MPD2    H112041   1.085   0.662   9.193  0.4740 -0.3179  1.0349
  818MPD2    H212042   0.910   1.048   9.240  1.3254 -1.0081 -2.3271
  818MPD2    H312043   1.041   0.874   9.096  2.4661  1.4015  1.1957
  818MPD2     N12044   1.041   0.573   9.433  0.1629  0.1253  0.5357
  818MPD2    H512045   1.068   0.509   9.359 -2.3565  1.8856 -1.9256
  818MPD2    N112046   0.802   0.999   9.481 -0.3818  0.0552 -0.3116
  818MPD2    H712047   0.753   0.955   9.559 -0.4581  0.2082 -0.2733
  819MPD2     C12048   4.028   2.862  15.241 -0.1032  0.2405 -1.0596
  819MPD2    C112049   3.985   2.767  15.333  0.4184 -0.1114  0.5345
  819MPD2    C212050   4.086   2.701  15.400 -0.2908  0.9503  0.4769
  819MPD2    C312051   4.217   2.719  15.351  0.7655 -0.1505 -0.8463
  819MPD2    C412052   4.250   2.818  15.259 -0.2550 -0.1525 -0.6187
  819MPD2    C512053   4.150   2.898  15.214 -0.4578  0.2005 -0.7122
  819MPD2     H12054   4.079   2.636  15.486 -0.8288  0.3180 -0.0452
  819MPD2    H112055   4.352   2.829  15.223 -0.0155  2.6152  0.8945
  819MPD2    H212056   3.948   2.915  15.192  0.2821  2.1206  0.3341
  819MPD2    H312057   4.171   2.981  15.148 -1.0517  3.2967  2.9994
  819MPD2     N12058   4.303   2.621  15.403  0.2286 -0.0371 -0.1853
  819MPD2    H512059   4.271   2.551  15.469 -0.1964  2.3627  2.1115
  819MPD2    N112060   3.849   2.736  15.361  0.1037 -1.1394 -0.6589
  819MPD2    H712061   3.782   2.775  15.296  0.7786 -0.2728 -0.8347
  820MPD2     C12062   3.013   2.762  14.836 -0.0357  0.0515 -0.2451
  820MPD2    C112063   3.069   2.840  14.933  0.0727 -0.2471  0.0774
  820MPD2    C212064   3.162   2.789  15.020  0.5429  0.6581  0.1513
  820MPD2    C312065   3.223   2.667  14.993  0.4951  0.2536  0.8302
  820MPD2    C412066   3.172   2.587  14.899  0.2059 -0.2438 -0.0763
  820MPD2    C512067   3.062   2.626  14.823 -0.0849  0.5841 -0.4929
  820MPD2     H12068   3.208   2.857  15.090  1.0874  2.0938 -1.6117
  820MPD2    H112069   3.217   2.493  14.868  2.0796  0.2450  1.1912
  820MPD2    H212070   2.934   2.786  14.766 -2.2822 -1.6981  1.6706
  820MPD2    H312071   3.032   2.568  14.737  0.9464  1.1245 -1.2210
  820MPD2     N12072   3.334   2.615  15.069  0.7263 -0.5485 -0.2751
  820MPD2    H512073   3.370   2.527  15.034 -1.2024 -1.8285  0.9150
  820MPD2    N112074   3.007   2.966  14.956 -0.0210 -1.0924  0.4114
  820MPD2    H712075   2.928   2.990  14.896  1.3214  0.0653 -0.9167
  821MPD2     C12076   4.033   3.596  13.196  0.0878 -0.7510 -0.0417
  821MPD2    C112077   4.030   3.734  13.231  0.2531 -0.0075 -0.2060
  821MPD2    C212078   4.125   3.823  13.170  0.4483 -0.0805 -0.1497
  821MPD2    C312079   4.223   3.775  13.085  0.0191  0.3551 -0.6277
  821MPD2    C412080   4.220   3.642  13.048 -0.3354 -0.0005 -0.1852
  821MPD2    C512081   4.127   3.549  13.096 -0.2061  0.4307  1.2802
  821MPD2     H12082   4.124   3.926  13.204  1.4593 -0.5233  1.2215
  821MPD2    H112083   4.293   3.608  12.976  0.7023  0.3962  0.6820
  821MPD2    H212084   3.961   3.524  13.233  0.7606 -1.8684 -0.9107
  821MPD2    H312085   4.139   3.447  13.063 -2.2919  1.0503 -1.4115
  821MPD2     N12086   4.320   3.853  13.019 -0.9262 -0.4093  0.4174
  821MPD2    H512087   4.399   3.803  12.980 -0.2058  0.6954  0.4628
  821MPD2    N112088   3.947   3.785  13.331  0.3057 -0.1548 -0.0236
  821MPD2    H712089   3.963   3.884  13.343 -1.6021 -0.1013  1.9440
  822MPD2     C12090   4.692   3.714  15.621  0.2944  0.3331  0.1345
  822MPD2    C112091   0.026   3.722  15.746  0.3658 -0.0421 -1.3432
  822MPD2    C212092   4.680   3.803  15.839 -0.5145 -0.0739  0.4053
  822MPD2    C312093   4.559   3.869  15.806 -0.3132 -0.1776  0.0389
  822MPD2    C412094   4.520   3.868  15.676  0.1899  0.0025  0.3799
  822MPD2    C512095   4.581   3.789  15.585 -0.2918 -0.0030  0.7168
  822MPD2     H12096   0.008   3.813  15.937  0.0157 -1.3981  0.2964
  822MPD2    H112097   4.429   3.917  15.644  0.6734  0.6915  0.0453
  822MPD2    H212098   0.022   3.658  15.540  0.9970  0.5262  0.4072
  822MPD2    H312099   4.546   3.785  15.483 -0.0136  1.2887  0.5656
  822MPD2     N12100   4.501   3.951  15.901  0.4453 -0.0895 -0.0100
  822MPD2    H512101   4.534   3.943  15.997  0.3653 -0.5483 -0.0209
  822MPD2    N112102   0.143   3.665  15.791 -0.9280  0.2883 -0.4789
  822MPD2    H712103   0.179   3.705  15.877  1.8044 -2.1894 -0.4814
  823MPD2     C12104   4.284   4.078  16.714 -1.1123  0.2547 -0.5123
  823MPD2    C112105   4.318   3.999  16.609  1.0251 -0.4735  0.1384
  823MPD2    C212106   4.375   3.878  16.640 -0.1615 -0.6945 -0.0588
  823MPD2    C312107   4.402   3.833  16.774  0.3296 -0.0205 -0.0052
  823MPD2    C412108   4.363   3.918  16.874 -0.5566  0.1405  0.3384
  823MPD2    C512109   4.304   4.036  16.840  0.5925  0.0119 -0.4052
  823MPD2     H12110   4.382   3.803  16.562  0.3861  1.4513 -2.0652
  823MPD2    H112111   4.374   3.896  16.979 -0.8911  1.8935  0.7398
  823MPD2    H212112   4.237   4.175  16.702 -0.3686  0.5728 -0.8308
  823MPD2    H312113   4.271   4.109  16.913  0.4852  0.0064 -0.4484
  823MPD2     N12114   4.472   3.720  16.804  0.1058  0.8897  0.0833
  823MPD2    H512115   4.489   3.706  16.903  1.4020  1.8050 -0.0098
  823MPD2    N112116   4.307   4.048  16.476  0.0117  0.0316 -0.2044
  823MPD2    H712117   4.264   4.140  16.469 -0.8433 -0.3479  0.1213
  824MPD2     C12118   0.378   2.998  15.586 -0.0037  0.1099 -1.1979
  824MPD2    C112119   0.493   3.081  15.586 -0.0115 -0.4297 -0.5571
  824MPD2    C212120   0.605   3.046  15.516 -0.4694 -0.0656 -0.1370
  824MPD2    C312121   0.612   2.922  15.450 -0.4737  0.0598 -0.4822
  824MPD2    C412122   0.498   2.838  15.446  0.3263  1.5767  0.0459
  824MPD2    C512123   0.384   2.879  15.514 -0.0692  0.0924 -0.3281
  824MPD2     H12124   0.683   3.120  15.513 -1.1549  0.6288 -0.8677
  824MPD2    H112125   0.487   2.743  15.395  1.8991  0.4380  1.8716
  824MPD2    H212126   0.294   3.018  15.652  3.0790  1.5542  2.2911
  824MPD2    H312127   0.296   2.816  15.519  0.0705 -0.0517  0.3553
  824MPD2     N12128   0.732   2.883  15.382  0.0368  0.4216  0.1858
  824MPD2    H512129   0.801   2.956  15.363  2.2349 -1.6877 -0.0390
  824MPD2    N112130   0.479   3.199  15.658  0.1299  0.0770  0.2570
  824MPD2    H712131   0.387   3.213  15.699  0.3838  1.7852  0.2504
  825MPD2     C12132   1.311   2.810  14.747 -0.7253 -0.1790 -0.2469
  825MPD2    C112133   1.251   2.898  14.838 -0.1398 -0.0220 -0.1628
  825MPD2    C212134   1.274   3.039  14.821 -0.4813 -0.2659 -1.1263
  825MPD2    C312135   1.359   3.080  14.718  0.5660 -0.1165  0.1427
  825MPD2    C412136   1.404   2.986  14.631 -0.1399  0.2200  0.0992
  825MPD2    C512137   1.383   2.849  14.648 -0.3157 -0.2464 -0.3499
  825MPD2     H12138   1.223   3.112  14.882  0.9809 -0.2738  0.0738
  825MPD2    H112139   1.468   3.011  14.546 -0.8012 -1.1936 -0.8155
  825MPD2    H212140   1.307   2.702  14.759  1.7425 -0.1045  1.2142
  825MPD2    H312141   1.430   2.780  14.580  1.7966  2.3518 -1.5346
  825MPD2     N12142   1.386   3.217  14.689  0.4127  0.4733 -0.5637
  825MPD2    H512143   1.447   3.241  14.611  0.4502  0.7196 -0.4600
  825MPD2    N112144   1.190   2.848  14.956  0.3784  0.2090  0.5955
  825MPD2    H712145   1.201   2.748  14.969  0.0027 -0.1490 -1.8531
  826MPD2     C12146   0.358   2.989  13.466 -0.3922 -0.6532 -1.1226
  826MPD2    C112147   0.336   3.092  13.378  0.4097  0.6812 -0.1492
  826MPD2    C212148   0.234   3.183  13.413  0.2603 -0.0854  0.0585
  826MPD2    C312149   0.159   3.173  13.531 -0.2086 -0.6055 -0.4045
  826MPD2    C412150   0.180   3.068  13.619  0.7274  0.2616  0.5183
  826MPD2    C512151   0.270   2.978  13.569 -0.3849 -0.6679 -0.1268
  826MPD2     H12152   0.206   3.265  13.348  1.4076  0.5779  0.4001
  826MPD2    H112153   0.122   3.053  13.710 -0.4174 -0.0263 -0.2631
  826MPD2    H212154   0.428   2.907  13.458  0.8023  0.1518  1.0435
  826MPD2    H312155   0.282   2.890  13.632 -3.0431 -0.4269  0.7192
  826MPD2     N12156   0.041   3.246  13.557  0.6402  0.2060 -0.5186
  826MPD2    H512157   4.701   3.222  13.638  1.3636 -1.2461 -0.4380
  826MPD2    N112158   0.415   3.090  13.258  0.3076 -0.3953  0.2921
  826MPD2    H712159   0.498   3.031  13.262  0.0382 -0.8085 -0.1566
  827MPD2     C12160   1.506   0.042   9.609  0.3866  0.7580  0.2122
  827MPD2    C112161   1.487   4.640   9.681 -0.4684  0.5473  1.2920
  827MPD2    C212162   1.428   4.531   9.626  0.4542 -0.0701  1.4774
  827MPD2    C312163   1.370   4.551   9.496  0.2050  0.3403 -0.5657
  827MPD2    C412164   1.351   4.676   9.442  0.2980  0.4397  0.0043
  827MPD2    C512165   1.429   0.063   9.504 -0.1892  0.7553  1.0107
  827MPD2     H12166   1.428   4.433   9.673  0.0914  0.1940  2.0275
  827MPD2    H112167   1.292   4.684   9.351 -1.6520 -0.3541  1.1873
  827MPD2    H212168   1.553   0.129   9.652  3.0879 -0.6332  0.0966
  827MPD2    H312169   1.434   0.163   9.462  0.1954 -0.2556 -1.3711
  827MPD2     N12170   1.308   4.443   9.432  0.5490  0.0793 -0.4025
  827MPD2    H512171   1.304   4.360   9.490  4.5488  1.3683  1.6849
  827MPD2    N112172   1.562   4.630   9.800  0.0586  0.4217 -0.1359
  827MPD2    H712173   1.626   4.706   9.819 -0.4296  1.0574 -1.0039
  828MPD2     C12174   4.579   4.468  11.781  0.4663 -0.5129  0.3547
  828MPD2    C112175   4.487   4.375  11.747  0.3406  0.0215  0.1510
  828MPD2    C212176   4.486   4.309  11.628  0.0757 -0.0035 -0.3488
  828MPD2    C312177   4.594   4.325  11.538 -0.0858  0.7787 -0.0275
  828MPD2    C412178   4.696   4.403  11.581  0.4824 -0.6760 -0.6894
  828MPD2    C512179   4.693   4.479  11.700  0.4433 -0.5795  0.2076
  828MPD2     H12180   4.404   4.240  11.613  0.4891 -0.4871 -0.3874
  828MPD2    H112181   0.062   4.414  11.512 -0.6322 -0.0428 -1.9345
  828MPD2    H212182   4.580   4.527  11.872  0.5791 -0.4683  0.3252
  828MPD2    H312183   0.045   4.557  11.731  0.2506 -0.1328 -0.4655
  828MPD2     N12184   4.588   4.268  11.405 -0.8541  0.0286  0.6518
  828MPD2    H512185   4.672   4.281  11.351 -0.8983  0.9241  0.7989
  828MPD2    N112186   4.377   4.348  11.817 -0.0099 -0.1232  0.6099
  828MPD2    H712187   4.329   4.261  11.800 -1.5202  0.4040  2.1082
  829MPD2     C12188   3.826   4.714  11.444  0.2432 -0.4165 -0.4840
  829MPD2    C112189   3.752   4.685  11.555  0.4317 -0.1915  0.2492
  829MPD2    C212190   3.789   4.577  11.639 -0.6855 -0.2812 -0.7209
  829MPD2    C312191   3.902   4.495  11.607 -0.6326  0.2019  0.0405
  829MPD2    C412192   3.976   4.534  11.499 -0.2156 -0.0402 -0.2991
  829MPD2    C512193   3.943   4.648  11.426  0.2660 -0.3410 -0.0204
  829MPD2     H12194   3.728   4.546  11.723 -0.7530 -1.2954 -1.1421
  829MPD2    H112195   4.069   4.478  11.487  0.2568  0.8472 -0.7735
  829MPD2    H212196   3.804   0.073  11.370  0.6583  0.7812  0.6144
  829MPD2    H312197   4.000   4.678  11.339 -2.0570 -0.1402 -1.4699
  829MPD2     N12198   3.961   4.388  11.684 -0.2565 -0.5616  0.0060
  829MPD2    H512199   4.046   4.340  11.656 -1.0247 -1.8058 -0.2377
  829MPD2    N112200   3.645   0.060  11.583  0.2856 -0.2614  0.6909
  829MPD2    H712201   3.622   0.133  11.516  1.7087  1.3519  1.9823
  830MPD2     C12202   0.363   2.254  15.435  0.3074  0.7166  0.3862
  830MPD2    C112203   0.274   2.300  15.342  0.3537 -0.4864 -0.5537
  830MPD2    C212204   0.309   2.383  15.247 -0.1080  0.6825  0.0160
  830MPD2    C312205   0.439   2.436  15.247  0.5890 -0.4741  0.1782
  830MPD2    C412206   0.533   2.392  15.345 -0.4115 -0.2164  0.2986
  830MPD2    C512207   0.490   2.297  15.439  0.4418 -0.0894  0.5110
  830MPD2     H12208   0.232   2.413  15.177 -1.3138 -1.4635  0.3860
  830MPD2    H112209   0.640   2.407  15.341 -0.6696  1.3609 -0.5541
  830MPD2    H212210   0.332   2.170  15.496 -0.7909 -0.7580 -2.2230
  830MPD2    H312211   0.548   2.266  15.524  0.5576 -0.8070  0.1673
  830MPD2     N12212   0.488   2.521  15.152  0.1884 -0.2711 -1.0722
  830MPD2    H512213   0.584   2.548  15.168 -0.4350  1.0159  0.5042
  830MPD2    N112214   0.141   2.250  15.350  0.4937 -0.1884 -0.6572
  830MPD2    H712215   0.117   2.208  15.440 -4.2280  0.0413 -1.8248
  831MPD2     C12216   0.062   4.054  16.250 -0.2039 -0.5777 -0.0724
  831MPD2    C112217   0.125   3.960  16.170  0.0749 -0.2642  0.2282
  831MPD2    C212218   0.089   3.826  16.185  0.1084  0.1868  0.0769
  831MPD2    C312219   4.714   3.798  16.285 -0.5632 -0.4135 -0.0963
  831MPD2    C412220   4.670   3.890  16.372 -0.2620 -0.4243  0.2235
  831MPD2    C512221   4.701   4.022  16.360  0.4860 -0.2469 -0.6926
  831MPD2     H12222   0.133   3.751  16.120 -2.4378 -0.2259 -1.1434
  831MPD2    H112223   4.604   3.860  16.452  0.8748 -0.4014  1.1586
  831MPD2    H212224   0.072   4.160  16.226  1.5694 -0.1714  2.4898
  831MPD2    H312225   4.663   4.100  16.426 -0.5114 -1.7623  0.5064
  831MPD2     N12226   4.642   3.673  16.289  1.0249  0.3132 -0.4290
  831MPD2    H512227   4.585   3.648  16.369  0.7628 -3.9488 -1.9334
  831MPD2    N112228   0.212   3.999  16.068 -0.7159  0.4351 -0.8740
  831MPD2    H712229   0.219   4.099  16.050  0.6031  0.7538  1.4065
  832MPD2     C12230   3.188   4.587  17.123  0.0240  0.5189 -1.1792
  832MPD2    C112231   3.198   0.005  17.095 -0.2914 -1.0052  0.2350
  832MPD2    C212232   3.093   0.055  17.016  0.2445  0.3232 -0.7188
  832MPD2    C312233   2.992   4.691  16.975  0.1024  0.1566  0.4983
  832MPD2    C412234   2.984   4.559  17.004  0.2983  0.6823 -0.4029
  832MPD2    C512235   3.076   4.505  17.089  0.6212 -0.3015 -0.0211
  832MPD2     H12236   3.100   0.153  16.970  0.9467  0.0493 -1.1764
  832MPD2    H112237   2.899   4.499  16.976  2.5345 -3.5557  1.8655
  832MPD2    H212238   3.260   4.544  17.191 -0.9138 -0.5964 -0.8903
  832MPD2    H312239   3.067   4.403  17.123  0.2473 -0.4153 -0.4698
  832MPD2     N12240   2.886   0.011  16.887  0.7652  0.5894 -0.2205
  832MPD2    H512241   2.829   4.650  16.852 -0.4764  1.6186 -0.4980
  832MPD2    N112242   3.308   0.073  17.149  0.5554 -0.0414 -0.4021
  832MPD2    H712243   3.373   0.021  17.207 -1.0491 -2.0767 -0.4155
  833MPD2     C12244   0.369   1.743  12.231 -0.4440 -1.3065 -0.6475
  833MPD2    C112245   0.360   1.824  12.119 -0.3265  0.3177  0.3680
  833MPD2    C212246   0.422   1.785  11.999 -0.1010 -0.0420  0.0865
  833MPD2    C312247   0.505   1.676  11.994  0.1535  0.3066 -0.2499
  833MPD2    C412248   0.498   1.585  12.102  0.8329 -0.1606  0.1040
  833MPD2    C512249   0.443   1.625  12.222 -0.9851 -0.4670  0.1662
  833MPD2     H12250   0.410   1.841  11.907  1.7693 -1.4538 -1.0147
  833MPD2    H112251   0.549   1.490  12.108  1.7758  0.4289  1.3530
  833MPD2    H212252   0.324   1.768  12.326  0.4225  4.0815 -1.6538
  833MPD2    H312253   0.444   1.555  12.305  2.2505 -1.1521 -0.4245
  833MPD2     N12254   0.583   1.638  11.878 -0.0176  0.2532 -0.1266
  833MPD2    H512255   0.632   1.550  11.870  1.6548  1.3039 -1.3549
  833MPD2    N112256   0.277   1.939  12.129  0.4311  0.7223  0.3783
  833MPD2    H712257   0.233   1.961  12.218 -1.7956 -1.9179 -0.0814
  834MPD2     C12258   0.922   1.078  11.131 -0.0549 -0.1742  0.5358
  834MPD2    C112259   0.850   1.160  11.049 -0.2907 -0.0524  0.0729
  834MPD2    C212260   0.786   1.275  11.098  0.2562  0.4115  0.3658
  834MPD2    C312261   0.799   1.308  11.236 -0.0553  0.2124  0.0809
  834MPD2    C412262   0.868   1.216  11.316 -0.8388  0.3470  0.2505
  834MPD2    C512263   0.929   1.106  11.268  0.1241 -0.1585  0.4745
  834MPD2     H12264   0.721   1.343  11.044 -0.8718 -1.7925 -1.0404
  834MPD2    H112265   0.884   1.231  11.422 -2.3633 -0.7303  0.6344
  834MPD2    H212266   0.985   0.993  11.106 -0.8170 -1.2474  2.2446
  834MPD2    H312267   0.987   1.043  11.334 -0.6816 -1.2122  0.1641
  834MPD2     N12268   0.732   1.425  11.292  0.1606  0.0186 -0.8168
  834MPD2    H512269   0.690   1.493  11.231 -1.9563  0.2506  0.8789
  834MPD2    N112270   0.841   1.119  10.917  0.2937 -0.7480  0.5920
  834MPD2    H712271   0.886   1.033  10.888  2.6429  0.4487  0.6467
  835MPD2     C12272   0.522   4.037  10.938  0.1862  0.7536 -0.6289
  835MPD2    C112273   0.474   4.168  10.969 -0.3520  0.1234  0.1453
  835MPD2    C212274   0.477   4.210  11.100 -0.3627 -0.4137 -0.3851
  835MPD2    C312275   0.529   4.126  11.195  0.7330  0.2556  0.2393
  835MPD2    C412276   0.576   3.998  11.169  0.3717 -0.0468  0.1528
  835MPD2    C512277   0.567   3.954  11.037 -0.2975 -0.5812 -0.2034
  835MPD2     H12278   0.428   4.303  11.124  0.3811  0.3348 -1.7102
  835MPD2    H112279   0.620   3.942  11.251  2.7725 -0.6769 -1.5529
  835MPD2    H212280   0.512   4.000  10.837  1.9726 -0.8802 -0.2180
  835MPD2    H312281   0.611   3.857  11.016  0.8154  0.2651 -1.7170
  835MPD2     N12282   0.542   4.169  11.334  0.3343  0.3731  0.2417
  835MPD2    H512283   0.592   4.111  11.400  0.5920 -0.4493 -0.6796
  835MPD2    N112284   0.439   4.270  10.874  0.6841 -0.3088  0.5586
  835MPD2    H712285   0.425   4.365  10.906 -1.2073 -0.5456  0.4286
  836MPD2     C12286   0.551   0.052  12.066  0.0684 -0.1868 -0.8796
  836MPD2    C112287   0.461   4.711  11.979  0.0213 -0.5070  0.0425
  836MPD2    C212288   0.326   0.019  11.999 -0.3345  0.6743 -0.6875
  836MPD2    C312289   0.281   0.100  12.097  0.1607 -1.2242 -0.1801
  836MPD2    C412290   0.372   0.168  12.177 -0.0807  0.5427 -0.4362
  836MPD2    C512291   0.503   0.141  12.158  0.6832  0.8746  0.4744
  836MPD2     H12292   0.253   4.689  11.933  0.0066 -0.3534 -0.3343
  836MPD2    H112293   0.342   0.232  12.259  0.5999 -1.3606  1.2785
  836MPD2    H212294   0.656   0.024  12.071  0.3292  0.3890 -3.2315
  836MPD2    H312295   0.570   0.179  12.234 -0.3267  1.8932  0.8585
  836MPD2     N12296   0.144   0.114  12.129  0.5883 -0.0572  0.4582
  836MPD2    H512297   0.120   0.166  12.213 -0.7940  2.2995 -1.4289
  836MPD2    N112298   0.506   4.613  11.883 -0.2288  0.0809  0.4549
  836MPD2    H712299   0.607   4.608  11.877 -0.3038 -0.3332 -0.3464
  837MPD2     C12300   3.617   4.495  10.010 -0.0554  0.3315  0.6667
  837MPD2    C112301   3.592   4.466   9.878 -0.1809 -0.0281 -0.6101
  837MPD2    C212302   3.612   4.563   9.783 -0.3787  0.2305  0.0536
  837MPD2    C312303   3.671   4.682   9.817  0.2849  0.0382 -0.6604
  837MPD2    C412304   3.705   4.711   9.950 -0.2673 -0.1701 -0.1096
  837MPD2    C512305   3.673   4.610  10.042  0.5484 -0.6389 -0.1539
  837MPD2     H12306   3.574   4.548   9.682 -0.1710  0.3682 -0.0458
  837MPD2    H112307   3.742   0.091   9.981 -0.8863  0.2445 -0.6639
  837MPD2    H212308   3.596   4.414  10.080  1.6324 -0.2569  0.4877
  837MPD2    H312309   3.682   4.640  10.146  1.1243 -2.4338  0.3038
  837MPD2     N12310   3.654   0.073   9.718 -0.3877  0.2623 -0.4347
  837MPD2    H512311   3.606   0.048   9.632 -0.9033  2.1002 -0.6856
  837MPD2    N112312   3.521   4.352   9.839  0.3490 -0.3237 -0.3651
  837MPD2    H712313   3.480   4.351   9.746 -0.7483 -1.0883  0.1267
  838MPD2     C12314   2.470   2.935  11.630  0.5412  0.2327  0.1821
  838MPD2    C112315   2.373   2.841  11.635 -0.1383  0.1313  0.5833
  838MPD2    C212316   2.279   2.845  11.738 -0.0300 -0.0731  0.0355
  838MPD2    C312317   2.278   2.950  11.832  0.4524  0.5665  0.0167
  838MPD2    C412318   2.377   3.041  11.830 -0.3315  0.4041 -0.2225
  838MPD2    C512319   2.471   3.022  11.739 -0.5152  0.7925  0.3424
  838MPD2     H12320   2.196   2.776  11.738 -1.1990  1.3269  0.8274
  838MPD2    H112321   2.381   3.131  11.891 -0.4355  1.0602 -1.1728
  838MPD2    H212322   2.540   2.952  11.549  1.7326 -0.7237  1.0109
  838MPD2    H312323   2.553   3.092  11.733  1.0075 -1.1146 -0.7624
  838MPD2     N12324   2.181   2.939  11.936  0.1062  0.4955  0.7302
  838MPD2    H512325   2.120   2.858  11.936 -2.1888  2.2177 -0.5752
  838MPD2    N112326   2.357   2.742  11.532  0.5039 -0.0394  0.5258
  838MPD2    H712327   2.276   2.681  11.540  0.5688 -0.0777  0.8860
  839MPD2     C12328   1.592   2.537  11.390  0.4914  0.1434  0.6455
  839MPD2    C112329   1.656   2.430  11.339 -0.8781  0.0622  0.5947
  839MPD2    C212330   1.786   2.443  11.297  0.1260  0.0696  0.5728
  839MPD2    C312331   1.859   2.560  11.326 -0.0092  0.9196 -0.3161
  839MPD2    C412332   1.803   2.662  11.401  0.7284 -0.4365  0.6162
  839MPD2    C512333   1.665   2.646  11.425  0.0601 -0.2343 -0.1786
  839MPD2     H12334   1.834   2.361  11.245 -2.3825  0.1439 -1.8490
  839MPD2    H112335   1.854   2.751  11.436 -0.4992 -0.0980  1.5466
  839MPD2    H212336   1.485   2.538  11.410  0.4265  1.2741  0.2008
  839MPD2    H312337   1.606   2.725  11.470 -0.9389 -1.4486  0.6501
  839MPD2     N12338   1.995   2.574  11.294  0.2845  0.5445 -0.1919
  839MPD2    H512339   2.038   2.660  11.326 -0.2146 -0.4288  3.0855
  839MPD2    N112340   1.587   2.312  11.309  0.0010  0.3638 -0.4746
  839MPD2    H712341   1.631   2.237  11.256 -0.8904 -0.9119  0.5921
  840MPD2     C12342   2.121   0.122   9.891 -0.3669 -0.0436  0.1448
  840MPD2    C112343   2.078   0.116  10.019 -0.6398  0.1276  0.4555
  840MPD2    C212344   2.142   0.182  10.124 -1.0749 -0.3442 -0.0781
  840MPD2    C312345   2.267   0.240  10.097  1.3355 -0.0200  0.6404
  840MPD2    C412346   2.317   0.241   9.968 -0.1301 -0.8801 -0.7219
  840MPD2    C512347   2.244   0.184   9.868  0.0983  0.5013  0.3774
  840MPD2     H12348   2.100   0.188  10.223 -1.2916  3.7028 -0.4275
  840MPD2    H112349   2.410   0.287   9.937  0.1808 -0.2968  1.0718
  840MPD2    H212350   2.061   0.068   9.818  1.0458  0.4048 -1.3461
  840MPD2    H312351   2.278   0.199   9.766  1.7533  0.7192  0.9665
  840MPD2     N12352   2.343   0.300  10.198  1.0199  0.1243  0.3308
  840MPD2    H512353   2.429   0.342  10.163 -0.3532  0.7322 -2.2775
  840MPD2    N112354   1.960   0.041  10.045  0.3248  0.0473  0.0462
  840MPD2    H712355   1.914   4.714   9.965  0.9116 -1.0903  0.3408
  841MPD2     C12356   1.329   4.607  14.327 -0.3810  0.6574 -0.3994
  841MPD2    C112357   1.431   4.547  14.400 -0.7004  0.5085  0.7374
  841MPD2    C212358   1.524   4.622  14.466 -0.7546 -0.5944 -0.2380
  841MPD2    C312359   1.502   0.042  14.475 -0.3018  0.9829 -0.2994
  841MPD2    C412360   1.410   0.100  14.396 -0.0514 -0.0328  0.1240
  841MPD2    C512361   1.322   0.026  14.327  0.3145  0.1076 -0.3613
  841MPD2     H12362   1.608   4.575  14.514 -1.6327  0.8327  2.6867
  841MPD2    H112363   1.410   0.208  14.387  0.4892 -0.0764 -0.4606
  841MPD2    H212364   1.263   4.546  14.266  1.8983 -0.8491 -1.3630
  841MPD2    H312365   1.246   0.079  14.272 -2.8591  0.2663  4.1958
  841MPD2     N12366   1.581   0.119  14.559 -0.0315 -0.2656  0.0641
  841MPD2    H512367   1.621   0.069  14.638 -0.4073  1.1591  1.1774
  841MPD2    N112368   1.435   4.402  14.384  0.0495 -0.5259 -0.3829
  841MPD2    H712369   1.365   4.355  14.328 -1.8568  1.9217 -0.0158
  842MPD2     C12370   1.575   0.158  16.474 -0.0716  1.0520 -0.3148
  842MPD2    C112371   1.605   0.287  16.516  0.5823  0.1311  0.5695
  842MPD2    C212372   1.643   0.304  16.650 -0.7366  0.2800 -0.0826
  842MPD2    C312373   1.662   0.193  16.730  0.5314  0.1094 -0.2170
  842MPD2    C412374   1.636   0.069  16.685 -0.5229 -0.1759  0.1689
  842MPD2    C512375   1.594   0.046  16.556 -0.0309 -0.1813  0.1310
  842MPD2     H12376   1.639   0.406  16.687 -2.6148 -0.3552  1.4588
  842MPD2    H112377   1.659   4.703  16.751  0.9155 -1.2429 -1.6660
  842MPD2    H212378   1.527   0.154  16.377 -1.1066  0.6640  0.2153
  842MPD2    H312379   1.574   4.663  16.517 -0.9303  0.6104 -1.4319
  842MPD2     N12380   1.683   0.211  16.870  0.4771 -0.4416 -0.0601
  842MPD2    H512381   1.683   0.133  16.935  0.7986 -1.2759 -1.0747
  842MPD2    N112382   1.580   0.392  16.422  0.2975  0.5026  0.2876
  842MPD2    H712383   1.556   0.366  16.327  0.4346 -1.9069  0.9146
  843MPD2     C12384   4.410   0.481   0.599 -0.1517  0.9104  0.1129
  843MPD2    C112385   4.453   0.446   0.476 -1.0273 -0.0667  0.4599
  843MPD2    C212386   4.547   0.529   0.412 -0.4564  0.5850  0.5634
  843MPD2    C312387   4.567   0.660   0.466  0.8377  0.2389  0.0995
  843MPD2    C412388   4.509   0.695   0.588  0.7919  0.1173 -0.5816
  843MPD2    C512389   4.436   0.597   0.650 -0.6490  0.4823 -0.6935
  843MPD2     H12390   4.597   0.496   0.322 -2.0072 -3.1054  1.0798
  843MPD2    H112391   4.524   0.798   0.619  1.9547  0.2360 -1.5338
  843MPD2    H212392   4.337   0.419   0.649  0.6573  0.1933  0.4142
  843MPD2    H312393   4.381   0.631   0.737 -0.5721 -1.0991 -0.0266
  843MPD2     N12394   4.642   0.763   0.397  0.5053  0.2654  0.8255
  843MPD2    H512395   4.640   0.859   0.432  2.2612  1.4657 -2.3382
  843MPD2    N112396   4.401   0.330   0.419 -0.1754 -0.5673  0.2794
  843MPD2    H712397   4.327   0.282   0.470 -1.5326 -1.0025 -2.0945
  844MPD2     C12398   2.941   4.104  16.623 -0.6192  0.0083 -0.1189
  844MPD2    C112399   2.953   4.183  16.507  0.4145  0.1864  0.6853
  844MPD2    C212400   2.987   4.321  16.522  0.6419  0.3414  0.5005
  844MPD2    C312401   3.018   4.370  16.647  0.8219 -0.2539 -0.4736
  844MPD2    C412402   3.027   4.284  16.755  0.0833  0.2010 -0.1444
  844MPD2    C512403   2.986   4.152  16.742  0.2301 -1.0330  0.7538
  844MPD2     H12404   2.971   4.390  16.441 -0.6652 -2.4499 -1.6074
  844MPD2    H112405   3.049   4.325  16.852 -3.0581 -1.8221  1.4251
  844MPD2    H212406   2.902   4.003  16.620  1.0527 -0.6596  0.6093
  844MPD2    H312407   2.969   4.092  16.831  1.7778  2.8967  3.6743
  844MPD2     N12408   3.072   4.498  16.678  0.3336  0.7604  0.1484
  844MPD2    H512409   3.105   4.514  16.772 -2.1225  0.7754  1.0051
  844MPD2    N112410   2.910   4.144  16.378 -0.3671  0.4703 -0.4324
  844MPD2    H712411   2.884   4.216  16.311 -0.8358 -0.7657 -1.5862
  845MPD2     C12412   3.259   0.804  16.816  0.7072 -0.0269  0.9111
  845MPD2    C112413   3.216   0.736  16.931 -0.9848  0.2074 -0.1126
  845MPD2    C212414   3.210   0.606  16.919 -0.2165  0.4254  0.3792
  845MPD2    C312415   3.242   0.545  16.798 -0.8384 -0.3433  0.0232
  845MPD2    C412416   3.285   0.615  16.686 -0.4921  0.1938  0.9025
  845MPD2    C512417   3.300   0.748  16.694 -0.3347 -0.3487  0.7362
  845MPD2     H12418   3.183   0.544  17.004 -0.6025 -0.6827 -0.5499
  845MPD2    H112419   3.324   0.564  16.599 -2.2050 -0.5886  0.5789
  845MPD2    H212420   3.280   0.910  16.821 -0.8368  0.3396 -0.4219
  845MPD2    H312421   3.345   0.808  16.616 -1.6693 -0.9414 -0.4974
  845MPD2     N12422   3.240   0.405  16.796 -0.5502  0.1661  0.2324
  845MPD2    H512423   3.239   0.350  16.882 -1.5806 -1.1030 -0.5873
  845MPD2    N112424   3.180   0.803  17.054 -0.6755 -0.5013  0.4227
  845MPD2    H712425   3.149   0.744  17.131 -1.0670 -0.3131  0.4102
  846MPD2     C12426   4.643   1.552  13.397 -0.5843 -0.4828 -0.5151
  846MPD2    C112427   4.644   1.670  13.460 -0.4721 -0.5389 -0.1705
  846MPD2    C212428   4.663   1.686  13.599 -0.0080  0.1334 -0.4600
  846MPD2    C312429   4.674   1.572  13.675 -0.7131  0.0111  0.5102
  846MPD2    C412430   4.690   1.455  13.607 -0.2615  0.0361 -0.1774
  846MPD2    C512431   4.669   1.438  13.473 -0.5459  0.3803 -0.6127
  846MPD2     H12432   4.645   1.781  13.648  3.4164  0.9296 -0.7477
  846MPD2    H112433   4.699   1.364  13.665  0.5068 -0.4085 -0.9841
  846MPD2    H212434   4.644   1.540  13.289 -0.9602 -0.6303 -0.5026
  846MPD2    H312435   4.667   1.339  13.427 -1.7139  0.6704 -1.2001
  846MPD2     N12436   4.689   1.582  13.814 -0.3406 -0.2545  0.7327
  846MPD2    H512437   4.657   1.665  13.864 -0.9794 -0.0750  0.0124
  846MPD2    N112438   4.642   1.793  13.390 -0.6050 -0.8131 -0.1589
  846MPD2    H712439   4.647   1.881  13.440 -1.9911 -1.6565  1.4881
  847MPD2     C12440   4.393   2.236  14.024  0.1802  0.0251  0.4525
  847MPD2    C112441   4.525   2.270  14.008 -0.3948  0.5143 -0.6016
  847MPD2    C212442   4.615   2.227  14.104  0.9811 -0.2742  0.8484
  847MPD2    C312443   4.581   2.162  14.222 -0.1592  0.1869 -0.2222
  847MPD2    C412444   4.449   2.120  14.221  0.3326 -0.3897 -0.0957
  847MPD2    C512445   4.355   2.157  14.132  0.2346 -0.0907 -0.0079
  847MPD2     H12446   0.002   2.259  14.097  0.4615  1.0763 -0.4895
  847MPD2    H112447   4.415   2.059  14.304 -0.6613 -0.2314 -0.3834
  847MPD2    H212448   4.311   2.265  13.959  2.6212  0.2872 -2.4735
  847MPD2    H312449   4.254   2.117  14.139  1.5534 -2.9926  2.6637
  847MPD2     N12450   4.669   2.132  14.325 -0.1599 -0.5095  0.5042
  847MPD2    H512451   4.634   2.085  14.409 -3.6480 -0.8606 -1.1221
  847MPD2    N112452   4.574   2.364  13.914 -0.6136  0.2542 -0.9251
  847MPD2    H712453   4.674   2.381  13.905 -0.9736  2.3221 -0.8841
  848MPD2     C12454   2.707   0.361  16.136 -0.0106 -0.1546  0.1114
  848MPD2    C112455   2.702   0.396  16.270  0.1823  0.4806 -0.1496
  848MPD2    C212456   2.672   0.528  16.302  1.1057  0.0508 -0.5142
  848MPD2    C312457   2.650   0.625  16.202 -0.4016 -0.5768  0.1846
  848MPD2    C412458   2.646   0.586  16.074 -0.5724 -0.1707 -0.0698
  848MPD2    C512459   2.681   0.456  16.041  0.1156  0.2264 -0.1971
  848MPD2     H12460   2.664   0.557  16.406  0.0053  0.1561 -0.6275
  848MPD2    H112461   2.615   0.646  15.990  0.4076 -0.8272 -0.9164
  848MPD2    H212462   2.745   0.264  16.104 -0.7509 -0.1106 -0.8835
  848MPD2    H312463   2.697   0.428  15.938  0.4761  3.2586 -0.9840
  848MPD2     N12464   2.617   0.760  16.225  0.4949 -0.2093 -0.4926
  848MPD2    H512465   2.590   0.816  16.145 -2.4887 -1.2283 -0.1846
  848MPD2    N112466   2.728   0.307  16.381 -0.1274  0.0218 -0.4963
  848MPD2    H712467   2.715   0.327  16.480  0.2583 -0.6696 -0.3057
  849MPD2     C12468   2.123   0.921  13.439  0.1797  0.1179 -0.2952
  849MPD2    C112469   2.211   0.821  13.416  0.5438 -0.2568  0.2488
  849MPD2    C212470   2.233   0.729  13.517 -0.7245  0.6458  0.1641
  849MPD2    C312471   2.185   0.750  13.645  0.1071 -0.3782  0.6885
  849MPD2    C412472   2.096   0.859  13.664 -0.0477  0.2630 -0.9186
  849MPD2    C512473   2.058   0.937  13.558  0.2096  0.3449 -0.8032
  849MPD2     H12474   2.307   0.652  13.498 -0.6207  0.0912  2.9021
  849MPD2    H112475   2.055   0.887  13.761  0.6965  0.4418 -0.6576
  849MPD2    H212476   2.097   0.986  13.357 -0.7534  0.6220  0.3996
  849MPD2    H312477   1.991   1.021  13.572 -1.0421 -1.1062  1.7977
  849MPD2     N12478   2.224   0.667  13.752 -0.2115  0.4940  0.5674
  849MPD2    H512479   2.202   0.693  13.848 -2.5928  1.4621 -0.2473
  849MPD2    N112480   2.279   0.822  13.289  0.0069 -0.2127  0.4587
  849MPD2    H712481   2.245   0.875  13.210  0.9046  0.0142  0.2273
  850MPD2     C12482   4.536   3.537  14.771  0.0338 -0.0340 -0.1902
  850MPD2    C112483   4.574   3.411  14.831 -0.0225  0.5884 -0.1636
  850MPD2    C212484   4.703   3.369  14.818  0.2082  0.1488 -0.6952
  850MPD2    C312485   0.077   3.448  14.744 -0.3916  0.4119 -0.0017
  850MPD2    C412486   0.036   3.561  14.676  0.0537  0.7713 -0.4988
  850MPD2    C512487   4.623   3.611  14.689  0.1666  0.1994 -0.0640
  850MPD2     H12488   0.017   3.279  14.870  2.5010  0.1618 -2.0209
  850MPD2    H112489   0.107   3.623  14.624  2.8358  0.0129  2.4198
  850MPD2    H212490   4.437   3.580  14.779 -0.7808 -2.1111  0.8409
  850MPD2    H312491   4.595   3.711  14.657  1.2951  0.7352  0.6245
  850MPD2     N12492   0.211   3.413  14.734  0.5926 -0.1378 -0.0710
  850MPD2    H512493   0.259   3.460  14.657  0.6491 -0.3041 -0.1376
  850MPD2    N112494   4.491   3.343  14.928  0.3069 -0.3729  0.1124
  850MPD2    H712495   4.537   3.263  14.968  0.2723 -0.6913 -0.4830
  851MPD2     C12496   0.253   3.292  15.365 -0.1592 -0.2517 -0.5954
  851MPD2    C112497   0.173   3.199  15.299 -0.3563  0.2726  0.4837
  851MPD2    C212498   0.242   3.110  15.212  1.0073 -0.6804 -0.2866
  851MPD2    C312499   0.376   3.107  15.193  0.1925 -0.0532 -0.6434
  851MPD2    C412500   0.455   3.193  15.264 -0.1078 -0.2255 -0.8748
  851MPD2    C512501   0.391   3.286  15.347  0.6288 -0.1613  0.3305
  851MPD2     H12502   0.182   3.053  15.141 -1.6426  1.1864  0.4623
  851MPD2    H112503   0.563   3.194  15.271 -0.1786  1.6307 -0.0829
  851MPD2    H212504   0.207   3.367  15.428  0.3795  0.3644 -0.9284
  851MPD2    H312505   0.464   3.352  15.394 -0.0222  2.2029 -2.0097
  851MPD2     N12506   0.436   3.013  15.106 -0.3287 -0.7560  0.0346
  851MPD2    H512507   0.369   2.948  15.066  0.1379 -0.6148 -1.0000
  851MPD2    N112508   0.031   3.210  15.316  0.1428 -0.2464 -0.2266
  851MPD2    H712509   0.003   3.282  15.381  2.1137  0.3304 -0.0009
  852MPD2     C12510   4.167   0.907  10.100  0.8406 -0.6268  0.0072
  852MPD2    C112511   4.253   0.955  10.196 -0.0233 -0.2256  0.0544
  852MPD2    C212512   4.310   1.078  10.179  0.7324  0.1855  0.1808
  852MPD2    C312513   4.292   1.151  10.066 -0.4063 -0.3551 -0.7011
  852MPD2    C412514   4.214   1.096   9.965  0.1783 -0.3718  0.2338
  852MPD2    C512515   4.148   0.981   9.987  0.9699 -0.2678 -0.1146
  852MPD2     H12516   4.369   1.121  10.259  1.1149  0.7275 -0.3979
  852MPD2    H112517   4.193   1.155   9.877 -3.6618  0.2502  1.5663
  852MPD2    H212518   4.116   0.814  10.124  2.6950 -0.5165  4.2414
  852MPD2    H312519   4.073   0.952   9.915  1.2090  0.7299 -0.7696
  852MPD2     N12520   4.365   1.273  10.056 -0.1683 -0.2536 -0.1942
  852MPD2    H512521   4.441   1.297  10.119  0.5514  1.9028 -1.8975
  852MPD2    N112522   4.284   0.882  10.314  0.0499 -0.0619 -0.1266
  852MPD2    H712523   4.341   0.929  10.384  0.4134 -0.6185 -0.0535
  853MPD2     C12524   1.468   1.102  12.167  0.2303 -0.6559 -0.3156
  853MPD2    C112525   1.451   1.235  12.142 -0.5593  0.1188 -0.7956
  853MPD2    C212526   1.484   1.281  12.016  1.0658  0.3025 -0.3759
  853MPD2    C312527   1.548   1.208  11.925  0.6320 -0.1514  0.2395
  853MPD2    C412528   1.563   1.074  11.948  0.0022 -0.0458  0.7729
  853MPD2    C512529   1.524   1.025  12.068 -0.6216  0.3510  0.0019
  853MPD2     H12530   1.471   1.387  11.996  0.0865  0.2105 -0.2019
  853MPD2    H112531   1.599   1.000  11.877 -3.5764 -0.5764 -0.5147
  853MPD2    H212532   1.457   1.058  12.266 -0.1108  0.8076  0.2922
  853MPD2    H312533   1.546   0.920  12.085 -1.6736  0.2078  0.4871
  853MPD2     N12534   1.588   1.253  11.795 -0.8260  0.1399  0.0416
  853MPD2    H512535   1.658   1.193  11.752 -1.3452 -0.6754  0.3370
  853MPD2    N112536   1.396   1.313  12.248  0.4448 -0.2057  0.7524
  853MPD2    H712537   1.381   1.252  12.328 -2.1997  0.1027  0.4921
  854MPD2     C12538   2.986   1.439  12.467  0.1956  0.8819 -0.2072
  854MPD2    C112539   3.085   1.536  12.474 -0.2402  0.0367 -0.1222
  854MPD2    C212540   3.209   1.494  12.515  0.3133  0.0268 -0.1681
  854MPD2    C312541   3.242   1.360  12.540  0.0010  0.0611 -0.5810
  854MPD2    C412542   3.134   1.268  12.535 -0.3438  0.0753  0.2726
  854MPD2    C512543   3.008   1.310  12.505  0.2187 -0.6536  0.2436
  854MPD2     H12544   3.287   1.568  12.525  0.3414  0.1375 -1.2505
  854MPD2    H112545   3.139   1.165  12.567 -1.0198 -0.0334  0.0168
  854MPD2    H212546   2.892   1.469  12.423 -0.8386 -1.8431  0.1546
  854MPD2    H312547   2.923   1.244  12.504 -0.5561  0.3826 -1.9586
  854MPD2     N12548   3.372   1.316  12.564 -1.1031  0.1375  0.3353
  854MPD2    H512549   3.381   1.221  12.601 -2.8600 -1.2605 -2.8654
  854MPD2    N112550   3.055   1.663  12.413  0.7375  0.3473 -0.2091
  854MPD2    H712551   2.961   1.681  12.378 -1.3411  1.2933  5.7460
  855MPD2     C12552   3.960   1.378  13.322  0.1826 -0.5497  0.4312
  855MPD2    C112553   3.923   1.253  13.273 -0.9600 -0.3101 -0.3808
  855MPD2    C212554   3.885   1.238  13.143  0.0998  0.5170 -0.2823
  855MPD2    C312555   3.907   1.340  13.055 -0.4592  0.1591 -0.0145
  855MPD2    C412556   3.947   1.468  13.099  0.1950  0.5158 -0.5700
  855MPD2    C512557   3.964   1.487  13.236  0.4589 -0.4167 -0.2724
  855MPD2     H12558   3.843   1.145  13.105 -2.1097  1.0738  0.8320
  855MPD2    H112559   3.972   1.550  13.033 -0.0198  0.2781 -0.9495
  855MPD2    H212560   3.987   1.388  13.427 -0.9191  0.3196  0.6264
  855MPD2    H312561   4.003   1.581  13.274  0.7820 -1.0410  0.9487
  855MPD2     N12562   3.880   1.326  12.912 -0.3281 -0.1720 -0.0073
  855MPD2    H512563   3.868   1.413  12.862  1.0243 -0.9836 -1.7254
  855MPD2    N112564   3.915   1.135  13.353  0.2321 -0.0215 -0.2884
  855MPD2    H712565   3.866   1.053  13.320 -1.8447  0.5856  1.2730
  856MPD2     C12566   0.810   1.765  13.746  0.1266 -0.7220  0.5444
  856MPD2    C112567   0.925   1.835  13.777  0.1152  0.2267  0.0467
  856MPD2    C212568   0.941   1.966  13.722  0.1088 -0.3365  0.2681
  856MPD2    C312569   0.831   2.039  13.680 -0.1773  0.1186 -0.9350
  856MPD2    C412570   0.720   1.969  13.644  0.1431 -0.4418 -0.0488
  856MPD2    C512571   0.714   1.836  13.676 -0.0686  0.7831  0.2709
  856MPD2     H12572   1.032   2.022  13.740  0.3200 -0.5725 -0.0746
  856MPD2    H112573   0.642   2.023  13.592  1.3276  2.2119  0.8712
  856MPD2    H212574   0.796   1.659  13.764  0.1820 -1.0287 -1.1947
  856MPD2    H312575   0.622   1.783  13.653  0.4106  0.4771 -0.9002
  856MPD2     N12576   0.832   2.172  13.628 -0.1975 -0.0253 -0.1582
  856MPD2    H512577   0.745   2.215  13.600 -0.6230 -0.9283 -0.2076
  856MPD2    N112578   1.024   1.764  13.843  0.5971 -0.4076 -0.2034
  856MPD2    H712579   0.994   1.680  13.891 -2.5466  1.6817  1.5202
  857MPD2     C12580   2.022   4.417  13.220 -0.0568  0.0327 -0.3435
  857MPD2    C112581   2.082   4.471  13.107 -0.1364  0.1300  0.0008
  857MPD2    C212582   2.200   4.546  13.119 -0.5492  0.1852  0.0424
  857MPD2    C312583   2.231   4.594  13.245  0.1296 -0.2633 -0.3633
  857MPD2    C412584   2.166   4.548  13.354 -0.5295 -0.3049 -0.5098
  857MPD2    C512585   2.062   4.457  13.343  0.1292 -0.0916  0.4761
  857MPD2     H12586   2.274   4.557  13.041  0.4493 -1.0802  0.7861
  857MPD2    H112587   2.199   4.571  13.455  0.5094 -1.0267 -0.6774
  857MPD2    H212588   1.938   4.349  13.206  1.4420 -2.1164  0.9275
  857MPD2    H312589   2.016   4.431  13.438  1.1739 -0.8307  0.7759
  857MPD2     N12590   2.326   4.698  13.248  0.0250 -0.1761 -0.4753
  857MPD2    H512591   2.381   0.013  13.169 -1.2748  1.9469 -0.5109
  857MPD2    N112592   2.038   4.432  12.978  0.1168 -0.4084 -0.0423
  857MPD2    H712593   1.964   4.363  12.984 -0.3577  0.0700 -0.4854
  858MPD2     C12594   3.322   3.029  16.827 -0.2588  0.2368 -0.2473
  858MPD2    C112595   3.403   2.931  16.868 -0.5831  0.0551 -0.1835
  858MPD2    C212596   3.436   2.931  17.006 -0.3534  0.2023 -1.6544
  858MPD2    C312597   3.360   3.006  17.096 -0.2765 -0.2631 -0.0987
  858MPD2    C412598   3.256   3.084  17.049 -0.2644 -1.3099 -0.5751
  858MPD2    C512599   3.251   3.103  16.922 -0.3408  0.5727 -0.2987
  858MPD2     H12600   3.522   2.870  17.029  0.7397  2.1892 -0.4288
  858MPD2    H112601   3.189   3.133  17.118  1.2152 -0.3012  0.1536
  858MPD2    H212602   3.305   3.047  16.722 -0.5736 -1.5212 -0.5062
  858MPD2    H312603   3.187   3.183  16.885 -1.1345  0.1850  0.2323
  858MPD2     N12604   3.383   3.027  17.233 -0.5069  0.2207  0.5233
  858MPD2    H512605   3.330   3.106  17.269  0.3707  1.5826 -1.1672
  858MPD2    N112606   3.473   2.854  16.775 -0.4793 -0.1177  0.4104
  858MPD2    H712607   3.552   2.803  16.812 -0.2837 -2.0913 -2.7014
  859MPD2     C12608   2.003   0.880  15.597 -0.6372 -0.5254  0.4959
  859MPD2    C112609   1.918   0.819  15.505 -0.8525 -0.0227 -0.0202
  859MPD2    C212610   1.835   0.712  15.551 -0.2580  0.3362 -0.4059
  859MPD2    C312611   1.840   0.665  15.686  0.3198  0.1099 -1.0058
  859MPD2    C412612   1.930   0.732  15.768 -0.7224  0.6114  0.0842
  859MPD2    C512613   2.003   0.838  15.729 -0.3435 -0.3919 -0.4024
  859MPD2     H12614   1.773   0.658  15.480 -0.1335 -0.4923  0.1160
  859MPD2    H112615   1.933   0.705  15.873 -1.1723  0.5844  0.0902
  859MPD2    H212616   2.079   0.952  15.569 -1.1120  0.0558  0.7133
  859MPD2    H312617   2.056   0.892  15.807  0.2491 -1.4206 -0.1027
  859MPD2     N12618   1.776   0.545  15.733 -0.0883 -0.1465 -0.0684
  859MPD2    H512619   1.807   0.509  15.823  2.3219  2.5987  0.2022
  859MPD2    N112620   1.913   0.871  15.373  0.3287 -0.0636 -0.3074
  859MPD2    H712621   1.997   0.922  15.349 -1.2808  2.1578 -1.2947
  860MPD2     C12622   4.421   0.612  11.404 -0.2974  0.1119 -0.0582
  860MPD2    C112623   4.426   0.752  11.444 -0.6091  0.5562  0.6331
  860MPD2    C212624   4.308   0.822  11.455 -0.1694  0.5312 -0.4221
  860MPD2    C312625   4.187   0.770  11.420  0.6308  0.2332  0.5471
  860MPD2    C412626   4.184   0.635  11.382 -0.7310 -0.5162  0.1857
  860MPD2    C512627   4.299   0.557  11.375  0.4476  0.7830  0.2193
  860MPD2     H12628   4.326   0.924  11.487 -0.8832  0.7433 -0.7066
  860MPD2    H112629   4.089   0.594  11.350 -0.1910 -1.2732 -0.4346
  860MPD2    H212630   4.509   0.549  11.409 -0.2087  0.1942 -0.5854
  860MPD2    H312631   4.292   0.459  11.331 -1.4182 -0.5770  3.4854
  860MPD2     N12632   4.070   0.851  11.432  0.5341  0.6909 -0.4135
  860MPD2    H512633   4.078   0.949  11.457 -2.2725  0.9710 -0.7053
  860MPD2    N112634   4.548   0.813  11.479 -0.6418  0.0098 -0.0764
  860MPD2    H712635   4.539   0.911  11.507 -2.3220 -1.0668  3.0623
  861MPD2     C12636   3.233   4.422  11.084 -0.6351  0.2988  0.2178
  861MPD2    C112637   3.112   4.365  11.097 -0.4203 -0.4709  0.6476
  861MPD2    C212638   3.017   4.366  10.998 -0.2073  0.4805  0.0694
  861MPD2    C312639   3.046   4.434  10.878 -0.5369 -0.0733  0.0258
  861MPD2    C412640   3.168   4.494  10.857  0.2378 -0.0257 -0.1435
  861MPD2    C512641   3.258   4.479  10.962  0.0909 -0.1299  0.4043
  861MPD2     H12642   2.921   4.316  11.002 -1.1795  2.2858 -0.8772
  861MPD2    H112643   3.209   4.540  10.768  1.8316  2.2777  1.8052
  861MPD2    H212644   3.313   4.422  11.158  0.0328 -1.7177 -0.5053
  861MPD2    H312645   3.350   4.537  10.956 -0.5681  1.0772  2.0122
  861MPD2     N12646   2.954   4.444  10.773  0.0815  0.1704  0.2032
  861MPD2    H512647   2.990   4.496  10.693  0.1608  0.2730  0.3053
  861MPD2    N112648   3.084   4.294  11.215  0.6284 -0.3776  0.1385
  861MPD2    H712649   2.985   4.278  11.229  0.1532  1.0285 -1.5739
  862MPD2     C12650   2.311   4.145  10.297 -0.3099  0.2276  0.1736
  862MPD2    C112651   2.394   4.113  10.404  0.4767  0.2022 -0.1495
  862MPD2    C212652   2.420   3.984  10.438 -0.3928 -0.0171 -0.2477
  862MPD2    C312653   2.384   3.883  10.360 -0.7532  0.0985  1.2597
  862MPD2    C412654   2.307   3.907  10.250  0.1734  0.1401 -0.5332
  862MPD2    C512655   2.257   4.039  10.230 -0.3388  0.0340 -0.2224
  862MPD2     H12656   2.482   3.978  10.526 -0.0200 -0.4054 -0.5373
  862MPD2    H112657   2.273   3.825  10.187  0.3406  0.6619 -1.3106
  862MPD2    H212658   2.289   4.246  10.265 -1.9813  0.5570  2.3692
  862MPD2    H312659   2.192   4.057  10.145  0.3018  0.5126 -0.6082
  862MPD2     N12660   2.414   3.749  10.383  0.0808 -0.2079  0.2953
  862MPD2    H512661   2.371   3.682  10.320  1.2527 -1.1492  0.5059
  862MPD2    N112662   2.453   4.208  10.487 -0.0639  0.1504 -0.1183
  862MPD2    H712663   2.523   4.164  10.547 -0.2689 -1.5351 -1.1105
  863MPD2     C12664   1.839   2.285  16.722 -0.4691  0.1000 -0.4635
  863MPD2    C112665   1.790   2.159  16.731  0.3236  0.2649  0.0416
  863MPD2    C212666   1.870   2.062  16.788  0.3094 -0.7160  0.6423
  863MPD2    C312667   1.996   2.091  16.829 -0.5760  0.3328 -0.4837
  863MPD2    C412668   2.043   2.218  16.811 -0.1940 -0.0774  0.0029
  863MPD2    C512669   1.971   2.311  16.761  0.7537 -0.0967  0.4796
  863MPD2     H12670   1.831   1.961  16.798 -3.3596  0.5473 -0.6100
  863MPD2    H112671   2.145   2.241  16.838 -0.5467  1.6921 -0.1694
  863MPD2    H212672   1.792   2.361  16.661  3.2806  0.5588 -2.7675
  863MPD2    H312673   2.025   2.404  16.742 -0.1263  0.1928 -0.6199
  863MPD2     N12674   2.092   2.005  16.877  0.0299 -0.9648 -0.1690
  863MPD2    H512675   2.182   2.045  16.905 -0.1355  0.4486 -1.7072
  863MPD2    N112676   1.661   2.117  16.687  0.1465 -0.1493 -0.1128
  863MPD2    H712677   1.636   2.019  16.685  1.0139 -0.3624 -0.4880
  864MPD2     C12678   2.301   2.951  17.667 -0.0957  0.6768 -0.0067
  864MPD2    C112679   2.279   2.962  17.527 -0.2073  0.2213 -0.1818
  864MPD2    C212680   2.273   3.082  17.475  0.0339  0.2078  0.9991
  864MPD2    C312681   2.283   3.196  17.551  0.6118 -0.2382  0.5324
  864MPD2    C412682   2.297   3.190   0.020  0.8237 -0.1408  0.5124
  864MPD2    C512683   2.302   3.062   0.077 -0.6187  0.3976  0.2369
  864MPD2     H12684   2.266   3.100  17.368  0.9279 -3.1965  0.3566
  864MPD2    H112685   2.302   3.276   0.086  0.7855  1.3914 -1.4727
  864MPD2    H212686   2.310   2.855   0.046  1.0804  0.1694 -1.2326
  864MPD2    H312687   2.320   3.045   0.182 -0.1319  1.9812  0.4173
  864MPD2     N12688   2.288   3.329  17.500 -0.6366 -0.2112  0.3507
  864MPD2    H512689   2.292   3.407  17.565  1.7899 -0.4664  0.5165
  864MPD2    N112690   2.272   2.843  17.452 -0.5700  0.3763 -0.1419
  864MPD2    H712691   2.279   2.754  17.501 -0.6982  0.2839 -0.2931
  865MPD2     C12692   2.256   3.844  16.539 -0.1514 -0.2676 -0.2580
  865MPD2    C112693   2.254   3.717  16.583 -0.0894 -0.6263 -0.3576
  865MPD2    C212694   2.250   3.690  16.718 -0.1902  0.0303  0.2715
  865MPD2    C312695   2.258   3.794  16.812  0.8303  0.5952  0.0902
  865MPD2    C412696   2.251   3.924  16.765  0.0702  0.1897  0.0519
  865MPD2    C512697   2.249   3.945  16.630  0.0152  0.4042  0.7234
  865MPD2     H12698   2.259   3.590  16.759  0.2285 -1.0817 -2.5542
  865MPD2    H112699   2.244   4.010  16.830 -2.2230  0.2923 -0.3275
  865MPD2    H212700   2.268   3.869  16.434 -2.9514  2.4401  0.0851
  865MPD2    H312701   2.255   4.046  16.592  3.4991 -0.2482 -0.4653
  865MPD2     N12702   2.272   3.763  16.951 -0.0482  0.0335  0.0704
  865MPD2    H512703   2.283   3.845  17.009 -1.1451  1.0839 -1.2170
  865MPD2    N112704   2.273   3.612  16.484 -0.5113  0.3046 -0.3207
  865MPD2    H712705   2.295   3.642  16.390 -0.1130  2.3259  0.4068
  866MPD2     C12706   3.178   4.493  11.693  0.1600 -0.8057  0.0018
  866MPD2    C112707   3.252   4.506  11.584  0.2845  0.1536 -0.1878
  866MPD2    C212708   3.192   4.588  11.485  0.4036 -0.1065 -0.4479
  866MPD2    C312709   3.077   4.667  11.508 -0.0726  0.0269  0.6797
  866MPD2    C412710   3.010   4.652  11.631  0.5490  0.2240 -0.1176
  866MPD2    C512711   3.071   4.570  11.728  0.1331 -0.4496 -0.6099
  866MPD2     H12712   3.240   4.596  11.388  1.0312  0.2927 -0.1069
  866MPD2    H112713   2.917   4.703  11.654  0.7619  0.0673  1.1191
  866MPD2    H212714   3.217   4.433  11.774 -0.3032  3.7937  3.5814
  866MPD2    H312715   3.034   4.563  11.830 -1.5513 -0.0390 -1.1900
  866MPD2     N12716   3.012   0.034  11.410 -0.2822 -0.2759  0.1478
  866MPD2    H512717   2.921   0.072  11.436 -0.8078 -1.4156 -0.0027
  866MPD2    N112718   3.364   4.422  11.565 -0.1264  0.2159 -0.0664
  866MPD2    H712719   3.393   4.354  11.635  0.5515  0.1602 -0.3988
  867MPD2     C12720   1.219   3.185  16.464  0.2243  0.2716  0.2606
  867MPD2    C112721   1.247   3.163  16.595 -0.6622  0.3621 -0.2978
  867MPD2    C212722   1.213   3.263  16.688 -0.1159  0.0911  0.4766
  867MPD2    C312723   1.169   3.386  16.652 -0.0151 -0.5872  0.4580
  867MPD2    C412724   1.137   3.408  16.527 -0.0070 -0.3394  0.3965
  867MPD2    C512725   1.155   3.305  16.434 -0.5374 -0.0196  0.4469
  867MPD2     H12726   1.239   3.250  16.793  0.7600  0.4195  0.3027
  867MPD2    H112727   1.110   3.500  16.476  0.9804 -0.5493 -0.5003
  867MPD2    H212728   1.240   3.110  16.388 -2.0141 -1.1228  1.0249
  867MPD2    H312729   1.137   3.322  16.329  1.4310  0.2523  0.1540
  867MPD2     N12730   1.156   3.495  16.738  0.2223 -0.4328  0.4242
  867MPD2    H512731   1.127   3.582  16.694  1.4637 -0.5654 -0.6936
  867MPD2    N112732   1.313   3.036  16.632  0.0364  0.1785  0.1367
  867MPD2    H712733   1.339   2.982  16.550  0.4533 -1.3904  1.3060
  868MPD2     C12734   2.315   2.026  12.843 -0.1699 -0.5475  0.4800
  868MPD2    C112735   2.367   2.134  12.906  0.4835 -0.1471  0.0489
  868MPD2    C212736   2.283   2.217  12.987 -0.1042  0.0127 -0.9056
  868MPD2    C312737   2.146   2.197  12.983 -0.1868 -0.2196 -0.0997
  868MPD2    C412738   2.096   2.103  12.890  1.1167 -0.8227  0.3996
  868MPD2    C512739   2.180   2.017  12.818  0.2066 -0.2381  0.3180
  868MPD2     H12740   2.331   2.300  13.037  1.9302 -1.4374 -0.4456
  868MPD2    H112741   1.991   2.083  12.873  0.7411 -0.5497  2.4314
  868MPD2    H212742   2.384   1.947  12.814  0.6772  0.4520 -0.1894
  868MPD2    H312743   2.136   1.934  12.764  1.3013 -0.8028  0.2986
  868MPD2     N12744   2.060   2.275  13.065 -0.3661  0.6608  0.7207
  868MPD2    H512745   2.104   2.344  13.126 -0.3230  2.4369 -1.3189
  868MPD2    N112746   2.509   2.149  12.909 -0.5265  0.6888  0.1798
  868MPD2    H712747   2.565   2.070  12.880 -1.1977  0.4297 -0.4194
  869MPD2     C12748   4.480   3.966   1.480  0.4350 -0.3693  0.0980
  869MPD2    C112749   4.382   4.016   1.558 -0.1944  0.2004 -0.4703
  869MPD2    C212750   4.299   4.124   1.517 -0.4820  0.5033 -0.8735
  869MPD2    C312751   4.314   4.182   1.388  0.2868 -0.6014 -0.1613
  869MPD2    C412752   4.426   4.137   1.317 -0.1647  0.7888  0.5296
  869MPD2    C512753   4.510   4.034   1.365 -0.2846  0.5668 -0.1254
  869MPD2     H12754   4.206   4.142   1.569  0.4022  0.6932  0.6596
  869MPD2    H112755   4.451   4.179   1.221  2.7089  0.2258  1.0406
  869MPD2    H212756   4.551   3.888   1.505  0.2257 -0.3749  0.6871
  869MPD2    H312757   4.598   4.016   1.305 -1.7484  0.1407 -2.1450
  869MPD2     N12758   4.232   4.283   1.328  0.4039 -0.4760  0.4086
  869MPD2    H512759   4.259   4.318   1.237  1.5417  1.3909  1.4632
  869MPD2    N112760   4.351   3.950   1.673 -0.0727  0.4361  0.2077
  869MPD2    H712761   4.386   3.855   1.676 -1.2406  0.0649  1.7906
  870MPD2     C12762   2.996   4.141   1.829 -0.4284  0.3707 -0.2153
  870MPD2    C112763   3.113   4.085   1.785  0.2431  0.1061  0.1414
  870MPD2    C212764   3.147   4.096   1.652  0.0247  0.4918 -0.2879
  870MPD2    C312765   3.055   4.152   1.555 -0.0523 -0.4539 -0.5055
  870MPD2    C412766   2.945   4.214   1.607 -0.0933 -0.1162  0.6815
  870MPD2    C512767   2.917   4.208   1.739 -0.1970  0.4439  0.8983
  870MPD2     H12768   3.240   4.048   1.623 -0.4096 -0.2615 -0.4464
  870MPD2    H112769   2.881   4.271   1.540 -0.0275  0.0135  0.7284
  870MPD2    H212770   2.959   4.133   1.930 -2.8246 -0.2710 -1.1363
  870MPD2    H312771   2.824   4.248   1.776  0.9221  2.0137  1.9988
  870MPD2     N12772   3.078   4.159   1.419  0.3811  0.0553 -0.4498
  870MPD2    H512773   3.005   4.201   1.363 -0.8723  0.3875  1.4614
  870MPD2    N112774   3.188   4.012   1.878  0.1020 -0.3696 -0.0795
  870MPD2    H712775   3.155   4.000   1.974 -0.7219 -1.6325 -0.5281
  871MPD2     C12776   0.145   3.256  16.266 -0.2907  0.3349  0.8259
  871MPD2    C112777   0.106   3.200  16.388  0.4975 -0.0753 -0.5557
  871MPD2    C212778   0.113   3.061  16.402  0.2712 -0.0037 -0.3495
  871MPD2    C312779   0.166   2.984  16.300 -0.1215 -0.3927 -0.2052
  871MPD2    C412780   0.207   3.047  16.186  0.1447  0.1995 -0.7749
  871MPD2    C512781   0.187   3.175  16.167 -0.4951 -0.3975 -0.5390
  871MPD2     H12782   0.082   3.014  16.494 -0.5725 -1.0635 -1.1816
  871MPD2    H112783   0.265   2.992  16.112 -0.2042  0.1124 -0.9843
  871MPD2    H212784   0.141   3.362  16.242  1.1136  0.6305  1.8753
  871MPD2    H312785   0.214   3.226  16.075  1.9049 -1.2209 -0.2833
  871MPD2     N12786   0.173   2.842  16.317  0.1147  0.0814 -0.1361
  871MPD2    H512787   0.145   2.810  16.409 -1.1942  1.5261 -0.0208
  871MPD2    N112788   0.064   3.282  16.498 -0.2910 -0.0613 -0.4382
  871MPD2    H712789   0.064   3.382  16.480 -3.7102 -0.4386 -2.6509
  872MPD2     C12790   0.871   1.017  14.080 -0.6739  0.1593  0.2940
  872MPD2    C112791   0.786   1.114  14.024 -0.0822  0.2455 -0.8602
  872MPD2    C212792   0.657   1.113  14.065  0.0706  0.8300  0.7908
  872MPD2    C312793   0.605   1.026  14.158  0.1384 -0.5166  0.1534
  872MPD2    C412794   0.694   0.939  14.218  0.2250  0.0481  0.3535
  872MPD2    C512795   0.824   0.939  14.182  0.8069  0.0283  1.1960
  872MPD2     H12796   0.594   1.189  14.020  0.2678  0.3189 -0.3387
  872MPD2    H112797   0.662   0.864  14.290  0.3133 -1.6094 -1.3275
  872MPD2    H212798   0.976   1.011  14.056 -1.4126 -1.1238 -2.5962
  872MPD2    H312799   0.894   0.868  14.225  0.6985 -0.4987  0.5013
  872MPD2     N12800   0.465   1.025  14.201 -0.1250  0.4543 -0.2450
  872MPD2    H512801   0.453   0.952  14.271 -0.5397 -1.6830 -2.5644
  872MPD2    N112802   0.822   1.221  13.933  0.3335 -0.3682  0.5329
  872MPD2    H712803   0.751   1.290  13.910  0.4203 -0.4554  0.0103
  873MPD2     C12804   1.883   1.026   0.962  0.5062  0.2491  0.6344
  873MPD2    C112805   1.970   0.947   1.038  0.4662  0.6207  0.1131
  873MPD2    C212806   2.010   0.823   0.987 -0.3400 -0.6010 -0.5028
  873MPD2    C312807   1.974   0.782   0.859  0.2224  0.3109  0.1900
  873MPD2    C412808   1.883   0.856   0.791 -0.1902 -0.3814  0.7186
  873MPD2    C512809   1.843   0.978   0.835 -0.1572 -0.4298 -0.8526
  873MPD2     H12810   2.085   0.771   1.044  0.3438  0.3527 -0.5336
  873MPD2    H112811   1.853   0.818   0.694  0.5780 -3.1387  1.5632
  873MPD2    H212812   1.852   1.125   0.995  0.3671  0.5313 -0.3239
  873MPD2    H312813   1.778   1.038   0.773 -2.2174  0.0076  1.7349
  873MPD2     N12814   1.996   0.657   0.813 -0.0678  0.3962 -0.8563
  873MPD2    H512815   1.948   0.627   0.729  0.9906 -1.3150 -0.8502
  873MPD2    N112816   2.010   0.992   1.173  0.1816 -0.7157 -0.1710
  873MPD2    H712817   1.969   1.073   1.217  0.8058 -0.9735  0.8648
  874MPD2     C12818   1.921   1.075  15.921  0.7712  0.9009 -0.0976
  874MPD2    C112819   1.928   1.002  16.038 -0.5229 -0.0311 -0.2817
  874MPD2    C212820   2.045   1.013  16.113 -0.4571  0.2074  0.5524
  874MPD2    C312821   2.151   1.096  16.082  0.0764 -0.0373 -0.0255
  874MPD2    C412822   2.142   1.172  15.967 -0.9821 -0.2030 -0.1216
  874MPD2    C512823   2.029   1.159  15.895  0.0490 -0.2279 -0.3079
  874MPD2     H12824   2.061   0.945  16.196 -0.0251 -1.1784 -0.6671
  874MPD2    H112825   2.222   1.235  15.931 -1.5677 -0.4873 -1.9654
  874MPD2    H212826   1.831   1.072  15.861  1.6540 -0.6040 -1.3517
  874MPD2    H312827   2.021   1.228  15.811  0.8801 -0.4900 -0.6034
  874MPD2     N12828   2.261   1.088  16.164  0.7289  0.2944  0.2034
  874MPD2    H512829   2.265   1.013  16.232 -0.4460  0.3357  0.3135
  874MPD2    N112830   1.820   0.920  16.077 -0.5600 -0.1731  0.2651
  874MPD2    H712831   1.731   0.935  16.032 -0.7549  0.9216  1.0042
  875MPD2     C12832   3.423   4.323  14.477 -0.0329  0.1455  0.0497
  875MPD2    C112833   3.315   4.310  14.564  0.2966 -0.3117 -0.5817
  875MPD2    C212834   3.326   4.370  14.692 -0.4123  0.1380 -0.0307
  875MPD2    C312835   3.445   4.417  14.739  0.5572  0.9691  0.2683
  875MPD2    C412836   3.555   4.416  14.656 -0.0721 -0.0579  0.0974
  875MPD2    C512837   3.544   4.369  14.529  0.3467 -0.2138  0.2404
  875MPD2     H12838   3.239   4.373  14.756 -0.3616 -1.3082  0.0989
  875MPD2    H112839   3.646   4.464  14.689  0.6031 -1.0032 -0.3969
  875MPD2    H212840   3.420   4.297  14.372 -1.7719  1.6852 -0.2912
  875MPD2    H312841   3.630   4.391  14.467  0.6019  1.5942  1.2306
  875MPD2     N12842   3.457   4.470  14.869 -0.5840 -0.2730  0.0089
  875MPD2    H512843   3.543   4.520  14.886 -1.4945  1.3339 -0.0831
  875MPD2    N112844   3.191   4.271  14.512  0.2050 -0.4220 -0.2641
  875MPD2    H712845   3.112   4.299  14.570 -0.9650 -0.0337 -2.0602
  876MPD2     C12846   2.313   0.780  15.868  0.2124 -0.3500 -0.6919
  876MPD2    C112847   2.366   0.684  15.790  0.5436  0.5591 -0.3040
  876MPD2    C212848   2.403   0.558  15.844 -1.0979 -0.5090  0.9129
  876MPD2    C312849   2.353   0.533  15.971  0.7367  0.5195 -0.0910
  876MPD2    C412850   2.299   0.638  16.048  0.3681 -0.6267 -0.0259
  876MPD2    C512851   2.273   0.761  15.995  0.2223  0.3306  0.2404
  876MPD2     H12852   2.435   0.468  15.793  1.1599  0.2072  1.0608
  876MPD2    H112853   2.257   0.635  16.147  1.4161  0.2277  0.4420
  876MPD2    H212854   2.290   0.875  15.821  0.2539  0.0186  0.0228
  876MPD2    H312855   2.225   0.842  16.048 -0.6088 -0.0553  0.0811
  876MPD2     N12856   2.363   0.395  16.013 -0.4587 -0.2600 -0.6436
  876MPD2    H512857   2.393   0.320  15.953  0.8637  0.5230 -0.9698
  876MPD2    N112858   2.375   0.714  15.653  0.1497  0.1061  0.3793
  876MPD2    H712859   2.346   0.807  15.624 -3.9870 -1.7537 -1.4925
  877MPD2     C12860   2.114   1.142  15.075 -0.4208  0.9567  0.3270
  877MPD2    C112861   2.251   1.136  15.060 -0.4170 -0.6266  0.0325
  877MPD2    C212862   2.310   1.200  14.949 -0.0658 -0.7877  0.3331
  877MPD2    C312863   2.231   1.262  14.855 -0.4148 -0.1269 -0.3728
  877MPD2    C412864   2.100   1.274  14.880  0.2074  0.0120  0.3320
  877MPD2    C512865   2.039   1.214  14.987  0.5308  0.0112  0.2795
  877MPD2     H12866   2.416   1.183  14.929 -0.4008 -0.3910 -1.7609
  877MPD2    H112867   2.037   1.324  14.807  2.4936  2.0194 -0.2909
  877MPD2    H212868   2.068   1.088  15.156  1.5714 -0.2133  0.6697
  877MPD2    H312869   1.933   1.193  14.980  1.0099 -2.0755 -0.8281
  877MPD2     N12870   2.282   1.316  14.737  0.0960  0.2048 -0.0763
  877MPD2    H512871   2.217   1.368  14.679 -2.4896  0.2372  2.8757
  877MPD2    N112872   2.335   1.054  15.146  0.3471  0.3160  0.2764
  877MPD2    H712873   2.424   1.028  15.103  1.2837 -0.0372  2.4562
  878MPD2     C12874   2.269   1.510  12.894  0.3280 -0.2111  0.2718
  878MPD2    C112875   2.218   1.392  12.855  0.0227 -0.6829 -0.2542
  878MPD2    C212876   2.282   1.275  12.893  0.5255  0.0606  0.2461
  878MPD2    C312877   2.406   1.273  12.962 -1.0810 -0.2978  0.5845
  878MPD2    C412878   2.463   1.400  12.989 -0.4061 -0.6550 -0.0606
  878MPD2    C512879   2.393   1.511  12.954 -0.3553  0.5397  0.5753
  878MPD2     H12880   2.236   1.179  12.871  0.7842 -0.9105  3.8984
  878MPD2    H112881   2.567   1.409  13.018  0.0562 -0.7379 -1.6997
  878MPD2    H212882   2.214   1.603  12.899  1.2354  0.3472 -0.1658
  878MPD2    H312883   2.449   1.603  12.969 -0.7376  0.8550  0.0225
  878MPD2     N12884   2.467   1.148  12.989 -0.0812  0.4215 -0.2496
  878MPD2    H512885   2.413   1.070  12.952 -2.3290  2.5609 -1.4712
  878MPD2    N112886   2.097   1.390  12.785 -0.1908 -0.0534  0.5304
  878MPD2    H712887   2.047   1.478  12.782  0.8737  0.5414  0.1305
  879MPD2     C12888   2.471   1.808  16.386  0.8446  0.2663 -0.0951
  879MPD2    C112889   2.471   1.725  16.500  0.1518 -0.2144 -0.2579
  879MPD2    C212890   2.409   1.600  16.493  0.7265  0.2891 -0.5673
  879MPD2    C312891   2.341   1.558  16.380  0.1072 -0.0424  0.7423
  879MPD2    C412892   2.330   1.648  16.279  0.0131  0.1416 -0.2582
  879MPD2    C512893   2.395   1.764  16.277 -0.0282  0.0792 -0.5532
  879MPD2     H12894   2.422   1.530  16.574  2.8175  1.6684  0.2827
  879MPD2    H112895   2.277   1.623  16.188  0.6850  1.2083 -0.9405
  879MPD2    H212896   2.518   1.904  16.372  0.1018  0.3478 -2.0171
  879MPD2    H312897   2.381   1.825  16.188 -1.0844 -1.4528 -1.4400
  879MPD2     N12898   2.272   1.434  16.377  0.0912  0.4620 -0.3147
  879MPD2    H512899   2.233   1.396  16.291  1.1478 -0.8121 -0.2329
  879MPD2    N112900   2.533   1.769  16.619 -0.4587  0.2413  0.8574
  879MPD2    H712901   2.599   1.846  16.622  0.4084 -0.6154  3.7512
  880MPD2     C12902   3.818   3.150  17.634  0.3171  0.4628 -0.3482
  880MPD2    C112903   3.804   3.162   0.104  0.5365 -0.3364 -0.6761
  880MPD2    C212904   3.841   3.049   0.179  0.1785  0.2184  0.8008
  880MPD2    C312905   3.889   2.934   0.122  0.2692  0.3364  0.1899
  880MPD2    C412906   3.887   2.919  17.654  0.1741  0.4596 -0.0137
  880MPD2    C512907   3.849   3.030  17.571 -0.3937 -0.4914  0.1194
  880MPD2     H12908   3.832   3.042   0.287 -1.3072  1.3558  0.7363
  880MPD2    H112909   3.921   2.829  17.603  0.0489 -0.8783  2.2705
  880MPD2    H212910   3.790   3.238  17.577  2.5070  0.3045 -1.6759
  880MPD2    H312911   3.843   3.031  17.463  2.8807 -1.3044 -0.0565
  880MPD2     N12912   3.926   2.829   0.211 -0.1864  0.7213  0.0932
  880MPD2    H512913   3.905   2.848   0.309  1.7323 -1.9445  1.0134
  880MPD2    N112914   3.758   3.289   0.162 -0.2458  0.3635 -0.2142
  880MPD2    H712915   3.748   3.363   0.093 -2.6730  0.5563  0.3755
  881MPD2     C12916   3.841   4.246  17.584 -0.2931 -0.4992 -0.4258
  881MPD2    C112917   3.911   4.128  17.560 -0.1307  0.1996 -0.4613
  881MPD2    C212918   3.876   4.013  17.633 -0.8399 -0.3306  0.0906
  881MPD2    C312919   3.798   4.027   0.077 -0.9618  0.0828  0.0337
  881MPD2    C412920   3.740   4.151   0.107 -0.3522  0.0178  0.4282
  881MPD2    C512921   3.763   4.259   0.030  0.5958 -0.1491 -0.5090
  881MPD2     H12922   3.919   3.916  17.608 -2.4318 -0.7771 -0.8753
  881MPD2    H112923   3.678   4.162   0.195 -2.5439 -0.9974 -0.9888
  881MPD2    H212924   3.871   4.340  17.539 -0.0633 -0.3448  0.0422
  881MPD2    H312925   3.716   4.353   0.054  2.8262  0.5350  1.1506
  881MPD2     N12926   3.761   3.920   0.162 -0.7934 -0.2130 -0.0450
  881MPD2    H512927   3.702   3.934   0.244 -0.3098 -0.7046  0.3835
  881MPD2    N112928   3.985   4.114  17.438 -0.2125 -0.8349  0.5470
  881MPD2    H712929   3.984   4.192  17.373 -2.8465  0.0619  1.6780
  882MPD2     C12930   2.294   1.188  13.938  0.1236  0.0342 -0.2736
  882MPD2    C112931   2.226   1.280  14.022 -0.3169 -0.7344  0.0677
  882MPD2    C212932   2.089   1.317  14.003  0.5552  0.0936  0.5606
  882MPD2    C312933   2.021   1.267  13.897 -0.6263  0.3365 -0.6113
  882MPD2    C412934   2.093   1.183  13.812  0.1124 -0.9386 -0.1341
  882MPD2    C512935   2.216   1.145  13.830 -0.2920 -0.0847 -0.1486
  882MPD2     H12936   2.052   1.387  14.077  0.8439  2.4783 -1.5857
  882MPD2    H112937   2.053   1.157  13.714  0.9768  0.3393 -0.8220
  882MPD2    H212938   2.397   1.159  13.953  0.2943  1.3893  1.1283
  882MPD2    H312939   2.249   1.075  13.754  0.1153 -2.7387  2.4214
  882MPD2     N12940   1.881   1.307  13.876  0.8392 -0.2130 -0.2517
  882MPD2    H512941   1.831   1.285  13.791  1.2717 -2.4094  0.0750
  882MPD2    N112942   2.301   1.327  14.133 -0.0027 -0.2407  0.5340
  882MPD2    H712943   2.390   1.280  14.148  1.0455  1.2527 -1.1135
  883MPD2     C12944   3.879   1.861  15.620 -0.0503 -0.0658  0.2297
  883MPD2    C112945   3.884   1.726  15.627 -0.0917 -0.4586  0.5582
  883MPD2    C212946   3.983   1.660  15.700 -0.0253 -0.3629 -0.0392
  883MPD2    C312947   4.074   1.736  15.773 -0.3980  0.5447 -0.2401
  883MPD2    C412948   4.075   1.876  15.757 -0.0366  0.1528  0.1495
  883MPD2    C512949   3.987   1.929  15.670 -0.6957 -0.1933  0.5072
  883MPD2     H12950   3.991   1.552  15.698 -0.5362 -0.4205  1.0962
  883MPD2    H112951   4.139   1.946  15.810  1.2329 -2.8610  2.5862
  883MPD2    H212952   3.803   1.909  15.559 -2.1879 -2.4714  1.0262
  883MPD2    H312953   3.972   2.037  15.668 -2.1139 -0.3039  4.3606
  883MPD2     N12954   4.157   1.671  15.867  0.5719 -0.2237 -0.1108
  883MPD2    H512955   4.163   1.570  15.862 -2.5775 -0.5155  2.2905
  883MPD2    N112956   3.794   1.652  15.561 -0.1823 -0.2144  0.3052
  883MPD2    H712957   3.819   1.554  15.549  0.0587 -0.2559  1.1637
  884MPD2     C12958   1.101   1.600  15.109  0.5856  0.0481 -0.0116
  884MPD2    C112959   1.148   1.723  15.059  0.0234  0.1385  0.5658
  884MPD2    C212960   1.067   1.829  15.052  0.3427  0.4916  0.1550
  884MPD2    C312961   0.932   1.824  15.087 -0.1824  0.3188  0.0442
  884MPD2    C412962   0.891   1.700  15.129 -0.4988  0.4643  0.4935
  884MPD2    C512963   0.974   1.587  15.145 -0.2553 -0.2444 -0.5974
  884MPD2     H12964   1.097   1.927  15.016 -0.4902  0.6225 -0.1909
  884MPD2    H112965   0.789   1.682  15.161 -0.4523 -0.3093  0.1977
  884MPD2    H212966   1.157   1.507  15.106  2.0480  0.8594  1.4975
  884MPD2    H312967   0.937   1.497  15.192  0.6105  0.5749  1.6757
  884MPD2     N12968   0.852   1.945  15.081 -0.2703 -0.1134  1.0375
  884MPD2    H512969   0.898   2.024  15.036 -1.1104 -0.8361 -1.0701
  884MPD2    N112970   1.283   1.737  15.009  0.2783 -0.7522 -0.5151
  884MPD2    H712971   1.301   1.819  14.952 -1.2618  1.0784  1.6387
  885MPD2     C12972   4.487   1.282   0.140 -0.5091 -0.1720  0.5592
  885MPD2    C112973   4.461   1.409   0.185  0.2745 -0.1627 -0.1207
  885MPD2    C212974   4.469   1.512   0.091 -0.3348  1.6541 -0.3612
  885MPD2    C312975   4.487   1.483  17.627 -0.1637 -0.3257 -0.4385
  885MPD2    C412976   4.502   1.353  17.582 -0.4568  1.1218  0.0043
  885MPD2    C512977   4.510   1.256   0.006 -0.2179  0.2580  0.6311
  885MPD2     H12978   4.475   1.613   0.128  0.3556  1.3759  0.2806
  885MPD2    H112979   4.521   1.325  17.479  2.3726 -0.2824  0.9085
  885MPD2    H212980   4.492   1.210   0.221  1.1902 -3.0361 -2.1040
  885MPD2    H312981   4.532   1.154  17.644 -0.4763  0.7495 -1.1486
  885MPD2     N12982   4.503   1.589  17.537 -0.0287  0.2095 -0.1715
  885MPD2    H512983   4.474   1.681  17.568 -1.2054 -0.1827 -0.1051
  885MPD2    N112984   4.423   1.419   0.327  0.5354 -0.1731  0.0404
  885MPD2    H712985   4.420   1.331   0.378  1.5126  0.0579  0.5063
  886MPD2     C12986   0.618   0.207  14.824  0.7406  0.0907 -0.9028
  886MPD2    C112987   0.706   0.269  14.904  0.2860 -0.6573  0.1192
  886MPD2    C212988   0.743   0.402  14.879  0.3098 -0.1812 -0.4360
  886MPD2    C312989   0.695   0.466  14.773 -0.0409 -0.4105 -0.2035
  886MPD2    C412990   0.609   0.405  14.693 -1.0215  0.1149  0.1500
  886MPD2    C512991   0.580   0.274  14.711  0.2271  0.3936 -0.5751
  886MPD2     H12992   0.795   0.459  14.956  2.2430 -1.1759 -1.0145
  886MPD2    H112993   0.572   0.449  14.600  0.9906 -1.3605 -1.3385
  886MPD2    H212994   0.599   0.101  14.836 -2.6543  0.7541 -0.4266
  886MPD2    H312995   0.517   0.219  14.643 -0.6418 -0.4503  0.9121
  886MPD2     N12996   0.736   0.604  14.755  0.0511 -0.3074 -0.2200
  886MPD2    H512997   0.801   0.636  14.825  0.2300 -0.3360 -0.3721
  886MPD2    N112998   0.756   0.207  15.025 -0.3429  0.1917 -0.1560
  886MPD2    H712999   0.838   0.245  15.070 -0.3682  1.5114 -1.2127
  887MPD2     C13000   1.334   0.342  15.299  0.0231 -0.5323  0.3706
  887MPD2    C113001   1.208   0.397  15.295 -0.2664 -0.2422  0.2360
  887MPD2    C213002   1.193   0.525  15.257 -0.0607  0.1277  0.2395
  887MPD2    C313003   1.298   0.597  15.194  0.1562 -0.1784 -0.3964
  887MPD2    C413004   1.429   0.543  15.200  0.2894 -0.9207 -0.0784
  887MPD2    C513005   1.444   0.422  15.264  0.1499  0.7625  0.2184
  887MPD2     H13006   1.093   0.563  15.240 -0.5391 -1.0441  0.4561
  887MPD2    H113007   1.519   0.593  15.167 -1.4143  1.2427 -1.4090
  887MPD2    H213008   1.353   0.247  15.348  0.3479  0.1736  1.6311
  887MPD2    H313009   1.547   0.388  15.274 -0.0991  0.5877  2.2587
  887MPD2     N13010   1.273   0.731  15.171  0.0964  0.5539  0.2293
  887MPD2    H513011   1.181   0.755  15.206 -0.5074 -2.8178  1.0002
  887MPD2    N113012   1.090   0.332  15.338  0.4372  0.3456  0.0766
  887MPD2    H713013   1.005   0.388  15.337  1.5543  2.0233 -0.8466
  888MPD2     C13014   3.411   0.885  14.505  0.0040  0.8227  0.4695
  888MPD2    C113015   3.438   0.862  14.639  0.2515 -0.0584  0.1004
  888MPD2    C213016   3.515   0.960  14.714 -0.2647  0.4252  0.2943
  888MPD2    C313017   3.587   1.057  14.650 -0.3222  0.0876 -0.1260
  888MPD2    C413018   3.570   1.058  14.514 -0.4623  0.2566  0.5429
  888MPD2    C513019   3.481   0.985  14.447  0.1187  0.0709 -0.1724
  888MPD2     H13020   3.522   0.947  14.822  2.0491  0.8082  0.1931
  888MPD2    H113021   3.629   1.125  14.453  0.6401 -0.1022  1.2183
  888MPD2    H213022   3.349   0.821  14.444 -2.2596  1.0986  2.4528
  888MPD2    H313023   3.497   1.000  14.341 -0.6753  0.9004 -0.1760
  888MPD2     N13024   3.657   1.148  14.728  0.3491 -0.3618 -0.5142
  888MPD2    H513025   3.638   1.139  14.828 -1.2073  4.0736 -0.4093
  888MPD2    N113026   3.404   0.742  14.707  0.2996 -1.2331 -0.4837
  888MPD2    H713027   3.458   0.713  14.788 -0.3934 -0.7666  0.1476
  889MPD2     C13028   2.190   0.572  12.974 -0.0261  0.7853  0.5684
  889MPD2    C113029   2.314   0.525  12.946 -0.0775 -0.3956  0.3744
  889MPD2    C213030   2.403   0.609  12.872 -0.1332  0.2422 -0.2247
  889MPD2    C313031   2.362   0.734  12.840  0.8077 -0.1135  0.1897
  889MPD2    C413032   2.232   0.777  12.859 -0.1019 -0.2351  0.4698
  889MPD2    C513033   2.157   0.692  12.930 -0.2068  0.5541 -0.0696
  889MPD2     H13034   2.501   0.576  12.839 -0.8623  1.0255 -3.1184
  889MPD2    H113035   2.191   0.872  12.828  2.6795  0.4131 -1.1490
  889MPD2    H213036   2.119   0.511  13.030  0.5922  0.4896  1.0320
  889MPD2    H313037   2.059   0.726  12.961  1.1451  2.2904  2.3439
  889MPD2     N13038   2.461   0.816  12.786  0.1828  0.0323  0.5012
  889MPD2    H513039   2.555   0.778  12.773  0.2059  0.2112  0.1326
  889MPD2    N113040   2.362   0.425  13.035  0.0674 -0.2432  0.9090
  889MPD2    H713041   2.299   0.402  13.111  0.4002  3.4386  2.2687
  890MPD2     C13042   2.229   1.985  14.822  0.2683 -0.2249 -0.1585
  890MPD2    C113043   2.164   1.978  14.946  0.0452 -0.3998  0.8040
  890MPD2    C213044   2.184   1.875  15.040  0.6632 -0.5075  0.7036
  890MPD2    C313045   2.284   1.780  15.012  0.1888  0.4263 -0.2024
  890MPD2    C413046   2.350   1.784  14.888 -0.2840  0.2235  0.1577
  890MPD2    C513047   2.321   1.880  14.799 -0.1076  0.7369  0.1588
  890MPD2     H13048   2.127   1.856  15.130  1.4730 -1.2130  1.0544
  890MPD2    H113049   2.424   1.714  14.848 -0.2815 -0.5751  1.5818
  890MPD2    H213050   2.228   2.071  14.757  2.5407 -1.3084 -1.6233
  890MPD2    H313051   2.378   1.882  14.706 -0.0286 -2.4150  0.1199
  890MPD2     N13052   2.313   1.679  15.104 -0.1922  0.2034 -0.7516
  890MPD2    H513053   2.261   1.686  15.191  1.5321  0.5197  0.2556
  890MPD2    N113054   2.081   2.090  14.969 -0.4855  0.3029 -0.3502
  890MPD2    H713055   2.080   2.166  14.902 -0.8457 -0.1804 -0.8952
  891MPD2     C13056   0.351   0.109  16.185 -0.3807 -0.4145 -0.2771
  891MPD2    C113057   0.298   0.155  16.301  0.5062 -0.2166  0.3534
  891MPD2    C213058   0.304   0.076  16.414 -0.3577 -0.2801  0.1494
  891MPD2    C313059   0.381   4.682  16.417  0.3574  0.3801  1.2224
  891MPD2    C413060   0.451   4.647  16.305  0.1286 -0.1426 -0.3335
  891MPD2    C513061   0.424   4.710  16.190 -0.9104 -0.0942  0.0001
  891MPD2     H13062   0.267   0.105  16.511 -0.3259  1.0959 -0.2546
  891MPD2    H113063   0.510   4.556  16.300 -0.0480 -0.3071  0.5787
  891MPD2    H213064   0.342   0.160  16.090 -1.0590 -0.5885 -0.3032
  891MPD2    H313065   0.477   4.672  16.103  1.6859  2.1540  0.6309
  891MPD2     N13066   0.397   4.610  16.537 -0.1017  0.0014  0.2571
  891MPD2    H513067   0.347   4.645  16.618  0.2538 -0.8831  0.8599
  891MPD2    N113068   0.232   0.283  16.298  0.1071 -0.2398 -0.6722
  891MPD2    H713069   0.222   0.335  16.211 -2.9156 -3.4323 -2.2353
  892MPD2     C13070   1.266   1.515  14.655 -0.2139 -0.0366  0.0608
  892MPD2    C113071   1.189   1.510  14.539  0.4693 -0.6161  0.1793
  892MPD2    C213072   1.245   1.487  14.416  0.6337 -0.4150 -0.7068
  892MPD2    C313073   1.377   1.467  14.403  0.3368  0.3034  0.5588
  892MPD2    C413074   1.459   1.492  14.511 -0.2788 -0.1937 -0.1104
  892MPD2    C513075   1.403   1.514  14.637  0.3057 -0.3761  0.4085
  892MPD2     H13076   1.180   1.491  14.330  0.5481 -0.6528 -0.6527
  892MPD2    H113077   1.567   1.485  14.501 -0.5555 -2.9944 -1.2434
  892MPD2    H213078   1.232   1.540  14.755 -0.1517 -1.4161  0.4217
  892MPD2    H313079   1.469   1.534  14.721 -1.4069  1.8265  1.2385
  892MPD2     N13080   1.437   1.445  14.279 -0.3528  0.6157 -0.7761
  892MPD2    H513081   1.538   1.438  14.280 -0.2831  1.4841 -1.3528
  892MPD2    N113082   1.047   1.517  14.543 -0.3135 -0.9544 -0.5427
  892MPD2    H713083   1.007   1.509  14.450  2.4683  0.9153 -1.8939
  893MPD2     C13084   3.053   4.509   2.351  0.5198 -0.2963 -0.9251
  893MPD2    C113085   3.001   4.494   2.224 -0.8992  0.0974 -0.8211
  893MPD2    C213086   2.864   4.499   2.201 -0.0199  0.5530  0.4118
  893MPD2    C313087   2.779   4.504   2.309  0.4887 -0.5742 -0.2522
  893MPD2    C413088   2.830   4.514   2.432 -0.4839 -0.1505 -0.4900
  893MPD2    C513089   2.967   4.520   2.461 -0.2670  0.9692  0.4179
  893MPD2     H13090   2.820   4.510   2.102 -0.5535  0.3949  0.6286
  893MPD2    H113091   2.763   4.533   2.515  1.2059  0.9987  0.6108
  893MPD2    H213092   3.156   4.502   2.383 -0.2823  2.7955  2.2875
  893MPD2    H313093   3.010   4.535   2.560  1.3713  0.8968 -0.2870
  893MPD2     N13094   2.636   4.514   2.302  0.0307 -0.9470  0.1117
  893MPD2    H513095   2.593   4.518   2.393 -2.5606 -1.8392 -1.0819
  893MPD2    N113096   3.096   4.472   2.120  0.1438 -0.6814  0.1269
  893MPD2    H713097   3.189   4.482   2.159  0.4887 -0.3501 -0.7742
  894MPD2     C13098   0.976   2.144   1.105 -0.6800  0.0361 -0.0768
  894MPD2    C113099   1.041   2.173   1.225  0.5662  0.1920  0.9715
  894MPD2    C213100   1.170   2.225   1.225 -0.0152  0.3133  0.5218
  894MPD2    C313101   1.211   2.285   1.110 -0.6104 -0.5931  0.6272
  894MPD2    C413102   1.143   2.263   0.991  0.3126  0.6229 -0.5233
  894MPD2    C513103   1.030   2.183   0.987  0.6990  0.0813 -0.3545
  894MPD2     H13104   1.197   2.257   1.325  3.0593  0.3987 -0.3499
  894MPD2    H113105   1.186   2.296   0.897 -0.6421  2.1639 -0.4082
  894MPD2    H213106   0.880   2.095   1.119 -1.1627  1.7239  2.5214
  894MPD2    H313107   0.978   2.164   0.894 -1.9853  1.4383  0.8694
  894MPD2     N13108   1.329   2.369   1.120 -0.0650  0.1554 -0.0694
  894MPD2    H513109   1.361   2.378   1.216  1.2926  1.2892 -0.6303
  894MPD2    N113110   0.983   2.134   1.353  0.2657  0.1811 -0.3040
  894MPD2    H713111   1.037   2.152   1.437 -0.6070 -2.7962  0.9076
  895MPD2     C13112   0.750   0.963  13.637 -0.0998  0.1299  0.5961
  895MPD2    C113113   0.666   0.932  13.526  0.2667  0.0409  0.2185
  895MPD2    C213114   0.664   0.807  13.479  0.0887  0.0388 -0.1643
  895MPD2    C313115   0.757   0.711  13.525 -1.4683  0.0614 -0.0306
  895MPD2    C413116   0.840   0.742  13.630  0.4657 -0.2615  0.5957
  895MPD2    C513117   0.839   0.869  13.691  0.3029 -0.9233  0.8808
  895MPD2     H13118   0.607   0.786  13.390  0.8806  2.6187 -1.2834
  895MPD2    H113119   0.915   0.671  13.664  0.8657 -0.1563 -0.0492
  895MPD2    H213120   0.742   1.066  13.669 -0.4809  0.6904 -1.2508
  895MPD2    H313121   0.916   0.902  13.759 -1.9092  1.0123  2.4405
  895MPD2     N13122   0.757   0.585  13.460  0.1149  0.7452  0.1650
  895MPD2    H513123   0.678   0.569  13.399 -0.5775  0.1992  1.1983
  895MPD2    N113124   0.588   1.023  13.451  0.1547 -0.5060 -0.5025
  895MPD2    H713125   0.527   1.000  13.373 -0.5050 -0.0313 -0.1230
  896MPD2     C13126   2.971   2.515   2.195 -0.3293  0.0133 -1.3790
  896MPD2    C113127   2.929   2.526   2.061  0.1028  0.5590  0.2578
  896MPD2    C213128   2.810   2.479   2.022 -0.2355 -0.0412  0.3553
  896MPD2    C313129   2.714   2.428   2.114  0.7372 -0.1397 -0.9392
  896MPD2    C413130   2.756   2.412   2.243 -0.1970  0.1224  0.6079
  896MPD2    C513131   2.884   2.456   2.283  0.3921 -0.6013  0.2172
  896MPD2     H13132   2.778   2.473   1.918  0.1889  2.3051  0.0999
  896MPD2    H113133   2.695   2.361   2.317  0.9783 -0.3890  1.2279
  896MPD2    H213134   3.068   2.552   2.226 -1.6934  0.9876  1.5919
  896MPD2    H313135   2.923   2.435   2.382  1.0022  1.2408  0.3781
  896MPD2     N13136   2.584   2.387   2.080 -0.2364  0.4052  0.2170
  896MPD2    H513137   2.563   2.378   1.981  2.2219 -0.0707 -0.2511
  896MPD2    N113138   3.014   2.598   1.976  0.0189  0.5641  0.0084
  896MPD2    H713139   3.084   2.659   2.016  0.7390  0.1089 -0.5689
  897MPD2     C13140   4.117   0.359  10.503  0.3019 -0.0870 -0.7594
  897MPD2    C113141   4.044   0.312  10.395 -0.2656 -0.5803 -0.0040
  897MPD2    C213142   3.903   0.309  10.406 -0.3026 -0.3585  0.3758
  897MPD2    C313143   3.845   0.377  10.508 -0.1818 -0.5312  0.1762
  897MPD2    C413144   3.922   0.442  10.599  0.4210 -0.9414 -0.0110
  897MPD2    C513145   4.056   0.430  10.601  0.8157  0.5704  0.1544
  897MPD2     H13146   3.843   0.262  10.329  1.5640 -1.1805 -0.5798
  897MPD2    H113147   3.874   0.508  10.670 -1.2962 -1.0429 -1.0857
  897MPD2    H213148   4.222   0.338  10.485  0.6812  0.4893  0.8309
  897MPD2    H313149   4.117   0.477  10.678 -0.8701 -0.1598  1.9235
  897MPD2     N13150   3.701   0.372  10.510 -0.4476  0.1768 -0.0099
  897MPD2    H513151   3.650   0.323  10.437 -2.4775  3.3259 -0.6799
  897MPD2    N113152   4.112   0.285  10.281  0.2919  0.7690 -0.4781
  897MPD2    H713153   4.207   0.319  10.273  0.7214 -0.1989  0.5537
  898MPD2     C13154   1.300   0.206   0.059  0.2907  0.1667  0.4577
  898MPD2    C113155   1.351   0.333   0.079 -0.0807 -0.0903  0.2117
  898MPD2    C213156   1.398   0.397  17.636 -0.2129 -0.4581  0.3315
  898MPD2    C313157   1.395   0.340  17.515  0.6440  0.0377  0.2931
  898MPD2    C413158   1.362   0.206  17.497  0.0879 -0.0934 -0.1617
  898MPD2    C513159   1.310   0.140  17.605 -0.1125  1.0311  0.1737
  898MPD2     H13160   1.426   0.502  17.636  1.1579 -0.8278  0.3181
  898MPD2    H113161   1.378   0.155  17.403 -4.3704 -0.4926 -0.7096
  898MPD2    H213162   1.258   0.156   0.146 -3.2432  0.3582 -1.1075
  898MPD2    H313163   1.280   0.036  17.601  1.5849  0.5760 -0.9460
  898MPD2     N13164   1.404   0.439  17.407 -0.4412  0.0664 -0.2004
  898MPD2    H513165   1.405   0.538  17.431 -0.3751  0.2110 -0.8119
  898MPD2    N113166   1.345   0.403   0.199 -0.1820 -1.1731  0.0287
  898MPD2    H713167   1.374   0.500   0.198  1.7075 -1.7331 -0.0473
  899MPD2     C13168   2.103   1.246  17.161 -0.2771 -0.3022 -0.2657
  899MPD2    C113169   2.101   1.347  17.250  0.2550  0.7054 -0.0261
  899MPD2    C213170   2.033   1.336  17.372 -0.1894  0.2923 -0.3733
  899MPD2    C313171   1.962   1.219  17.391  0.4544  0.2697 -0.7567
  899MPD2    C413172   1.965   1.113  17.302  0.0190  0.0169  0.5724
  899MPD2    C513173   2.043   1.127  17.193  0.0343 -0.0202  0.4984
  899MPD2     H13174   2.021   1.417  17.443  0.2039  0.6425 -0.7099
  899MPD2    H113175   1.902   1.025  17.311 -0.4630  0.0643 -2.5795
  899MPD2    H213176   2.168   1.259  17.076  2.1402 -1.2658  1.4046
  899MPD2    H313177   2.032   1.057  17.111  0.2686 -0.8533  1.1683
  899MPD2     N13178   1.876   1.205  17.504 -0.5378 -0.6156  0.1565
  899MPD2    H513179   1.797   1.142  17.496  0.8895 -2.2357 -1.0676
  899MPD2    N113180   2.161   1.471  17.204  0.1579 -0.8721  0.2020
  899MPD2    H713181   2.211   1.475  17.115 -2.5002  2.8554 -1.0956
  900MPD2     C13182   1.247   3.603  12.369  0.6488 -0.0343  0.5461
  900MPD2    C113183   1.207   3.478  12.413  0.7046 -0.4909  0.0711
  900MPD2    C213184   1.098   3.417  12.348 -0.7520  0.4950 -0.0170
  900MPD2    C313185   1.035   3.474  12.240  0.0018  0.1319  0.1493
  900MPD2    C413186   1.085   3.600  12.196 -0.0487 -0.3585 -0.0910
  900MPD2    C513187   1.188   3.662  12.262 -0.1997  0.3644 -0.0737
  900MPD2     H13188   1.068   3.315  12.372  0.6268 -0.5707 -2.8963
  900MPD2    H113189   1.047   3.647  12.106  1.0257 -1.4739 -1.1357
  900MPD2    H213190   1.324   3.660  12.418  0.8788 -1.6572  2.0520
  900MPD2    H313191   1.225   3.760  12.234  0.1719  0.6188  1.2899
  900MPD2     N13192   0.921   3.409  12.182 -0.2632 -0.3579  0.0654
  900MPD2    H513193   0.891   3.321  12.223  0.0140 -0.4336  0.1032
  900MPD2    N113194   1.268   3.416  12.525  0.1430 -0.4584 -0.5525
  900MPD2    H713195   1.335   3.470  12.579  0.7156 -2.4316  0.7098
  901MPD2     C13196   1.220   2.610  13.074 -0.4962  0.1412  0.0982
  901MPD2    C113197   1.251   2.626  12.941 -0.4014 -0.0407  0.0878
  901MPD2    C213198   1.280   2.759  12.900 -0.2593 -0.0336  0.8439
  901MPD2    C313199   1.265   2.866  12.991 -0.3746 -0.2580 -0.5478
  901MPD2    C413200   1.241   2.840  13.125  0.0472  0.4746  0.0015
  901MPD2    C513201   1.219   2.713  13.159  0.0104  0.1406  0.8313
  901MPD2     H13202   1.296   2.776  12.794 -2.0062  1.4590  0.8229
  901MPD2    H113203   1.229   2.910  13.206 -0.1643  1.5204 -0.9287
  901MPD2    H213204   1.190   2.512  13.109 -2.4192  1.4597  2.1646
  901MPD2    H313205   1.194   2.700  13.264 -1.4916 -0.9406  0.3447
  901MPD2     N13206   1.284   2.989  12.938 -0.3004  0.8992  0.4471
  901MPD2    H513207   1.287   2.993  12.837  0.2539  0.0510  0.4260
  901MPD2    N113208   1.242   2.514  12.849 -0.4245 -0.4550  0.0759
  901MPD2    H713209   1.211   2.427  12.892  0.6581 -0.8058  0.1505
  902MPD2     C13210   0.604   1.404  12.528  0.0688  0.4032 -0.2935
  902MPD2    C113211   0.553   1.322  12.435  0.2275  0.3125  0.2085
  902MPD2    C213212   0.640   1.255  12.344  0.0769  0.0137 -0.6396
  902MPD2    C313213   0.772   1.271  12.362  0.0855 -0.4569  0.2786
  902MPD2    C413214   0.825   1.364  12.451  0.0416 -0.7091  0.2393
  902MPD2    C513215   0.741   1.419  12.549  0.0718  0.2123  0.5706
  902MPD2     H13216   0.604   1.185  12.269 -1.1342 -0.6008  0.5047
  902MPD2    H113217   0.932   1.381  12.459 -0.3742  0.5948  3.0479
  902MPD2    H213218   0.533   1.453  12.594 -0.1868  1.7827 -1.6051
  902MPD2    H313219   0.771   1.490  12.625  0.2140  0.5827  0.1739
  902MPD2     N13220   0.856   1.204  12.267 -0.0318 -0.7479  0.2439
  902MPD2    H513221   0.801   1.152  12.199 -0.8637  0.4727 -0.0079
  902MPD2    N113222   0.410   1.333  12.426 -0.4505 -0.6742 -0.1305
  902MPD2    H713223   0.355   1.370  12.503  0.8925  1.5527 -0.2597
  903MPD2     C13224   0.927   0.868  11.529  0.4698 -0.3331  0.5278
  903MPD2    C113225   0.883   0.954  11.626 -0.5804 -0.6642 -0.4803
  903MPD2    C213226   0.740   0.979  11.622  0.0908 -0.0214  0.9802
  903MPD2    C313227   0.656   0.919  11.530 -0.3843 -0.3756  0.3329
  903MPD2    C413228   0.713   0.834  11.437 -0.3916 -0.6091 -0.2650
  903MPD2    C513229   0.845   0.802  11.439 -0.1711 -0.0472  0.1530
  903MPD2     H13230   0.688   1.039  11.696 -2.1352  0.9874 -1.4059
  903MPD2    H113231   0.650   0.791  11.360 -1.2102  0.0459  0.0312
  903MPD2    H213232   1.034   0.855  11.521  0.4297 -0.0963 -0.4630
  903MPD2    H313233   0.887   0.739  11.361  0.5206 -0.2659  0.6978
  903MPD2     N13234   0.516   0.938  11.544  0.4474 -0.2407 -0.5631
  903MPD2    H513235   0.481   0.975  11.632  0.1901 -2.2542  0.1944
  903MPD2    N113236   0.969   1.010  11.712 -0.4467 -0.0308  0.6697
  903MPD2    H713237   1.069   1.002  11.697  0.0229  2.3853  2.5982
  904MPD2     C13238   0.302   0.388  13.538  0.0281  0.1053 -0.2034
  904MPD2    C113239   0.285   0.289  13.634 -0.4960 -0.5038  0.5724
  904MPD2    C213240   0.393   0.251  13.719 -0.0374 -0.5007 -0.5578
  904MPD2    C313241   0.505   0.336  13.725  0.2525  0.9346 -0.7469
  904MPD2    C413242   0.507   0.450  13.647  0.0182  0.1115 -1.1143
  904MPD2    C513243   0.410   0.475  13.549  0.1618  0.3195 -0.4550
  904MPD2     H13244   0.381   0.159  13.775  0.8903  0.9925  2.1198
  904MPD2    H113245   0.583   0.528  13.654 -1.1660  1.1014  0.8265
  904MPD2    H213246   0.226   0.403  13.463  1.1074  2.1155 -0.9031
  904MPD2    H313247   0.425   0.565  13.491 -1.2039  0.6807 -0.2397
  904MPD2     N13248   0.609   0.299  13.807  0.1971 -0.1919 -0.3467
  904MPD2    H513249   0.598   0.213  13.860 -1.0351 -1.7876 -3.2127
  904MPD2    N113250   0.170   0.210  13.640  0.3453 -0.3953  0.2989
  904MPD2    H713251   0.171   0.130  13.704 -2.9832 -2.0034 -1.6686
  905MPD2     C13252   0.079   0.388  12.966 -0.7770  0.1898  0.6535
  905MPD2    C113253   0.114   0.438  13.090  0.1450 -0.2520  0.2736
  905MPD2    C213254   0.246   0.438  13.126  0.1703 -0.2245  0.5632
  905MPD2    C313255   0.344   0.386  13.040 -0.0100  0.0430  0.4168
  905MPD2    C413256   0.310   0.355  12.910  0.4034  0.2323  0.7444
  905MPD2    C513257   0.179   0.361  12.875 -0.8353  0.4736 -0.2215
  905MPD2     H13258   0.271   0.441  13.232 -2.0000  0.2930  1.0686
  905MPD2    H113259   0.378   0.312  12.838 -0.9237 -0.6254  0.0001
  905MPD2    H213260   4.690   0.371  12.951  0.0416 -3.7367 -0.8185
  905MPD2    H313261   0.147   0.335  12.775  0.1725 -0.7305 -0.2336
  905MPD2     N13262   0.476   0.353  13.079  0.0237 -0.7782 -0.0976
  905MPD2    H513263   0.526   0.284  13.025 -3.4720 -1.3622 -2.6305
  905MPD2    N113264   0.019   0.453  13.200 -0.0491 -0.4528 -0.3212
  905MPD2    H713265   4.642   0.418  13.185  0.0382 -1.7381  2.0805
  906MPD2     C13266   2.246   0.659  10.987 -0.0187  0.4278  0.6915
  906MPD2    C113267   2.222   0.545  10.912 -0.2795  0.0891 -0.5132
  906MPD2    C213268   2.132   0.457  10.962 -0.0769 -0.5736  0.3093
  906MPD2    C313269   2.071   0.482  11.083  0.0155  0.1028 -0.7066
  906MPD2    C413270   2.099   0.595  11.157  0.1048 -0.1600  1.2347
  906MPD2    C513271   2.180   0.684  11.105 -0.0575 -0.0851  1.0246
  906MPD2     H13272   2.113   0.366  10.906 -1.7854 -0.7167  1.1222
  906MPD2    H113273   2.057   0.610  11.256 -2.3629 -0.9615  0.3018
  906MPD2    H213274   2.314   0.738  10.955 -1.0719  1.3778  0.7904
  906MPD2    H313275   2.196   0.776  11.160  3.2077  0.3944 -0.7553
  906MPD2     N13276   1.985   0.386  11.135 -0.7534  0.2888  0.0198
  906MPD2    H513277   1.954   0.403  11.231 -0.5002  1.5085 -0.1103
  906MPD2    N113278   2.269   0.515  10.782  0.0372  0.0152  0.2396
  906MPD2    H713279   2.230   0.434  10.735  1.1267  0.0085 -0.6355
  907MPD2     C13280   1.457   3.934  15.127  0.4056 -0.3086 -0.7672
  907MPD2    C113281   1.491   3.804  15.132 -0.1780  0.4476  0.3513
  907MPD2    C213282   1.537   3.739  15.240  0.1264  0.2786 -0.6534
  907MPD2    C313283   1.560   3.810  15.355  0.4192 -0.7007 -0.2380
  907MPD2    C413284   1.536   3.950  15.362 -0.4064  0.0279 -0.6860
  907MPD2    C513285   1.485   4.010  15.247 -0.3809  0.4467  0.3475
  907MPD2     H13286   1.538   3.630  15.240  1.0104  0.2735 -2.0375
  907MPD2    H113287   1.554   4.009  15.451  0.3494 -1.1877 -0.0277
  907MPD2    H213288   1.408   3.990  15.047  2.8056  0.2504 -1.8508
  907MPD2    H313289   1.449   4.112  15.258 -2.0653 -0.5338  3.9681
  907MPD2     N13290   1.617   3.735  15.461 -0.0865 -0.1050 -0.0045
  907MPD2    H513291   1.647   3.640  15.442 -0.5025 -0.1665 -0.3670
  907MPD2    N113292   1.460   3.723  15.016  0.7053 -0.0512 -0.1785
  907MPD2    H713293   1.466   3.622  15.016 -0.6757 -0.1328 -1.4545
  908MPD2     C13294   3.923   4.536   9.419 -0.7926 -0.0810 -0.3861
  908MPD2    C113295   3.918   4.496   9.547 -0.3298 -0.3162 -0.0231
  908MPD2    C213296   3.953   4.589   9.643 -0.3647 -0.7978 -0.0816
  908MPD2    C313297   3.974   0.006   9.620  0.0928 -0.4972  0.2751
  908MPD2    C413298   3.968   0.044   9.486 -0.6321  0.0377  0.3330
  908MPD2    C513299   3.957   4.668   9.388 -0.0799 -0.0663 -0.0657
  908MPD2     H13300   3.935   4.561   9.746 -1.8773 -0.4032 -0.2268
  908MPD2    H113301   3.985   0.146   9.454 -2.3711 -0.2679 -1.5790
  908MPD2    H213302   3.915   4.465   9.337  0.6436 -0.2520 -0.3768
  908MPD2    H313303   3.978   4.697   9.286  0.0777  2.0228  0.5599
  908MPD2     N13304   3.985   0.100   9.724 -0.0150  0.2098  0.0682
  908MPD2    H513305   3.980   0.060   9.817  0.4210 -2.9273 -1.2811
  908MPD2    N113306   3.892   4.358   9.566  0.5767 -0.4610  0.0491
  908MPD2    H713307   3.878   4.299   9.485  0.2708 -0.3374  0.0123
  909MPD2     C13308   3.882   2.740  11.787 -0.0652 -0.1359 -0.2866
  909MPD2    C113309   3.864   2.860  11.717 -0.3456  0.3820 -0.3043
  909MPD2    C213310   3.787   2.955  11.788 -0.1664 -0.0699  0.0093
  909MPD2    C313311   3.739   2.944  11.921 -0.1707 -0.4477  0.3976
  909MPD2    C413312   3.776   2.830  11.982  0.3228 -0.1172 -0.2283
  909MPD2    C513313   3.850   2.730  11.921 -0.1915 -0.0113  0.2846
  909MPD2     H13314   3.769   3.043  11.728  1.7518  1.4030  1.5974
  909MPD2    H113315   3.764   2.809  12.088 -0.9005  0.6561 -0.2098
  909MPD2    H213316   3.918   2.648  11.742  2.3531  0.1759  1.0119
  909MPD2    H313317   3.868   2.637  11.973 -2.3906 -0.9236 -0.6134
  909MPD2     N13318   3.685   3.060  11.976 -0.6580  0.1292  0.2218
  909MPD2    H513319   3.668   3.139  11.914  0.1463  0.2603  0.1788
  909MPD2    N113320   3.906   2.879  11.582  0.0871  0.6844 -0.1981
  909MPD2    H713321   3.869   2.954  11.525 -0.8886 -0.0055 -0.4790
  910MPD2     C13322   0.633   4.149  15.457 -0.2058 -0.2238  0.3841
  910MPD2    C113323   0.738   4.188  15.376 -0.2349 -0.1417  0.3474
  910MPD2    C213324   0.717   4.261  15.260 -0.4223 -0.7512 -0.2778
  910MPD2    C313325   0.581   4.270  15.215 -0.2214  0.5125 -0.1767
  910MPD2    C413326   0.476   4.235  15.301 -0.4700 -0.9267 -0.2044
  910MPD2    C513327   0.507   4.171  15.414 -0.1572 -0.2645  0.2587
  910MPD2     H13328   0.801   4.293  15.199 -0.6940  0.1728 -0.1666
  910MPD2    H113329   0.372   4.234  15.273 -0.5166  2.9962 -0.2608
  910MPD2    H213330   0.635   4.096  15.551  0.2623  0.9070  1.0119
  910MPD2    H313331   0.429   4.140  15.482 -0.9055  0.8733 -0.0891
  910MPD2     N13332   0.548   4.325  15.090  0.1726 -0.2353  0.6764
  910MPD2    H513333   0.455   4.320  15.049  0.7050  0.4502 -0.6198
  910MPD2    N113334   0.876   4.173  15.407  0.1116 -0.1890  0.1431
  910MPD2    H713335   0.931   4.189  15.322 -0.5326  1.1676 -0.0313
  911MPD2     C13336   3.402   4.454  16.395  0.0630  0.7917  0.5753
  911MPD2    C113337   3.470   4.573  16.414  0.2542 -0.7618  0.0044
  911MPD2    C213338   3.409   4.696  16.393  1.1554  0.2309  0.4022
  911MPD2    C313339   3.287   4.694  16.321  0.4672 -0.7708 -0.6413
  911MPD2    C413340   3.243   4.573  16.279  0.3212 -0.2554  1.0991
  911MPD2    C513341   3.283   4.451  16.326 -0.7284 -0.3105  0.5397
  911MPD2     H13342   3.450   0.073  16.428  3.3780 -1.0144  1.1492
  911MPD2    H113343   3.151   4.579  16.222  2.0173  0.7680 -1.5062
  911MPD2    H213344   3.446   4.358  16.421 -0.9854 -0.2243 -1.3837
  911MPD2    H313345   3.235   4.355  16.312 -2.2078  0.6182 -0.6999
  911MPD2     N13346   3.220   0.091  16.274  0.5764 -0.2716 -0.3638
  911MPD2    H513347   3.138   0.055  16.226 -1.8196  1.5520  2.3448
  911MPD2    N113348   3.598   4.567  16.463 -0.3550  0.0805 -0.6628
  911MPD2    H713349   3.643   4.477  16.475 -2.4656 -1.0767 -1.2845
  912MPD2     C13350   2.947   4.569  15.638  0.3067 -0.4598 -0.3696
  912MPD2    C113351   2.955   4.585  15.776 -0.1338 -0.5477  0.1036
  912MPD2    C213352   2.934   4.486  15.864  0.0300  0.0126 -0.0288
  912MPD2    C313353   2.887   4.368  15.817  0.1649  0.0184 -0.4726
  912MPD2    C413354   2.872   4.344  15.678  0.2963 -0.3483 -0.6577
  912MPD2    C513355   2.900   4.444  15.592 -0.1521  0.0769 -0.1466
  912MPD2     H13356   2.942   4.505  15.971  2.3354  0.8889 -0.3768
  912MPD2    H113357   2.861   4.245  15.635 -0.7336 -0.7205  0.4563
  912MPD2    H213358   2.990   4.638  15.567 -1.1814  0.3928 -0.4511
  912MPD2    H313359   2.904   4.415  15.488 -1.4506 -2.0172  0.3911
  912MPD2     N13360   2.857   4.266  15.908 -0.5803  0.1335 -0.0516
  912MPD2    H513361   2.880   4.287  16.004 -4.1949  1.4868  0.5148
  912MPD2    N113362   3.012   4.708  15.817 -0.3601  0.8975 -0.3578
  912MPD2    H713363   3.027   0.061  15.745  2.7418 -0.3047 -0.8719
  913MPD2     C13364   3.901   1.741  10.392 -0.0904  0.5110  0.7170
  913MPD2    C113365   3.810   1.644  10.385  0.5755  0.2086 -0.6750
  913MPD2    C213366   3.719   1.623  10.285 -1.2049  0.1490 -0.2098
  913MPD2    C313367   3.731   1.711  10.181 -0.2468 -0.6359  0.2361
  913MPD2    C413368   3.829   1.804  10.176 -0.5419  0.0420  0.5334
  913MPD2    C513369   3.917   1.821  10.281  0.0560 -0.1111 -0.0804
  913MPD2     H13370   3.651   1.538  10.287  0.5678 -1.2892 -0.8338
  913MPD2    H113371   3.824   1.882  10.100  0.0950 -1.3569 -0.9342
  913MPD2    H213372   3.978   1.737  10.469 -0.2993 -2.2439  0.7875
  913MPD2    H313373   4.002   1.888  10.274  0.4828 -0.6787 -0.4351
  913MPD2     N13374   3.630   1.711  10.077  0.1776  0.1136  0.5544
  913MPD2    H513375   3.629   1.779  10.003  0.3013  0.0360  0.4795
  913MPD2    N113376   3.815   1.563  10.501 -0.3822 -0.2478  0.0112
  913MPD2    H713377   3.883   1.590  10.571  0.7224 -0.0874 -1.1127
  914MPD2     C13378   1.907   2.441  12.157 -0.2105  0.5788  0.7291
  914MPD2    C113379   1.823   2.542  12.190 -0.5927 -0.9001 -0.3705
  914MPD2    C213380   1.722   2.520  12.277 -0.0086 -0.5312  0.4408
  914MPD2    C313381   1.681   2.388  12.306 -0.3639 -0.0845  0.7869
  914MPD2    C413382   1.772   2.289  12.289  0.2738 -0.3159 -0.0304
  914MPD2    C513383   1.884   2.314  12.210  0.0086 -0.2817  0.5868
  914MPD2     H13384   1.652   2.595  12.312  0.4244 -0.6679  1.6107
  914MPD2    H113385   1.746   2.189  12.324 -2.7357 -0.3842 -2.5197
  914MPD2    H213386   1.996   2.450  12.096 -0.8791  0.8130 -0.2307
  914MPD2    H313387   1.952   2.233  12.188 -0.4615 -0.2008 -1.1718
  914MPD2     N13388   1.559   2.375  12.378  0.0871  0.1569  0.0565
  914MPD2    H513389   1.507   2.461  12.394 -2.6387 -1.6786  1.0923
  914MPD2    N113390   1.837   2.669  12.124 -0.5959  0.2254  0.3457
  914MPD2    H713391   1.920   2.677  12.066 -1.3517  4.3211 -0.1809
  915MPD2     C13392   4.539   1.778  15.438 -0.2771 -0.0340  0.6379
  915MPD2    C113393   4.475   1.890  15.400  0.9428  0.0735 -0.8044
  915MPD2    C213394   4.430   1.977  15.496  0.1244 -0.1233  0.1109
  915MPD2    C313395   4.449   1.961  15.634  0.1215 -0.2583 -0.4904
  915MPD2    C413396   4.510   1.845  15.674 -0.3362 -0.0579 -0.2604
  915MPD2    C513397   4.551   1.757  15.575 -0.4926  0.6685  0.0690
  915MPD2     H13398   4.376   2.065  15.462 -0.5571  0.4275  2.6157
  915MPD2    H113399   4.538   1.815  15.775 -0.1822  1.1843  0.0596
  915MPD2    H213400   4.606   1.711  15.386  1.8292  1.3180  1.5910
  915MPD2    H313401   4.609   1.668  15.597 -1.2907  0.2050  0.3205
  915MPD2     N13402   4.385   2.045  15.720 -0.0902 -0.3248 -0.5276
  915MPD2    H513403   4.332   2.117  15.672  0.5546  0.1753 -0.4737
  915MPD2    N113404   4.455   1.901  15.262 -0.1236 -1.0156 -0.4065
  915MPD2    H713405   4.479   1.822  15.204 -1.8687 -2.3514  0.6764
  916MPD2     C13406   2.033   0.193  15.579 -0.2060 -0.7280  0.5973
  916MPD2    C113407   2.041   0.081  15.655 -0.2709  0.7498  0.3948
  916MPD2    C213408   2.002   4.676  15.605  0.5080 -0.2099 -0.7972
  916MPD2    C313409   1.956   4.661  15.476  0.7632 -0.2256 -0.3092
  916MPD2    C413410   1.960   0.058  15.398 -0.2411 -0.3215  0.7357
  916MPD2    C513411   1.998   0.176  15.451  0.2480 -0.1045  0.2433
  916MPD2     H13412   2.005   4.583  15.660 -0.1073 -0.7337 -1.6531
  916MPD2    H113413   1.937   0.063  15.292  0.5465 -0.4912  0.5537
  916MPD2    H213414   2.070   0.292  15.601 -1.3470 -0.4600  1.3344
  916MPD2    H313415   2.003   0.265  15.388  3.9631  0.3946  1.2149
  916MPD2     N13416   1.903   4.538  15.428 -0.6592  0.0280 -0.0554
  916MPD2    H513417   1.895   4.459  15.491  1.7846  0.7551  1.1698
  916MPD2    N113418   2.095   0.091  15.787 -0.4353  0.6331 -0.1970
  916MPD2    H713419   2.101   0.187  15.819  1.9189  1.0833 -1.9643
  917MPD2     C13420   2.630   2.227  11.168  0.4257  0.2001  0.0702
  917MPD2    C113421   2.673   2.320  11.258  0.1921 -0.2732 -0.0663
  917MPD2    C213422   2.784   2.398  11.217 -0.7164 -0.0306 -0.2890
  917MPD2    C313423   2.854   2.388  11.101  0.3425  0.0449  0.0189
  917MPD2    C413424   2.817   2.284  11.024  0.3716 -1.1780 -0.2573
  917MPD2    C513425   2.702   2.205  11.051  0.3966  0.0312  0.4469
  917MPD2     H13426   2.828   2.466  11.289  0.1550 -0.2779 -0.5906
  917MPD2    H113427   2.863   2.279  10.926 -1.6551  1.0016 -1.3374
  917MPD2    H213428   2.546   2.163  11.193  0.1680  0.8215  0.8013
  917MPD2    H313429   2.680   2.132  10.974 -0.5931  1.6919 -0.8420
  917MPD2     N13430   2.952   2.488  11.064 -0.3583  0.1310 -0.2443
  917MPD2    H513431   3.007   2.470  10.981  0.2201  0.7390  0.0021
  917MPD2    N113432   2.608   2.315  11.386 -0.0638  0.2289 -0.4647
  917MPD2    H713433   2.532   2.248  11.396  0.3748 -0.2448 -0.2690
  918MPD2     C13434   2.591   2.927  12.214  0.2393 -0.2010 -0.0972
  918MPD2    C113435   2.694   2.887  12.124  0.8412  0.2793 -0.7838
  918MPD2    C213436   2.666   2.805  12.021  1.0432 -0.0763  0.1909
  918MPD2    C313437   2.541   2.755  12.003 -0.5368 -0.3426 -0.6592
  918MPD2    C413438   2.440   2.789  12.099 -0.5646  0.2041  0.3762
  918MPD2    C513439   2.468   2.878  12.202  0.7857 -0.6348  0.4172
  918MPD2     H13440   2.737   2.786  11.941  0.9480  0.7628 -0.0946
  918MPD2    H113441   2.338   2.753  12.087 -0.7405  0.2219  1.7754
  918MPD2    H213442   2.614   2.996  12.294  2.0122 -0.6489 -0.2221
  918MPD2    H313443   2.391   2.917  12.269  1.9651  0.9376  0.8521
  918MPD2     N13444   2.520   2.656  11.904  0.9642 -0.3815  0.6098
  918MPD2    H513445   2.594   2.652  11.835  0.5508 -0.1000  0.1488
  918MPD2    N113446   2.832   2.920  12.143 -0.1917 -0.1988  0.2225
  918MPD2    H713447   2.894   2.877  12.075  0.5737  0.1754  0.6881
  919MPD2     C13448   3.462   1.762  11.411 -0.2938  0.6006  0.5683
  919MPD2    C113449   3.407   1.653  11.357  0.2264 -0.3250  0.1075
  919MPD2    C213450   3.430   1.620  11.227  0.4845 -0.5357  0.0628
  919MPD2    C313451   3.493   1.705  11.137 -0.0259  0.2422 -0.3106
  919MPD2    C413452   3.539   1.821  11.198 -0.4769 -0.2026 -0.4424
  919MPD2    C513453   3.535   1.840  11.335 -0.7003 -0.0657 -0.0360
  919MPD2     H13454   3.402   1.524  11.187 -2.2734 -0.7289  2.4604
  919MPD2    H113455   3.594   1.894  11.139  0.6735 -1.3899 -0.8320
  919MPD2    H213456   3.462   1.779  11.518 -0.1427 -1.4654  0.8981
  919MPD2    H313457   3.582   1.927  11.379 -0.4297 -0.7487  1.0231
  919MPD2     N13458   3.498   1.684  10.995  0.2597 -0.0646 -0.5308
  919MPD2    H513459   3.538   1.763  10.945 -0.3791 -1.2028 -2.8102
  919MPD2    N113460   3.341   1.553  11.436  0.0491  0.4309  0.2326
  919MPD2    H713461   3.319   1.467  11.386  0.6740 -0.8150  2.1369
  920MPD2     C13462   3.517   2.152  10.110  0.3268  0.4443  0.8382
  920MPD2    C113463   3.407   2.073  10.113 -0.1940 -0.3315 -0.3228
  920MPD2    C213464   3.397   1.976  10.209  0.3701  0.5299  0.6196
  920MPD2    C313465   3.488   1.947  10.305 -0.5193 -0.5563 -0.5300
  920MPD2    C413466   3.599   2.031  10.311  0.1477  0.6286  0.3454
  920MPD2    C513467   3.607   2.137  10.218  0.3191 -0.1795  0.5942
  920MPD2     H13468   3.302   1.925  10.218  0.5135  0.5791  2.3598
  920MPD2    H113469   3.681   2.019  10.381 -1.8787 -1.0530  2.4287
  920MPD2    H213470   3.538   2.223  10.031  0.3294 -0.1063  0.3543
  920MPD2    H313471   3.699   2.195  10.220  1.3648 -1.8818  2.0613
  920MPD2     N13472   3.464   1.839  10.389 -0.2584  0.5844 -0.6519
  920MPD2    H513473   3.395   1.775  10.350 -0.2802 -0.0495  0.4352
  920MPD2    N113474   3.293   2.087  10.028  0.9039 -0.2705  0.7754
  920MPD2    H713475   3.227   2.012  10.047  0.9628 -1.0176 -1.9346
  921MPD2     C13476   4.280   0.599  16.582  0.0934 -0.0399  0.4460
  921MPD2    C113477   4.360   0.496  16.536  0.5327 -0.6178 -0.1373
  921MPD2    C213478   4.303   0.369  16.517  0.6816  0.0425  0.3375
  921MPD2    C313479   4.173   0.353  16.556 -0.8135  0.3701 -0.8029
  921MPD2    C413480   4.096   0.456  16.605 -0.1970  1.0026 -0.0505
  921MPD2    C513481   4.154   0.582  16.614  0.1526  0.0177 -0.0814
  921MPD2     H13482   4.363   0.287  16.480  2.6107  1.9575 -0.7299
  921MPD2    H113483   3.998   0.435  16.647 -0.1404 -0.0345 -0.4579
  921MPD2    H213484   4.331   0.691  16.608  1.3418 -0.6106 -0.0218
  921MPD2    H313485   4.107   0.669  16.658  1.1295  0.7555 -0.4991
  921MPD2     N13486   4.099   0.239  16.545  0.2967  0.0465 -0.9443
  921MPD2    H513487   4.000   0.252  16.566  0.8466 -1.4211  2.4443
  921MPD2    N113488   4.486   0.514  16.485  0.2533  0.1533 -0.3537
  921MPD2    H713489   4.535   0.429  16.460 -0.5349 -0.5975  0.6634
  922MPD2     C13490   0.749   2.549  16.791  0.1998  0.5027 -0.1980
  922MPD2    C113491   0.723   2.642  16.892 -0.3052 -0.3892  0.8298
  922MPD2    C213492   0.620   2.619  16.981  0.5573  0.0447 -0.1526
  922MPD2    C313493   0.546   2.506  16.971 -0.4390  0.2718  0.1015
  922MPD2    C413494   0.577   2.405  16.878 -0.3645  0.2028 -0.2297
  922MPD2    C513495   0.681   2.430  16.790 -0.6920  0.3999 -0.2815
  922MPD2     H13496   0.597   2.689  17.060 -0.8706  0.0075 -0.5430
  922MPD2    H113497   0.529   2.308  16.879 -0.8236  0.4236 -0.6609
  922MPD2    H213498   0.819   2.574  16.712  0.2191  0.3437 -0.2305
  922MPD2    H313499   0.702   2.360  16.710 -0.3993 -0.6696  0.7191
  922MPD2     N13500   0.446   2.488  17.071  0.0255  0.9082 -0.0335
  922MPD2    H513501   0.441   2.557  17.145  1.0282  0.6943  0.2358
  922MPD2    N113502   0.793   2.760  16.919  0.8268 -0.1372  0.0626
  922MPD2    H713503   0.777   2.805  17.008  0.0348  0.2163 -0.2567
  923MPD2     C13504   1.594   0.144   8.838  0.7315 -0.2355  0.1888
  923MPD2    C113505   1.656   0.257   8.885  0.2491 -0.3797 -0.3206
  923MPD2    C213506   1.784   0.261   8.947  0.3088  0.1809 -0.1736
  923MPD2    C313507   1.848   0.138   8.959 -0.1274  0.2925  0.3246
  923MPD2    C413508   1.793   0.025   8.904  0.5766 -0.1214  0.0052
  923MPD2    C513509   1.667   0.026   8.851 -0.1123  0.3002 -0.0020
  923MPD2     H13510   1.837   0.350   8.981  0.0018  0.1929  0.2750
  923MPD2    H113511   1.848   4.649   8.912  2.3543  0.8645 -0.7514
  923MPD2    H213512   1.496   0.138   8.792  0.2172  0.7093  1.1592
  923MPD2    H313513   1.617   4.651   8.818  1.0511 -0.3151 -0.0585
  923MPD2     N13514   1.964   0.124   9.032 -0.9091 -0.1693 -0.0113
  923MPD2    H513515   2.000   0.029   9.035  0.2613  0.2055 -2.1330
  923MPD2    N113516   1.582   0.373   8.869 -0.1365  0.4767  1.1574
  923MPD2    H713517   1.494   0.369   8.819  0.4429 -0.0384  0.1768
  924MPD2     C13518   1.733   3.007  15.338 -0.0194  0.2334  0.2052
  924MPD2    C113519   1.714   3.026  15.473  0.1915  0.2435 -0.1224
  924MPD2    C213520   1.760   3.150  15.532  0.7463 -0.2052 -0.1155
  924MPD2    C313521   1.836   3.236  15.455 -0.0823 -0.3527 -0.7353
  924MPD2    C413522   1.855   3.209  15.322 -0.1366  0.0223 -0.1217
  924MPD2    C513523   1.804   3.098  15.269 -0.0220  0.3714 -0.7428
  924MPD2     H13524   1.734   3.171  15.635 -0.2023 -2.1146  0.0347
  924MPD2    H113525   1.903   3.275  15.251 -1.4033  0.4097 -0.6153
  924MPD2    H213526   1.683   2.928  15.282 -3.0928  0.3367  2.8101
  924MPD2    H313527   1.818   3.094  15.161  0.3489 -2.1213 -0.6139
  924MPD2     N13528   1.888   3.355  15.512  0.4089  0.3300 -0.5130
  924MPD2    H513529   1.922   3.424  15.446 -0.0638 -1.7674 -2.9721
  924MPD2    N113530   1.613   2.942  15.527  0.6359 -0.6603  0.6931
  924MPD2    H713531   1.588   2.858  15.476 -1.4321  1.3341 -1.5741
  925MPD2     C13532   0.157   0.906  14.866 -0.2438 -0.8428 -0.2380
  925MPD2    C113533   0.044   0.901  14.784  0.0165 -0.6932 -0.5945
  925MPD2    C213534   4.644   0.847  14.835 -0.6612  0.5701  0.9895
  925MPD2    C313535   4.646   0.784  14.960  0.5184  0.0566  0.2532
  925MPD2    C413536   0.043   0.780  15.037 -0.4047  0.2093 -0.6787
  925MPD2    C513537   0.156   0.844  14.990 -0.0288  0.3749 -0.4380
  925MPD2     H13538   4.555   0.862  14.775 -0.1289 -0.5958 -0.0858
  925MPD2    H113539   0.049   0.725  15.130  1.1897  0.5760 -0.5499
  925MPD2    H213540   0.247   0.957  14.834  0.0649 -1.8307 -0.9492
  925MPD2    H313541   0.237   0.860  15.060  0.6140  0.5929 -1.2398
  925MPD2     N13542   4.529   0.722  15.018  0.2917 -0.4695 -0.4671
  925MPD2    H513543   4.546   0.686  15.111 -0.2186  0.7679  0.1050
  925MPD2    N113544   0.052   0.954  14.655 -0.0860 -0.0255 -0.5145
  925MPD2    H713545   4.684   0.955  14.599 -1.1871 -1.3448  1.1299
  926MPD2     C13546   3.740   4.477  13.057 -0.0369  0.5399 -0.1999
  926MPD2    C113547   3.694   4.605  13.057  0.7396  0.5305 -0.8409
  926MPD2    C213548   3.746   4.693  12.968  0.0840 -0.5787 -0.2852
  926MPD2    C313549   3.837   4.653  12.874 -0.1190  0.5183  0.0247
  926MPD2    C413550   3.889   4.530  12.878 -0.0532 -0.2197  0.3084
  926MPD2    C513551   3.843   4.442  12.970 -0.1398 -0.1308  0.1710
  926MPD2     H13552   3.723   0.081  12.981 -0.8255 -1.0312  1.7092
  926MPD2    H113553   3.958   4.490  12.805  1.4344 -0.0909  1.6454
  926MPD2    H213554   3.707   4.396  13.121 -1.5556  2.2084  1.1147
  926MPD2    H313555   3.882   4.341  12.969  1.3222  0.4560 -1.6533
  926MPD2     N13556   3.899   0.027  12.783  0.3064  0.2299 -0.2379
  926MPD2    H513557   3.971   4.706  12.722 -0.3032 -0.1110 -0.7466
  926MPD2    N113558   3.594   4.666  13.145 -0.1994  0.2634  0.0519
  926MPD2    H713559   3.587   0.051  13.135 -0.7121  0.2602  0.3707
  927MPD2     C13560   3.187   1.450   0.230 -0.1007  0.9497  0.5568
  927MPD2    C113561   3.227   1.319   0.258 -0.1349  0.1233 -0.9743
  927MPD2    C213562   3.337   1.271   0.177  0.0916 -0.1374  0.6175
  927MPD2    C313563   3.412   1.358   0.092  0.1495  0.8842 -0.5271
  927MPD2    C413564   3.366   1.485   0.072 -0.1979  0.2978 -0.3796
  927MPD2    C513565   3.252   1.527   0.137 -0.4618  0.1234  0.4327
  927MPD2     H13566   3.368   1.168   0.186  2.7254  0.5314 -0.7867
  927MPD2    H113567   3.414   1.559   0.007 -0.3727 -1.0032 -1.9909
  927MPD2    H213568   3.113   1.498   0.293 -1.3951 -1.7153  1.0381
  927MPD2    H313569   3.219   1.630   0.128 -1.5749 -0.4284 -1.7179
  927MPD2     N13570   3.518   1.298   0.016  0.7479 -0.0352  0.2070
  927MPD2    H513571   3.530   1.202   0.045  0.3561 -0.4663 -1.0405
  927MPD2    N113572   3.145   1.246   0.346 -0.1385  0.2738 -0.2531
  927MPD2    H713573   3.078   1.304   0.396 -1.0888 -0.5786 -0.5354
  928MPD2     C13574   0.789   0.250   0.658 -0.2356 -0.5862  0.0994
  928MPD2    C113575   0.857   0.197   0.764 -0.3109  0.3148  0.4037
  928MPD2    C213576   0.981   0.137   0.746  0.7879  0.6161  0.3147
  928MPD2    C313577   1.042   0.145   0.626 -0.4451 -0.6287  0.3053
  928MPD2    C413578   0.975   0.205   0.521 -0.4845 -1.0949  0.4088
  928MPD2    C513579   0.848   0.250   0.536 -0.1058  0.3213  0.0101
  928MPD2     H13580   1.040   0.110   0.832 -1.5464  0.7656  1.9563
  928MPD2    H113581   1.009   0.238   0.423 -0.5336 -0.9642  0.4360
  928MPD2    H213582   0.697   0.303   0.678  1.6804  2.5041  0.8123
  928MPD2    H313583   0.795   0.295   0.452  0.4858  0.6217 -0.2023
  928MPD2     N13584   1.178   0.106   0.610  0.4323  0.0540 -0.1501
  928MPD2    H513585   1.223   0.125   0.521  0.6245  0.5802  0.0578
  928MPD2    N113586   0.817   0.243   0.895 -0.1766 -0.3321 -0.8270
  928MPD2    H713587   0.748   0.317   0.884 -0.1707 -0.4551 -1.7424
  929MPD2     C13588   1.623   0.244  10.176 -0.7026 -0.2178  0.4856
  929MPD2    C113589   1.493   0.191  10.190 -0.2266 -0.1832  0.4088
  929MPD2    C213590   1.414   0.189  10.072  0.4902 -0.4110 -1.0683
  929MPD2    C313591   1.452   0.266   9.966 -0.5232 -0.0808  0.1208
  929MPD2    C413592   1.572   0.338   9.961  0.4584 -0.3786  0.1364
  929MPD2    C513593   1.658   0.322  10.068 -0.0328  0.2827 -0.1830
  929MPD2     H13594   1.310   0.159  10.074  1.2583 -3.0057 -0.2663
  929MPD2    H113595   1.602   0.400   9.877  1.1573  1.1762  1.5290
  929MPD2    H213596   1.687   0.253  10.264 -0.2839 -1.2634  0.2858
  929MPD2    H313597   1.747   0.383  10.069  0.3968 -0.3476  3.0073
  929MPD2     N13598   1.370   0.280   9.852 -0.2395 -0.0382  0.5559
  929MPD2    H513599   1.400   0.339   9.775 -1.1089  0.1471  0.3536
  929MPD2    N113600   1.451   0.152  10.316 -0.4142 -0.0081  0.1070
  929MPD2    H713601   1.516   0.151  10.394  0.9491 -2.2918 -1.0722
  930MPD2     C13602   2.959   2.492  14.086 -0.4103 -0.6164  0.2510
  930MPD2    C113603   3.045   2.492  13.978  0.5402 -0.5042  0.7676
  930MPD2    C213604   3.071   2.372  13.911 -0.4004 -0.4086 -0.0467
  930MPD2    C313605   3.001   2.257  13.940 -0.0965  0.2684 -0.0509
  930MPD2    C413606   2.916   2.252  14.054  1.0775 -0.3096 -0.0141
  930MPD2    C513607   2.900   2.372  14.122  0.1626  0.0564 -0.5064
  930MPD2     H13608   3.152   2.379  13.840  1.7865 -1.5123  2.3189
  930MPD2    H113609   2.865   2.162  14.087  0.1128 -0.2091 -1.2049
  930MPD2    H213610   2.927   2.582  14.138 -0.4696  0.3516 -1.4768
  930MPD2    H313611   2.823   2.371  14.198  0.1718  0.7204 -0.4875
  930MPD2     N13612   3.009   2.142  13.862  0.3889 -0.3117  0.2025
  930MPD2    H513613   2.929   2.081  13.874 -1.5947  2.1463 -0.3054
  930MPD2    N113614   3.094   2.619  13.929 -0.0285 -0.3468  0.2631
  930MPD2    H713615   3.066   2.700  13.983 -4.4162 -0.3151 -2.0820
  931MPD2     C13616   3.200   0.539   0.659  0.2404  0.4481  0.4441
  931MPD2    C113617   3.149   0.627   0.751 -0.1158 -0.8279  0.0819
  931MPD2    C213618   3.101   0.587   0.868  0.2813 -0.6618 -0.3714
  931MPD2    C313619   3.101   0.450   0.899  0.3353 -0.6655 -0.7496
  931MPD2    C413620   3.154   0.361   0.808 -0.6402 -0.8383 -0.5448
  931MPD2    C513621   3.208   0.409   0.689 -0.1182  0.2747 -0.6101
  931MPD2     H13622   3.086   0.656   0.950  0.7008  0.0309 -0.8767
  931MPD2    H113623   3.162   0.256   0.833  1.0457 -0.6933 -0.4963
  931MPD2    H213624   3.248   0.569   0.567 -2.2401  1.8545 -0.4025
  931MPD2    H313625   3.254   0.338   0.620 -1.3094 -1.7032  0.6455
  931MPD2     N13626   3.068   0.400   1.023  0.2986  0.4689  0.5214
  931MPD2    H513627   3.095   0.307   1.053  0.8277  1.0471  1.8240
  931MPD2    N113628   3.134   0.756   0.708  0.3052  1.0235 -0.3775
  931MPD2    H713629   3.171   0.779   0.616  1.9235  1.0284  0.2690
  932MPD2     C13630   0.713   0.472  10.671 -0.6797 -0.1564  0.1904
  932MPD2    C113631   0.776   0.558  10.754  0.3766  0.1455 -0.2583
  932MPD2    C213632   0.826   0.525  10.876  0.0727 -0.9013 -0.5262
  932MPD2    C313633   0.801   0.392  10.926 -0.6786  0.2005 -0.1693
  932MPD2    C413634   0.732   0.304  10.845 -0.1193 -0.3836 -0.4029
  932MPD2    C513635   0.687   0.349  10.723  0.2343  0.5009 -0.3528
  932MPD2     H13636   0.892   0.592  10.931 -1.2956  0.9082 -1.1310
  932MPD2    H113637   0.699   0.208  10.882 -2.6407  0.7189  0.1744
  932MPD2    H213638   0.682   0.492  10.569 -1.5595  0.7735  0.6423
  932MPD2    H313639   0.620   0.286  10.666 -0.9206 -0.2835  1.8794
  932MPD2     N13640   0.851   0.344  11.042  0.2146  0.1560  0.1909
  932MPD2    H513641   0.851   0.244  11.057  2.1651  0.2550  0.8882
  932MPD2    N113642   0.809   0.684  10.716  0.4184  0.2764 -0.1427
  932MPD2    H713643   0.873   0.732  10.779 -1.3356  0.8061  1.2504
  933MPD2     C13644   0.427   0.757   1.033 -0.3184 -1.1226  0.7732
  933MPD2    C113645   0.561   0.785   1.046 -0.1997 -0.1801  0.5474
  933MPD2    C213646   0.611   0.911   1.042 -0.0925  0.5770 -0.6138
  933MPD2    C313647   0.536   1.018   1.005  0.1955 -0.2644  0.2124
  933MPD2    C413648   0.407   0.996   0.985  0.1935  0.2322 -0.5416
  933MPD2    C513649   0.351   0.866   1.005  0.0158  0.1309 -0.1103
  933MPD2     H13650   0.716   0.935   1.049  0.0381  0.6115 -2.4971
  933MPD2    H113651   0.334   1.076   0.976  0.6962  0.5346 -1.9565
  933MPD2    H213652   0.389   0.656   1.043 -3.0720 -0.0903  0.7670
  933MPD2    H313653   0.244   0.856   1.011 -0.0479  1.1782  0.6357
  933MPD2     N13654   0.594   1.148   1.024  0.7131  0.5463  0.7328
  933MPD2    H513655   0.686   1.150   1.067  0.8920 -0.7786  0.4269
  933MPD2    N113656   0.646   0.677   1.064  0.3141 -0.2214 -0.0473
  933MPD2    H713657   0.606   0.584   1.062 -0.3164  0.0674 -1.0453
  934MPD2     C13658   2.371   2.067   2.376  0.1655 -0.4073 -0.3113
  934MPD2    C113659   2.457   2.014   2.284  0.4953 -0.4072  0.3557
  934MPD2    C213660   2.408   1.952   2.172 -0.0796 -0.3338 -0.5131
  934MPD2    C313661   2.271   1.950   2.154 -0.0975 -0.6144  0.8461
  934MPD2    C413662   2.183   1.995   2.252  0.1142  0.4299  0.0935
  934MPD2    C513663   2.238   2.054   2.363 -0.3341 -0.2187  0.3900
  934MPD2     H13664   2.472   1.916   2.092  1.0995  1.5446 -0.4164
  934MPD2    H113665   2.075   1.993   2.241  0.0388  3.2797  0.1595
  934MPD2    H213666   2.413   2.127   2.456  1.0524 -0.8131 -0.4796
  934MPD2    H313667   2.176   2.113   2.429 -0.9906  0.8129 -1.1462
  934MPD2     N13668   2.205   1.900   2.035  0.2301 -0.1578  0.1813
  934MPD2    H513669   2.105   1.913   2.038  0.3024  0.1661  1.3516
  934MPD2    N113670   2.605   2.010   2.290 -0.4795  0.0431 -0.1849
  934MPD2    H713671   2.665   1.967   2.221 -0.3356 -0.3810  0.1990
  935MPD2     C13672   2.492   1.154   1.387 -0.2573  0.2356 -0.6481
  935MPD2    C113673   2.397   1.223   1.315 -0.4348  0.3528 -0.0180
  935MPD2    C213674   2.345   1.341   1.376 -0.0483  0.0400 -0.6852
  935MPD2    C313675   2.377   1.388   1.504 -0.0062  0.2383  0.1085
  935MPD2    C413676   2.477   1.324   1.566 -0.0340  0.1743  0.0193
  935MPD2    C513677   2.528   1.211   1.511 -0.3672  0.2929  0.8593
  935MPD2     H13678   2.279   1.396   1.310 -4.1597 -3.8211  0.2690
  935MPD2    H113679   2.523   1.342   1.662  0.4166  2.6383 -0.6810
  935MPD2    H213680   2.543   1.063   1.359  0.0759 -0.6791  2.8628
  935MPD2    H313681   2.601   1.151   1.564  0.4594 -1.2519 -1.9830
  935MPD2     N13682   2.314   1.492   1.577 -0.1327 -0.1756 -0.2182
  935MPD2    H513683   2.359   1.511   1.666 -0.7566 -1.1281  0.2951
  935MPD2    N113684   2.357   1.189   1.184 -0.7087  0.0448 -0.7164
  935MPD2    H713685   2.274   1.221   1.135 -1.5281  0.4522  0.9466
  936MPD2     C13686   0.813   0.040  12.654  0.5560  0.3226 -0.0452
  936MPD2    C113687   0.808   4.618  12.629  0.1514 -0.2015  0.2573
  936MPD2    C213688   0.806   4.572  12.497  0.6795  0.6669 -0.0058
  936MPD2    C313689   0.822   4.659  12.390  0.1559  0.2499  0.0625
  936MPD2    C413690   0.830   0.080  12.414  0.4409 -0.1483 -0.4019
  936MPD2    C513691   0.830   0.124  12.546 -0.7768 -0.1342  0.3327
  936MPD2     H13692   0.791   4.466  12.480  0.3837  0.4566  1.6279
  936MPD2    H113693   0.844   0.158  12.341  0.1043  1.0725  0.8340
  936MPD2    H213694   0.825   0.082  12.753  1.0719 -1.2350  0.5457
  936MPD2    H313695   0.845   0.229  12.568 -1.0765 -0.2097  0.8961
  936MPD2     N13696   0.849   4.615  12.257  0.3393 -0.4057  0.2018
  936MPD2    H513697   0.892   4.682  12.194  0.6732 -0.5535  0.2712
  936MPD2    N113698   0.807   4.523  12.735  0.3113 -0.3077 -0.3614
  936MPD2    H713699   0.793   4.431  12.696  2.4885 -0.6215 -0.4054
  937MPD2     C13700   3.322   0.830  11.447  0.4071 -1.1258  0.7439
  937MPD2    C113701   3.383   0.949  11.428 -0.4220 -0.3072  0.5838
  937MPD2    C213702   3.474   0.954  11.328 -0.5104  0.2510 -0.2795
  937MPD2    C313703   3.509   0.852  11.242 -0.4583 -0.2186 -1.1540
  937MPD2    C413704   3.443   0.732  11.257  0.0503  0.2871 -0.1545
  937MPD2    C513705   3.350   0.722  11.360  0.0431  0.4882 -0.0222
  937MPD2     H13706   3.515   1.054  11.316 -0.6048  0.4550  1.1701
  937MPD2    H113707   3.473   0.650  11.193 -0.5033 -0.3654  0.4166
  937MPD2    H213708   3.239   0.818  11.517 -0.0239 -0.2738  0.3704
  937MPD2    H313709   3.294   0.631  11.377  0.5783  0.8218  3.4763
  937MPD2     N13710   3.614   0.871  11.152 -0.0947 -0.6893 -0.5985
  937MPD2    H513711   3.648   0.966  11.140 -0.7389 -0.6027 -1.7880
  937MPD2    N113712   3.337   1.070  11.485 -0.1082  0.8932 -0.2616
  937MPD2    H713713   3.393   1.154  11.471  2.3577 -0.6573  0.2851
  938MPD2     C13714   1.455   2.116   0.805  1.1500 -0.2712  0.0523
  938MPD2    C113715   1.528   2.114   0.923  0.0877  0.0441  0.1660
  938MPD2    C213716   1.487   2.036   1.031  0.3872  0.5629 -0.2971
  938MPD2    C313717   1.385   1.943   1.014  0.4121  0.0549  0.9372
  938MPD2    C413718   1.310   1.962   0.901  0.2406  0.1742 -0.3253
  938MPD2    C513719   1.336   2.051   0.803  0.0836 -0.0117  0.2192
  938MPD2     H13720   1.535   2.040   1.128 -2.1399 -0.6189  1.0222
  938MPD2    H113721   1.212   1.916   0.890  1.4469 -3.4857  3.9035
  938MPD2    H213722   1.476   2.175   0.717 -1.3190 -1.8946 -1.6539
  938MPD2    H313723   1.262   2.063   0.724  0.7996 -2.0355 -0.7735
  938MPD2     N13724   1.336   1.860   1.116  0.0824 -0.4893 -0.4105
  938MPD2    H513725   1.241   1.831   1.094  0.2040 -1.4168  0.3068
  938MPD2    N113726   1.650   2.189   0.935  0.8950  0.5174 -0.5580
  938MPD2    H713727   1.691   2.198   1.027  1.0242 -2.2149 -0.3483
  939MPD2     C13728   2.727   2.841   1.665 -1.0943 -0.2811  0.1026
  939MPD2    C113729   2.763   2.970   1.627 -0.6116 -0.3627  0.5956
  939MPD2    C213730   2.793   2.997   1.497  0.0019  0.5220 -0.2983
  939MPD2    C313731   2.806   2.891   1.409  0.3215  0.3609  0.1768
  939MPD2    C413732   2.760   2.767   1.445  0.4399  0.1263 -0.0669
  939MPD2    C513733   2.724   2.741   1.573 -0.3223 -0.3165 -0.0903
  939MPD2     H13734   2.829   3.094   1.467  1.0389 -0.3683 -1.9628
  939MPD2    H113735   2.759   2.690   1.369 -0.4635  0.7423 -0.6733
  939MPD2    H213736   2.710   2.804   1.766  1.0038 -0.6508  0.3350
  939MPD2    H313737   2.684   2.643   1.596 -1.1698 -0.6437 -2.9937
  939MPD2     N13738   2.850   2.923   1.277 -0.3359  0.1810  0.1409
  939MPD2    H513739   2.866   3.022   1.262  1.3594 -0.2169 -0.6887
  939MPD2    N113740   2.778   3.069   1.730 -0.1919 -0.4904 -0.0565
  939MPD2    H713741   2.763   3.035   1.824 -0.8214 -2.4135 -0.8393
  940MPD2     C13742   1.528   4.351  12.749  0.5416  0.4036 -0.0287
  940MPD2    C113743   1.523   4.215  12.784  0.1528 -0.1624  0.4224
  940MPD2    C213744   1.588   4.123  12.705  0.9184  0.4044  0.7988
  940MPD2    C313745   1.650   4.169  12.589 -0.6188  1.1371  0.1290
  940MPD2    C413746   1.656   4.302  12.566 -0.4961 -0.6878  0.2835
  940MPD2    C513747   1.598   4.396  12.646 -0.1101 -0.3192 -0.3998
  940MPD2     H13748   1.575   4.018  12.728  2.5653 -0.0274 -0.1854
  940MPD2    H113749   1.707   4.348  12.483 -0.5444  0.5873  0.9668
  940MPD2    H213750   1.486   4.431  12.809  0.1468  0.9979 -1.0917
  940MPD2    H313751   1.603   4.504  12.632  1.6990 -0.4490 -0.7665
  940MPD2     N13752   1.705   4.081  12.493 -0.0361  0.0814 -0.5310
  940MPD2    H513753   1.731   4.126  12.406  0.8864  1.5212  0.5039
  940MPD2    N113754   1.455   4.171  12.898  0.4684  0.0349 -0.0674
  940MPD2    H713755   1.473   4.075  12.926 -2.2638 -0.4276  0.1174
  941MPD2     C13756   0.731   3.459   9.269 -1.2543 -0.7156  0.0999
  941MPD2    C113757   0.770   3.440   9.401  0.9293 -0.5308 -0.0736
  941MPD2    C213758   0.686   3.365   9.487 -0.3918 -0.8479  0.2981
  941MPD2    C313759   0.568   3.307   9.440 -0.4233  0.1171 -0.4147
  941MPD2    C413760   0.533   3.334   9.307 -0.3126 -0.4768  0.2964
  941MPD2    C513761   0.620   3.398   9.223  0.2211  0.2515 -0.9073
  941MPD2     H13762   0.728   3.339   9.583 -2.8816 -1.7108  1.1649
  941MPD2    H113763   0.443   3.290   9.267 -0.7515 -0.7216  1.5690
  941MPD2    H213764   0.800   3.510   9.203 -0.6598 -1.8893 -0.1922
  941MPD2    H313765   0.591   3.416   9.120  0.4125 -1.5673 -1.2884
  941MPD2     N13766   0.485   3.216   9.519 -0.2064  0.6529  0.3932
  941MPD2    H513767   0.401   3.189   9.469  1.2216  0.2721 -1.8425
  941MPD2    N113768   0.876   3.499   9.464  0.0628  0.3542  0.0418
  941MPD2    H713769   0.880   3.479   9.564 -1.3779 -1.5163 -0.2747
  942MPD2     C13770   0.159   0.541   9.057 -0.3940 -0.1701  0.7653
  942MPD2    C113771   0.245   0.506   9.162  0.0078  0.7360  0.4507
  942MPD2    C213772   0.379   0.481   9.134 -0.0572 -0.4155 -0.0536
  942MPD2    C313773   0.431   0.479   9.004  0.7468 -0.0424  0.5032
  942MPD2    C413774   0.341   0.523   8.907  0.2582  0.1712  0.4797
  942MPD2    C513775   0.208   0.545   8.932 -1.3917  0.3145 -0.5212
  942MPD2     H13776   0.445   0.476   9.220 -0.2525  1.9407  0.2426
  942MPD2    H113777   0.368   0.529   8.802 -1.9990 -1.3690 -0.2112
  942MPD2    H213778   0.058   0.576   9.073 -0.3713  0.6507 -0.8810
  942MPD2    H313779   0.153   0.593   8.851 -2.9651 -1.0261 -0.2645
  942MPD2     N13780   0.564   0.448   8.968 -0.1473 -0.5920 -0.4104
  942MPD2    H513781   0.597   0.458   8.873 -1.7681 -0.3553 -0.9402
  942MPD2    N113782   0.205   0.513   9.298  0.0955 -0.0625  0.0225
  942MPD2    H713783   0.278   0.483   9.361  0.9795  1.0907 -0.4592
  943MPD2     C13784   3.436   2.683   8.874 -0.2719 -0.3155 -0.7571
  943MPD2    C113785   3.554   2.718   8.930 -0.4928  0.3729 -0.0120
  943MPD2    C213786   3.632   2.808   8.861 -0.0001 -0.9695 -0.4569
  943MPD2    C313787   3.584   2.870   8.742 -0.2074  0.2142  0.5380
  943MPD2    C413788   3.468   2.831   8.690  0.1777 -0.0185  0.3429
  943MPD2    C513789   3.385   2.737   8.754 -0.0957 -0.5108 -0.4323
  943MPD2     H13790   3.728   2.840   8.900 -0.8469  0.7028  0.2315
  943MPD2    H113791   3.431   2.878   8.600 -1.1540 -1.3324  0.2091
  943MPD2    H213792   3.378   2.607   8.923 -1.6642  2.3369  1.7088
  943MPD2    H313793   3.286   2.718   8.714 -0.5942 -0.9665  1.0149
  943MPD2     N13794   3.653   2.975   8.678 -0.0768  0.3469  0.3280
  943MPD2    H513795   3.605   3.019   8.600  0.0491 -2.1600 -1.1464
  943MPD2    N113796   3.581   2.668   9.059 -0.1051  0.0763  0.8637
  943MPD2    H713797   3.507   2.611   9.097  0.4651 -0.4860  1.1228
  944MPD2     C13798   3.982   2.544  10.681  0.0690  0.1640  0.4805
  944MPD2    C113799   3.986   2.432  10.751  0.6451  0.2496  0.0631
  944MPD2    C213800   3.940   2.432  10.878  0.0231  0.5211  0.0580
  944MPD2    C313801   3.888   2.546  10.937  0.1802  0.3955  0.6288
  944MPD2    C413802   3.893   2.663  10.866  0.3687 -0.3332  0.5310
  944MPD2    C513803   3.934   2.656  10.737 -0.1603  0.6159 -0.8643
  944MPD2     H13804   3.937   2.341  10.938 -0.2480 -0.0954 -0.9003
  944MPD2    H113805   3.854   2.756  10.907 -0.7600  0.5972 -2.6350
  944MPD2    H213806   4.027   2.547  10.582 -0.4745 -0.3112  0.2145
  944MPD2    H313807   3.930   2.743  10.673 -2.0981  2.4769  1.7920
  944MPD2     N13808   3.846   2.540  11.068  0.4426  0.3199  0.1232
  944MPD2    H513809   3.853   2.447  11.107 -0.3949  0.9739  1.8434
  944MPD2    N113810   4.039   2.322  10.685  0.8124  0.0300 -0.1832
  944MPD2    H713811   4.066   2.337  10.588 -0.4208  1.5999 -0.2898
    1TCq1    O113812   2.685   2.903  14.228  0.0735 -0.6194  0.0324
    1TCq1    C113813   2.715   2.780  14.271  0.1629  0.0048 -0.3469
    1TCq1    O213814   2.704   2.675  14.202 -0.1897  0.0862  0.1631
    1TCq1    C213815   2.696   2.789  14.421 -0.2283  0.1013  0.2774
    1TCq1    C313816   2.664   2.679  14.490  0.2771 -0.4713 -0.0780
    1TCq1    C413817   2.648   2.690  14.625  0.4600  0.0328  0.0675
    1TCq1    C513818   2.659   2.811  14.691  0.3871  0.3389  0.3730
    1TCq1    C613819   2.704   2.919  14.616 -0.3635  0.2349  0.0809
    1TCq1    C713820   2.721   2.911  14.480 -0.4727  0.2878  0.5568
    1TCq1    C813821   2.744   3.040  14.684 -0.0802 -0.1031 -0.0860
    1TCq1    O413822   2.787   3.025  14.796 -0.3781 -0.2875  0.4119
    1TCq1    C913823   2.626   2.572  14.709  0.0980  0.1532  0.6741
    1TCq1    O513824   2.578   2.591  14.826  0.5034 -0.1415  0.0633
    1TCq1    O613825   2.639   2.459  14.661 -0.4984  0.2289  0.8020
    1TCq1    H113826   2.668   2.977  14.290  0.0628 -0.3991 -0.2335
    1TCq1    H213827   2.672   2.580  14.446  1.0609 -1.5863  2.5854
    1TCq1    H313828   2.650   2.813  14.799 -3.0666 -1.5546  0.1277
    1TCq1    H413829   2.758   3.000  14.432 -0.8496  0.4690  0.6065
    2MPD2     C13830   2.735   3.530  14.781 -0.2607 -0.4105 -0.4852
    2MPD2    C113831   2.673   3.513  14.660 -0.1060 -0.1395  0.4872
    2MPD2    C213832   2.673   3.384  14.599  0.6447 -0.0775  0.3901
    2MPD2    C313833   2.731   3.278  14.665  0.6897 -0.4036 -0.8344
    2MPD2    C413834   2.807   3.301  14.781  0.1281 -0.1302 -0.2654
    2MPD2    C513835   2.795   3.426  14.838  0.4271 -0.0386  0.0049
    2MPD2     H13836   2.622   3.365  14.505  2.7019 -1.8354 -0.3807
    2MPD2    H113837   2.856   3.223  14.838 -0.8156 -1.2808 -1.0234
    2MPD2    H213838   2.738   3.625  14.834 -0.1784 -0.3777 -0.5496
    2MPD2    H313839   2.827   3.440  14.940  0.6177 -1.3079  0.1126
    2MPD2     N13840   2.710   3.152  14.611 -0.5992 -0.2738  0.0861
    2MPD2    H513841   2.653   3.142  14.528  0.6400  2.9276 -1.1312
    2MPD2    N113842   2.603   3.629  14.600  0.4891 -0.2077 -0.1503
    2MPD2    H713843   2.611   3.713  14.658 -1.3282 -0.4710  0.4507
    3TMC2    C113844   2.468   3.758  14.450 -0.0622 -0.9141  0.1797
    3TMC2    C213845   2.532   3.866  14.498 -0.1867  0.3690  0.5556
    3TMC2    C313846   2.480   3.988  14.459  0.4833 -0.8280 -0.2575
    3TMC2    C413847   2.350   3.766  14.382  0.3169 -0.6439  0.1604
    3TMC2    C513848   2.295   3.887  14.352  0.5905  0.1937 -0.5729
    3TMC2    C613849   2.354   4.001  14.402 -0.3527 -1.3579 -0.4863
    3TMC2     C13850   2.520   3.628  14.488 -0.3436  0.5366 -0.0158
    3TMC2     O13851   2.472   3.527  14.439  0.6292  0.2474 -0.3296
    3TMC2     H13852   2.621   3.865  14.559 -0.8620  0.1385  1.5304
    3TMC2    H113853   2.299   3.676  14.349 -2.4577  1.1067 -0.2934
    3TMC2    H213854   2.321   4.101  14.378  0.5115 -0.7747  0.8035
    3TMC2    C713855   2.162   3.886  14.297 -0.1314  0.7959 -0.0665
    3TMC2    C813856   2.555   4.110  14.467  0.7045 -0.6647 -0.2481
    3TMC2    O113857   2.106   3.779  14.282  0.2241 -0.8479 -0.1282
    3TMC2    O213858   2.489   4.212  14.498 -0.2142 -0.3119  0.3987
    3TMC2    O513859   2.685   4.082  14.489 -0.0871 -0.3535 -0.4204
    3TMC2    H513860   2.717   3.999  14.448 -1.2476 -0.6381 -0.7559
    4MPD2     C13861   1.022   4.670  13.626 -0.0396 -0.1890  0.1761
    4MPD2    C113862   1.137   0.006  13.579  0.1035 -0.2116 -0.2193
    4MPD2    C213863   1.247   4.712  13.663  0.3715  0.0536 -0.1695
    4MPD2    C313864   1.246   4.651  13.788  0.9378  0.3488  0.1862
    4MPD2    C413865   1.123   4.607  13.834  0.1404  0.9729  0.0519
    4MPD2    C513866   1.016   4.610  13.752  0.0488  0.0293  0.1938
    4MPD2     H13867   1.350   0.020  13.638 -0.6402  3.3787 -1.0781
    4MPD2    H113868   1.116   4.562  13.933 -1.9238 -1.3406 -1.1230
    4MPD2    H213869   0.931   4.661  13.568 -0.4731  1.1164  0.6461
    4MPD2    H313870   0.921   4.564  13.778  0.0280 -0.2050 -0.2929
    4MPD2     N13871   1.365   4.638  13.858  0.4238  0.2062  0.3827
    4MPD2    H513872   1.444   4.693  13.825  1.3061  0.2218  2.5465
    4MPD2    N113873   1.144   0.030  13.440 -0.0022  0.0596  0.2097
    4MPD2    H713874   1.055   0.026  13.391 -0.1932 -2.1310  0.7526
    5TCq2    C113875   1.385   4.562  13.969 -0.0407 -1.0246  0.2687
    5TCq2    O213876   1.313   4.464  14.006  0.4282  0.3538  0.0627
    5TCq2    C213877   1.517   4.589  14.017  0.2788 -0.2346 -0.4229
    5TCq2    C313878   1.551   0.003  14.058 -0.2746 -0.0554  0.4576
    5TCq2    C413879   1.660   0.023  14.141  0.6752 -0.4935 -0.2898
    5TCq2    C513880   1.726   4.635  14.201  0.1668  0.6854  0.2977
    5TCq2    C613881   1.683   4.511  14.162  0.3438 -0.1460 -0.9934
    5TCq2    C713882   1.579   4.483  14.078  0.2197 -0.1865 -0.1724
    5TCq2    C813883   1.772   4.411  14.186  0.2980 -0.4903  0.7951
    5TCq2    O413884   1.841   4.425  14.286  0.0835 -0.0908  0.1076
    5TCq2    C913885   1.710   0.157  14.156  0.1468  0.2279  0.1546
    5TCq2    O513886   1.832   0.171  14.187 -0.1494  0.1008  0.2237
    5TCq2    O613887   1.641   0.253  14.122  0.2232 -0.4202  0.3331
    5TCq2    H213888   1.500   0.089  14.015 -0.1680 -0.3225 -0.1989
    5TCq2    H313889   1.801   4.655  14.276  0.6634 -1.9502  0.5242
    5TCq2    H413890   1.530   4.387  14.070  0.2885 -0.3094  0.8785
    6MPD1     C13891   2.107   0.957  12.092  0.2803  0.2720  0.4097
    6MPD1    C113892   1.976   0.963  12.058  0.4561 -0.8658 -0.1268
    6MPD1    C213893   1.897   0.866  12.109  0.3814 -0.1990  1.0031
    6MPD1    C313894   1.946   0.753  12.178 -0.2982  0.0070  0.4918
    6MPD1    C413895   2.083   0.744  12.188  0.0867  0.3837 -0.3578
    6MPD1    C513896   2.157   0.850  12.150  0.4422  0.1920  0.3663
    6MPD1     H13897   1.790   0.878  12.101  0.7438  1.8501 -0.8630
    6MPD1    H113898   2.130   0.652  12.220  0.5084  0.3660 -1.0330
    6MPD1    H213899   2.172   1.040  12.070  0.3103 -0.1260 -1.0474
    6MPD1    H313900   2.264   0.852  12.166  0.4176  0.5203  0.4904
    6MPD1     N13901   1.867   0.643  12.228 -0.1531 -0.1307  0.5697
    6MPD1    H513902   1.918   0.557  12.249 -0.8226 -1.1383 -2.0378
    6MPD1    N113903   1.926   1.083  12.010 -0.1618  0.1369 -0.0602
    6MPD1    H613904   1.983   1.143  11.950  1.3359  1.5997  2.8172
    6MPD1    H713905   1.837   1.069  11.964 -1.4917  0.4946  2.4087
    7MPD2     C13906   1.088   0.472  12.583  0.4104 -0.2932 -0.0264
    7MPD2    C113907   1.175   0.365  12.575  0.3045 -1.3642 -0.2958
    7MPD2    C213908   1.174   0.267  12.670  0.9702 -0.1670  0.0551
    7MPD2    C313909   1.076   0.261  12.767 -0.4822 -0.4417 -0.0922
    7MPD2    C413910   0.975   0.356  12.758 -1.0472  0.1439  0.2588
    7MPD2    C513911   0.985   0.462  12.673 -0.2604 -0.6521  0.1348
    7MPD2     H13912   1.258   0.199  12.677  0.8391 -0.0891  2.6426
    7MPD2    H113913   0.896   0.366  12.831 -1.4567  2.0782 -0.4483
    7MPD2    H213914   1.094   0.560  12.520 -0.0512 -0.5283 -0.3949
    7MPD2    H313915   0.900   0.530  12.665 -0.6336 -0.7903  2.6706
    7MPD2     N13916   1.083   0.162  12.867  0.0248 -0.2567  0.5764
    7MPD2    H513917   1.164   0.100  12.859  1.4317  1.7692 -0.9104
    7MPD2    N113918   1.287   0.360  12.493  0.2773 -0.0644  0.1689
    7MPD2    H713919   1.340   0.273  12.493 -0.6000 -0.5993 -0.4472
    8TMC3    C113920   1.060   0.071  13.068 -0.2828 -0.2479  0.0926
    8TMC3    C213921   1.106   0.101  13.194  0.5131 -0.1701  0.8714
    8TMC3    C313922   1.234   0.059  13.231  0.5733 -0.1426  0.6118
    8TMC3    C413923   1.132   4.694  13.000 -0.2570  0.4483  0.5201
    8TMC3    C513924   1.258   4.654  13.042 -0.5543  0.2124  0.5924
    8TMC3    C613925   1.309   4.697  13.159  0.3144 -0.0561 -0.2381
    8TMC3     C13926   1.012   0.176  12.987  0.1213  0.6576 -0.8842
    8TMC3     O13927   0.951   0.269  13.033 -0.5762 -0.1491  0.5619
    8TMC3     H13928   1.048   0.169  13.256  0.4704  0.0138  0.6294
    8TMC3    H113929   1.079   4.649  12.916 -0.7774  0.5704  0.7831
    8TMC3    H213930   1.404   4.663  13.198 -0.7159 -0.2489  2.0654
    8TMC3    C713931   1.345   4.675  12.933 -0.5073  0.1228  0.4889
    8TMC3    C813932   1.260   0.054  13.371  0.1620  0.0641  0.2610
    8TMC3    O113933   1.292   4.686  12.823 -0.4776  0.4679 -0.0766
    8TMC3    O213934   1.377   0.051  13.410  0.1882  0.1901 -0.2287
    9TMC3    C113935   1.661   0.552  12.318 -0.2263 -0.6153 -0.3939
    9TMC3    C213936   1.729   0.443  12.371  0.2894  0.3184  0.7245
    9TMC3    C313937   1.666   0.330  12.411  0.4795  0.6831 -0.1635
    9TMC3    C413938   1.528   0.552  12.320 -0.1184 -0.2859 -0.1686
    9TMC3    C513939   1.460   0.439  12.358  0.0160  0.0404 -0.1253
    9TMC3    C613940   1.524   0.328  12.398 -0.0384  0.0539 -0.1140
    9TMC3     C13941   1.730   0.661  12.253  0.5013  0.0939  0.0228
    9TMC3     O13942   1.660   0.761  12.245 -0.2429  0.0964 -0.2613
    9TMC3     H13943   1.836   0.447  12.392  0.6497  0.1192 -1.0762
    9TMC3    H113944   1.474   0.634  12.274  0.1180 -0.9786 -1.6933
    9TMC3    H213945   1.468   0.235  12.394  1.2133 -0.7751  1.2792
    9TMC3    C713946   1.327   0.463  12.414  0.4742  0.6852  1.1028
    9TMC3    C813947   1.729   0.246  12.511  1.1390  0.2365 -0.4274
    9TMC3    O113948   1.272   0.570  12.397 -0.1154  0.4436  0.4572
    9TMC3    O213949   1.853   0.255  12.523  0.6614  0.0757  0.1949
   10MPD2     C13950   1.708   4.705  12.951 -0.3183 -0.1511  0.3420
   10MPD2    C113951   1.583   0.000  12.897 -0.0521  0.2739 -0.2779
   10MPD2    C213952   1.567   0.053  12.772 -0.8023 -0.0194 -0.0845
   10MPD2    C313953   1.677   0.107  12.710 -0.0943  0.0924 -0.3341
   10MPD2    C413954   1.803   0.096  12.761  0.2611 -0.5523 -0.5661
   10MPD2    C513955   1.816   0.033  12.880 -0.7268  0.1371  0.3134
   10MPD2     H13956   1.468   0.058  12.729 -0.1993  2.1176 -1.2197
   10MPD2    H113957   1.888   0.132  12.704 -1.0691  3.6625  0.1678
   10MPD2    H213958   1.723   4.657  13.047 -0.1345  1.7832  1.2747
   10MPD2    H313959   1.915   0.025  12.925 -1.0868 -1.5552  0.7958
   10MPD2     N13960   1.642   0.171  12.592 -0.3854  0.1759  0.5776
   10MPD2    H513961   1.543   0.162  12.572 -0.3038  0.5900 -0.0233
   10MPD2    N113962   1.476   4.680  12.976 -0.1558  0.2737 -0.2463
   10MPD2    H713963   1.507   4.637  13.063 -2.6548  0.0050  0.5223
   11MPD2     C13964   1.968   3.943  14.094 -0.2747  0.5043  0.0648
   11MPD2    C113965   1.998   4.035  14.188  0.3263 -0.2584 -0.2197
   11MPD2    C213966   1.935   4.159  14.187  0.1642  0.0980  0.3867
   11MPD2    C313967   1.840   4.189  14.092  0.1886  0.3542  0.9113
   11MPD2    C413968   1.823   4.096  13.988  0.3812  0.2681  0.6936
   11MPD2    C513969   1.881   3.973  13.997 -0.7928 -0.1943 -0.2778
   11MPD2     H13970   1.972   4.238  14.252 -1.0276  0.1394  1.0094
   11MPD2    H113971   1.741   4.116  13.921  0.9399 -2.4280 -0.7823
   11MPD2    H213972   1.996   3.839  14.088 -1.2805  0.1665  1.1249
   11MPD2    H313973   1.864   3.891  13.927  0.5410 -2.3991  1.9799
   11MPD2     N13974   1.765   4.306  14.092  0.1394 -0.2118  0.5350
   11MPD2    H513975   1.713   4.324  14.007 -0.4712 -0.3406  0.8831
   11MPD2    N113976   2.107   4.011  14.280  0.0866 -0.1228 -0.7815
   11MPD2    H713977   2.160   4.086  14.323 -0.6233  0.6247 -1.2271
    1MPD1     C13978   0.177   0.946  16.496 -0.2315 -0.2381  0.2302
    1MPD1    C113979   0.198   0.893  16.620 -0.7058 -0.4842 -0.1167
    1MPD1    C213980   0.269   0.780  16.632  0.1680 -0.7908  0.1531
    1MPD1    C313981   0.335   0.725  16.517 -0.1712 -0.7728  0.4950
    1MPD1    C413982   0.319   0.790  16.395 -0.1133  0.0968  0.2979
    1MPD1    C513983   0.239   0.897  16.383 -0.4854  0.1319 -0.3192
    1MPD1     H13984   0.280   0.741  16.733  0.7033 -1.4731 -0.1742
    1MPD1    H113985   0.371   0.755  16.307  0.3139 -0.4170  0.7501
    1MPD1    H213986   0.120   1.039  16.492 -1.3916 -0.9378  0.4437
    1MPD1    H313987   0.239   0.946  16.286  0.6748  0.1555 -0.3046
    1MPD1     N13988   0.401   0.599  16.511  0.6735  0.6664 -0.4760
    1MPD1    H513989   0.432   0.571  16.419  3.0758 -1.5743  1.0379
    1MPD1    N113990   0.137   0.949  16.736 -0.0810  0.0284 -0.3124
    1MPD1    H613991   0.126   1.050  16.740  0.3942  0.0698 -0.1079
    1MPD1    H713992   0.191   0.925  16.818 -0.2800 -1.0269 -0.4981
    2MPD1     C13993   0.435   4.590  17.221 -0.3536  0.3436 -0.1829
    2MPD1    C113994   0.330   4.676  17.181 -0.1405  0.2285 -0.3707
    2MPD1    C213995   0.342   0.024  17.055  0.1599  0.6505  0.0553
    2MPD1    C313996   0.459   0.024  16.982  0.7666 -0.3353  0.1356
    2MPD1    C413997   0.558   4.651  17.021  0.0860 -0.5723 -0.0905
    2MPD1    C513998   0.544   4.577  17.137  0.7373  0.6562  0.3248
    2MPD1     H13999   0.261   0.084  17.018  0.2714 -0.1760 -1.5126
    2MPD1    H114000   0.648   4.638  16.963  1.8929 -0.2408  2.6354
    2MPD1    H214001   0.425   4.537  17.316  0.2274  0.6328  0.0369
    2MPD1    H314002   0.632   4.516  17.155 -0.2124 -0.9999 -0.7012
    2MPD1     N14003   0.455   0.088  16.855 -0.3943 -0.4338 -0.4493
    2MPD1    H514004   0.373   0.134  16.817 -0.0256 -0.5061 -1.3359
    2MPD1    N114005   0.226   4.705  17.265  0.2219 -0.5769  0.5683
    2MPD1    H614006   0.146   0.029  17.217 -0.5630 -0.6669  1.7822
    2MPD1    H714007   0.203   4.627  17.327  1.9317 -1.2694  0.3256
    3TMC3    C114008   0.546   0.174  16.660  0.3740  0.4903 -0.2838
    3TMC3    C214009   0.619   0.153  16.549  0.6751  0.0545 -0.2007
    3TMC3    C314010   0.641   0.259  16.468  0.2732  0.5100  0.1178
    3TMC3    C414011   0.474   0.295  16.676  0.0463  0.4536 -0.7272
    3TMC3    C514012   0.490   0.393  16.586 -0.7591 -0.2587 -0.1445
    3TMC3    C614013   0.575   0.374  16.480  0.2929  0.4730 -0.6331
    3TMC3     C14014   0.561   0.083  16.774  0.4903  0.7167 -0.4151
    3TMC3     O14015   0.663   0.017  16.767  0.7536  0.0580  0.4983
    3TMC3     H14016   0.672   0.061  16.527 -1.2653 -0.3127 -3.3857
    3TMC3    H114017   0.415   0.316  16.764  0.1835  0.0560 -0.5402
    3TMC3    H214018   0.579   0.451  16.404 -0.8960  1.4203  0.2568
    3TMC3    C714019   0.433   0.522  16.619  1.0557  0.2200  0.9470
    3TMC3    C814020   0.724   0.231  16.350 -0.4705 -0.4322 -0.0615
    3TMC3    O114021   0.430   0.550  16.734 -0.2750 -0.0597 -0.4342
    3TMC3    O214022   0.738   0.112  16.317  0.7648 -0.1236 -0.1057
    4MPD1     C14023   0.938   0.410  15.932  0.0829 -0.2945  0.3940
    4MPD1    C114024   0.911   0.520  16.012 -0.3049 -0.1894  0.3792
    4MPD1    C214025   0.866   0.487  16.136 -0.1386  0.5313  0.5907
    4MPD1    C314026   0.835   0.355  16.179  0.0229 -0.0499  0.1866
    4MPD1    C414027   0.853   0.248  16.091 -0.0870  0.4889 -0.1569
    4MPD1    C514028   0.908   0.279  15.969 -0.2034  0.3195  0.2561
    4MPD1     H14029   0.847   0.559  16.214 -1.9861  1.4601 -0.7250
    4MPD1    H114030   0.842   0.144  16.118 -1.3485  0.4760 -0.7028
    4MPD1    H214031   0.989   0.415  15.836  0.3194 -0.8498  0.4944
    4MPD1    H314032   0.934   0.195  15.906 -0.2078  1.0430 -0.6990
    4MPD1     N14033   0.780   0.346  16.308  0.0620 -0.1815  0.4612
    4MPD1    H514034   0.791   0.426  16.370 -2.0097  0.0361  0.5586
    4MPD1    N114035   0.934   0.648  15.968 -0.3357  0.0351 -1.0118
    4MPD1    H614036   0.900   0.714  16.037 -0.5273  0.8217 -1.8541
    4MPD1    H714037   1.027   0.671  15.934  0.6151  0.5186  1.8885
    1TCq1    O114038   1.179   1.415  11.891 -0.0263  0.2286 -0.1296
    1TCq1    C114039   1.070   1.473  11.836  0.1370  0.1324 -0.3176
    1TCq1    O214040   0.962   1.495  11.891  0.3790  0.0060  0.5265
    1TCq1    C214041   1.074   1.434  11.692  0.4586 -0.6284  0.2338
    1TCq1    C314042   1.160   1.331  11.663  0.0275  0.1159 -0.2320
    1TCq1    C414043   1.171   1.294  11.534 -0.3956 -0.1112 -0.6286
    1TCq1    C514044   1.154   1.397  11.443 -0.7632 -0.4482  0.5620
    1TCq1    C614045   1.083   1.509  11.484 -0.8813  0.7616 -0.8760
    1TCq1    C714046   1.026   1.521  11.605  0.3344  0.1207  0.0862
    1TCq1    C814047   1.058   1.611  11.378  0.6874  0.4718 -0.3351
    1TCq1    O414048   1.031   1.720  11.417 -0.1688 -0.4615  0.2362
    1TCq1    C914049   1.264   1.188  11.505  0.1931 -0.4380 -0.7795
    1TCq1    O514050   1.361   1.215  11.429  0.2150 -0.0329  0.4219
    1TCq1    O614051   1.257   1.089  11.580 -0.0933  0.0097  0.6197
    1TCq1    H114052   1.259   1.421  11.834  0.1027 -1.1175 -0.1115
    1TCq1    H214053   1.179   1.246  11.727  0.8237  1.0923  0.8501
    1TCq1    H314054   1.196   1.380  11.345 -0.5431 -0.1986  0.6163
    1TCq1    H414055   0.964   1.608  11.624 -0.1568  0.2064 -1.8345
    2MPD1     C14056   0.903   1.749  10.904  0.0775  0.4578  0.6384
    2MPD1    C114057   0.899   1.617  10.907 -1.0174  0.1994  0.6172
    2MPD1    C214058   0.945   1.556  11.019 -0.1314  0.5220 -0.0121
    2MPD1    C314059   0.980   1.631  11.138 -0.3306  0.4896  0.2943
    2MPD1    C414060   0.973   1.765  11.144  0.6583 -0.8946  0.1153
    2MPD1    C514061   0.937   1.819  11.023 -0.3340 -0.2595 -0.4823
    2MPD1     H14062   0.936   1.449  11.035 -0.3519  0.6007  0.4037
    2MPD1    H114063   1.016   1.828  11.221 -1.3265 -1.4432  1.6531
    2MPD1    H214064   0.873   1.800  10.813 -0.3348 -0.5199  0.2332
    2MPD1    H314065   0.930   1.927  11.016 -1.0708 -0.2362  0.7048
    2MPD1     N14066   1.032   1.561  11.253 -0.1637 -0.0147  0.2922
    2MPD1    H514067   1.040   1.460  11.249  3.9873  0.3578 -1.4159
    2MPD1    N114068   0.863   1.545  10.793 -0.0710  0.8173  0.2145
    2MPD1    H614069   0.818   1.458  10.821 -1.6196  2.2108  2.0663
    2MPD1    H714070   0.804   1.589  10.722 -0.7140  0.8547  0.7729
    1TCq1    O114071   0.177   4.478  17.437  0.5334 -0.0331 -0.2823
    1TCq1    C114072   0.083   4.486  17.537 -1.0645  0.4154 -0.6103
    1TCq1    O214073   4.695   4.553  17.535  0.1150  0.0383  0.5725
    1TCq1    C214074   0.104   4.367  17.627 -0.3605 -0.2392  0.4786
    1TCq1    C314075   0.230   4.345  17.660  0.3918  0.4066 -0.5685
    1TCq1    C414076   0.260   4.249   0.088 -0.2882 -0.2185 -0.0983
    1TCq1    C514077   0.159   4.179   0.154 -0.1382 -0.5069 -0.1022
    1TCq1    C614078   0.028   4.212   0.123 -0.6828 -0.6300 -0.5167
    1TCq1    C714079   4.715   4.309   0.027  0.6582  0.1760 -0.4508
    1TCq1    C814080   4.632   4.169   0.209 -0.3166 -0.5148 -0.7011
    1TCq1    O414081   4.521   4.221   0.196  0.6124 -0.1924  0.6217
    1TCq1    C914082   0.390   4.256   0.150  0.4567  0.2118 -0.4000
    1TCq1    O514083   0.477   4.305   0.073  0.7689 -0.2442 -0.0376
    1TCq1    O614084   0.412   4.191   0.254  0.6247  0.7168 -0.3107
    1TCq1    H114085   0.227   4.394  17.445 -0.0464 -0.4779 -1.2161
    1TCq1    H214086   0.305   4.421  17.639  1.5660 -0.5469  0.1776
    1TCq1    H314087   0.179   4.136   0.251 -0.0173  1.0254  0.5505
    1TCq1    H414088   4.613   4.335   0.004 -0.2982 -1.4995  1.9887
    2MPD1     C14089   4.464   3.882   0.613  0.1352 -0.2129  0.1678
    2MPD1    C114090   4.598   3.860   0.601  0.2984 -0.0271 -0.6672
    2MPD1    C214091   4.659   3.946   0.506 -0.1515  0.4873 -0.2895
    2MPD1    C314092   4.598   4.011   0.401 -0.1649  0.3143  0.1650
    2MPD1    C414093   4.464   4.028   0.416  0.2903  0.0366  0.6819
    2MPD1    C514094   4.409   3.970   0.525 -0.5265 -0.0371  0.2813
    2MPD1     H14095   0.051   3.945   0.504 -0.1700 -2.0769 -0.2723
    2MPD1    H114096   4.410   4.093   0.348  0.4335  1.0408  1.5194
    2MPD1    H214097   4.396   3.845   0.688 -2.0459  0.0444 -1.6698
    2MPD1    H314098   4.301   3.973   0.538 -0.5931 -1.7865  0.1986
    2MPD1     N14099   4.675   4.082   0.303  0.0976  0.5320  0.4341
    2MPD1    H514100   0.051   4.043   0.288  0.2969  0.7356  1.1602
    2MPD1    N114101   4.665   3.777   0.697 -0.0549 -0.1181 -0.7447
    2MPD1    H614102   4.592   3.723   0.744  1.0934  0.1572  1.3435
    2MPD1    H714103   0.025   3.715   0.673  0.9660  0.7436  0.2696
    1MPD1     C14104   2.427   0.986  12.343 -0.5777  0.6334  0.2123
    1MPD1    C114105   2.378   1.102  12.288 -0.4507 -0.4020 -0.5983
    1MPD1    C214106   2.415   1.123  12.156  0.4007 -0.0919 -0.0578
    1MPD1    C314107   2.478   1.026  12.077  0.0413 -0.7945 -0.7843
    1MPD1    C414108   2.515   0.911  12.143  0.3391 -0.3529  0.4834
    1MPD1    C514109   2.499   0.897  12.270  0.0038 -0.4643  0.5667
    1MPD1     H14110   2.377   1.214  12.109  2.8823  1.0075  0.0957
    1MPD1    H114111   2.576   0.834  12.096  0.8072  0.5039 -0.3083
    1MPD1    H214112   2.430   0.964  12.449  1.6699  1.9039  0.4156
    1MPD1    H314113   2.540   0.806  12.314  0.4343 -0.6402 -0.1815
    1MPD1     N14114   2.498   1.045  11.941  0.5519 -0.4206  0.0028
    1MPD1    H514115   2.471   1.137  11.909  2.9861  0.0863 -0.6187
    1MPD1    N114116   2.323   1.203  12.370  0.6499  0.4569  0.4105
    1MPD1    H614117   2.258   1.170  12.441 -0.9579  0.4518 -1.0798
    1MPD1    H714118   2.268   1.275  12.323  0.1409 -0.7744 -0.9040
    2MPD1     C14119   2.067   1.682  10.922  0.0778 -0.1944  0.0749
    2MPD1    C114120   1.997   1.569  10.916 -0.0990 -0.6808 -0.1327
    2MPD1    C214121   2.026   1.459  10.839  0.2639 -0.1925  0.4046
    2MPD1    C314122   2.138   1.461  10.761 -0.0463 -0.3007 -0.0855
    2MPD1    C414123   2.209   1.582  10.757 -0.3697  0.2635  0.7736
    2MPD1    C514124   2.180   1.682  10.842  0.3744 -0.3256  0.1434
    2MPD1     H14125   1.963   1.371  10.843  2.1590 -1.5927 -0.8958
    2MPD1    H114126   2.300   1.581  10.699 -0.9318  1.9831 -0.1220
    2MPD1    H214127   2.046   1.759  10.995 -0.3314 -1.4763  1.3103
    2MPD1    H314128   2.246   1.769  10.840 -0.6919  0.5237  2.5085
    2MPD1     N14129   2.176   1.344  10.685  0.6776 -0.2197  0.0796
    2MPD1    H514130   2.272   1.354  10.653  1.0927 -2.1945  0.6694
    2MPD1    N114131   1.884   1.558  11.002  0.2943 -0.7282 -0.4712
    2MPD1    H614132   1.821   1.480  10.984 -0.7245  0.2206 -1.0346
    2MPD1    H714133   1.828   1.638  10.974  2.3097  0.1101 -2.1322
    3MPD1     C14134   1.907   0.375  10.411  0.0730  0.3624 -0.6998
    3MPD1    C114135   1.921   0.410  10.543  0.3948 -0.0635  0.5039
    3MPD1    C214136   1.985   0.517  10.577 -0.7640  0.0827  0.3186
    3MPD1    C314137   2.044   0.598  10.487 -0.0213  0.2135  0.0435
    3MPD1    C414138   2.040   0.562  10.357  0.7050  0.2767  0.0925
    3MPD1    C514139   1.975   0.448  10.316  0.2512 -0.5889 -0.1290
    3MPD1     H14140   1.996   0.547  10.680 -0.3814  0.9269  0.0330
    3MPD1    H114141   2.077   0.629  10.280  1.4988  1.6143  1.6254
    3MPD1    H214142   1.865   0.279  10.386  0.5173  0.2675 -1.0841
    3MPD1    H314143   1.960   0.420  10.212  1.4619 -1.4358 -0.0737
    3MPD1     N14144   2.096   0.727  10.521 -0.1128 -0.9281  0.0566
    3MPD1    H514145   2.071   0.762  10.614 -0.4618  0.0714 -0.4122
    3MPD1    N114146   1.874   0.325  10.644  0.8246 -0.1767  0.6112
    3MPD1    H614147   1.936   0.246  10.661 -0.9067 -1.4110  1.1860
    3MPD1    H714148   1.878   0.364  10.738  0.2028  0.9564  0.1641
    4MPD2     C14149   2.316   1.431  11.289  0.2243  0.0811  0.3523
    4MPD2    C114150   2.437   1.397  11.343 -0.0558 -0.5438 -0.4727
    4MPD2    C214151   2.551   1.441  11.284  0.1540  0.4489 -0.1433
    4MPD2    C314152   2.544   1.526  11.179  0.3520 -0.5305 -0.4111
    4MPD2    C414153   2.422   1.553  11.125  0.4291 -0.1334  0.0947
    4MPD2    C514154   2.305   1.511  11.181  1.1125  0.1954  0.0340
    4MPD2     H14155   2.645   1.406  11.326 -0.8478 -0.0899  1.6714
    4MPD2    H114156   2.413   1.615  11.037  1.5500  0.7376  0.5939
    4MPD2    H214157   2.219   1.404  11.331  0.5299  0.6341  1.4124
    4MPD2    H314158   2.207   1.544  11.149  0.4044 -2.0980 -0.1443
    4MPD2     N14159   2.666   1.576  11.115  0.0106 -0.3258 -0.2530
    4MPD2    H514160   2.652   1.607  11.019  1.0858  0.0584 -0.2894
    4MPD2    N114161   2.460   1.302  11.443  0.1246  0.0122 -0.5222
    4MPD2    H714162   2.553   1.260  11.438  0.0984 -0.2530  1.3073
    5TMC3    C114163   2.437   1.102  11.542 -0.7899 -0.1276  0.3523
    5TMC3    C214164   2.426   1.059  11.675  0.1893  1.0234 -0.3483
    5TMC3    C314165   2.548   1.002  11.720  0.0725  0.0002  0.0613
    5TMC3    C414166   2.543   1.071  11.458 -0.7812 -0.3929 -0.6504
    5TMC3    C514167   2.647   0.993  11.506 -0.1201  0.4813  0.1172
    5TMC3    C614168   2.658   0.963  11.641 -0.3902 -0.2453 -0.2642
    5TMC3     C14169   2.380   1.230  11.520 -0.4680 -0.1066  1.0060
    5TMC3     O14170   2.265   1.248  11.557  0.1164 -0.1734  0.2012
    5TMC3     H14171   2.343   1.095  11.735  0.8213  0.6306  0.7515
    5TMC3    H114172   2.538   1.093  11.352  1.2542 -0.4333 -0.7571
    5TMC3    H214173   2.737   0.900  11.678  1.5116  2.6059  0.5342
    5TMC3    C714174   2.763   1.044  11.438 -0.3839 -0.0449 -0.6925
    5TMC3    C814175   2.546   0.951  11.849 -0.5456 -0.2738  0.1929
    5TMC3    O114176   2.761   1.164  11.409 -0.2486  0.1823 -0.7993
    5TMC3    O214177   2.598   0.841  11.862 -0.1254  0.0757 -0.4036
    6TMC3    C114178   2.199   1.139  10.578  0.3787 -0.8288  0.7978
    6TMC3    C214179   2.159   1.008  10.576  0.5505  0.5631  0.0244
    6TMC3    C314180   2.242   0.925  10.517  0.6780 -0.3488 -0.4832
    6TMC3    C414181   2.325   1.179  10.550  0.0294  0.1307  0.0886
    6TMC3    C514182   2.410   1.080  10.512  0.2308  0.8141 -0.0774
    6TMC3    C614183   2.375   0.953  10.499  0.1731  0.5310  0.6141
    6TMC3     C14184   2.105   1.227  10.648 -0.3952  0.8203  0.2277
    6TMC3     O14185   1.989   1.200  10.670 -0.1233 -0.4326 -0.1231
    6TMC3     H14186   2.054   0.981  10.581  0.7063  0.4942  3.0555
    6TMC3    H114187   2.358   1.282  10.556  2.0404 -0.4962 -0.2776
    6TMC3    H214188   2.446   0.879  10.465  0.8517  1.4914 -0.0682
    6TMC3    C714189   2.544   1.109  10.562 -0.2649 -0.2877 -0.8632
    6TMC3    C814190   2.196   0.801  10.450 -1.3643 -0.2473  0.1686
    6TMC3    O114191   2.569   1.226  10.589 -0.1616  0.1264  0.1370
    6TMC3    O214192   2.254   0.783  10.340 -0.3185 -0.1910  0.0041
    7MPD2     C14193   3.160   0.992  11.121 -0.5450 -0.0306  0.4364
    7MPD2    C114194   3.115   1.104  11.190  0.5344  0.3882 -0.4002
    7MPD2    C214195   3.021   1.085  11.285  0.0663  0.8915  0.6835
    7MPD2    C314196   2.965   0.966  11.313 -0.2991  0.1618  0.6549
    7MPD2    C414197   3.018   0.858  11.251  0.0508  0.0758  0.9813
    7MPD2    C514198   3.110   0.869  11.156  0.3044  0.3083 -0.0072
    7MPD2     H14199   2.985   1.170  11.342  1.0175 -0.6233  3.5280
    7MPD2    H114200   2.979   0.767  11.294 -0.8342  0.1157  0.2587
    7MPD2    H214201   3.235   0.997  11.043  0.2978  0.8931  1.3123
    7MPD2    H314202   3.137   0.781  11.099 -2.4613 -0.2122 -0.5595
    7MPD2     N14203   2.844   0.947  11.386  0.6057 -0.5678  0.2292
    7MPD2    H514204   2.814   0.852  11.408  0.7057 -0.6775 -0.1218
    7MPD2    N114205   3.159   1.231  11.136 -0.0017  0.5921  0.1430
    7MPD2    H714206   3.211   1.231  11.049 -1.3982  0.5941 -0.6834
    8TMC3    C114207   3.106   1.460  11.093  0.1184 -0.1035 -0.5831
    8TMC3    C214208   3.094   1.411  10.966  0.1937 -0.5087 -0.1252
    8TMC3    C314209   2.975   1.432  10.906 -0.2439 -0.3882 -1.2448
    8TMC3    C414210   3.014   1.543  11.148 -0.0768  0.2923 -0.2610
    8TMC3    C514211   2.901   1.569  11.078 -0.7143  0.5355 -0.6427
    8TMC3    C614212   2.878   1.514  10.958  0.2668 -0.7139 -0.3634
    8TMC3     C14213   3.126   1.356  11.194 -0.5948  0.1378 -0.7031
    8TMC3     O14214   3.097   1.380  11.311 -0.3081  0.0631 -0.4503
    8TMC3     H14215   3.168   1.340  10.930  1.6585  0.8191  0.2770
    8TMC3    H114216   3.027   1.590  11.245  0.3758  1.6407 -0.9725
    8TMC3    H214217   2.781   1.524  10.909  0.7592 -1.5174 -1.5065
    8TMC3    C714218   2.789   1.583  11.168  0.1922 -0.0130 -1.0370
    8TMC3    C814219   2.926   1.341  10.812 -0.0179  0.2804 -0.5778
    8TMC3    O114220   2.804   1.596  11.290 -0.1578  0.2829  0.8609
    8TMC3    O214221   2.847   1.385  10.727 -0.1121 -0.4875  0.3064
    9MPD2     C14222   2.952   0.978  10.834  0.2026 -1.1113  0.4782
    9MPD2    C114223   2.900   1.102  10.799  0.5076 -0.2389 -0.4027
    9MPD2    C214224   2.779   1.104  10.734 -0.1025 -0.0649 -0.2448
    9MPD2    C314225   2.727   0.989  10.687  0.2197  0.1068  0.1227
    9MPD2    C414226   2.781   0.866  10.721 -0.1640  0.4723  0.0890
    9MPD2    C514227   2.889   0.864  10.804  0.0814  0.4999 -0.5524
    9MPD2     H14228   2.728   1.199  10.731 -1.0054 -0.5354  0.0675
    9MPD2    H114229   2.736   0.768  10.708  0.3495 -0.0514  2.1423
    9MPD2    H214230   3.049   0.968  10.880 -0.4885  0.0377  2.2223
    9MPD2    H314231   2.950   0.775  10.812  0.6141  0.9128 -0.0237
    9MPD2     N14232   2.612   0.990  10.603  0.1806 -0.3320  0.1234
    9MPD2    H514233   2.576   0.900  10.573 -0.7537  1.0139 -2.7911
    9MPD2    N114234   2.970   1.216  10.833 -0.6369 -0.2571  0.1628
    9MPD2    H714235   3.048   1.200  10.896  0.1747 -0.9361 -1.0162
    1MPD1     C14236   2.601   4.532  15.890  0.3904  0.8021  0.0349
    1MPD1    C114237   2.581   4.610  15.997 -0.0508  0.4295  0.6513
    1MPD1    C214238   2.479   4.565  16.079  0.5395  0.4810  0.6329
    1MPD1    C314239   2.400   4.455  16.055 -0.6339  0.1840 -0.1307
    1MPD1    C414240   2.423   4.383  15.938  1.0453  0.2839  0.3724
    1MPD1    C514241   2.529   4.422  15.860  0.0165  0.1177  0.6025
    1MPD1     H14242   2.441   4.631  16.156 -1.3883 -1.0577  1.0113
    1MPD1    H114243   2.369   4.291  15.915  0.6940  0.3018  1.1334
    1MPD1    H214244   2.679   4.570  15.824  1.8922 -1.6754  0.3724
    1MPD1    H314245   2.550   4.378  15.763  1.2221 -0.6127  1.1929
    1MPD1     N14246   2.306   4.404  16.153  0.2501  0.3196  0.8716
    1MPD1    H514247   2.245   4.330  16.120 -1.6727  1.7373  1.3057
    1MPD1    N114248   2.660   0.008  16.019  0.5154  0.1468  0.1827
    1MPD1    H614249   2.661   0.050  16.112 -0.2751  0.7597 -0.0848
    1MPD1    H714250   2.754   4.685  16.013  0.8564  1.3832 -2.4710
    2MPD1     C14251   1.545   3.961  16.042  0.5417  0.6137 -0.0826
    2MPD1    C114252   1.634   4.040  15.968 -0.1315  0.2150 -0.5921
    2MPD1    C214253   1.733   4.111  16.037  0.1356 -0.0329 -0.1872
    2MPD1    C314254   1.758   4.094  16.174  0.0165 -0.3411  1.0407
    2MPD1    C414255   1.673   4.002  16.238 -0.2691  0.3213  0.1884
    2MPD1    C514256   1.567   3.945  16.176  0.4863 -0.2513 -0.5305
    2MPD1     H14257   1.796   4.187  15.992 -1.2516  1.0910 -0.2479
    2MPD1    H114258   1.690   3.984  16.344 -0.1857 -0.0112  0.1201
    2MPD1    H214259   1.467   3.899  16.000 -0.3863  0.2148  2.2592
    2MPD1    H314260   1.507   3.872  16.229  0.2257  1.3054  1.3140
    2MPD1     N14261   1.874   4.151  16.235  0.2989  0.1923  0.0190
    2MPD1    H514262   1.934   4.202  16.171 -2.2803 -0.0053 -2.5441
    2MPD1    N114263   1.614   4.069  15.839  0.5087  0.2357 -0.0017
    2MPD1    H614264   1.589   3.987  15.785 -1.4606  1.7290 -1.3606
    2MPD1    H714265   1.695   4.113  15.795  0.8777 -2.5068 -1.9953
    3TCq2    C114266   1.910   4.135  16.368  0.7077 -0.2918  0.5270
    3TCq2    O214267   1.846   4.090  16.462  0.8328  0.2843 -0.1739
    3TCq2    C214268   2.029   4.215  16.402 -0.2493 -0.6774  0.9090
    3TCq2    C314269   2.042   4.228  16.538  0.7947 -0.4663  0.3568
    3TCq2    C414270   2.148   4.298  16.584  0.2653  0.0376 -0.1073
    3TCq2    C514271   2.246   4.352  16.504  0.4700 -0.1941 -1.5238
    3TCq2    C614272   2.215   4.355  16.366  0.0347  0.3617 -0.4992
    3TCq2    C714273   2.106   4.286  16.307 -0.7149  0.7154  0.6073
    3TCq2    C814274   2.308   4.428  16.289  0.4394  0.9562 -0.7151
    3TCq2    O414275   2.372   4.511  16.345 -0.4727  0.0858  0.6530
    3TCq2    C914276   2.159   4.308  16.722  0.3018  1.1190 -0.8319
    3TCq2    O514277   2.264   4.360  16.764  0.2089 -0.3242  0.1745
    3TCq2    O614278   2.051   4.309  16.783  0.2527  0.0509 -0.6479
    3TCq2    H214279   1.977   4.188  16.615  1.0305  0.4523  1.0274
    3TCq2    H314280   2.330   4.406  16.546  0.4898  0.5141 -2.4550
    3TCq2    H414281   2.106   4.275  16.199 -0.1298 -2.6215  0.9388
    1TCq1    O114282   4.579   4.120  12.482 -0.0672 -0.1974  0.3379
    1TCq1    C114283   4.545   3.998  12.528  0.3767 -0.2305 -0.8528
    1TCq1    O214284   4.463   3.928  12.471  0.1156 -0.4865  0.0422
    1TCq1    C214285   4.647   3.947  12.612 -0.9671  0.0343 -0.3528
    1TCq1    C314286   4.598   3.845  12.698  0.0562 -0.2284  0.6899
    1TCq1    C414287   4.688   3.783  12.773 -0.4404  0.7182 -0.2262
    1TCq1    C514288   0.103   3.800  12.761 -0.7605  0.5781 -0.0118
    1TCq1    C614289   0.146   3.881  12.662  0.3484  0.3764 -0.4817
    1TCq1    C714290   0.059   3.959  12.584  0.2918 -0.3793  0.3343
    1TCq1    C814291   0.288   3.913  12.658  0.1034 -0.0614 -0.4064
    1TCq1    O414292   0.331   3.995  12.574 -0.2182 -0.1729 -0.2505
    1TCq1    C914293   4.651   3.696  12.885 -0.0184  0.0510  0.2194
    1TCq1    O514294   0.018   3.638  12.956  0.0086  0.6546  0.3545
    1TCq1    O614295   4.528   3.691  12.909  0.0660  0.0366 -0.5160
    1TCq1    H114296   4.645   4.168  12.537 -1.7572  0.4773  1.8069
    1TCq1    H214297   4.490   3.848  12.704 -0.0229  0.1127 -0.7762
    1TCq1    H314298   0.167   3.743  12.827  1.1124  0.2462 -2.1240
    1TCq1    H414299   0.099   4.026  12.509  0.8007  0.6019  1.4827
    2MPD2     C14300   0.594   3.905  12.680 -0.5283  0.1761  0.8002
    2MPD2    C114301   0.503   3.847  12.764 -0.5338 -0.1233  0.7372
    2MPD2    C214302   0.550   3.762  12.865  0.3239  0.1284 -0.6374
    2MPD2    C314303   0.688   3.763  12.890  0.5379  0.0695 -0.6589
    2MPD2    C414304   0.773   3.828  12.804  0.0378 -0.9611  0.9140
    2MPD2    C514305   0.724   3.907  12.711  0.2284  0.7884 -0.0726
    2MPD2     H14306   0.479   3.704  12.923 -0.5675  1.4719 -0.3734
    2MPD2    H114307   0.880   3.819  12.821  0.0689 -0.3091  1.0857
    2MPD2    H214308   0.560   3.979  12.609  0.2693  0.4792  0.7338
    2MPD2    H314309   0.796   3.972  12.663  2.2483 -1.1416  0.2915
    2MPD2     N14310   0.735   3.671  12.986 -0.2862  0.5018  0.6412
    2MPD2    H514311   0.666   3.604  13.018  1.7647 -0.0974  3.7576
    2MPD2    N114312   0.361   3.850  12.754 -0.3546  0.5145 -0.4384
    2MPD2    H714313   0.310   3.795  12.823 -1.3190  1.6114 -0.2623
    3TCq1    O114314   0.953   3.231  12.985  0.6736  0.0273 -0.0780
    3TCq1    C114315   0.921   3.220  13.113 -0.0155 -0.1149 -1.1402
    3TCq1    O214316   0.903   3.117  13.175 -0.0068  0.5872 -0.2727
    3TCq1    C214317   0.905   3.347  13.176 -0.0469  0.1591  0.2283
    3TCq1    C314318   0.932   3.358  13.308 -0.0402 -0.2140  1.1166
    3TCq1    C414319   0.946   3.489  13.350 -0.2951  1.3062 -0.9327
    3TCq1    C514320   0.927   3.600  13.268 -0.3326  0.3223 -0.3267
    3TCq1    C614321   0.865   3.576  13.147  0.6778  0.2234 -0.4509
    3TCq1    C714322   0.853   3.448  13.099  0.3572 -0.2960  0.0997
    3TCq1    C814323   0.855   3.682  13.049 -0.1006 -0.0322  0.1469
    3TCq1    O414324   0.945   3.766  13.041 -0.4076  0.0771  0.1506
    3TCq1    C914325   1.006   3.507  13.484  0.1309  0.1009 -0.4037
    3TCq1    O514326   1.006   3.405  13.563 -0.3907  0.0076 -0.2724
    3TCq1    O614327   1.035   3.621  13.526  0.4991  0.3410 -0.6678
    3TCq1    H114328   0.979   3.323  12.963 -1.2459  0.4416 -0.6846
    3TCq1    H214329   0.967   3.274  13.365  0.5099 -0.8868 -0.2105
    3TCq1    H314330   0.925   3.696  13.318 -1.0249 -0.6409  1.4997
    3TCq1    H414331   0.828   3.435  12.994 -0.8063 -1.9608  0.5777
    1MPD2     C14332   0.509   4.379  14.346 -0.3575  0.4497  0.1129
    1MPD2    C114333   0.484   4.266  14.429 -0.5054  0.0067  0.0194
    1MPD2    C214334   0.593   4.208  14.494  0.2751  0.6498  0.1988
    1MPD2    C314335   0.717   4.267  14.489  0.1913 -0.8605  0.7111
    1MPD2    C414336   0.738   4.375  14.410  0.0809 -1.0740 -0.5429
    1MPD2    C514337   0.634   4.429  14.337  1.0219 -0.4956  0.0381
    1MPD2     H14338   0.589   4.129  14.568  1.5023 -0.3978 -0.8673
    1MPD2    H114339   0.836   4.420  14.401 -0.6047  0.4432 -0.3993
    1MPD2    H214340   0.433   4.431  14.288 -0.9880 -2.1359 -1.3677
    1MPD2    H314341   0.647   4.507  14.263  1.4581  0.2720  0.9268
    1MPD2     N14342   0.820   4.208  14.567  0.1563  0.2325  0.6080
    1MPD2    H514343   0.790   4.128  14.622  3.1763 -0.3352  1.4594
    1MPD2    N114344   0.350   4.226  14.457  0.3722  0.4635 -0.1033
    1MPD2    H714345   0.271   4.272  14.412  0.3481  0.3732 -0.1534
    2TMC3    C114346   0.185   4.093  14.563  0.8360 -0.0166  0.2921
    2TMC3    C214347   0.168   3.979  14.625  0.0367  1.2962 -0.8479
    2TMC3    C314348   0.059   3.973  14.713  0.3490 -0.2846 -0.3829
    2TMC3    C414349   0.099   4.194  14.568  0.0118 -0.4941  0.0495
    2TMC3    C514350   4.696   4.178  14.637  0.3155  0.0292  0.0784
    2TMC3    C614351   4.677   4.066  14.714  0.4315  0.8307 -0.0577
    2TMC3     C14352   0.318   4.119  14.525  0.5101 -0.6505 -0.3750
    2TMC3     O14353   0.393   4.049  14.588 -0.1736  0.2686  0.2046
    2TMC3     H14354   0.233   3.894  14.614 -0.2286  1.1855 -1.6154
    2TMC3    H114355   0.118   4.283  14.511 -1.8355  0.0788  0.3363
    2TMC3    H214356   4.598   4.062  14.788  0.9570 -1.6428  0.3669
    2TMC3    C714357   4.600   4.288  14.644  0.2468  0.1699 -0.2494
    2TMC3    C814358   0.121   3.970  14.846 -0.2274  0.2607 -0.4563
    2TMC3    O114359   4.492   4.260  14.694  0.6091  0.1982  0.8785
    2TMC3    O214360   0.046   3.984  14.943  0.0929 -0.4057 -0.0606
    3TCq1    O114361   0.179   0.558  13.988 -0.5151 -0.3253 -0.4014
    3TCq1    C114362   0.097   0.461  14.026 -0.2537 -0.5071  0.7129
    3TCq1    O214363   0.005   0.415  13.960 -0.7063 -0.2078 -0.3206
    3TCq1    C214364   0.091   0.462  14.169 -0.6949 -0.2040  0.1050
    3TCq1    C314365   0.216   0.447  14.226 -0.8796  0.0964  0.1637
    3TCq1    C414366   0.224   0.381  14.345  0.3390 -0.7421 -0.3496
    3TCq1    C514367   0.108   0.339  14.408  0.1270  0.3400 -0.2840
    3TCq1    C614368   4.698   0.354  14.348  0.3253  0.1102 -0.5485
    3TCq1    C714369   4.694   0.405  14.221  0.5430  0.1044 -0.2166
    3TCq1    C814370   4.594   0.262  14.381  0.1086 -0.0738  0.0828
    3TCq1    O414371   4.482   0.301  14.355 -0.6660  0.0793  0.5392
    3TCq1    C914372   0.341   0.333  14.412 -0.6791  0.0891 -0.3134
    3TCq1    O514373   0.324   0.223  14.471 -0.0965  0.3658 -0.7037
    3TCq1    O614374   0.436   0.353  14.329  0.4551 -0.1567 -0.1052
    3TCq1    H114375   0.217   0.610  14.062 -1.6017  0.3652 -0.3175
    3TCq1    H214376   0.307   0.466  14.171 -0.3001 -4.0000 -0.3552
    3TCq1    H314377   0.115   0.301  14.509 -0.5952  2.4944  0.5735
    3TCq1    H414378   4.600   0.411  14.168  1.6823  0.1567 -2.2115
    4MPD2     C14379   4.440   0.061  14.544 -0.9032 -0.1876 -0.7363
    4MPD2    C114380   4.570   0.036  14.500  0.1585 -0.7466  0.0959
    4MPD2    C214381   4.631   4.628  14.505  0.0043 -0.5161  0.5135
    4MPD2    C314382   4.567   4.524  14.574 -0.6617  0.1830 -0.1167
    4MPD2    C414383   4.434   4.547  14.617 -1.0227 -0.3267  0.1864
    4MPD2    C514384   4.372   4.670  14.597  0.2791  0.5921 -0.8155
    4MPD2     H14385   0.017   4.609  14.476  0.8374 -0.5255  3.4289
    4MPD2    H114386   4.375   4.476  14.674 -1.3989  0.1414  0.3762
    4MPD2    H214387   4.387   0.155  14.542 -0.7018 -0.0767 -0.9247
    4MPD2    H314388   4.267   4.669  14.625  0.7250  2.3673  0.8829
    4MPD2     N14389   4.644   4.405  14.596  0.3247 -0.4296  0.7065
    4MPD2    H514390   0.028   4.404  14.581  0.6714  0.2469  2.8681
    4MPD2    N114391   4.644   0.143  14.437  0.3776  0.3411  0.5327
    4MPD2    H714392   0.025   0.120  14.419  0.3102  1.0542 -0.7916
    5TMC2    C114393   0.915   3.990  14.831 -0.0470  0.5344  0.1209
    5TMC2    C214394   0.947   4.060  14.945  0.5550 -0.3129  0.6311
    5TMC2    C314395   1.003   4.186  14.941 -0.5672 -0.0707  0.1774
    5TMC2    C414396   0.949   4.047  14.710  0.5739  0.2083 -0.1572
    5TMC2    C514397   0.996   4.177  14.705  0.1655 -0.2038  0.6585
    5TMC2    C614398   1.043   4.237  14.820 -0.0061 -0.5734  0.4328
    5TMC2     C14399   0.771   3.956  14.838  0.0637  0.3178 -0.3780
    5TMC2     O14400   0.710   3.990  14.734 -0.2962 -0.4809 -0.1520
    5TMC2     H14401   0.933   4.012  15.042 -1.0741  0.2350  0.6655
    5TMC2    H114402   0.915   3.994  14.623  1.2665 -1.6123  0.6853
    5TMC2    H214403   1.074   4.341  14.820 -0.4962 -0.4333 -0.5334
    5TMC2    C714404   0.936   4.270  14.605 -0.3588 -0.2249 -0.2133
    5TMC2    C814405   1.084   4.234  15.049 -0.2305 -0.9323  0.2013
    5TMC2    O114406   0.962   4.388  14.597  0.1678  0.1300  0.2979
    5TMC2    O214407   1.045   4.210  15.164 -0.5441  0.1635 -0.9075
    5TMC2    O514408   1.209   4.259  15.006 -0.1620  0.2968 -0.0293
    5TMC2    H514409   1.238   4.237  14.915  0.8248 -0.1120  0.3928
    6MPD2     C14410   0.322   3.943  15.080 -0.1888  0.2109 -0.2458
    6MPD2    C114411   0.353   3.980  14.947  0.6001  0.0658  0.2405
    6MPD2    C214412   0.489   3.987  14.907 -0.4501 -0.0687 -0.0122
    6MPD2    C314413   0.587   3.950  14.994  0.2719  0.1674  0.6360
    6MPD2    C414414   0.555   3.934  15.129  0.1749 -0.6426 -0.2191
    6MPD2    C514415   0.424   3.923  15.164  0.5119  1.5863  0.3694
    6MPD2     H14416   0.504   4.013  14.803 -1.4436 -2.5280 -0.7517
    6MPD2    H114417   0.630   3.914  15.204  0.1334  0.1370  0.0283
    6MPD2    H214418   0.220   3.934  15.115  1.0854 -0.6661  3.2570
    6MPD2    H314419   0.398   3.912  15.269 -0.1477  0.3057  0.0708
    6MPD2     N14420   0.727   3.926  14.962 -0.5059  0.0427 -0.0579
    6MPD2    H514421   0.794   3.903  15.035  0.4970 -0.0798 -1.0076
    6MPD2    N114422   0.261   3.985  14.842 -1.3237  0.7831  0.0716
    6MPD2    H714423   0.300   3.989  14.749 -0.3782 -1.0276  0.3787
  945NH4     N114424   0.255   0.091  14.697  0.7751 -0.2346 -0.6497
  945NH4     H214425   0.327   0.071  14.769  0.9074  0.8144 -0.4900
  945NH4     H314426   0.276   0.132  14.604 -0.8365  1.0160 -0.4796
  945NH4     H414427   0.193   0.162  14.742 -0.5581 -0.4894 -2.0672
  945NH4     H514428   0.200   0.005  14.682  0.4074 -0.2925  1.0246
  946SOD     NA14429   1.143   3.267  11.060 -0.1916 -0.0696 -0.3217
  947SOD     NA14430   3.020   2.331  16.320 -0.0007  0.2504  0.0720
  948SOD     NA14431   4.185   0.881   1.267 -0.0009 -0.2024 -0.1891
  949SOD     NA14432   1.325   4.298  13.860 -0.2549 -0.0910 -0.2017
  950SOD     NA14433   0.518   3.297  10.999  0.2611  0.0456  0.2663
  951SOD     NA14434   2.991   3.447   0.913 -0.3172 -0.7845  0.1798
  952SOD     NA14435   2.986   2.876   2.877  0.5671 -0.0856 -0.1124
  953SOD     NA14436   0.340   3.892  12.263  0.2425  0.3961 -0.2607
  954SOD     NA14437   0.179   3.469  11.395 -0.1614 -0.6661 -0.2490
  955SOD     NA14438   4.650   2.616  10.077  0.1587 -0.2440 -0.1610
  956SOD     NA14439   4.199   2.497  14.019 -0.2432  0.2690 -0.2107
  957SOD     NA14440   1.448   1.031  11.364 -0.5410  0.1760  0.1414
  958SOD     NA14441   4.335   0.095   3.487  0.1916 -0.6685  0.0811
  959SOD     NA14442   4.560   3.179   9.886  0.4774 -0.0011  0.4754
  960SOD     NA14443   1.251   0.787  12.400 -0.0567 -0.1135 -0.0224
  961SOD     NA14444   3.378   2.992  10.607 -0.0836 -0.1054 -0.1248
  962SOD     NA14445   2.053   4.511   1.060  0.5520  0.3852 -0.3483
  963SOD     NA14446   4.609   2.859   9.767  0.5295  0.0054 -0.0998
  964SOD     NA14447   3.850   4.345  12.538  0.2308  0.4557 -0.3364
  965SOD     NA14448   4.229   4.172  10.093  0.5384 -0.7590 -0.4037
  966SOD     NA14449   0.307   3.674   9.974 -0.1192  0.4467  0.0652
  967SOD     NA14450   4.619   0.230  11.546  0.0004 -0.2695 -0.2763
  968SOD     NA14451   2.885   0.799   1.086 -0.5023  0.2650  0.3112
  969SOD     NA14452   4.616   3.460  13.022 -0.1680  0.4576 -0.1817
  970SOD     NA14453   4.450   1.302   1.124  0.1746 -0.4510  0.1375
  971SOD     NA14454   1.767   3.375  17.326  0.3804 -0.0079  0.0181
  972SOD     NA14455   1.960   4.403  15.839 -0.1818  0.3052  0.3425
  973SOD     NA14456   3.933   4.274  10.771 -0.4106  0.0822 -0.1543
  974SOD     NA14457   0.921   2.954  12.236 -0.2885 -0.0410  0.1374
  975SOD     NA14458   2.744   1.342  13.277 -0.1588 -0.4334  0.0333
  976SOD     NA14459   3.137   4.300  13.469  0.2398 -0.3178 -0.0089
  977SOD     NA14460   1.466   1.391  17.223 -0.5466 -0.0623 -0.3835
  978SOD     NA14461   3.140   2.320  10.450 -0.5128  0.6650  0.6346
  979SOD     NA14462   0.552   3.549   2.914 -0.2166 -0.1096  0.3004
  980SOD     NA14463   1.694   3.535  14.320  0.2738  0.3370  0.1658
  981SOD     NA14464   3.204   2.220  14.506 -0.0653  0.3348 -0.0020
  982SOD     NA14465   0.707   1.789   8.850  0.0243  0.1737  0.0705
  983SOD     NA14466   3.598   0.819   4.980 -0.3863  0.4771  0.3094
  984SOD     NA14467   1.608   3.575   6.577 -0.4259 -0.2531  0.1161
  985SOD     NA14468   3.824   4.427  11.013  0.1704  0.0662 -0.4546
  986SOD     NA14469   0.543   0.154  14.369  0.1602 -0.0924  0.2335
  987SOD     NA14470   1.676   0.434  14.226  0.2833 -0.0056 -0.5520
  988SOD     NA14471   3.197   1.048  15.815 -0.4874 -0.1446 -0.1158
  989SOD     NA14472   1.162   2.226   3.651 -0.5020  0.0104 -0.1518
  990SOD     NA14473   0.342   1.604  10.986 -0.5447 -0.3384 -0.3883
  991SOD     NA14474   2.695   1.431   2.396 -0.3670  0.4109  0.3126
  992SOD     NA14475   4.017   3.192  12.466 -0.7485  0.1564  0.2031
  993SOD     NA14476   1.144   3.499  13.739  0.0776  0.4222  0.0808
  994SOD     NA14477   3.504   3.515  13.998  0.2839 -0.3081 -0.1346
  995SOD     NA14478   4.184   0.104   2.394  0.0191 -0.3821  0.3108
  996SOD     NA14479   1.299   1.147  17.035  0.0893  0.3994 -0.0939
  997SOD     NA14480   2.437   3.949   0.622  0.0142  0.2452  0.3609
  998SOD     NA14481   2.015   2.776   9.868 -0.2707 -0.3379  0.0609
  999SOD     NA14482   2.895   2.781  13.394 -0.2312  0.5197 -0.4531
 1000SOD     NA14483   0.031   3.863   8.003 -0.0728  0.3436  0.1591
 1001SOD     NA14484   2.315   0.074  14.760 -0.2429  0.2898 -0.3813
 1002SOD     NA14485   2.179   2.726   0.561  0.2538  0.1092 -0.4008
 1003SOD     NA14486   1.964   3.957  14.861 -0.1651 -0.1754  0.4991
 1004SOD     NA14487   1.922   3.689  14.400  0.0448  0.2175 -0.1568
 1005SOD     NA14488   0.635   3.941   1.752 -0.5101  0.2660  0.2914
 1006SOD     NA14489   3.483   1.688  12.338  0.1062  0.3646 -0.1148
 1007SOD     NA14490   3.254   3.362   0.750 -0.0840  0.1650 -0.0313
 1008SOD     NA14491   2.662   2.344  15.347  0.2629  0.3530  0.1117
 1009SOD     NA14492   2.084   0.053  10.436 -0.2048 -0.2255  0.0962
 1010SOD     NA14493   4.693   2.960  10.083 -0.1900 -0.3269 -0.1805
 1011SOL     OW14494   2.770   2.388  15.569 -0.3513 -0.3134 -0.8297
 1011SOL    HW114495   2.775   2.481  15.590  1.8841 -1.0369  1.7680
 1011SOL    HW214496   2.709   2.358  15.636  1.0777 -1.1656  0.0951
 1012SOL     OW14497   4.554   0.294   2.198 -0.5346 -0.1552  0.0016
 1012SOL    HW114498   4.575   0.201   2.191 -0.9104 -0.1396 -1.1895
 1012SOL    HW214499   4.523   0.294   2.289  1.1210  1.1026  0.5709
 1013SOL     OW14500   3.113   3.585  16.564  0.0353  0.1761 -0.5240
 1013SOL    HW114501   3.136   3.658  16.507 -2.2977  2.1972  1.1007
 1013SOL    HW214502   3.080   3.630  16.642  1.3056 -0.0372  0.1261
 1014SOL     OW14503   2.786   2.448   3.692 -0.4042 -0.4322 -0.0414
 1014SOL    HW114504   2.812   2.386   3.759 -2.9005 -1.2839  0.1539
 1014SOL    HW214505   2.790   2.386   3.619 -2.0655 -1.0578  0.3997
 1015SOL     OW14506   2.387   2.670  14.993  0.4701 -0.0585  0.4088
 1015SOL    HW114507   2.446   2.731  15.036 -0.4393  1.5232 -0.5710
 1015SOL    HW214508   2.443   2.630  14.926 -0.3958  1.4219 -1.2049
 1016SOL     OW14509   4.179   2.276   6.579 -0.3860 -0.2052 -0.1459
 1016SOL    HW114510   4.112   2.209   6.588  0.1488 -0.7259 -0.0203
 1016SOL    HW214511   4.220   2.279   6.666 -3.2776 -0.6030  1.2278
 1017SOL     OW14512   2.362   1.166  13.544 -0.1347 -0.2008  0.0704
 1017SOL    HW114513   2.285   1.115  13.515  1.8916 -1.9386 -2.2494
 1017SOL    HW214514   2.362   1.234  13.477 -1.1309  0.6468  0.9337
 1018SOL     OW14515   4.273   3.415  17.576  0.2106  0.0106 -0.7814
 1018SOL    HW114516   4.297   3.452  17.490 -1.5782 -0.6502 -1.5726
 1018SOL    HW214517   4.200   3.476  17.591 -1.1318 -1.6833 -0.4507
 1019SOL     OW14518   0.329   3.674   6.623 -0.1731 -0.4524  0.4793
 1019SOL    HW114519   0.307   3.744   6.685 -1.9290 -0.0177 -0.6219
 1019SOL    HW214520   0.361   3.607   6.682  0.8107  0.4368  0.9378
 1020SOL     OW14521   0.542   1.751   2.972 -0.4600 -0.1808 -0.2989
 1020SOL    HW114522   0.558   1.801   2.892 -1.0863 -0.0596 -0.3521
 1020SOL    HW214523   0.601   1.677   2.964 -0.3054 -0.1226  0.3007
 1021SOL     OW14524   2.876   2.517   8.875  0.1725  0.1658  0.2801
 1021SOL    HW114525   2.865   2.425   8.901 -1.5763  0.6247  1.1583
 1021SOL    HW214526   2.817   2.525   8.800  2.6698  0.3391 -1.6521
 1022SOL     OW14527   3.185   1.723  11.992 -0.1833  0.3400 -0.0325
 1022SOL    HW114528   3.160   1.631  12.003  0.8766  0.2086  1.2353
 1022SOL    HW214529   3.104   1.765  12.024 -0.8223 -2.2718  1.7827
 1023SOL     OW14530   3.334   4.405   4.659 -0.4041 -0.0187  0.2933
 1023SOL    HW114531   3.304   4.325   4.616  0.7392 -0.1980 -0.1890
 1023SOL    HW214532   3.305   4.406   4.750 -2.1629  0.1811 -0.2829
 1024SOL     OW14533   1.997   2.162   5.882 -0.0809 -0.1286 -0.2153
 1024SOL    HW114534   2.020   2.110   5.804  0.5151  0.4988 -0.4566
 1024SOL    HW214535   1.916   2.127   5.920  1.6597 -1.2072  2.4960
 1025SOL     OW14536   3.355   2.368   7.811  0.0115 -0.4508  0.3734
 1025SOL    HW114537   3.313   2.338   7.730 -0.1625 -3.4450  1.5596
 1025SOL    HW214538   3.351   2.294   7.872 -1.5233 -0.7283 -0.0628
 1026SOL     OW14539   2.238   0.201  10.734  0.0418 -0.0289  0.7549
 1026SOL    HW114540   2.163   0.149  10.707  0.2327  0.2459 -0.3176
 1026SOL    HW214541   2.310   0.142  10.711 -2.0229 -1.4657 -2.0867
 1027SOL     OW14542   0.414   4.548   7.248  0.1172 -0.5751 -0.1901
 1027SOL    HW114543   0.497   4.571   7.290 -0.7477 -0.1992  1.3028
 1027SOL    HW214544   0.377   4.489   7.314  1.3443  0.7528  1.6838
 1028SOL     OW14545   3.937   0.384   3.516  0.4925 -0.0027 -0.1931
 1028SOL    HW114546   4.000   0.447   3.551  0.5261  0.6237 -1.3464
 1028SOL    HW214547   3.853   0.417   3.547 -0.4622 -1.4305 -1.2839
 1029SOL     OW14548   0.545   2.754  17.387 -0.7976  0.1209  0.3653
 1029SOL    HW114549   0.502   2.823  17.437 -1.0626 -0.8921  1.5271
 1029SOL    HW214550   0.581   2.706  17.461 -0.3120 -0.8804 -0.5269
 1030SOL     OW14551   0.693   4.455  13.817  0.0530  0.1856  0.0041
 1030SOL    HW114552   0.711   4.426  13.728 -1.5121  0.9541 -0.5585
 1030SOL    HW214553   0.688   4.367  13.854 -0.6526  0.3116  0.2086
 1031SOL     OW14554   2.658   0.677   5.926 -0.3335  0.2145 -0.3172
 1031SOL    HW114555   2.583   0.640   5.880 -0.1559  1.4155 -1.5562
 1031SOL    HW214556   2.726   0.622   5.889  0.5827  0.3049  1.2039
 1032SOL     OW14557   1.407   1.621   3.638 -0.0132 -1.0494 -0.9490
 1032SOL    HW114558   1.375   1.655   3.554 -0.3679 -0.0462 -0.3996
 1032SOL    HW214559   1.487   1.582   3.604  0.8537  0.6611 -0.8411
 1033SOL     OW14560   2.193   3.977   2.643  0.5768 -0.3806 -0.0416
 1033SOL    HW114561   2.239   4.061   2.645  1.1387 -0.6703 -0.7117
 1033SOL    HW214562   2.257   3.921   2.686  1.3891  0.9343  0.4792
 1034SOL     OW14563   0.733   4.003   6.999  0.4680  0.0681 -0.1842
 1034SOL    HW114564   0.825   3.987   7.021  0.8826  3.2097  0.2719
 1034SOL    HW214565   0.729   4.097   7.013  1.2234  0.1327 -0.4672
 1035SOL     OW14566   0.571   0.623   6.259  0.1640 -0.1540 -0.0576
 1035SOL    HW114567   0.490   0.670   6.239  0.2543  0.3817  0.8361
 1035SOL    HW214568   0.622   0.676   6.320 -1.2940  1.9980 -0.7038
 1036SOL     OW14569   1.459   3.390   2.677  0.4232  0.0443 -0.1744
 1036SOL    HW114570   1.545   3.398   2.717  0.3404 -0.6446  0.1380
 1036SOL    HW214571   1.486   3.360   2.590 -1.8247  2.7078 -1.7995
 1037SOL     OW14572   2.327   4.652   3.542 -0.1878 -0.4369 -0.8952
 1037SOL    HW114573   2.291   4.597   3.474 -1.7359 -1.8609  1.0945
 1037SOL    HW214574   2.364   4.585   3.600 -0.8653 -2.0004 -2.3004
 1038SOL     OW14575   2.158   3.985   0.932 -0.4241  0.2205  0.0951
 1038SOL    HW114576   2.159   3.996   1.027  1.1645  0.5108  0.0406
 1038SOL    HW214577   2.200   4.066   0.904 -0.6081 -0.8164 -3.1992
 1039SOL     OW14578   1.522   2.029  12.128 -0.3786  0.0436  0.5602
 1039SOL    HW114579   1.446   2.063  12.080  0.9143  1.1804 -0.6876
 1039SOL    HW214580   1.539   2.106  12.182  1.0331 -0.0428  0.2304
 1040SOL     OW14581   1.733   0.292   9.554 -0.1354  0.5798  0.1910
 1040SOL    HW114582   1.816   0.336   9.574  0.3226 -0.1187 -0.1740
 1040SOL    HW214583   1.762   0.239   9.480  0.9589  1.1121  0.2488
 1041SOL     OW14584   4.436   2.540   2.791  0.3925 -0.2460  0.2536
 1041SOL    HW114585   4.349   2.506   2.811  0.7503 -0.5392  1.3097
 1041SOL    HW214586   4.449   2.582   2.876 -1.7405 -0.6270  0.7714
 1042SOL     OW14587   4.635   1.738   1.508 -0.5379 -0.0750 -0.2408
 1042SOL    HW114588   4.682   1.818   1.483 -0.0330 -1.1707 -2.7795
 1042SOL    HW214589   4.650   1.681   1.433 -0.4442  0.2806 -0.4942
 1043SOL     OW14590   2.498   4.335   3.414  0.0567 -0.8340 -0.7756
 1043SOL    HW114591   2.479   4.322   3.507  2.7111 -1.5393 -0.3263
 1043SOL    HW214592   2.409   4.350   3.382 -0.5913 -0.3812  1.2121
 1044SOL     OW14593   3.904   3.763   5.835  0.2951 -0.4757  0.8671
 1044SOL    HW114594   3.819   3.773   5.876  0.2345  0.4429  0.5198
 1044SOL    HW214595   3.911   3.668   5.825  1.4324 -0.0091 -2.7873
 1045SOL     OW14596   1.804   1.073   8.578  0.2052  0.1886 -0.4551
 1045SOL    HW114597   1.750   1.093   8.502 -0.8938  2.8890  1.0440
 1045SOL    HW214598   1.754   1.022   8.642 -0.1297  1.6065  0.4067
 1046SOL     OW14599   0.877   0.258   6.078 -0.0757 -0.1802 -0.2613
 1046SOL    HW114600   0.790   0.297   6.069  0.9043  1.7299 -1.3162
 1046SOL    HW214601   0.910   0.300   6.158  1.6041 -1.3531 -0.3484
 1047SOL     OW14602   0.393   4.493  12.668  0.2180 -0.4941  0.7415
 1047SOL    HW114603   0.342   4.438  12.727  1.2529 -0.9802  1.1938
 1047SOL    HW214604   0.478   4.453  12.687 -0.3113 -3.0112 -2.2661
 1048SOL     OW14605   2.630   1.202   2.893  0.0804 -0.0573  0.2209
 1048SOL    HW114606   2.631   1.298   2.888  0.5448  0.0167  1.4917
 1048SOL    HW214607   2.711   1.178   2.848  1.3708  0.9691  1.9495
 1049SOL     OW14608   3.791   0.865  13.251  0.9211 -0.1419 -0.1914
 1049SOL    HW114609   3.850   0.796  13.281  2.8238  1.2848 -0.6952
 1049SOL    HW214610   3.812   0.868  13.158  2.0215  0.3699  0.0826
 1050SOL     OW14611   4.436   2.773  17.209  0.0505 -0.4397  0.0002
 1050SOL    HW114612   4.406   2.783  17.119  0.6641 -1.4396 -0.3168
 1050SOL    HW214613   4.463   2.864  17.225  0.6239 -0.0865 -2.9780
 1051SOL     OW14614   0.103   2.346   0.484 -0.4781 -0.1687  0.0780
 1051SOL    HW114615   0.059   2.293   0.417  1.2025  0.2864 -1.3843
 1051SOL    HW214616   0.187   2.300   0.492 -0.5384 -0.6737 -2.1569
 1052SOL     OW14617   2.772   0.717   2.795  0.0918 -0.3312  0.3744
 1052SOL    HW114618   2.757   0.645   2.856  0.5786 -1.9053 -1.3938
 1052SOL    HW214619   2.857   0.697   2.757  0.1445  1.6520 -0.5539
 1053SOL     OW14620   4.393   1.457   4.557  0.7027 -0.0111  0.3568
 1053SOL    HW114621   4.320   1.396   4.546 -0.3306  1.2035  0.5855
 1053SOL    HW214622   4.408   1.447   4.651 -0.3147  0.3294  0.5560
 1054SOL     OW14623   2.041   4.184   4.104  0.0966  0.0717 -0.1672
 1054SOL    HW114624   2.102   4.147   4.167 -0.9690  0.6691  1.2243
 1054SOL    HW214625   2.072   4.160   4.017  0.2577 -0.7729  0.1294
 1055SOL     OW14626   2.332   2.520   3.984 -0.5239 -0.0984  0.0921
 1055SOL    HW114627   2.342   2.427   3.965 -0.0731  0.0140 -0.2262
 1055SOL    HW214628   2.386   2.557   3.914 -2.3261  2.0214 -0.1621
 1056SOL     OW14629   4.069   0.217   8.791 -0.0756 -0.1906 -0.0459
 1056SOL    HW114630   4.104   0.132   8.764  0.8211 -0.3718  1.7307
 1056SOL    HW214631   4.136   0.276   8.758 -1.0904 -0.0235 -1.8441
 1057SOL     OW14632   2.214   1.399   3.193  0.3396 -0.0555 -0.4341
 1057SOL    HW114633   2.284   1.335   3.204 -0.8444 -1.9231 -3.6898
 1057SOL    HW214634   2.180   1.420   3.280  2.4117  0.7483  0.1845
 1058SOL     OW14635   0.677   4.467   3.777  0.5357  0.4560 -0.1277
 1058SOL    HW114636   0.737   4.427   3.714  1.1576  1.5951 -0.2556
 1058SOL    HW214637   0.598   4.416   3.757  1.5778 -0.7419 -1.1672
 1059SOL     OW14638   2.137   3.556  11.395 -0.2231 -0.0025 -0.0776
 1059SOL    HW114639   2.152   3.649  11.379 -2.7559  0.6224  1.0363
 1059SOL    HW214640   2.184   3.522  11.320 -0.8215  0.3041 -0.5991
 1060SOL     OW14641   3.790   2.618   2.161  0.2490 -0.2264 -0.0374
 1060SOL    HW114642   3.796   2.702   2.115  1.0305  0.0503  0.5748
 1060SOL    HW214643   3.705   2.629   2.203  1.2095  0.3470  1.7626
 1061SOL     OW14644   3.396   0.307   4.792 -0.3831  0.0196  0.0450
 1061SOL    HW114645   3.376   0.216   4.817  1.7101 -0.8088 -1.3396
 1061SOL    HW214646   3.305   0.331   4.776 -0.2343  1.3265  1.1890
 1062SOL     OW14647   1.730   1.753   6.146 -0.6662  0.2966  0.3459
 1062SOL    HW114648   1.732   1.658   6.135  1.3632  0.4030 -0.2126
 1062SOL    HW214649   1.821   1.768   6.120 -0.2207  0.9153  2.2426
 1063SOL     OW14650   2.923   1.519  15.937 -0.3185  0.0143 -0.2804
 1063SOL    HW114651   2.987   1.581  15.903 -1.6615  2.3722  1.4928
 1063SOL    HW214652   2.848   1.578  15.944 -1.5090 -1.2597 -2.4001
 1064SOL     OW14653   2.537   3.574  12.570 -0.7035 -0.0368  0.3635
 1064SOL    HW114654   2.478   3.613  12.635 -0.5794 -0.0858  0.5066
 1064SOL    HW214655   2.577   3.500  12.616 -2.1449 -0.7530  0.4846
 1065SOL     OW14656   3.631   2.462   4.080 -0.9911 -0.5682  0.0123
 1065SOL    HW114657   3.707   2.404   4.069 -0.1987  0.5365 -0.2526
 1065SOL    HW214658   3.628   2.492   3.990 -2.6471  0.0301  0.2731
 1066SOL     OW14659   2.011   0.634   5.795 -0.3287 -0.0348  0.0126
 1066SOL    HW114660   2.094   0.677   5.817 -0.3011  0.0625 -0.2746
 1066SOL    HW214661   2.001   0.665   5.705 -0.7690  0.7607  0.3330
 1067SOL     OW14662   1.871   4.574  14.922 -0.1834  0.3584 -0.0401
 1067SOL    HW114663   1.919   4.491  14.915  0.3692  0.7270 -0.6310
 1067SOL    HW214664   1.851   4.571  15.015 -1.5594  1.7614 -0.3011
 1068SOL     OW14665   0.996   0.867   3.273  0.4676 -0.0186 -0.5463
 1068SOL    HW114666   1.021   0.781   3.306 -0.2344  0.2275  0.6216
 1068SOL    HW214667   1.061   0.875   3.203  1.3397  1.6819  0.4611
 1069SOL     OW14668   4.437   4.373   3.022 -0.0956  0.0421  0.5135
 1069SOL    HW114669   4.380   4.304   2.990 -1.0169  2.1389 -2.3978
 1069SOL    HW214670   4.417   4.377   3.116  3.1710 -0.5962  1.2358
 1070SOL     OW14671   1.009   4.394  11.471  0.0609 -0.1127  0.3424
 1070SOL    HW114672   0.915   4.409  11.456  0.0814 -0.4317 -0.1247
 1070SOL    HW214673   1.039   4.482  11.451 -1.9141  0.3273 -0.7683
 1071SOL     OW14674   1.331   1.286  10.641 -0.6832 -0.2640  0.1672
 1071SOL    HW114675   1.315   1.379  10.630  0.2753  0.0440  1.4991
 1071SOL    HW214676   1.369   1.283  10.728  0.3029  0.0422 -0.2531
 1072SOL     OW14677   3.976   3.340   3.904 -0.4996 -0.3781  0.2672
 1072SOL    HW114678   3.891   3.328   3.946 -0.1847  0.0325  1.0309
 1072SOL    HW214679   4.005   3.382   3.985 -0.7402  2.2475 -1.0197
 1073SOL     OW14680   2.937   4.429  13.478  0.3138 -0.4193  0.7786
 1073SOL    HW114681   2.845   4.439  13.452  1.1910  1.4760 -1.5804
 1073SOL    HW214682   2.956   4.516  13.515  1.0773  0.3289 -1.3843
 1074SOL     OW14683   1.887   3.797   3.874  0.4932 -0.0857 -0.2262
 1074SOL    HW114684   1.882   3.791   3.969  1.5272  2.7097 -0.0108
 1074SOL    HW214685   1.901   3.888   3.849  0.8094 -0.2959 -0.8180
 1075SOL     OW14686   3.085   2.741  11.515 -0.5568 -0.3393  0.2966
 1075SOL    HW114687   3.119   2.822  11.476  0.6372 -1.5942 -1.2748
 1075SOL    HW214688   3.005   2.736  11.463 -0.5437 -0.5507  0.2974
 1076SOL     OW14689   1.938   2.523   2.646 -0.2229  0.6017 -0.4298
 1076SOL    HW114690   1.927   2.436   2.685  0.3699  0.4048 -0.6999
 1076SOL    HW214691   2.016   2.501   2.595  0.1756  1.7869 -0.3125
 1077SOL     OW14692   0.705   1.627   8.672  0.3763  0.4834 -0.7433
 1077SOL    HW114693   0.643   1.570   8.627 -2.2579  1.8111  1.1687
 1077SOL    HW214694   0.772   1.566   8.701 -0.5687 -0.7916 -1.2637
 1078SOL     OW14695   4.302   4.349   5.325  0.5697  0.5115 -0.3795
 1078SOL    HW114696   4.380   4.326   5.375 -1.4460  0.4261  2.6554
 1078SOL    HW214697   4.324   4.359   5.232  0.4704 -0.2243 -0.4798
 1079SOL     OW14698   3.280   4.519   8.058 -0.1708 -0.4529 -0.1146
 1079SOL    HW114699   3.270   4.432   8.096 -0.7221 -0.9896 -1.4616
 1079SOL    HW214700   3.338   4.552   8.126 -1.4837 -0.8663  1.1971
 1080SOL     OW14701   4.355   2.128   2.601  0.2084 -0.0249 -0.7073
 1080SOL    HW114702   4.406   2.077   2.537  3.7227 -0.7491  2.7070
 1080SOL    HW214703   4.312   2.190   2.542 -1.5001 -1.9347 -1.5061
 1081SOL     OW14704   4.007   3.237   6.904  0.5187  0.2432 -0.0242
 1081SOL    HW114705   4.060   3.231   6.984 -1.2842 -0.2426  1.1178
 1081SOL    HW214706   4.009   3.149   6.866  0.5704  0.2214  0.0279
 1082SOL     OW14707   4.449   0.956  16.196 -0.4560  0.4907  0.6672
 1082SOL    HW114708   4.474   1.004  16.117  0.7577 -0.7608  0.2967
 1082SOL    HW214709   4.477   1.017  16.264  0.0993  2.9950 -1.7919
 1083SOL     OW14710   4.641   2.730   1.018 -0.0472  0.0117 -0.3120
 1083SOL    HW114711   4.619   2.764   0.931 -0.2307  0.0966 -0.2315
 1083SOL    HW214712   4.587   2.782   1.077  1.1386  0.6969  0.1815
 1084SOL     OW14713   3.336   0.047   7.650  0.0091  0.3496  0.1647
 1084SOL    HW114714   3.343   4.669   7.635  1.0458  0.4306  0.1146
 1084SOL    HW214715   3.287   0.053   7.732  0.0037  1.3154  0.0878
 1085SOL     OW14716   1.601   3.974   0.894 -0.1923 -0.1891  0.5166
 1085SOL    HW114717   1.513   4.006   0.875 -0.3220 -0.3567  0.8340
 1085SOL    HW214718   1.591   3.883   0.922 -3.2065  0.5990  1.9983
 1086SOL     OW14719   1.588   0.000  16.188  0.2243 -0.6287 -0.1035
 1086SOL    HW114720   1.669   0.012  16.139 -0.0370  0.1314 -0.3527
 1086SOL    HW214721   1.577   4.622  16.193 -2.8156 -0.3044 -0.6874
 1087SOL     OW14722   4.422   2.428   5.680 -1.1002  0.7083 -0.6902
 1087SOL    HW114723   4.505   2.421   5.632 -0.2550  1.2645  0.6746
 1087SOL    HW214724   4.378   2.492   5.625  0.9412  1.2665 -1.6849
 1088SOL     OW14725   3.031   0.999   3.844 -0.2240  0.0910 -0.9261
 1088SOL    HW114726   3.042   1.074   3.785 -0.6754 -0.7275 -2.0453
 1088SOL    HW214727   3.063   1.030   3.929 -0.6121 -2.2732  0.0611
 1089SOL     OW14728   3.760   2.354   2.018 -0.3603  0.3649  0.5055
 1089SOL    HW114729   3.830   2.356   1.953  1.1531  1.3303  2.1860
 1089SOL    HW214730   3.759   2.439   2.061 -1.2552  0.3776  0.4685
 1090SOL     OW14731   0.632   2.092   8.335 -0.1747  0.4445 -0.2781
 1090SOL    HW114732   0.542   2.121   8.351 -0.8169 -1.2347 -0.8276
 1090SOL    HW214733   0.628   2.045   8.252 -1.9412 -3.9078  2.2718
 1091SOL     OW14734   0.501   2.428   1.596 -0.2161  0.4678 -0.1004
 1091SOL    HW114735   0.469   2.511   1.633  2.4985  0.0234  3.3095
 1091SOL    HW214736   0.555   2.401   1.671  0.3504  1.0996 -0.2777
 1092SOL     OW14737   4.184   1.341   6.777 -0.1407 -0.1512 -0.3455
 1092SOL    HW114738   4.165   1.322   6.869  0.6829 -1.9458 -0.5470
 1092SOL    HW214739   4.218   1.254   6.756 -1.0257 -0.4885 -0.3752
 1093SOL     OW14740   3.665   0.398   6.695 -0.3461 -0.5610  0.1296
 1093SOL    HW114741   3.632   0.362   6.777  1.1146 -0.3798  0.8027
 1093SOL    HW214742   3.604   0.472   6.688 -0.2765 -0.7801 -2.7079
 1094SOL     OW14743   4.295   0.771  12.769 -0.2976 -0.0008 -0.5187
 1094SOL    HW114744   4.380   0.735  12.794 -1.0486 -0.6602  1.1063
 1094SOL    HW214745   4.295   0.778  12.674 -0.1522 -2.1273 -0.6756
 1095SOL     OW14746   3.381   2.008   3.040 -0.0891 -0.2841 -0.4141
 1095SOL    HW114747   3.372   2.099   3.070  0.1309  0.4216 -2.4944
 1095SOL    HW214748   3.399   2.013   2.946 -2.4336  1.9295 -0.7448
 1096SOL     OW14749   0.005   3.920  11.901 -0.2640  0.2867  0.1074
 1096SOL    HW114750   0.091   3.879  11.905 -0.1682  0.4560 -0.2191
 1096SOL    HW214751   4.682   3.863  11.966  0.5919 -1.0443 -0.5375
 1097SOL     OW14752   0.510   0.508   8.347 -0.0181  0.2151 -0.6018
 1097SOL    HW114753   0.445   0.577   8.355 -2.2040 -1.6201 -2.7901
 1097SOL    HW214754   0.595   0.549   8.365  0.1183 -1.0125  1.4494
 1098SOL     OW14755   0.708   4.579   8.385  0.2650 -0.0119  1.0180
 1098SOL    HW114756   0.692   4.523   8.461  0.7163 -1.1174  0.3011
 1098SOL    HW214757   0.624   4.581   8.339  1.0587  0.0929 -0.4233
 1099SOL     OW14758   4.391   3.037  17.108  0.2018  0.5908  0.4145
 1099SOL    HW114759   4.426   3.013  17.022  0.1216 -0.7233  0.7370
 1099SOL    HW214760   4.459   3.091  17.147  2.8523 -2.4665  0.1151
 1100SOL     OW14761   1.523   4.216   5.399  0.5329 -0.1069  0.6343
 1100SOL    HW114762   1.442   4.202   5.449  1.0380  0.8690  1.7107
 1100SOL    HW214763   1.490   4.274   5.330  1.9488  1.0778  0.9572
 1101SOL     OW14764   3.434   3.110   8.529 -0.3294 -0.2631 -0.5371
 1101SOL    HW114765   3.424   3.047   8.458 -2.0873  1.6120 -1.9623
 1101SOL    HW214766   3.379   3.183   8.501 -1.5179  0.3353  3.3245
 1102SOL     OW14767   3.709   3.457   4.594  0.1461  0.4096 -0.3405
 1102SOL    HW114768   3.626   3.486   4.633 -1.4257 -0.8961 -2.6632
 1102SOL    HW214769   3.706   3.365   4.619 -2.3576  0.7777  0.7381
 1103SOL     OW14770   1.053   3.503   1.184 -0.1443 -0.3479  0.5562
 1103SOL    HW114771   1.101   3.433   1.230  1.0904 -0.7723 -1.3996
 1103SOL    HW214772   1.095   3.506   1.099 -0.0172  0.8649  0.6681
 1104SOL     OW14773   0.068   3.994   1.076 -0.6077 -0.5100  0.3665
 1104SOL    HW114774   0.101   4.042   1.152  1.7774 -0.1002 -0.9189
 1104SOL    HW214775   0.058   4.061   1.008  2.5854 -0.6135 -0.2157
 1105SOL     OW14776   3.579   1.433   6.721  0.0959  0.1239 -0.7096
 1105SOL    HW114777   3.508   1.378   6.754  0.2030 -1.3025 -2.7977
 1105SOL    HW214778   3.654   1.377   6.744  0.2319 -0.1393 -1.7912
 1106SOL     OW14779   4.329   2.338   2.433 -0.1031 -0.3482 -0.5116
 1106SOL    HW114780   4.272   2.372   2.365  0.1761  4.1104  1.4750
 1106SOL    HW214781   4.371   2.417   2.468 -1.3728  0.1214 -0.0474
 1107SOL     OW14782   0.185   4.331   5.493  0.1618 -0.2846  0.6249
 1107SOL    HW114783   0.245   4.258   5.504 -0.4652 -1.3262 -2.8216
 1107SOL    HW214784   0.109   4.296   5.540  0.2869 -0.4586  0.6953
 1108SOL     OW14785   4.407   1.305   6.124 -0.0711 -0.0057  0.0199
 1108SOL    HW114786   4.481   1.366   6.127  0.7678 -1.0316 -0.2197
 1108SOL    HW214787   4.444   1.268   6.044 -0.6539  0.1294 -0.3119
 1109SOL     OW14788   0.054   2.171   0.698 -0.0559  0.1092  0.3719
 1109SOL    HW114789   0.019   2.242   0.644 -1.0196 -0.2314  0.5372
 1109SOL    HW214790   0.142   2.162   0.663  0.4034 -0.2433  1.6219
 1110SOL     OW14791   2.561   4.442   6.169  0.0136 -0.2664  0.0335
 1110SOL    HW114792   2.639   4.457   6.221  0.8708 -3.5553 -0.3251
 1110SOL    HW214793   2.509   4.425   6.248  2.3485  0.0025  1.6354
 1111SOL     OW14794   3.698   2.112   5.571 -0.1289 -0.2420 -0.1182
 1111SOL    HW114795   3.661   2.081   5.653  0.0092 -0.4452 -0.1329
 1111SOL    HW214796   3.760   2.171   5.613  2.2893 -1.5486 -1.8608
 1112SOL     OW14797   3.701   4.364   2.389  0.1940  0.3386 -0.3561
 1112SOL    HW114798   3.651   4.401   2.461 -0.7851 -1.0405 -0.3342
 1112SOL    HW214799   3.726   4.284   2.434 -0.5000 -0.0002 -0.5706
 1113SOL     OW14800   0.212   4.152   5.825 -0.2703  0.4138 -0.7153
 1113SOL    HW114801   0.137   4.210   5.809 -0.5415 -0.1762 -1.6394
 1113SOL    HW214802   0.174   4.083   5.879 -0.2998  1.2289  0.2992
 1114SOL     OW14803   0.304   4.008   7.077 -0.2252 -0.4900  0.2459
 1114SOL    HW114804   0.256   3.954   7.141 -0.8908 -1.0549 -0.7255
 1114SOL    HW214805   0.382   3.954   7.071 -1.7696 -2.4360 -2.2963
 1115SOL     OW14806   0.080   0.182   4.995  0.5129 -0.3195 -0.0231
 1115SOL    HW114807   0.059   0.233   5.073 -1.2674 -1.0593 -0.0246
 1115SOL    HW214808   0.034   0.236   4.931  4.2428  3.1930  0.2336
 1116SOL     OW14809   3.515   0.635   6.024 -0.0696 -0.3752 -0.3251
 1116SOL    HW114810   3.544   0.713   5.976  2.1933 -2.0907 -1.7287
 1116SOL    HW214811   3.541   0.559   5.972 -0.6518  0.0904 -1.2944
 1117SOL     OW14812   3.417   3.700   3.704  0.8221 -0.1452  0.2707
 1117SOL    HW114813   3.372   3.721   3.622  0.6510 -0.0262  0.3960
 1117SOL    HW214814   3.339   3.684   3.757  1.8361 -2.3499  1.0938
 1118SOL     OW14815   3.011   0.701   3.485 -0.1961 -0.7258 -0.3433
 1118SOL    HW114816   2.955   0.630   3.515 -1.1640  0.7645  1.4169
 1118SOL    HW214817   3.069   0.660   3.422  0.9291  1.0066 -0.4428
 1119SOL     OW14818   1.364   1.477   4.148  0.2310  0.2498 -0.1019
 1119SOL    HW114819   1.365   1.501   4.056 -0.7712 -0.0238 -0.1830
 1119SOL    HW214820   1.456   1.451   4.141 -0.2351 -1.1952 -0.8876
 1120SOL     OW14821   4.156   4.211   4.344 -0.0599  0.0560 -0.5967
 1120SOL    HW114822   4.130   4.261   4.267 -0.8714  0.1567 -0.2542
 1120SOL    HW214823   4.252   4.215   4.340  0.0177 -0.6837  0.3031
 1121SOL     OW14824   0.814   1.364   1.849 -0.2888  0.0599  0.2248
 1121SOL    HW114825   0.905   1.342   1.828 -0.4206  0.0902 -0.3895
 1121SOL    HW214826   0.767   1.293   1.803 -1.6651  0.0807  1.5989
 1122SOL     OW14827   1.050   0.503  17.235 -0.2474 -0.5062 -0.4396
 1122SOL    HW114828   1.065   0.438  17.304  0.4166 -0.4210 -0.4955
 1122SOL    HW214829   1.055   0.458  17.151  0.2257  0.5150 -0.9578
 1123SOL     OW14830   3.935   2.488   4.305  0.1177 -1.0069 -0.0055
 1123SOL    HW114831   3.925   2.547   4.380 -1.1248  0.8477 -1.6143
 1123SOL    HW214832   3.848   2.451   4.318  0.4832 -0.7661  3.0933
 1124SOL     OW14833   4.345   0.043  10.065 -0.5147  0.0563 -0.1211
 1124SOL    HW114834   4.400   0.113  10.031  0.3236 -0.4907  0.0975
 1124SOL    HW214835   4.407   0.015  10.133 -1.3300  0.7784  0.9204
 1125SOL     OW14836   1.869   1.686   3.330 -0.4955 -0.1491 -0.8905
 1125SOL    HW114837   1.781   1.716   3.306 -0.0576  1.3384 -0.5999
 1125SOL    HW214838   1.915   1.683   3.246  1.4606  0.7214  0.1568
 1126SOL     OW14839   3.598   0.692   0.535 -0.1792  0.2092  0.0440
 1126SOL    HW114840   3.548   0.696   0.453  1.0343  1.3266 -0.6335
 1126SOL    HW214841   3.535   0.743   0.587 -1.3125 -0.0925 -1.0229
 1127SOL     OW14842   4.697   3.329  12.849 -0.0512  0.8819  0.2772
 1127SOL    HW114843   4.654   3.318  12.765  0.9382 -1.1615  0.0464
 1127SOL    HW214844   0.066   3.356  12.813 -0.4055 -0.5319 -1.6273
 1128SOL     OW14845   0.670   0.661   5.270  0.3958 -0.0893  0.0189
 1128SOL    HW114846   0.760   0.645   5.243  0.5674 -2.6727  2.0792
 1128SOL    HW214847   0.678   0.721   5.344  2.5841 -0.9346  0.4799
 1129SOL     OW14848   0.135   1.083   6.697  0.0335 -0.6439 -0.1751
 1129SOL    HW114849   0.181   1.004   6.672 -0.5242 -0.5631 -1.4378
 1129SOL    HW214850   0.056   1.044   6.736  1.7336  0.1615  4.1466
 1130SOL     OW14851   3.549   4.435   7.178 -0.2881 -0.5752  1.1872
 1130SOL    HW114852   3.470   4.483   7.201 -0.4982 -0.2934 -0.0887
 1130SOL    HW214853   3.523   4.345   7.196  1.5784 -1.2728  0.4638
 1131SOL     OW14854   1.003   3.506  16.042  0.7151 -0.2569 -0.6121
 1131SOL    HW114855   0.962   3.496  16.128 -0.5725 -0.6995 -1.2869
 1131SOL    HW214856   0.928   3.538  15.992  1.8600 -1.2463 -2.9723
 1132SOL     OW14857   3.653   2.865   6.113 -0.3360 -0.1815 -0.5129
 1132SOL    HW114858   3.662   2.847   6.206  1.7996 -2.2097 -1.0869
 1132SOL    HW214859   3.678   2.956   6.095  0.3204  0.0042  1.4224
 1133SOL     OW14860   2.403   0.643   0.037  0.1334  0.7284 -0.4611
 1133SOL    HW114861   2.391   0.703  17.634 -2.2388 -1.1811 -1.6303
 1133SOL    HW214862   2.497   0.658   0.042 -0.2188  2.9812 -0.7254
 1134SOL     OW14863   0.236   2.804  12.318 -0.1639  0.3607  0.0020
 1134SOL    HW114864   0.189   2.732  12.276  1.1490 -0.9947  0.8818
 1134SOL    HW214865   0.287   2.840  12.246 -1.0669 -0.2140 -0.9220
 1135SOL     OW14866   0.852   2.508  11.078 -0.0518 -0.4910  0.1129
 1135SOL    HW114867   0.795   2.581  11.055 -0.2623 -1.0765 -1.2626
 1135SOL    HW214868   0.880   2.534  11.165  1.8919  1.2213 -1.0118
 1136SOL     OW14869   4.273   3.777   3.763  0.2750  0.7870  0.2487
 1136SOL    HW114870   4.300   3.733   3.682 -0.0639 -0.5197  0.8424
 1136SOL    HW214871   4.179   3.766   3.747  0.8038 -2.0226 -1.0166
 1137SOL     OW14872   2.219   1.170   8.943  1.0441  0.0256 -0.1288
 1137SOL    HW114873   2.221   1.123   8.859 -0.6099 -0.2491 -0.0085
 1137SOL    HW214874   2.148   1.116   8.977 -1.6355  4.7572  1.7690
 1138SOL     OW14875   2.530   4.603   3.246  0.1105 -0.2585 -0.5730
 1138SOL    HW114876   2.618   4.579   3.218  0.1306  1.2799 -1.8521
 1138SOL    HW214877   2.483   4.522   3.223  1.3943 -0.7316 -1.5414
 1139SOL     OW14878   4.713   4.050   8.110 -0.3959  0.0991 -0.0245
 1139SOL    HW114879   4.640   4.090   8.158  0.6186 -0.3291  1.8559
 1139SOL    HW214880   0.073   4.102   8.134  2.3395 -3.7525 -0.4714
 1140SOL     OW14881   3.953   0.980   3.844  0.2879  0.3486 -0.0030
 1140SOL    HW114882   4.045   1.005   3.856  0.0455  2.5870 -2.9564
 1140SOL    HW214883   3.963   0.925   3.767 -1.3928  0.2512 -0.1583
 1141SOL     OW14884   1.444   1.183  13.234 -0.1271 -0.1081 -0.2723
 1141SOL    HW114885   1.456   1.202  13.327  1.5586  1.7724 -0.8674
 1141SOL    HW214886   1.376   1.117  13.239 -0.8932  0.5903 -1.5703
 1142SOL     OW14887   3.851   0.891  16.052  0.1280 -0.3731 -0.1742
 1142SOL    HW114888   3.870   0.824  15.986 -3.6508  1.8023 -3.4767
 1142SOL    HW214889   3.880   0.857  16.137 -0.3187  0.6143  0.3767
 1143SOL     OW14890   1.086   4.697  10.085 -0.0051 -0.0691  1.0975
 1143SOL    HW114891   1.136   0.015  10.159  0.8942  1.1949 -0.1191
 1143SOL    HW214892   1.122   0.031  10.013 -1.0480 -0.4949  0.2840
 1144SOL     OW14893   2.145   3.383   8.489  0.2217 -0.1098 -0.2043
 1144SOL    HW114894   2.076   3.335   8.444 -1.0621  1.8011 -0.2786
 1144SOL    HW214895   2.208   3.382   8.417  2.2809  0.1026  1.5719
 1145SOL     OW14896   4.555   0.046  10.263 -0.0052  0.8104 -0.2392
 1145SOL    HW114897   4.614   0.113  10.228 -0.1085 -0.2644 -2.4513
 1145SOL    HW214898   4.547   0.079  10.352 -0.4822  1.9677 -0.7088
 1146SOL     OW14899   2.262   4.350  14.965 -0.5523 -0.0692  0.5531
 1146SOL    HW114900   2.283   4.306  14.883 -0.1210 -0.6058  0.9590
 1146SOL    HW214901   2.169   4.358  14.944 -0.6615  2.2140  1.8442
 1147SOL     OW14902   3.866   2.273   4.017  0.3766 -0.2750 -0.6805
 1147SOL    HW114903   3.952   2.240   4.044 -0.0401  0.8753  2.0769
 1147SOL    HW214904   3.872   2.271   3.922 -1.2985  0.1047 -0.7911
 1148SOL     OW14905   1.975   3.489   6.731 -0.8785  0.0725  0.5265
 1148SOL    HW114906   1.945   3.401   6.751 -2.0860  0.4811  0.5231
 1148SOL    HW214907   1.984   3.489   6.636 -0.4781 -0.2144  0.5651
 1149SOL     OW14908   2.926   2.316  10.530 -0.9086  0.2690  0.1532
 1149SOL    HW114909   2.850   2.331  10.474 -0.6695 -0.5852 -0.4031
 1149SOL    HW214910   2.897   2.360  10.609 -0.4677  1.3410 -0.2864
 1150SOL     OW14911   4.096   3.530  16.208  0.6476  0.3305  0.4175
 1150SOL    HW114912   4.049   3.471  16.266  0.3106  1.0736  0.9103
 1150SOL    HW214913   4.132   3.474  16.139 -1.4212 -1.3521  0.7497
 1151SOL     OW14914   3.725   2.965   4.743 -0.2376 -0.4582 -0.2035
 1151SOL    HW114915   3.816   2.944   4.722  0.6478  1.5153  1.6302
 1151SOL    HW214916   3.719   2.960   4.838 -1.6859 -5.6134 -0.5531
 1152SOL     OW14917   3.222   4.439   5.416 -0.3574  0.6907  0.0407
 1152SOL    HW114918   3.257   4.508   5.473  0.7554  1.8063 -2.0120
 1152SOL    HW214919   3.247   4.359   5.462 -0.2220 -0.7536 -2.5700
 1153SOL     OW14920   2.694   3.066   4.963  0.0213  0.2138  0.2459
 1153SOL    HW114921   2.777   3.064   5.012 -0.3451 -1.6890  0.8038
 1153SOL    HW214922   2.720   3.130   4.897 -1.2039  1.4152  0.9378
 1154SOL     OW14923   4.571   0.758   7.491 -0.1730  0.7165 -0.2808
 1154SOL    HW114924   4.546   0.708   7.568 -0.0763  3.5792  1.6018
 1154SOL    HW214925   4.492   0.812   7.493 -0.2836  0.5142  1.0440
 1155SOL     OW14926   2.662   1.145   0.265  0.5735 -0.0057 -0.4450
 1155SOL    HW114927   2.652   1.148   0.360 -0.5514  0.5174 -0.5759
 1155SOL    HW214928   2.713   1.225   0.251  0.2278  0.3254  0.1817
 1156SOL     OW14929   1.417   1.642   7.272 -0.0616  0.2735 -0.5995
 1156SOL    HW114930   1.395   1.556   7.236  1.7473  0.5381 -2.3350
 1156SOL    HW214931   1.332   1.681   7.291  1.3691  3.3958 -0.7040
 1157SOL     OW14932   3.364   0.192   1.037  0.4705  0.2303 -0.1563
 1157SOL    HW114933   3.357   0.167   1.129 -0.0731  2.7132  0.4730
 1157SOL    HW214934   3.458   0.178   1.023  0.6384  0.2864  0.9003
 1158SOL     OW14935   1.061   2.643   5.234 -0.4512 -0.0741 -0.3119
 1158SOL    HW114936   0.977   2.611   5.201  0.1551 -1.8429 -0.1356
 1158SOL    HW214937   1.121   2.572   5.212 -0.0312  0.7983 -1.9460
 1159SOL     OW14938   3.912   0.776   7.094  0.1645 -0.0374  0.2397
 1159SOL    HW114939   3.928   0.870   7.097  0.6628 -0.0790 -1.4724
 1159SOL    HW214940   3.908   0.766   7.190 -2.2649 -0.3495  0.1089
 1160SOL     OW14941   1.332   0.349   5.510 -1.1999  0.0699  0.6732
 1160SOL    HW114942   1.298   0.297   5.437  2.2977 -1.2788  0.0092
 1160SOL    HW214943   1.339   0.437   5.475 -1.6982  0.1649  0.8065
 1161SOL     OW14944   1.927   0.580   4.072  0.2460 -0.4734  0.6184
 1161SOL    HW114945   1.985   0.657   4.075 -0.2743 -0.0491 -0.1557
 1161SOL    HW214946   1.919   0.576   3.977  0.0867 -1.7728  0.6993
 1162SOL     OW14947   0.330   2.537  17.556  0.2084  0.0664  0.6020
 1162SOL    HW114948   0.355   2.455  17.599  0.3748 -0.6979 -0.9294
 1162SOL    HW214949   0.391   2.538  17.483 -2.2589 -0.7282 -1.4842
 1163SOL     OW14950   1.851   0.510  15.284  0.0453 -0.1456 -0.4406
 1163SOL    HW114951   1.801   0.454  15.225  0.5655 -0.3018 -0.7320
 1163SOL    HW214952   1.779   0.572  15.299  0.7478  1.0366 -1.9951
 1164SOL     OW14953   0.174   3.539  11.614 -0.0554  0.2300 -0.2187
 1164SOL    HW114954   0.246   3.579  11.662  1.0126 -2.3255  0.3247
 1164SOL    HW214955   0.125   3.504  11.689 -0.5599  1.2685 -0.0726
 1165SOL     OW14956   2.606   4.178  11.858 -0.2247 -0.0756 -0.7304
 1165SOL    HW114957   2.681   4.235  11.842  1.1655 -1.3729  1.1322
 1165SOL    HW214958   2.643   4.109  11.913  0.1837 -0.0536 -0.9816
 1166SOL     OW14959   3.117   0.422   8.151  0.1952 -0.7738 -0.0523
 1166SOL    HW114960   3.212   0.432   8.159  0.3099 -2.0460  0.0911
 1166SOL    HW214961   3.100   0.335   8.188  0.5466 -0.7043  0.2722
 1167SOL     OW14962   0.232   0.929   3.886  0.1586 -0.4210  0.0140
 1167SOL    HW114963   0.271   0.850   3.847 -0.2947 -0.2368 -0.8103
 1167SOL    HW214964   0.240   0.920   3.981 -0.1651 -1.5607 -0.0604
 1168SOL     OW14965   4.227   2.443   2.110  0.1204  0.1872 -0.3099
 1168SOL    HW114966   4.302   2.492   2.077  0.5736 -0.2300  0.1035
 1168SOL    HW214967   4.245   2.352   2.086  0.4405 -0.4115  2.1360
 1169SOL     OW14968   4.100   1.427  14.375  0.1248 -0.5788  0.2998
 1169SOL    HW114969   4.026   1.370  14.354 -0.9228  1.3782 -1.3494
 1169SOL    HW214970   4.059   1.512  14.358  1.8102  0.2339  0.3031
 1170SOL     OW14971   1.271   0.026   5.563 -0.4036 -0.1149 -0.4233
 1170SOL    HW114972   1.304   4.682   5.496  2.3766  1.5457 -0.5375
 1170SOL    HW214973   1.235   0.097   5.510  1.5510  1.2454  0.1082
 1171SOL     OW14974   4.224   3.384  11.561  0.0510  0.2836 -0.3578
 1171SOL    HW114975   4.311   3.344  11.556 -0.9106 -1.4845 -2.8091
 1171SOL    HW214976   4.183   3.329  11.495  1.7594 -0.2998 -0.9283
 1172SOL     OW14977   4.665   1.555   2.836 -0.2221 -0.5489  0.0446
 1172SOL    HW114978   0.015   1.537   2.769  0.9703  1.3670  0.7148
 1172SOL    HW214979   4.686   1.490   2.903 -0.5942  0.6164  1.2745
 1173SOL     OW14980   1.814   4.622   2.711 -0.3904 -0.4865 -0.4262
 1173SOL    HW114981   1.858   4.537   2.707 -0.9917 -0.8054 -0.2847
 1173SOL    HW214982   1.890   4.680   2.711  0.4871 -1.6513  1.2259
 1174SOL     OW14983   3.548   1.681   2.833  0.6076  0.5332 -0.2225
 1174SOL    HW114984   3.603   1.737   2.777 -2.0473  2.1488 -1.2397
 1174SOL    HW214985   3.480   1.745   2.856 -0.5330 -0.2366 -1.4912
 1175SOL     OW14986   4.155   2.714   4.938  0.4978 -0.3927  0.5212
 1175SOL    HW114987   4.224   2.683   4.878  0.1102 -1.6500  0.7301
 1175SOL    HW214988   4.140   2.632   4.986 -1.8066 -0.2256  0.0661
 1176SOL     OW14989   3.783   3.102   3.984 -0.2457 -0.0094 -0.3077
 1176SOL    HW114990   3.739   3.167   4.040 -1.7566 -0.9466 -0.3907
 1176SOL    HW214991   3.843   3.064   4.048 -0.4350 -0.0765 -0.1674
 1177SOL     OW14992   3.896   1.066   8.070 -0.1260  0.1030  0.7354
 1177SOL    HW114993   3.825   1.129   8.077 -0.1166  0.3095 -1.2030
 1177SOL    HW214994   3.869   1.015   7.994 -3.0145  0.4817  1.4963
 1178SOL     OW14995   3.604   0.926   4.778 -0.0219 -0.0245 -0.4891
 1178SOL    HW114996   3.613   1.021   4.769 -0.1031  0.0753  0.4770
 1178SOL    HW214997   3.545   0.904   4.707  1.0043  1.9902 -1.9450
 1179SOL     OW14998   0.893   4.125  11.290 -0.1968  0.2402 -0.7052
 1179SOL    HW114999   0.945   4.130  11.370  1.1581 -1.3056 -1.4838
 1179SOL    HW215000   0.835   4.058  11.326  0.5748 -0.5062 -0.8695
 1180SOL     OW15001   2.547   0.223  15.823  0.8612 -0.1898  0.0820
 1180SOL    HW115002   2.570   0.146  15.875  2.5411  0.0602 -0.2858
 1180SOL    HW215003   2.633   0.234  15.783  0.5620  0.7574 -0.2983
 1181SOL     OW15004   3.109   0.529  15.940  0.1420 -0.2141  0.0337
 1181SOL    HW115005   3.190   0.566  15.974 -1.1679  1.6160  1.1514
 1181SOL    HW215006   3.054   0.531  16.018  0.6725 -0.9623  0.4290
 1182SOL     OW15007   3.662   1.309  13.446  0.0358  0.0461 -0.1451
 1182SOL    HW115008   3.736   1.319  13.387 -0.1814  2.0992 -0.0399
 1182SOL    HW215009   3.690   1.365  13.519 -2.6877 -1.2934  1.9331
 1183SOL     OW15010   3.952   3.187   4.830  0.0023  0.2074 -0.3443
 1183SOL    HW115011   4.018   3.183   4.760  1.7742  0.8782  1.2807
 1183SOL    HW215012   3.974   3.102   4.870 -0.0409  1.6622  2.7274
 1184SOL     OW15013   2.611   0.651   8.792 -0.1421 -0.0459 -0.2069
 1184SOL    HW115014   2.639   0.562   8.771 -0.8811  0.0911 -1.7495
 1184SOL    HW215015   2.518   0.634   8.802 -0.2719  0.8068  0.0089
 1185SOL     OW15016   3.728   4.563   8.844  0.1489  0.1108 -0.1003
 1185SOL    HW115017   3.795   4.563   8.775 -2.2720 -1.1754 -2.4542
 1185SOL    HW215018   3.668   4.493   8.820 -0.6542  0.0154  2.1658
 1186SOL     OW15019   3.387   0.826   8.255  0.0130  0.7432 -0.0171
 1186SOL    HW115020   3.467   0.860   8.215  1.5040 -3.0734 -0.2458
 1186SOL    HW215021   3.421   0.759   8.314 -1.9737  0.2186  0.5266
 1187SOL     OW15022   0.045   0.108   9.884 -0.7045  0.3245 -0.2940
 1187SOL    HW115023   4.681   0.161   9.885 -1.0279 -0.1316 -1.9885
 1187SOL    HW215024   0.112   0.173   9.903 -1.0655  0.7668 -0.5197
 1188SOL     OW15025   1.016   1.031   8.284  0.0251  0.3549 -0.2675
 1188SOL    HW115026   1.045   1.034   8.375  1.5685  0.8714 -0.7820
 1188SOL    HW215027   0.936   0.980   8.302  0.8740 -1.2291 -0.9686
 1189SOL     OW15028   0.933   1.297   5.695 -0.2309 -0.7926  0.1060
 1189SOL    HW115029   0.983   1.318   5.615  1.2504  0.7500  1.4312
 1189SOL    HW215030   0.984   1.322   5.772  0.9540 -0.3314 -0.8245
 1190SOL     OW15031   1.086   0.372  17.012 -0.0044 -0.1357 -0.2885
 1190SOL    HW115032   1.030   0.301  16.980 -1.0708  0.1964  0.8182
 1190SOL    HW215033   1.168   0.324  17.003 -0.5777 -1.0487 -0.6858
 1191SOL     OW15034   4.653   2.578   4.348  0.2302  0.3057 -0.7466
 1191SOL    HW115035   4.567   2.599   4.310 -0.8562  0.2963  1.7446
 1191SOL    HW215036   4.714   2.566   4.275 -0.4703 -0.6444 -1.1893
 1192SOL     OW15037   2.852   3.550  11.492 -0.2198 -0.5083 -0.1379
 1192SOL    HW115038   2.939   3.589  11.484  0.3700 -1.8640 -0.3590
 1192SOL    HW215039   2.863   3.482  11.558  0.0817  0.8950  1.2743
 1193SOL     OW15040   1.113   1.782  16.748 -0.8825  0.2682 -0.2463
 1193SOL    HW115041   1.198   1.745  16.770 -1.4770 -0.2704  1.2255
 1193SOL    HW215042   1.050   1.723  16.791 -0.7050  1.8978  2.2621
 1194SOL     OW15043   4.618   3.214   2.087 -0.2484 -0.1199  0.3277
 1194SOL    HW115044   4.652   3.276   2.021  0.8361 -1.2368 -0.1593
 1194SOL    HW215045   4.528   3.248   2.092  0.1094  0.7924  0.6120
 1195SOL     OW15046   1.559   1.250   8.135 -0.0747 -0.0566 -0.1996
 1195SOL    HW115047   1.558   1.259   8.040 -1.6290  1.1554 -0.0596
 1195SOL    HW215048   1.580   1.343   8.148 -1.1921 -0.0400  1.5279
 1196SOL     OW15049   0.992   2.692   8.302  0.2242  0.4782  0.0752
 1196SOL    HW115050   1.017   2.702   8.394  1.1948  1.3925 -0.2960
 1196SOL    HW215051   0.918   2.632   8.317  0.6156 -0.4914 -1.8744
 1197SOL     OW15052   4.043   4.089  10.241 -0.1340 -0.2191  0.5066
 1197SOL    HW115053   4.047   4.006  10.194  1.1762 -1.2531  2.4432
 1197SOL    HW215054   3.953   4.114  10.217  0.5794 -0.1083 -1.9675
 1198SOL     OW15055   2.147   0.409  15.201 -0.0534  0.0512  0.1094
 1198SOL    HW115056   2.193   0.468  15.142 -0.5470  0.4317  0.1098
 1198SOL    HW215057   2.141   0.467  15.277 -1.3618 -0.5961  0.4902
 1199SOL     OW15058   3.575   3.093   9.053 -0.5872 -0.0526 -0.2700
 1199SOL    HW115059   3.558   3.082   9.146 -1.7643  0.8176 -0.3709
 1199SOL    HW215060   3.534   3.016   9.013 -0.4343  0.3642 -1.2318
 1200SOL     OW15061   2.807   0.465   9.901 -0.0024  0.3347 -0.1070
 1200SOL    HW115062   2.871   0.521   9.857  0.4148 -0.4072 -0.4407
 1200SOL    HW215063   2.859   0.385   9.898  0.6299  0.7286  0.5598
 1201SOL     OW15064   1.459   2.026   3.309 -0.0645  0.1785 -0.1975
 1201SOL    HW115065   1.530   2.062   3.363  0.2501 -2.1347  0.9160
 1201SOL    HW215066   1.494   2.020   3.221 -1.1971  1.7656 -0.7537
 1202SOL     OW15067   2.256   0.517   4.683 -0.0017 -0.0845  0.2118
 1202SOL    HW115068   2.286   0.580   4.749  1.0839 -0.3000 -0.0725
 1202SOL    HW215069   2.337   0.481   4.647 -0.8784  0.3077 -2.1674
 1203SOL     OW15070   2.786   3.385   7.892 -0.3951 -0.2496 -0.9407
 1203SOL    HW115071   2.838   3.462   7.869 -1.6190  0.8663 -0.0167
 1203SOL    HW215072   2.701   3.420   7.863  0.9943  1.2329 -3.2017
 1204SOL     OW15073   0.710   2.134   7.895  0.1529 -0.0326 -0.1065
 1204SOL    HW115074   0.712   2.048   7.937 -2.0355 -0.4699 -0.8974
 1204SOL    HW215075   0.741   2.184   7.971  0.8063 -0.6694  0.0448
 1205SOL     OW15076   3.719   0.367   2.846  0.2462 -0.2060 -0.1176
 1205SOL    HW115077   3.763   0.446   2.877 -0.9057  0.7421 -0.9046
 1205SOL    HW215078   3.696   0.322   2.928  0.1160 -0.9668 -0.5755
 1206SOL     OW15079   1.622   2.085   2.006  0.1885 -0.0334 -0.4159
 1206SOL    HW115080   1.561   2.056   1.939 -1.1925  1.1287  0.3436
 1206SOL    HW215081   1.586   2.022   2.069  0.1315  0.1859 -0.2280
 1207SOL     OW15082   0.624   3.974   5.708 -0.3195  0.2338  0.3262
 1207SOL    HW115083   0.610   4.001   5.799 -3.3540 -0.5083  0.0794
 1207SOL    HW215084   0.610   4.054   5.658 -0.6745 -0.4644 -0.7020
 1208SOL     OW15085   1.582   1.996   3.713  0.8208  0.8201 -0.4321
 1208SOL    HW115086   1.616   2.017   3.626 -3.1053  0.1408 -2.1229
 1208SOL    HW215087   1.657   2.004   3.772  2.4580  1.6042 -2.6358
 1209SOL     OW15088   1.533   3.090   2.811 -0.1402 -0.2021 -1.2445
 1209SOL    HW115089   1.527   3.129   2.898  0.1003  1.2812 -1.8784
 1209SOL    HW215090   1.579   3.164   2.770 -3.4970  1.7582 -1.4844
 1210SOL     OW15091   1.261   2.957  16.122  0.0413  0.0015  0.3839
 1210SOL    HW115092   1.287   2.870  16.154  0.2930  0.3498  1.1258
 1210SOL    HW215093   1.186   2.985  16.175  1.3446 -0.5906  2.5358
 1211SOL     OW15094   2.445   2.996  13.406  0.2222  0.0089 -0.4729
 1211SOL    HW115095   2.425   3.050  13.482  0.2194 -0.7108  0.0366
 1211SOL    HW215096   2.454   3.063  13.338 -1.9836  0.2910 -0.4722
 1212SOL     OW15097   0.800   1.322   7.934 -0.1507  0.2877 -0.3642
 1212SOL    HW115098   0.783   1.308   7.840 -0.3071  3.1317 -0.7872
 1212SOL    HW215099   0.872   1.261   7.944 -0.4151  0.4156  2.2423
 1213SOL     OW15100   0.965   4.643   5.359 -0.3416 -0.3541  0.2132
 1213SOL    HW115101   0.872   4.663   5.375 -0.0116  1.2140  0.1609
 1213SOL    HW215102   0.980   4.693   5.279  2.6891 -1.1467  0.2793
 1214SOL     OW15103   2.904   2.998   9.480 -0.0049 -0.3708  0.2501
 1214SOL    HW115104   2.958   2.974   9.405 -0.7941  0.3612 -0.5559
 1214SOL    HW215105   2.822   2.989   9.430 -0.2930  0.9874  0.4745
 1215SOL     OW15106   3.834   2.863   2.027 -0.3327  0.1986  0.0689
 1215SOL    HW115107   3.912   2.871   1.972 -0.0096 -0.2668  0.4579
 1215SOL    HW215108   3.819   2.954   2.056 -2.0460  0.2183 -0.8963
 1216SOL     OW15109   2.526   2.444   1.517 -0.0115  0.7719  0.4800
 1216SOL    HW115110   2.478   2.454   1.434 -2.3532  1.3966  1.9032
 1216SOL    HW215111   2.576   2.367   1.489 -1.7844  0.2773 -1.3498
 1217SOL     OW15112   4.359   0.727   6.006 -0.0592  0.1577  0.3958
 1217SOL    HW115113   4.452   0.725   5.983  0.3275 -1.9830  2.1583
 1217SOL    HW215114   4.369   0.701   6.098 -3.1405 -0.0814  0.6778
 1218SOL     OW15115   1.908   3.784   5.481 -0.4906  0.0876  0.5335
 1218SOL    HW115116   1.987   3.735   5.457 -0.8627 -0.1558 -0.2266
 1218SOL    HW215117   1.938   3.861   5.528  0.7151  1.6401 -2.7704
 1219SOL     OW15118   3.419   1.591  16.064 -0.2079  0.3335 -0.2792
 1219SOL    HW115119   3.394   1.643  16.141  1.4908  0.2942  0.3212
 1219SOL    HW215120   3.456   1.513  16.105  1.6263  0.5670 -1.5008
 1220SOL     OW15121   2.256   3.291  12.925 -0.4152  0.4331 -0.1765
 1220SOL    HW115122   2.280   3.384  12.919  3.2937 -0.7186 -2.8336
 1220SOL    HW215123   2.163   3.302  12.905 -0.5382 -1.5161 -0.5804
 1221SOL     OW15124   2.465   4.103   8.731  0.0559  0.6449  0.3064
 1221SOL    HW115125   2.388   4.151   8.761  0.9968  2.4678 -0.2275
 1221SOL    HW215126   2.449   4.104   8.636 -3.2117 -0.8683  0.8161
 1222SOL     OW15127   0.867   4.236   1.296 -0.5648 -0.5708 -0.1398
 1222SOL    HW115128   0.959   4.243   1.321 -0.6192  1.6612 -0.5170
 1222SOL    HW215129   0.862   4.269   1.207  2.8663  1.4006  0.4052
 1223SOL     OW15130   1.605   1.309   9.046  0.2677  0.4117 -0.0565
 1223SOL    HW115131   1.691   1.271   9.029  0.1841 -0.2677  1.0826
 1223SOL    HW215132   1.604   1.316   9.141 -0.0289  0.7769 -0.0876
 1224SOL     OW15133   2.782   2.707   9.324 -0.0859  0.3179 -0.2619
 1224SOL    HW115134   2.744   2.795   9.331  1.3904  0.8185  1.5704
 1224SOL    HW215135   2.828   2.716   9.241 -1.1393  1.5501 -0.7195
 1225SOL     OW15136   2.052   1.484   2.996 -0.5382 -0.3954  0.3584
 1225SOL    HW115137   2.002   1.403   3.007 -0.1707 -0.2626  2.8812
 1225SOL    HW215138   2.122   1.461   3.056 -1.5921 -0.3443  1.6059
 1226SOL     OW15139   3.747   0.855  16.473  0.5296 -0.9352  0.0165
 1226SOL    HW115140   3.813   0.845  16.404  0.7022 -0.9471  0.1846
 1226SOL    HW215141   3.803   0.873  16.548  0.7227 -0.1958 -0.2994
 1227SOL     OW15142   2.408   1.290  16.823 -0.7237  0.2016 -0.6413
 1227SOL    HW115143   2.436   1.313  16.735  1.2609 -1.8813 -0.5626
 1227SOL    HW215144   2.400   1.195  16.820  0.4072  0.0517  1.0655
 1228SOL     OW15145   2.201   1.896   5.059  0.1525  0.3337  0.2090
 1228SOL    HW115146   2.151   1.977   5.058 -0.5177 -0.0595  1.7368
 1228SOL    HW215147   2.286   1.920   5.097 -0.1323  0.4728  0.7655
 1229SOL     OW15148   0.905   2.459   1.501 -0.0304 -0.3027 -0.3119
 1229SOL    HW115149   0.832   2.430   1.447  0.0410 -0.0945 -0.5201
 1229SOL    HW215150   0.898   2.554   1.494 -1.0402 -0.1188  3.3290
 1230SOL     OW15151   2.359   0.964   4.098 -0.0849 -0.2470  0.3906
 1230SOL    HW115152   2.307   0.964   4.178  1.2133  2.7160  1.2101
 1230SOL    HW215153   2.406   0.881   4.109 -0.8271 -0.5939  1.0047
 1231SOL     OW15154   0.090   1.535   3.306 -0.5248 -0.7584  0.2304
 1231SOL    HW115155   0.039   1.610   3.335 -0.3417  0.1157 -1.7505
 1231SOL    HW215156   0.104   1.486   3.388  0.2266 -2.5818 -0.9789
 1232SOL     OW15157   1.951   0.064   6.869 -0.1668 -0.4921  0.2770
 1232SOL    HW115158   2.035   0.097   6.900  0.1155 -1.7637  0.8858
 1232SOL    HW215159   1.980   0.025   6.786  0.6999  0.9830 -0.0993
 1233SOL     OW15160   0.213   4.576   7.683 -0.2229 -0.1089 -0.0489
 1233SOL    HW115161   0.212   4.671   7.695 -1.1020 -0.1187  0.0015
 1233SOL    HW215162   0.136   4.564   7.628 -0.8297  1.3769  0.4633
 1234SOL     OW15163   1.620   3.158   3.834  0.4683 -0.2590 -0.2180
 1234SOL    HW115164   1.543   3.212   3.849 -0.2885 -1.6514  0.9144
 1234SOL    HW215165   1.676   3.218   3.785  2.1045 -1.2635  0.4293
 1235SOL     OW15166   1.344   4.562   6.150  0.0448 -0.0741 -0.1709
 1235SOL    HW115167   1.301   4.498   6.093 -1.2709  0.4050  0.2690
 1235SOL    HW215168   1.284   4.637   6.151  1.7990  1.3069  0.7278
 1236SOL     OW15169   2.291   2.954   4.247  0.6071  0.1016  0.3136
 1236SOL    HW115170   2.228   2.892   4.283  1.0848 -1.3873 -1.4190
 1236SOL    HW215171   2.373   2.907   4.229  0.4517 -0.1609  0.2887
 1237SOL     OW15172   2.734   0.406   3.972 -1.2017 -0.1391  0.4407
 1237SOL    HW115173   2.707   0.452   4.051  1.2658 -0.3275  1.3843
 1237SOL    HW215174   2.802   0.463   3.936 -0.2490 -0.4365  1.7558
 1238SOL     OW15175   0.936   0.754  15.232  0.1561  0.1451  0.7715
 1238SOL    HW115176   0.939   0.849  15.247 -0.6108  0.1491  0.8835
 1238SOL    HW215177   0.870   0.739  15.299 -0.9155  0.9076 -0.1084
 1239SOL     OW15178   3.253   2.627   3.861 -0.7080  0.4415 -0.6103
 1239SOL    HW115179   3.276   2.690   3.929  1.3247  1.0463 -1.8850
 1239SOL    HW215180   3.266   2.690   3.791  1.9977 -0.9936 -1.3626
 1240SOL     OW15181   3.582   2.270   1.736  0.3968 -0.6820  0.1112
 1240SOL    HW115182   3.488   2.268   1.756  0.7515 -1.5451  1.7167
 1240SOL    HW215183   3.611   2.338   1.796  0.0482 -0.0779 -0.4121
 1241SOL     OW15184   3.384   0.921   9.112  0.3645 -0.3249  0.7065
 1241SOL    HW115185   3.438   0.993   9.080 -0.3274 -0.9815 -1.9157
 1241SOL    HW215186   3.394   0.923   9.207  1.6918 -0.3786  0.5634
 1242SOL     OW15187   0.204   4.350   4.089 -0.6917 -0.0622 -0.1154
 1242SOL    HW115188   0.150   4.279   4.124  1.1181 -0.6203  1.5236
 1242SOL    HW215189   0.151   4.430   4.097  1.8400  1.5674  0.1775
 1243SOL     OW15190   2.496   3.130   6.264 -0.7053  0.7211 -0.3533
 1243SOL    HW115191   2.528   3.220   6.256  1.2430  0.2251  1.8008
 1243SOL    HW215192   2.525   3.113   6.354 -0.2960  0.7419 -0.4841
 1244SOL     OW15193   0.488   4.214  12.698  0.1461  0.6486 -0.0948
 1244SOL    HW115194   0.475   4.209  12.793 -0.8298  2.2185 -0.1497
 1244SOL    HW215195   0.423   4.153  12.663 -0.1331 -0.6777  2.7595
 1245SOL     OW15196   4.634   2.144   3.154 -0.2748  0.5553 -0.2063
 1245SOL    HW115197   4.707   2.197   3.185 -0.2806  1.4807 -1.7587
 1245SOL    HW215198   4.657   2.125   3.063  0.8786 -2.6609  0.8018
 1246SOL     OW15199   2.317   3.807   8.439 -0.0390  0.3698 -0.1047
 1246SOL    HW115200   2.255   3.880   8.429  0.2928  0.4054 -1.9676
 1246SOL    HW215201   2.321   3.786   8.346 -0.0381 -2.0156  0.4434
 1247SOL     OW15202   1.997   0.230  16.579  0.8750 -0.1157  0.4477
 1247SOL    HW115203   2.031   0.141  16.584  1.4712  0.0288 -0.9743
 1247SOL    HW215204   1.932   0.234  16.508  2.2454 -2.7581 -0.9557
 1248SOL     OW15205   0.524   0.610   3.453  0.4939  0.3028  0.0394
 1248SOL    HW115206   0.602   0.659   3.476 -0.2200  0.9717  1.0176
 1248SOL    HW215207   0.553   0.574   3.369  1.7885 -2.7684  1.7972
 1249SOL     OW15208   3.729   3.281  15.933  0.1708 -0.2872  0.1554
 1249SOL    HW115209   3.823   3.301  15.924 -0.2125  0.4938 -2.2705
 1249SOL    HW215210   3.703   3.230  15.856 -0.0317 -1.6678  1.1386
 1250SOL     OW15211   2.729   0.855   7.040  0.2018 -0.1169 -0.2383
 1250SOL    HW115212   2.817   0.829   7.011  0.2542  0.7665 -0.8563
 1250SOL    HW215213   2.687   0.770   7.025  0.1689 -0.1245 -0.0994
 1251SOL     OW15214   0.864   3.831   8.204  0.1488  0.4953  0.4612
 1251SOL    HW115215   0.935   3.772   8.228  0.3076  0.6390  0.3443
 1251SOL    HW215216   0.854   3.808   8.111 -3.4485  3.0544  0.1878
 1252SOL     OW15217   2.165   0.909   4.872  0.4809  0.1422 -0.6230
 1252SOL    HW115218   2.135   0.881   4.959 -1.2354 -1.0858 -1.6033
 1252SOL    HW215219   2.239   0.849   4.862  0.8376  0.1901  1.7280
 1253SOL     OW15220   1.551   1.986  15.637  0.6770  0.4654 -1.0313
 1253SOL    HW115221   1.487   1.942  15.693  1.4489 -0.1013 -0.5824
 1253SOL    HW215222   1.633   1.974  15.686  0.1668  0.7047 -0.1144
 1254SOL     OW15223   2.996   4.435  13.087  0.4936 -0.1808 -0.1600
 1254SOL    HW115224   3.001   4.433  12.991  2.3399 -2.8183  0.0007
 1254SOL    HW215225   2.914   4.481  13.104  0.9237 -0.2163  1.9502
 1255SOL     OW15226   2.506   0.865   7.936 -0.7651  0.0051  0.0947
 1255SOL    HW115227   2.575   0.861   7.870 -0.2272 -0.8110  0.6943
 1255SOL    HW215228   2.431   0.817   7.901 -0.4255  0.5772 -1.3851
 1256SOL     OW15229   0.475   1.014   6.095  0.5406 -0.3758 -0.5043
 1256SOL    HW115230   0.519   1.064   6.163  1.0158 -1.7539  0.2086
 1256SOL    HW215231   0.546   1.012   6.030 -0.1187 -1.2287 -1.2042
 1257SOL     OW15232   2.125   4.249   5.712 -0.1570 -0.1079  0.0367
 1257SOL    HW115233   2.196   4.184   5.709  0.3980  0.4015  2.3541
 1257SOL    HW215234   2.158   4.317   5.654 -0.0860  0.1025  0.3254
 1258SOL     OW15235   1.184   2.999   3.248 -0.7196 -0.0833  0.2025
 1258SOL    HW115236   1.240   2.922   3.251 -0.4285  0.1662  1.3116
 1258SOL    HW215237   1.184   3.018   3.342 -1.5173 -0.0884  0.2011
 1259SOL     OW15238   0.910   4.018   6.431 -0.5809 -0.4811  0.1042
 1259SOL    HW115239   0.994   4.022   6.476  0.2271 -1.1488 -1.3226
 1259SOL    HW215240   0.917   3.949   6.365 -4.5208 -1.2239  0.4607
 1260SOL     OW15241   1.817   4.253  16.880 -0.3258 -0.4492 -0.0162
 1260SOL    HW115242   1.756   4.205  16.824 -1.1565  0.2126  0.3217
 1260SOL    HW215243   1.894   4.260  16.823 -0.3062 -1.0525 -0.0633
 1261SOL     OW15244   4.269   0.403   5.534  0.0621  0.3640  0.3050
 1261SOL    HW115245   4.279   0.362   5.620  0.6348 -0.1563 -0.0106
 1261SOL    HW215246   4.361   0.429   5.528  0.8396 -1.8992  2.0765
 1262SOL     OW15247   0.176   1.266   4.862 -0.7912  0.1006 -0.1488
 1262SOL    HW115248   0.189   1.207   4.787 -0.2473  1.4243 -1.0822
 1262SOL    HW215249   0.253   1.320   4.845  0.4805 -1.2432  1.3142
 1263SOL     OW15250   2.555   3.674   5.953  0.4721 -0.2354  0.1766
 1263SOL    HW115251   2.552   3.587   5.914  0.3577 -0.6675  1.1495
 1263SOL    HW215252   2.487   3.681   6.020  0.7998  1.0404  0.3689
 1264SOL     OW15253   4.188   2.549  10.251 -0.0962 -0.2679 -0.1908
 1264SOL    HW115254   4.282   2.540  10.266 -0.0252 -0.1532 -0.5699
 1264SOL    HW215255   4.192   2.537  10.157  1.0663 -0.8732 -0.0643
 1265SOL     OW15256   1.855   3.594  17.336  0.1978  0.0774 -0.1382
 1265SOL    HW115257   1.802   3.630  17.407 -0.4255 -0.7688 -0.1832
 1265SOL    HW215258   1.910   3.671  17.323 -2.3135  1.7804 -0.6396
 1266SOL     OW15259   2.123   2.561   3.059 -0.3733 -0.0733  0.4534
 1266SOL    HW115260   2.131   2.518   3.144  0.0525 -0.7649  0.0574
 1266SOL    HW215261   2.159   2.497   2.998  0.4488 -0.0556  0.9263
 1267SOL     OW15262   1.449   3.509   7.735 -0.2105 -0.3933  0.1127
 1267SOL    HW115263   1.484   3.425   7.763 -0.9280 -1.2002 -1.4200
 1267SOL    HW215264   1.476   3.523   7.645 -1.5155 -0.0250 -0.2308
 1268SOL     OW15265   4.381   4.488  11.076  0.4526  0.1628 -0.0272
 1268SOL    HW115266   4.345   4.577  11.076  0.4042  0.1427 -0.1257
 1268SOL    HW215267   4.309   4.431  11.101 -0.4439  0.5705 -1.7271
 1269SOL     OW15268   4.028   4.660   2.325  0.0963  0.4395  0.0199
 1269SOL    HW115269   4.017   4.565   2.332  1.4740  0.2373 -0.5425
 1269SOL    HW215270   3.962   4.676   2.257  0.0094  2.2486  0.5235
 1270SOL     OW15271   4.160   1.254   2.839  0.0501  0.3181 -0.2607
 1270SOL    HW115272   4.124   1.166   2.843  0.6351  0.0622 -0.8077
 1270SOL    HW215273   4.081   1.307   2.856 -1.7820 -2.7583  0.8280
 1271SOL     OW15274   3.946   1.874   2.616 -0.7974 -0.0965 -0.1443
 1271SOL    HW115275   4.031   1.835   2.594 -0.6498 -0.5919  1.2582
 1271SOL    HW215276   3.978   1.950   2.665  0.6685 -0.6627 -0.2138
 1272SOL     OW15277   2.913   4.335   5.345 -0.7083  0.2824 -0.3492
 1272SOL    HW115278   2.970   4.259   5.355 -1.1454 -0.0550 -0.4342
 1272SOL    HW215279   2.872   4.321   5.259 -2.7961 -1.4625  0.9342
 1273SOL     OW15280   3.306   0.600  13.677 -0.1058  0.0154  0.3159
 1273SOL    HW115281   3.306   0.621  13.584 -1.5770  2.1946  0.7981
 1273SOL    HW215282   3.305   0.692  13.704 -3.0362 -0.0745  0.5652
 1274SOL     OW15283   2.364   0.165   8.487  0.2868 -0.2300  0.2375
 1274SOL    HW115284   2.371   0.071   8.469  0.8906 -0.0886 -0.2674
 1274SOL    HW215285   2.352   0.172   8.582  0.8161  0.7849  0.2264
 1275SOL     OW15286   4.095   3.592   3.190 -0.2574  0.0059 -0.0296
 1275SOL    HW115287   4.103   3.679   3.150  0.4744 -0.7264 -1.4366
 1275SOL    HW215288   4.131   3.535   3.122 -1.0728 -1.5290  0.8274
 1276SOL     OW15289   0.192   2.797   1.870  1.0071  0.4053  0.8241
 1276SOL    HW115290   0.142   2.871   1.905  1.0804  0.9835 -0.3121
 1276SOL    HW215291   0.146   2.786   1.787 -0.3467 -0.9112  1.7487
 1277SOL     OW15292   4.223   1.241   3.331 -0.3224 -0.0687  0.4170
 1277SOL    HW115293   4.270   1.209   3.254  0.0714 -0.3188  0.7565
 1277SOL    HW215294   4.201   1.322   3.286  0.0339 -0.6188 -0.7629
 1278SOL     OW15295   3.303   2.360  17.524  0.7846  0.3348 -0.1433
 1278SOL    HW115296   3.364   2.326  17.589  0.4330  2.2034  1.1624
 1278SOL    HW215297   3.361   2.364  17.447 -1.7970  0.2250 -2.0925
 1279SOL     OW15298   4.447   4.164   6.896 -0.0672  0.1289  0.4443
 1279SOL    HW115299   4.535   4.161   6.935 -0.2096 -0.0933  0.7446
 1279SOL    HW215300   4.474   4.120   6.816 -0.8688 -1.3532  0.9994
 1280SOL     OW15301   1.405   4.527   1.173  0.0439 -0.4727  0.1638
 1280SOL    HW115302   1.425   4.501   1.263  1.1246 -0.1915  0.0035
 1280SOL    HW215303   1.312   4.514   1.191 -0.0997 -1.0827 -1.0073
 1281SOL     OW15304   0.421   2.943   1.583 -0.2278 -0.2635  0.5093
 1281SOL    HW115305   0.393   3.033   1.568 -0.8413 -0.9754 -2.6541
 1281SOL    HW215306   0.410   2.921   1.491 -0.5497  1.0005  0.2425
 1282SOL     OW15307   4.000   3.443  14.513  0.0930 -0.1895 -0.1928
 1282SOL    HW115308   4.045   3.463  14.595 -0.2503  0.4145 -0.1518
 1282SOL    HW215309   3.914   3.481  14.532 -0.2907  0.1668 -2.6038
 1283SOL     OW15310   0.519   0.216   8.401  0.4017 -0.5057  0.0156
 1283SOL    HW115311   0.492   0.308   8.412 -1.5127 -0.9781 -0.6437
 1283SOL    HW215312   0.500   0.188   8.491  0.2883 -0.3692  0.0349
 1284SOL     OW15313   2.395   1.613   8.417  0.5576  0.0326  0.9079
 1284SOL    HW115314   2.358   1.614   8.329 -1.1443  0.3745  1.6334
 1284SOL    HW215315   2.326   1.566   8.463 -0.9621  2.1199  0.7334
 1285SOL     OW15316   0.748   3.702   7.242 -0.1740 -0.1128  0.1202
 1285SOL    HW115317   0.831   3.685   7.198 -0.4970 -2.2411  0.3571
 1285SOL    HW215318   0.752   3.667   7.331  5.0023 -1.1795 -0.5556
 1286SOL     OW15319   3.898   0.893  16.767 -0.3179 -0.2340 -0.2065
 1286SOL    HW115320   3.860   0.956  16.828 -1.8436 -0.8916 -0.4588
 1286SOL    HW215321   3.986   0.929  16.760 -0.2483 -0.0483  1.7474
 1287SOL     OW15322   2.050   4.123   4.465  0.5572 -0.1471  0.2622
 1287SOL    HW115323   2.124   4.171   4.427  0.4928 -1.0646 -1.0203
 1287SOL    HW215324   2.097   4.065   4.525 -3.1619 -2.1347  1.2222
 1288SOL     OW15325   1.614   0.035   2.931  0.3003  1.1966 -0.4337
 1288SOL    HW115326   1.697   4.716   2.900  1.5197  1.4713  2.4351
 1288SOL    HW215327   1.622   0.026   3.026 -0.7008  1.4913 -0.3154
 1289SOL     OW15328   1.628   2.366   2.600  0.1376 -0.2749  0.1256
 1289SOL    HW115329   1.577   2.446   2.612  2.0862  0.5534  2.7939
 1289SOL    HW215330   1.612   2.323   2.684 -2.0328  1.2754  0.5022
 1290SOL     OW15331   0.446   2.457   2.654 -0.0812 -0.4312 -0.3282
 1290SOL    HW115332   0.475   2.488   2.569  0.5430  1.3762  0.5320
 1290SOL    HW215333   0.486   2.530   2.702  0.3106 -1.1542  0.4256
 1291SOL     OW15334   3.556   2.420   9.823 -0.0160 -0.1834  0.0529
 1291SOL    HW115335   3.488   2.361   9.856 -0.9875  2.1365  2.2676
 1291SOL    HW215336   3.551   2.395   9.731 -1.1583 -0.3075  0.1536
 1292SOL     OW15337   2.471   2.893  16.989  0.1018  0.3370  0.4700
 1292SOL    HW115338   2.416   2.971  17.000 -1.0723 -0.2710 -0.9508
 1292SOL    HW215339   2.540   2.909  17.053  0.7990 -1.8469  0.2634
 1293SOL     OW15340   1.360   2.997   2.610 -0.3927 -0.3315  0.5234
 1293SOL    HW115341   1.277   3.028   2.647  0.9379  2.2413  1.3389
 1293SOL    HW215342   1.420   3.025   2.679  0.4772 -1.5031  0.2511
 1294SOL     OW15343   4.561   1.270   6.714 -0.1433  0.1715  0.3421
 1294SOL    HW115344   4.536   1.354   6.675  0.5460  1.2756  2.2534
 1294SOL    HW215345   4.593   1.222   6.638 -0.7590  0.6089 -0.1871
 1295SOL     OW15346   1.793   3.649  13.330  0.4789 -0.6146  0.6820
 1295SOL    HW115347   1.858   3.717  13.315 -1.4173  0.3691 -3.2059
 1295SOL    HW215348   1.838   3.606  13.402 -0.0822 -0.2395  1.2635
 1296SOL     OW15349   1.193   1.205  10.324 -0.2666  0.5496 -0.2187
 1296SOL    HW115350   1.228   1.178  10.239  2.2769  0.0472  0.9797
 1296SOL    HW215351   1.230   1.293  10.337  0.3183  0.4913 -1.4403
 1297SOL     OW15352   4.449   4.384  14.923  0.6429  0.1571 -0.4964
 1297SOL    HW115353   4.540   4.360  14.939  0.4561 -0.9173 -1.0506
 1297SOL    HW215354   4.443   4.362  14.830  2.3805  1.1832 -0.8397
 1298SOL     OW15355   2.737   1.317   9.092 -0.1809 -0.6457  0.2319
 1298SOL    HW115356   2.798   1.245   9.107  0.9944  0.2718 -0.0927
 1298SOL    HW215357   2.661   1.269   9.058 -0.9815 -0.0301  1.1603
 1299SOL     OW15358   4.191   4.040   2.780  0.2971  0.2101  0.0017
 1299SOL    HW115359   4.164   3.948   2.783 -0.3041  0.4138  0.8828
 1299SOL    HW215360   4.273   4.030   2.731 -1.8877 -0.0539 -3.5896
 1300SOL     OW15361   2.579   3.679  11.046 -0.6710 -0.0078  0.1232
 1300SOL    HW115362   2.614   3.733  10.975  0.7786  0.9111  1.5340
 1300SOL    HW215363   2.525   3.739  11.097 -0.5349 -2.3183  2.9800
 1301SOL     OW15364   2.063   0.163  14.082 -0.0627  0.2428 -0.0141
 1301SOL    HW115365   2.070   0.070  14.062 -0.6701  0.1427  0.2335
 1301SOL    HW215366   1.980   0.170  14.129  0.4333 -1.1254  1.0566
 1302SOL     OW15367   3.564   4.248   9.175 -0.5132 -0.3112 -0.0391
 1302SOL    HW115368   3.576   4.193   9.252  2.3315  0.6912  0.2128
 1302SOL    HW215369   3.644   4.300   9.186 -0.0533 -0.8188 -0.9530
 1303SOL     OW15370   2.766   1.426   9.341  0.5476  0.4903 -0.7362
 1303SOL    HW115371   2.825   1.357   9.372 -0.3765 -0.6697 -1.5565
 1303SOL    HW215372   2.749   1.389   9.254  1.3157  0.5553 -0.9112
 1304SOL     OW15373   4.101   2.444  17.588  0.4253  0.3045 -0.4135
 1304SOL    HW115374   4.158   2.511  17.551  1.2853  1.1321  2.4056
 1304SOL    HW215375   4.058   2.505  17.649 -0.1953 -0.2586 -0.2855
 1305SOL     OW15376   3.770   2.531  12.899 -0.1291  0.7025 -0.3646
 1305SOL    HW115377   3.715   2.530  12.821  0.9063 -0.6345 -1.0810
 1305SOL    HW215378   3.847   2.488  12.860  0.8533  2.5047 -0.4062
 1306SOL     OW15379   1.368   4.109   1.683 -0.2314  0.6745 -0.3827
 1306SOL    HW115380   1.395   4.199   1.702  0.8432  0.1124  0.7709
 1306SOL    HW215381   1.283   4.101   1.726 -0.1852  3.1309  0.2021
 1307SOL     OW15382   3.709   1.635   1.798 -0.3740 -0.3266 -0.2482
 1307SOL    HW115383   3.714   1.711   1.855 -0.6265 -1.5003  1.3247
 1307SOL    HW215384   3.615   1.627   1.779 -0.0670  3.0613 -3.3695
 1308SOL     OW15385   0.994   2.271   3.812 -0.3691 -0.4226 -0.2237
 1308SOL    HW115386   0.918   2.214   3.827 -0.4935 -0.4054 -0.7781
 1308SOL    HW215387   1.054   2.233   3.877  0.8003  2.8386  0.6021
 1309SOL     OW15388   0.305   4.047   0.424  0.1559  0.0830 -0.0695
 1309SOL    HW115389   0.320   3.963   0.380  0.4652 -0.2592  0.7001
 1309SOL    HW215390   0.336   4.101   0.351  0.1434  2.8442  1.9797
 1310SOL     OW15391   1.928   0.292   5.529  0.1740  0.1790 -0.4173
 1310SOL    HW115392   1.864   0.223   5.508  0.1255  0.1523 -0.1926
 1310SOL    HW215393   1.896   0.318   5.616  0.8964  1.6713 -0.5996
 1311SOL     OW15394   3.877   1.794  11.377 -0.4004 -0.1567 -0.2963
 1311SOL    HW115395   3.966   1.800  11.410 -1.7180  2.3844  2.8293
 1311SOL    HW215396   3.885   1.807  11.282 -1.3441  1.4656 -0.1546
 1312SOL     OW15397   3.778   0.224   2.627  0.3303  0.6053 -0.8928
 1312SOL    HW115398   3.693   0.179   2.623  0.4059  0.4557 -0.8413
 1312SOL    HW215399   3.753   0.292   2.689 -0.3429 -0.9250  0.5314
 1313SOL     OW15400   4.655   4.707   0.478 -0.1325  0.0071 -0.4094
 1313SOL    HW115401   4.688   0.071   0.439 -1.2396  0.2995 -0.7200
 1313SOL    HW215402   4.658   0.020   0.569 -0.2098  0.5970 -0.5990
 1314SOL     OW15403   0.941   3.638   0.832 -0.7183  0.0745  0.0562
 1314SOL    HW115404   0.967   3.725   0.863  1.5332 -0.1106 -1.2655
 1314SOL    HW215405   0.923   3.648   0.738  2.1880 -1.4494 -0.6902
 1315SOL     OW15406   2.471   0.325   2.653  0.0992  0.3059  0.4889
 1315SOL    HW115407   2.402   0.272   2.613 -0.3966  2.4601 -1.5202
 1315SOL    HW215408   2.424   0.362   2.728 -1.2022  1.5905 -0.9633
 1316SOL     OW15409   2.437   2.255   5.073 -0.2996  0.2287  0.2897
 1316SOL    HW115410   2.379   2.322   5.108 -3.1738 -0.8839 -2.3893
 1316SOL    HW215411   2.444   2.280   4.981  1.9028 -0.3995  0.2695
 1317SOL     OW15412   0.582   1.700   3.240 -0.0506  0.0789 -0.7569
 1317SOL    HW115413   0.508   1.715   3.299 -0.2493 -2.7332 -0.2992
 1317SOL    HW215414   0.548   1.735   3.158  1.2287  1.0887 -0.8516
 1318SOL     OW15415   3.244   2.729   3.271 -0.7717  0.1141  0.0370
 1318SOL    HW115416   3.233   2.668   3.343 -2.0225 -1.6310 -1.6227
 1318SOL    HW215417   3.324   2.775   3.297  0.4931 -1.2314 -1.4393
 1319SOL     OW15418   1.380   2.103   6.592  0.2536  0.1762  0.1693
 1319SOL    HW115419   1.380   2.036   6.661 -2.8979 -0.2042 -0.1839
 1319SOL    HW215420   1.473   2.122   6.604  0.4115  1.0415 -2.4319
 1320SOL     OW15421   4.111   3.906   6.629 -0.1497  0.9160  0.2219
 1320SOL    HW115422   4.046   3.860   6.682  2.0486 -2.9146 -0.4151
 1320SOL    HW215423   4.161   3.830   6.603  1.6648  1.9219  0.7517
 1321SOL     OW15424   1.545   3.409  15.580  0.7813 -0.3062  0.0410
 1321SOL    HW115425   1.511   3.483  15.631  1.9628 -0.4933  1.1035
 1321SOL    HW215426   1.505   3.338  15.629  2.0086 -2.3629 -1.9204
 1322SOL     OW15427   3.722   1.603  12.294 -0.0004 -0.1485  0.5751
 1322SOL    HW115428   3.767   1.559  12.366 -0.6868 -0.5360  0.7714
 1322SOL    HW215429   3.782   1.597  12.220 -0.7375 -1.0077  0.0419
 1323SOL     OW15430   3.990   3.663   7.017  0.5095 -0.0100  0.4139
 1323SOL    HW115431   4.035   3.731   7.066  0.9781  0.2351 -0.3550
 1323SOL    HW215432   4.054   3.593   7.033 -0.4898 -0.1792  3.7576
 1324SOL     OW15433   3.602   0.606   4.889  0.1180 -0.1270  0.0090
 1324SOL    HW115434   3.563   0.522   4.912  2.1136 -1.7642 -2.5136
 1324SOL    HW215435   3.576   0.621   4.798 -2.5354 -1.3870  0.5803
 1325SOL     OW15436   0.862   4.148  17.221  0.0886 -0.0042 -0.1202
 1325SOL    HW115437   0.861   4.064  17.176  0.2459  0.5200 -1.1115
 1325SOL    HW215438   0.853   4.207  17.146 -1.2626  0.2323  0.2275
 1326SOL     OW15439   3.616   0.226  11.209  0.1225 -0.5353  0.4185
 1326SOL    HW115440   3.572   0.142  11.201 -2.9571  1.2545 -1.3759
 1326SOL    HW215441   3.541   0.281  11.233 -0.1603 -0.7600  0.0425
 1327SOL     OW15442   2.937   1.566   2.395  0.3726  0.2581 -0.5667
 1327SOL    HW115443   2.963   1.490   2.344  1.4889  1.7560 -2.2252
 1327SOL    HW215444   2.871   1.615   2.347  0.3876  0.3557 -0.4888
 1328SOL     OW15445   3.385   3.530   6.900  0.3275  0.0724  0.0147
 1328SOL    HW115446   3.470   3.548   6.860 -0.0405  0.1873 -0.7177
 1328SOL    HW215447   3.416   3.465   6.963  0.9435  0.7636  0.4263
 1329SOL     OW15448   2.188   2.007   6.375 -0.0343 -0.2354  0.6860
 1329SOL    HW115449   2.215   2.098   6.365  0.6353 -0.2039  2.8594
 1329SOL    HW215450   2.267   1.965   6.408  0.4841 -0.6321 -1.0898
 1330SOL     OW15451   3.227   2.805   6.216  0.3987 -0.5838  0.0321
 1330SOL    HW115452   3.286   2.822   6.143  0.9139  2.5190  1.1902
 1330SOL    HW215453   3.271   2.750   6.281  0.6946  3.2681  3.1358
 1331SOL     OW15454   3.640   0.155   2.183 -0.2343 -0.0246 -0.1479
 1331SOL    HW115455   3.708   0.088   2.172  0.7822  0.6382  2.1199
 1331SOL    HW215456   3.639   0.203   2.100 -1.2963  0.3253  0.0662
 1332SOL     OW15457   3.825   1.193   0.698  0.1450 -0.7343 -0.2896
 1332SOL    HW115458   3.808   1.103   0.672 -1.1958 -0.8336  0.9408
 1332SOL    HW215459   3.803   1.191   0.791  0.9847  0.2310 -0.0673
 1333SOL     OW15460   1.214   3.506   6.837  0.3783  0.2788  0.2212
 1333SOL    HW115461   1.145   3.470   6.783 -1.3125  0.7215  2.0929
 1333SOL    HW215462   1.157   3.571   6.879  0.4397  0.9396 -0.7321
 1334SOL     OW15463   0.735   2.655   7.823 -0.5716 -0.2083 -0.3234
 1334SOL    HW115464   0.775   2.739   7.847  0.3281 -0.5393 -0.6550
 1334SOL    HW215465   0.818   2.608   7.826 -0.0687  0.6435 -0.6524
 1335SOL     OW15466   3.230   2.536  10.426  0.4792  0.4612  0.2397
 1335SOL    HW115467   3.208   2.552  10.518 -2.9339  1.1338 -0.6747
 1335SOL    HW215468   3.314   2.581  10.428 -0.3952  2.1431 -0.5908
 1336SOL     OW15469   0.309   0.735  14.149  0.5213 -0.3086  0.2994
 1336SOL    HW115470   0.367   0.782  14.089  1.5115 -1.1607  0.5754
 1336SOL    HW215471   0.372   0.708  14.216  0.5230 -0.5708  0.1918
 1337SOL     OW15472   0.248   2.831   6.586 -0.5937 -0.1151 -0.2165
 1337SOL    HW115473   0.323   2.779   6.616 -2.1973 -3.0375 -1.3042
 1337SOL    HW215474   0.219   2.848   6.676  0.5582 -0.8548  0.2987
 1338SOL     OW15475   0.847   0.552   4.370  0.3766 -0.1360 -0.0681
 1338SOL    HW115476   0.908   0.512   4.308  1.5444 -0.1424  1.0785
 1338SOL    HW215477   0.898   0.627   4.401 -1.7414  1.4043 -0.3145
 1339SOL     OW15478   1.266   3.368  10.861  0.0046 -0.1604  0.2543
 1339SOL    HW115479   1.215   3.434  10.814  2.1102  0.3395 -1.3438
 1339SOL    HW215480   1.333   3.416  10.909  0.3022  1.5936 -1.8871
 1340SOL     OW15481   3.216   4.345   2.810 -0.1186 -0.1864  0.4141
 1340SOL    HW115482   3.232   4.263   2.858  1.5143  0.1652  0.4726
 1340SOL    HW215483   3.121   4.351   2.809 -0.0954 -0.1551 -1.2887
 1341SOL     OW15484   3.716   3.490  13.222  0.4873 -0.1871 -0.2982
 1341SOL    HW115485   3.751   3.506  13.310  1.5193 -1.1661 -0.5338
 1341SOL    HW215486   3.628   3.525  13.240 -0.0397 -1.2631 -0.7617
 1342SOL     OW15487   2.562   4.359   1.761 -0.9968 -0.9492  0.1259
 1342SOL    HW115488   2.488   4.419   1.771  0.0284  0.1277  1.3099
 1342SOL    HW215489   2.632   4.424   1.757 -3.9308  2.2788  0.7695
 1343SOL     OW15490   4.684   3.172   6.960 -0.2572  0.0215 -0.1915
 1343SOL    HW115491   4.634   3.119   7.022 -1.0885 -0.2840 -1.1155
 1343SOL    HW215492   4.625   3.247   6.955  2.2046  2.0057  0.8189
 1344SOL     OW15493   0.714   4.278   7.058  0.6480  0.3986  1.0764
 1344SOL    HW115494   0.692   4.358   7.010 -1.3750 -1.3720 -0.9659
 1344SOL    HW215495   0.636   4.256   7.109 -0.2320  1.8398  0.3398
 1345SOL     OW15496   0.173   2.577   4.542 -0.2535 -0.1432 -0.1170
 1345SOL    HW115497   0.113   2.625   4.485  0.4408  0.3077 -0.4739
 1345SOL    HW215498   0.130   2.597   4.625  0.4230  1.4515 -0.1389
 1346SOL     OW15499   0.749   1.092   7.496  0.3968  0.1394  0.2615
 1346SOL    HW115500   0.723   1.160   7.559 -2.3774  0.2588 -1.0394
 1346SOL    HW215501   0.733   1.134   7.412  0.9037  1.3265  0.7449
 1347SOL     OW15502   2.091   1.027   6.175  0.0154 -0.0898 -0.8563
 1347SOL    HW115503   2.178   0.990   6.189  1.2092  3.5275  1.3736
 1347SOL    HW215504   2.111   1.065   6.090  0.6044  3.2681  0.7638
 1348SOL     OW15505   1.645   0.923  13.990  0.3357 -0.2959  0.1553
 1348SOL    HW115506   1.598   0.857  14.041  0.2905 -0.7204 -0.4363
 1348SOL    HW215507   1.715   0.950  14.050  1.8918 -1.5483 -1.1266
 1349SOL     OW15508   0.421   2.661   0.334  0.0195 -0.6899 -0.0658
 1349SOL    HW115509   0.513   2.651   0.358 -0.0839 -0.7034  0.3294
 1349SOL    HW215510   0.395   2.720   0.405  0.4558 -0.9688  0.3242
 1350SOL     OW15511   4.447   4.268   8.517 -0.7651 -0.1747 -0.4583
 1350SOL    HW115512   4.511   4.280   8.587 -2.2691  0.6644  0.7745
 1350SOL    HW215513   4.362   4.260   8.562 -0.8278  1.7231 -0.2667
 1351SOL     OW15514   2.870   2.921  15.610  0.4167  0.4177  0.5245
 1351SOL    HW115515   2.887   3.015  15.611 -0.9603  0.6859 -1.7625
 1351SOL    HW215516   2.911   2.904  15.695 -1.1599 -0.5137  1.1104
 1352SOL     OW15517   2.098   3.624  10.169  0.0523 -0.0791 -0.7350
 1352SOL    HW115518   2.007   3.621  10.197 -0.4462  1.3255 -2.1599
 1352SOL    HW215519   2.091   3.690  10.100  2.5077  1.6340  0.6502
 1353SOL     OW15520   2.525   3.222  12.956 -0.1191 -0.3598 -0.0514
 1353SOL    HW115521   2.506   3.299  13.011  0.4667  0.1470 -0.5680
 1353SOL    HW215522   2.436   3.191  12.937 -0.0471 -1.4015  1.2797
 1354SOL     OW15523   4.149   2.140   7.227  0.2699  0.3663 -1.1158
 1354SOL    HW115524   4.230   2.120   7.180 -0.8011 -0.5319 -2.5839
 1354SOL    HW215525   4.179   2.190   7.303 -0.4670 -1.1239  0.1684
 1355SOL     OW15526   1.151   1.559   4.419  0.0089  0.1473 -0.1645
 1355SOL    HW115527   1.164   1.581   4.327  1.2173 -2.7148 -0.6848
 1355SOL    HW215528   1.117   1.470   4.408 -0.8837  0.2429  1.8686
 1356SOL     OW15529   0.561   1.534   8.263  0.0113  0.2317  0.6630
 1356SOL    HW115530   0.652   1.561   8.271  0.1079  0.4353 -1.2945
 1356SOL    HW215531   0.538   1.586   8.187 -1.7435 -1.3915  0.0714
 1357SOL     OW15532   0.174   4.245   8.177 -0.0893 -0.3650  0.3548
 1357SOL    HW115533   0.181   4.339   8.195  0.8292 -0.4823  0.6116
 1357SOL    HW215534   0.200   4.204   8.260 -1.2360  1.1826  1.4717
 1358SOL     OW15535   1.100   1.320   5.032 -0.0361 -0.2695  0.4854
 1358SOL    HW115536   1.186   1.331   4.991 -1.2221  1.2933 -1.6177
 1358SOL    HW215537   1.059   1.404   5.010 -1.3793 -1.0242  0.0954
 1359SOL     OW15538   3.749   4.428   2.116 -0.1036 -0.3213  0.1294
 1359SOL    HW115539   3.693   4.363   2.074 -0.9687  0.3172  0.2767
 1359SOL    HW215540   3.727   4.417   2.209 -1.3738 -0.7715 -0.2254
 1360SOL     OW15541   3.683   3.929  10.512 -0.1376  0.2922 -0.3083
 1360SOL    HW115542   3.719   3.928  10.423 -2.6372  0.9866 -1.3298
 1360SOL    HW215543   3.590   3.914  10.494 -0.2805 -1.0206  1.5677
 1361SOL     OW15544   1.717   0.320   0.273 -0.3765 -0.2267 -0.1687
 1361SOL    HW115545   1.687   0.338   0.362 -5.1995 -1.6814 -1.4937
 1361SOL    HW215546   1.785   0.387   0.265 -0.9662  0.4461  0.4613
 1362SOL     OW15547   3.661   0.260  16.719  0.3239 -0.4692 -0.3577
 1362SOL    HW115548   3.665   0.183  16.661 -1.7164 -0.3788 -0.5996
 1362SOL    HW215549   3.613   0.316  16.658 -0.8232  0.2903  1.2843
 1363SOL     OW15550   1.239   2.532  15.649  1.0832 -0.1634 -0.4827
 1363SOL    HW115551   1.155   2.560  15.613  0.2545 -1.3445  0.4913
 1363SOL    HW215552   1.239   2.580  15.732  1.1806  1.2984 -1.3355
 1364SOL     OW15553   1.753   3.649   7.643 -0.6979 -0.4885 -0.0575
 1364SOL    HW115554   1.674   3.658   7.591  0.6836  1.9108 -1.7558
 1364SOL    HW215555   1.824   3.698   7.601  1.4127 -2.0073  1.7067
 1365SOL     OW15556   4.209   1.324  17.542  0.1801 -0.4886  0.4093
 1365SOL    HW115557   4.301   1.348  17.557  0.1052  0.9921 -1.4327
 1365SOL    HW215558   4.165   1.397  17.586  0.6268  0.5111 -0.7944
 1366SOL     OW15559   2.663   3.401  15.424 -0.4795  0.3601  0.2167
 1366SOL    HW115560   2.690   3.485  15.387  2.0546 -0.8519 -0.6356
 1366SOL    HW215561   2.593   3.371  15.366  0.5291 -0.9522 -0.3123
 1367SOL     OW15562   3.557   2.724  12.188  0.1072 -0.4455 -0.3111
 1367SOL    HW115563   3.505   2.804  12.188  0.2977 -0.3088 -2.4313
 1367SOL    HW215564   3.515   2.677  12.116 -1.0832  1.4632 -0.8439
 1368SOL     OW15565   0.198   0.033  14.358  0.3230  0.4532 -0.2608
 1368SOL    HW115566   0.191   0.055  14.265  0.7112  4.7861  0.7559
 1368SOL    HW215567   0.257   0.100  14.393  0.1327 -0.5205  1.8963
 1369SOL     OW15568   3.560   1.399  11.935  0.5936 -0.0120  0.1431
 1369SOL    HW115569   3.613   1.371  11.861  1.7687  1.2620  0.4982
 1369SOL    HW215570   3.539   1.488  11.906 -0.1128  0.2503  1.4369
 1370SOL     OW15571   0.243   0.698   1.800 -0.5933  0.0122  0.0172
 1370SOL    HW115572   0.241   0.660   1.712 -0.3586 -2.5257  1.0939
 1370SOL    HW215573   0.309   0.642   1.841  0.2095  2.0683  1.5291
 1371SOL     OW15574   1.240   1.761   8.179 -0.1110 -0.1728  0.2936
 1371SOL    HW115575   1.223   1.672   8.209  1.1351 -0.3502  0.4749
 1371SOL    HW215576   1.194   1.764   8.095  0.5968 -0.0366 -0.0930
 1372SOL     OW15577   3.371   0.234   8.948 -0.7320 -0.3852 -0.6903
 1372SOL    HW115578   3.386   0.140   8.963  2.9118  0.3829  0.6277
 1372SOL    HW215579   3.284   0.239   8.909 -1.1462 -0.2387  0.2491
 1373SOL     OW15580   4.593   0.515   0.018 -0.1069  0.4149  0.3505
 1373SOL    HW115581   4.608   0.585   0.082 -0.1458  0.3997  0.3762
 1373SOL    HW215582   4.583   0.437   0.073  0.8224 -0.1180 -0.2280
 1374SOL     OW15583   3.617   1.779   7.195  0.1832 -0.2762 -0.4619
 1374SOL    HW115584   3.576   1.749   7.114  0.5311  0.1453 -0.7965
 1374SOL    HW215585   3.654   1.860   7.161  2.3576 -0.6433  0.9996
 1375SOL     OW15586   4.094   2.155   4.333  0.4146  0.8054  0.0962
 1375SOL    HW115587   4.086   2.207   4.253  0.1407 -0.2938 -0.5845
 1375SOL    HW215588   4.011   2.108   4.341  2.2461 -2.8297 -2.4792
 1376SOL     OW15589   1.315   3.160   9.914 -0.5929  0.6336 -0.2543
 1376SOL    HW115590   1.309   3.131   9.823 -1.5341 -0.0700  0.0294
 1376SOL    HW215591   1.275   3.080   9.948  1.1661  0.8744  2.3886
 1377SOL     OW15592   2.027   0.199  15.069 -0.1477  0.0614  0.0973
 1377SOL    HW115593   1.932   0.194  15.083 -0.6960  1.4718 -2.9859
 1377SOL    HW215594   2.053   0.278  15.117 -1.5453  0.2234  0.6044
 1378SOL     OW15595   4.167   0.996  16.343  0.2268  0.1992  1.0647
 1378SOL    HW115596   4.138   1.022  16.430 -0.9635 -0.7248  0.9347
 1378SOL    HW215597   4.262   1.001  16.356  0.5755 -0.3568 -1.3477
 1379SOL     OW15598   3.051   0.760  15.806 -0.0811 -0.1132  0.1575
 1379SOL    HW115599   3.062   0.676  15.850  0.8423 -0.7106 -1.2274
 1379SOL    HW215600   3.100   0.744  15.725 -1.3205 -0.8035 -0.4529
 1380SOL     OW15601   3.797   1.639   4.010 -0.4036 -0.0122 -0.1948
 1380SOL    HW115602   3.784   1.734   4.012  0.6203  0.1326 -0.5838
 1380SOL    HW215603   3.777   1.621   4.102  1.1479  1.1274  0.3746
 1381SOL     OW15604   2.183   3.951   0.618 -0.3289 -0.1963  0.5450
 1381SOL    HW115605   2.134   3.989   0.692 -1.0665  1.4079 -0.7618
 1381SOL    HW215606   2.105   3.923   0.571  1.1765 -0.2347 -1.9029
 1382SOL     OW15607   3.296   1.123  13.584  0.3836 -0.3339 -0.1172
 1382SOL    HW115608   3.310   1.154  13.673  0.0560 -0.6371  0.0406
 1382SOL    HW215609   3.219   1.068  13.594  0.6685 -1.4082 -3.7366
 1383SOL     OW15610   0.532   0.400   0.900  0.6711  0.3303 -0.4394
 1383SOL    HW115611   0.468   0.390   0.971 -0.2251  0.5729 -1.2213
 1383SOL    HW215612   0.474   0.397   0.824  1.9990 -0.3129 -1.4216
 1384SOL     OW15613   2.928   0.291   7.431  0.2948  0.0032  0.5335
 1384SOL    HW115614   2.999   0.322   7.374 -0.0285 -0.0143  0.1219
 1384SOL    HW215615   2.883   0.234   7.369 -0.8222  0.2419  1.1356
 1385SOL     OW15616   4.035   4.635   6.094 -0.8460 -0.0499  0.6204
 1385SOL    HW115617   3.972   4.707   6.101  0.0565  0.9353 -1.2833
 1385SOL    HW215618   4.113   4.689   6.107 -0.3565 -0.2379 -1.4983
 1386SOL     OW15619   0.445   1.351   4.119  1.1577  0.2074  0.2346
 1386SOL    HW115620   0.520   1.373   4.175  0.0723  0.1800  1.6943
 1386SOL    HW215621   0.413   1.440   4.108 -2.0512 -1.0061 -0.3890
 1387SOL     OW15622   4.289   2.908   5.103  1.0178  0.6286 -0.3854
 1387SOL    HW115623   4.228   2.975   5.135  1.4034  0.1816  1.2947
 1387SOL    HW215624   4.231   2.848   5.056  1.9791 -0.5053 -0.1401
 1388SOL     OW15625   2.471   1.396   4.024  0.3731  0.0366 -0.5327
 1388SOL    HW115626   2.506   1.364   4.107  2.4810  2.1547 -0.6083
 1388SOL    HW215627   2.468   1.317   3.970  0.4782 -0.1991 -0.1955
 1389SOL     OW15628   4.516   2.586   0.476  0.0942  0.0231  0.8058
 1389SOL    HW115629   4.470   2.669   0.460  0.2293 -0.1202 -0.3244
 1389SOL    HW215630   4.454   2.548   0.539  1.1512  1.1711  2.5431
 1390SOL     OW15631   0.371   3.503   6.826  0.1555 -0.4184  0.1013
 1390SOL    HW115632   0.362   3.567   6.897  0.1132 -0.2965 -0.0135
 1390SOL    HW215633   0.297   3.444   6.840  0.3289 -1.3623 -2.9624
 1391SOL     OW15634   3.032   2.130  16.221  0.7400 -0.0163 -0.1024
 1391SOL    HW115635   3.053   2.056  16.163 -1.7871 -1.2358  0.5438
 1391SOL    HW215636   2.956   2.087  16.261  0.2021  0.4959 -0.5850
 1392SOL     OW15637   0.248   3.511  14.103 -0.5551 -0.0481 -0.1387
 1392SOL    HW115638   0.198   3.448  14.051  0.4574 -0.1086 -1.0374
 1392SOL    HW215639   0.194   3.492  14.179  0.6797  2.5448  1.4057
 1393SOL     OW15640   2.496   3.108   3.303 -0.2081  0.4434 -0.7119
 1393SOL    HW115641   2.413   3.062   3.295  1.7984 -3.5149  1.2391
 1393SOL    HW215642   2.474   3.169   3.374  0.7452 -0.3071  0.2329
 1394SOL     OW15643   0.962   3.533   5.172 -0.4462 -0.4744 -0.4962
 1394SOL    HW115644   0.957   3.546   5.078  3.3372  1.3549 -0.4543
 1394SOL    HW215645   1.056   3.530   5.191 -0.4509 -2.8289 -0.8501
 1395SOL     OW15646   1.439   4.176  11.093 -0.2519  0.5294 -0.1280
 1395SOL    HW115647   1.402   4.177  11.182 -0.0938 -2.6965 -0.0027
 1395SOL    HW215648   1.367   4.137  11.042  1.1080  0.1812 -1.7642
 1396SOL     OW15649   4.674   3.872  10.116 -0.5514 -0.1966 -0.4536
 1396SOL    HW115650   4.672   3.871  10.020 -4.2024  1.0924 -0.4085
 1396SOL    HW215651   4.636   3.954  10.149 -0.7874 -0.2029 -0.7093
 1397SOL     OW15652   3.825   1.862   8.853  0.2708  0.4811 -0.2407
 1397SOL    HW115653   3.758   1.796   8.873  0.2078  0.9202  1.0095
 1397SOL    HW215654   3.832   1.887   8.945 -1.4174 -1.9773  0.5731
 1398SOL     OW15655   4.490   0.176  10.514  0.5675  0.3686 -0.3152
 1398SOL    HW115656   4.547   0.249  10.539 -0.5884  1.7385 -1.7162
 1398SOL    HW215657   4.427   0.177  10.586 -0.6625  0.5154 -1.3948
 1399SOL     OW15658   0.305   0.323   5.268  0.3177  0.0345  0.0111
 1399SOL    HW115659   0.279   0.261   5.336  0.8973 -0.7972 -0.5391
 1399SOL    HW215660   0.352   0.267   5.206 -1.1382  0.9927 -1.9760
 1400SOL     OW15661   0.003   4.306   5.766 -0.5203 -0.4374  0.6142
 1400SOL    HW115662   4.706   4.398   5.789 -1.7789 -0.3862 -0.3674
 1400SOL    HW215663   4.639   4.271   5.804 -0.7448  2.1741  2.5032
 1401SOL     OW15664   1.131   4.068  13.637 -0.1458  0.0657  0.2727
 1401SOL    HW115665   1.047   4.104  13.666 -0.6851 -0.1234 -1.0586
 1401SOL    HW215666   1.128   3.975  13.658  1.4890 -0.7586 -3.1864
 1402SOL     OW15667   1.582   1.214   7.864 -0.0707 -0.2699 -1.1060
 1402SOL    HW115668   1.655   1.158   7.888  0.5345  1.2495  0.6518
 1402SOL    HW215669   1.588   1.237   7.771 -0.4826 -1.2396 -1.3706
 1403SOL     OW15670   1.808   1.556   4.651  0.9324  0.1797 -0.5005
 1403SOL    HW115671   1.779   1.647   4.658  1.0538  0.0080  2.2699
 1403SOL    HW215672   1.875   1.576   4.586  2.2044 -4.1071 -0.5132
 1404SOL     OW15673   4.070   0.127   4.307 -0.2114 -0.0217 -0.4071
 1404SOL    HW115674   4.159   0.108   4.337 -0.7525  0.0827  1.3063
 1404SOL    HW215675   4.082   0.213   4.267 -0.8057  0.2220 -0.0775
 1405SOL     OW15676   0.793   2.368  10.852  0.7555 -0.0650  0.1917
 1405SOL    HW115677   0.790   2.427  10.927 -1.4932 -1.4292  1.1707
 1405SOL    HW215678   0.834   2.423  10.785 -1.4619 -1.5098 -2.3781
 1406SOL     OW15679   2.935   3.592   0.749 -0.6831  0.7375  0.1291
 1406SOL    HW115680   3.002   3.561   0.688 -2.5958  2.5612 -2.9615
 1406SOL    HW215681   2.851   3.592   0.702 -1.2958 -1.2887  1.2403
 1407SOL     OW15682   1.070   3.416   3.262 -0.4630 -0.5618  0.4297
 1407SOL    HW115683   1.152   3.453   3.230 -0.5290 -2.7806 -2.2802
 1407SOL    HW215684   1.093   3.411   3.355  4.1095 -1.3248 -0.7572
 1408SOL     OW15685   2.514   3.473  13.078 -0.1539  0.3389 -0.0945
 1408SOL    HW115686   2.442   3.495  13.020 -1.6309 -3.8502  0.1707
 1408SOL    HW215687   2.583   3.516  13.026 -1.3735  1.4561 -0.7876
 1409SOL     OW15688   4.602   4.546  10.726  0.4638  0.2619  0.2966
 1409SOL    HW115689   4.650   4.497  10.793  0.4694 -3.1835 -2.2128
 1409SOL    HW215690   4.651   4.521  10.648  0.5296  0.4713  0.2702
 1410SOL     OW15691   1.654   1.635   8.610  0.4752  0.2654 -0.0893
 1410SOL    HW115692   1.584   1.592   8.660  0.6483 -0.6073 -0.5955
 1410SOL    HW215693   1.704   1.564   8.571 -0.1713  0.3532 -1.0853
 1411SOL     OW15694   3.829   0.775   5.068  0.2621  0.4785  0.1739
 1411SOL    HW115695   3.891   0.846   5.088  1.3874 -0.9979  1.9865
 1411SOL    HW215696   3.828   0.724   5.149  0.7902  2.4038  1.4202
 1412SOL     OW15697   1.262   1.606   6.295 -0.8048 -0.0352  0.1133
 1412SOL    HW115698   1.265   1.595   6.390  1.4259 -0.7124 -0.0457
 1412SOL    HW215699   1.348   1.577   6.267 -0.0973  0.7967  1.4080
 1413SOL     OW15700   2.978   3.731   4.321  0.0881 -0.0338 -0.3900
 1413SOL    HW115701   3.016   3.778   4.246 -0.5879  0.0662 -0.6659
 1413SOL    HW215702   2.938   3.799   4.375 -0.2977 -0.1870 -0.4872
 1414SOL     OW15703   1.855   1.896   5.538  0.6030 -0.6206 -0.0724
 1414SOL    HW115704   1.780   1.849   5.499 -1.5636  1.9625  1.0505
 1414SOL    HW215705   1.920   1.898   5.467 -0.2753 -0.5246 -0.8829
 1415SOL     OW15706   1.236   1.682   6.745 -0.2133  0.4574  0.3543
 1415SOL    HW115707   1.190   1.598   6.747 -0.7372  0.7105 -0.9131
 1415SOL    HW215708   1.308   1.662   6.685  0.6809 -2.1236  2.3065
 1416SOL     OW15709   0.487   2.398   4.065 -0.3570  0.0054 -0.1127
 1416SOL    HW115710   0.402   2.373   4.099 -0.4249  0.6402  0.1861
 1416SOL    HW215711   0.472   2.368   3.975  0.7888  1.1284 -0.6866
 1417SOL     OW15712   3.568   2.224   7.517 -0.2196 -0.1924  0.2542
 1417SOL    HW115713   3.578   2.217   7.422 -2.7327  0.5285 -0.0860
 1417SOL    HW215714   3.481   2.263   7.531 -0.5082 -0.2765 -1.2798
 1418SOL     OW15715   2.961   1.479  16.391  0.2560 -0.7090  0.9287
 1418SOL    HW115716   2.878   1.433  16.402 -1.8968  2.2409 -2.9371
 1418SOL    HW215717   3.026   1.409  16.390  0.9667 -0.0379  0.5677
 1419SOL     OW15718   2.153   0.061   2.971  0.3634  0.3192 -0.3185
 1419SOL    HW115719   2.058   0.074   2.976  0.1275 -2.0044  0.9617
 1419SOL    HW215720   2.179   0.079   3.061  1.6444  1.5588 -0.9233
 1420SOL     OW15721   1.604   2.256   3.189  0.2814  0.2603  0.3028
 1420SOL    HW115722   1.538   2.324   3.206  1.5781  1.6934 -0.3401
 1420SOL    HW215723   1.554   2.196   3.134 -1.7992  0.7525  1.6540
 1421SOL     OW15724   0.425   2.925   9.372  0.5523  0.0442  0.6779
 1421SOL    HW115725   0.365   2.876   9.428  0.8091  1.6849  2.3996
 1421SOL    HW215726   0.377   3.008   9.370 -0.1358 -0.4088 -1.4122
 1422SOL     OW15727   0.257   2.764   9.504  0.2078 -0.2251  0.0171
 1422SOL    HW115728   0.171   2.757   9.547 -0.2547 -0.6933 -0.9650
 1422SOL    HW215729   0.240   2.715   9.423 -0.6685 -2.2708  1.4291
 1423SOL     OW15730   3.746   3.973  16.640 -0.3667 -0.0624 -0.2833
 1423SOL    HW115731   3.675   4.035  16.655 -0.6611 -0.9033  1.7606
 1423SOL    HW215732   3.795   3.980  16.722 -0.1454 -0.3682 -0.3860
 1424SOL     OW15733   2.619   1.100   7.550 -0.2369 -0.5156  0.1535
 1424SOL    HW115734   2.548   1.145   7.597 -1.5396 -2.0514 -0.3420
 1424SOL    HW215735   2.653   1.170   7.494 -2.2309  1.7981  1.8038
 1425SOL     OW15736   1.109   4.086  11.494 -0.9119 -0.3096  0.0325
 1425SOL    HW115737   1.164   4.054  11.566  1.2603 -0.2596 -1.6163
 1425SOL    HW215738   1.078   4.162  11.544  1.0034  1.3283 -1.2576
 1426SOL     OW15739   4.244   1.174   9.021  0.2491 -1.5214 -0.4931
 1426SOL    HW115740   4.297   1.198   8.945  0.7162 -0.7207  0.0833
 1426SOL    HW215741   4.247   1.080   9.005 -0.5160 -1.7658  0.8118
 1427SOL     OW15742   3.317   0.980   5.638  0.4436  0.6678 -0.3166
 1427SOL    HW115743   3.299   0.902   5.585  0.4803  1.2688 -1.2294
 1427SOL    HW215744   3.244   0.971   5.698 -0.4490  0.5211 -1.4219
 1428SOL     OW15745   0.921   4.519   5.646 -0.1159  0.0333  0.0460
 1428SOL    HW115746   0.860   4.579   5.690 -0.5154 -0.5131  0.2369
 1428SOL    HW215747   0.919   4.556   5.558 -1.7953  0.4882  0.2685
 1429SOL     OW15748   2.348   0.933  17.607  0.1711 -0.2377  0.1563
 1429SOL    HW115749   2.413   0.887  17.554  1.4890  0.3712  1.2567
 1429SOL    HW215750   2.378   0.919   0.027  2.0642 -1.4883 -0.6707
 1430SOL     OW15751   0.127   4.082  17.232 -0.4188  0.2401  0.2216
 1430SOL    HW115752   0.085   4.107  17.315 -1.5381  0.6582 -0.4687
 1430SOL    HW215753   0.198   4.146  17.232 -1.1568  1.0594  0.3878
 1431SOL     OW15754   4.026   3.294   9.797 -0.7417 -0.3863  0.6775
 1431SOL    HW115755   4.084   3.293   9.721  0.8038 -0.1094  1.8682
 1431SOL    HW215756   4.009   3.200   9.795 -0.2647 -0.4528 -0.4511
 1432SOL     OW15757   0.199   3.864   9.637 -0.0886 -0.2717  0.1468
 1432SOL    HW115758   0.137   3.935   9.652 -0.8890 -0.6586 -1.3583
 1432SOL    HW215759   0.237   3.839   9.722 -0.0843 -1.6439 -0.2665
 1433SOL     OW15760   1.671   2.172  11.673 -0.5285 -0.1053 -0.3412
 1433SOL    HW115761   1.590   2.210  11.707  0.3218  2.8172 -1.6138
 1433SOL    HW215762   1.710   2.143  11.756 -2.4219 -0.1259  0.5249
 1434SOL     OW15763   1.614   0.801   7.114  1.1581 -0.8212  0.0923
 1434SOL    HW115764   1.588   0.730   7.172 -0.0668  0.2794  0.8750
 1434SOL    HW215765   1.710   0.803   7.118  1.1120 -1.9850  1.5529
 1435SOL     OW15766   3.527   2.974   7.609  0.7057  0.1098  0.1199
 1435SOL    HW115767   3.523   3.055   7.660  0.2036  0.4623 -0.4792
 1435SOL    HW215768   3.472   2.925   7.670  0.3694 -0.4764 -0.6418
 1436SOL     OW15769   3.832   1.899   4.369 -0.0471  0.0254  0.1051
 1436SOL    HW115770   3.807   1.991   4.364 -3.4291 -0.9177 -0.1836
 1436SOL    HW215771   3.767   1.864   4.430 -0.2642 -3.2342 -1.9432
 1437SOL     OW15772   3.928   3.623   9.194  0.9079  0.2142  0.1505
 1437SOL    HW115773   3.923   3.530   9.214  3.6951  0.5066  2.2618
 1437SOL    HW215774   3.919   3.663   9.280 -0.9249 -1.2978  0.6478
 1438SOL     OW15775   0.452   0.247   7.931 -1.1767  0.1345 -0.1167
 1438SOL    HW115776   0.529   0.255   7.875 -1.0565 -0.8361 -0.0956
 1438SOL    HW215777   0.421   0.337   7.940  1.2999  0.8012  1.5313
 1439SOL     OW15778   1.185   2.125   5.752 -0.2835  0.1684  0.4329
 1439SOL    HW115779   1.184   2.136   5.657 -1.5214 -1.8983  0.2209
 1439SOL    HW215780   1.234   2.043   5.762 -0.2531  0.1332 -0.0268
 1440SOL     OW15781   3.717   3.285   2.501 -0.3499  0.1086 -0.1348
 1440SOL    HW115782   3.788   3.327   2.549 -0.6350 -0.3463  0.6850
 1440SOL    HW215783   3.686   3.354   2.443 -0.2512 -1.4024 -1.9926
 1441SOL     OW15784   2.651   2.029   5.899  0.1579 -0.5403  0.3689
 1441SOL    HW115785   2.649   2.095   5.968  0.1963 -0.9725  0.7903
 1441SOL    HW215786   2.701   1.958   5.940 -1.0730 -1.4575  0.3098
 1442SOL     OW15787   3.499   1.863   4.958  0.2527 -0.1122 -0.5882
 1442SOL    HW115788   3.460   1.776   4.972 -0.9111  0.2498 -1.5638
 1442SOL    HW215789   3.594   1.851   4.960  0.2013 -0.5160 -0.3908
 1443SOL     OW15790   3.014   0.086   5.977 -0.0362  0.2378  0.1972
 1443SOL    HW115791   3.053   0.017   6.032  0.8761 -0.8107 -1.7754
 1443SOL    HW215792   3.082   0.153   5.987  2.2173 -1.9508 -0.4913
 1444SOL     OW15793   2.257   0.946   8.769 -0.4130  0.2806  0.2658
 1444SOL    HW115794   2.292   0.922   8.855 -0.8094  0.2598  0.4204
 1444SOL    HW215795   2.199   0.871   8.753 -0.8895  0.6258  0.3549
 1445SOL     OW15796   4.395   3.660   7.935  0.0120  0.3158 -0.3106
 1445SOL    HW115797   4.386   3.691   8.026 -1.4448  1.6133 -0.8928
 1445SOL    HW215798   4.302   3.653   7.916 -0.4238  2.5296  0.8839
 1446SOL     OW15799   0.245   4.223   3.201 -0.2562 -0.3227 -0.3193
 1446SOL    HW115800   0.169   4.168   3.219  0.5541 -1.4756 -0.3864
 1446SOL    HW215801   0.203   4.295   3.154 -1.2608 -0.5739  0.2042
 1447SOL     OW15802   2.639   4.335   7.735  0.9456  0.5129 -0.0204
 1447SOL    HW115803   2.573   4.381   7.682 -0.6899 -0.3710  1.2720
 1447SOL    HW215804   2.644   4.390   7.813  0.2411 -0.4148  0.6844
 1448SOL     OW15805   3.550   3.359  15.276 -0.0063  0.3422 -0.1621
 1448SOL    HW115806   3.550   3.441  15.228  0.0864  1.5280  1.8591
 1448SOL    HW215807   3.489   3.306  15.225  0.5147  1.4987 -1.9755
 1449SOL     OW15808   4.426   0.125   1.575 -0.2041 -0.1476  0.7152
 1449SOL    HW115809   4.359   0.139   1.642  2.6742 -0.4519  3.6722
 1449SOL    HW215810   4.395   0.041   1.540 -2.1827  1.1908 -0.7345
 1450SOL     OW15811   2.162   1.565  14.659  0.1944 -0.1886 -0.4648
 1450SOL    HW115812   2.150   1.647  14.709  1.0140 -0.0974 -0.4244
 1450SOL    HW215813   2.184   1.590  14.570 -0.0928  1.9476  0.0488
 1451SOL     OW15814   4.082   4.053   3.958 -0.0165 -0.2972  0.3206
 1451SOL    HW115815   3.997   4.023   3.928 -0.2693  0.4009  0.3301
 1451SOL    HW215816   4.055   4.085   4.044 -0.4692  1.3872 -0.4388
 1452SOL     OW15817   4.024   0.758   9.746 -0.1424 -0.2539 -0.1906
 1452SOL    HW115818   3.998   0.753   9.654 -0.1857  0.6272 -0.2252
 1452SOL    HW215819   3.960   0.708   9.797 -3.4868  1.5559 -2.5714
 1453SOL     OW15820   0.554   3.748   2.344  0.2388 -0.1931 -0.2376
 1453SOL    HW115821   0.607   3.724   2.420  2.1152  1.6539 -0.9316
 1453SOL    HW215822   0.607   3.821   2.311  0.2803  0.3459  0.9915
 1454SOL     OW15823   3.178   4.404   7.799 -0.1326 -0.0447  0.2385
 1454SOL    HW115824   3.104   4.345   7.789 -0.3791  0.2445  0.3674
 1454SOL    HW215825   3.181   4.420   7.893  0.3065  2.1227 -0.1503
 1455SOL     OW15826   0.117   4.680   5.122  0.4740  0.4420  0.5758
 1455SOL    HW115827   0.030   4.685   5.162  0.7120 -1.8670  1.3312
 1455SOL    HW215828   0.113   0.043   5.069  2.2473  0.7494  0.9177
 1456SOL     OW15829   3.598   0.691  14.922  0.1403 -0.3199 -0.0666
 1456SOL    HW115830   3.600   0.652  15.009  1.3283 -0.7707 -0.2909
 1456SOL    HW215831   3.654   0.768  14.933  1.3834 -1.1052 -0.8169
 1457SOL     OW15832   3.749   1.158  11.215  0.4810 -0.3002 -0.0514
 1457SOL    HW115833   3.671   1.199  11.177 -0.1250 -1.7684 -0.3978
 1457SOL    HW215834   3.806   1.233  11.229 -1.3612  1.9359 -4.4183
 1458SOL     OW15835   1.079   2.226  17.242  0.1363  0.0455  0.1856
 1458SOL    HW115836   1.079   2.322  17.238  0.9532 -0.0249 -1.2047
 1458SOL    HW215837   1.003   2.216  17.185 -0.4491  1.1216  0.7646
 1459SOL     OW15838   4.658   1.790   8.280  0.2162  0.6217 -1.1681
 1459SOL    HW115839   0.025   1.778   8.235  0.3498  1.5336 -1.1509
 1459SOL    HW215840   4.692   1.824   8.362 -0.6265  0.3899 -0.7186
 1460SOL     OW15841   3.247   4.052  16.345 -0.1155 -0.1843  0.1720
 1460SOL    HW115842   3.280   4.126  16.294 -1.0018 -1.5060 -2.3016
 1460SOL    HW215843   3.290   4.079  16.426  0.7225 -0.9162 -0.0360
 1461SOL     OW15844   1.418   1.621  10.119  0.6956 -0.1695 -0.2905
 1461SOL    HW115845   1.408   1.689  10.186  0.3710 -2.5079  2.0392
 1461SOL    HW215846   1.392   1.664  10.038  1.3946  0.3165 -0.2520
 1462SOL     OW15847   2.725   4.465  13.765  0.7145 -0.0297  0.4044
 1462SOL    HW115848   2.761   4.533  13.822  0.8319 -0.3813  0.7495
 1462SOL    HW215849   2.706   4.515  13.686  1.4111 -0.2446  0.0939
 1463SOL     OW15850   2.447   1.736   8.675  0.3622 -0.6746 -0.9117
 1463SOL    HW115851   2.461   1.700   8.587  0.7165 -0.5192 -0.9188
 1463SOL    HW215852   2.474   1.665   8.733 -0.1904  0.5614  0.8600
 1464SOL     OW15853   3.407   2.953   2.158  0.5998  0.3252 -0.6846
 1464SOL    HW115854   3.492   2.937   2.199  0.6542  0.2910 -0.8109
 1464SOL    HW215855   3.420   3.012   2.084  0.3584  1.4377  0.1633
 1465SOL     OW15856   0.131   3.436   7.235 -0.1620  0.2109 -0.0615
 1465SOL    HW115857   0.186   3.365   7.266 -0.1384 -0.0776 -0.7695
 1465SOL    HW215858   0.169   3.463   7.151  2.3965  0.6419  1.2630
 1466SOL     OW15859   0.348   4.326   3.433 -0.0189 -0.4047  0.3701
 1466SOL    HW115860   0.313   4.284   3.354  1.7014 -0.0601 -0.5720
 1466SOL    HW215861   0.405   4.389   3.390  0.9871 -0.1782  2.0361
 1467SOL     OW15862   2.991   4.488   1.371 -0.2448 -1.0352  0.2799
 1467SOL    HW115863   3.055   4.544   1.327  0.1083 -0.4219  1.5876
 1467SOL    HW215864   3.039   4.471   1.452  0.9278  1.0999  0.0386
 1468SOL     OW15865   0.527   3.489   8.634  0.1127 -0.4934 -0.0215
 1468SOL    HW115866   0.474   3.440   8.571  0.3269 -1.4735  0.5617
 1468SOL    HW215867   0.616   3.468   8.606  0.2307  1.4072 -1.1025
 1469SOL     OW15868   4.454   3.068   8.591  0.0531  0.1257  0.2662
 1469SOL    HW115869   4.363   3.076   8.564 -0.2811 -1.7282  0.8120
 1469SOL    HW215870   4.441   3.010   8.667  2.2973  0.0161  0.5549
 1470SOL     OW15871   1.220   1.138   4.186  0.0073  0.1429  0.5684
 1470SOL    HW115872   1.298   1.104   4.230  0.9746  0.8686 -0.5922
 1470SOL    HW215873   1.252   1.148   4.096  2.9293 -2.0513  1.3391
 1471SOL     OW15874   4.010   4.277   8.977  0.3067 -0.5777  0.0746
 1471SOL    HW115875   4.017   4.204   8.915 -0.9968 -0.8248  0.2180
 1471SOL    HW215876   4.021   4.348   8.914 -1.6452  0.2022  0.6120
 1472SOL     OW15877   1.680   3.677   1.780 -0.0697  0.2647  0.1388
 1472SOL    HW115878   1.677   3.701   1.688 -0.4737  0.7833  0.2879
 1472SOL    HW215879   1.657   3.584   1.781  0.1485  0.2138  0.4517
 1473SOL     OW15880   3.055   4.029   7.131 -0.0202 -0.0028  0.3999
 1473SOL    HW115881   3.115   4.036   7.205  0.9531  0.5534 -0.4410
 1473SOL    HW215882   3.110   4.086   7.078 -0.0945  0.2409  0.5881
 1474SOL     OW15883   3.776   0.374  10.987 -0.5058 -0.1911 -0.0300
 1474SOL    HW115884   3.771   0.415  10.901 -2.7737  1.9120  1.1095
 1474SOL    HW215885   3.783   0.444  11.052  1.3288 -1.0973  0.7430
 1475SOL     OW15886   4.392   3.730  15.093  0.5056 -0.5632 -0.0055
 1475SOL    HW115887   4.476   3.695  15.124  1.0885 -0.7591 -1.7979
 1475SOL    HW215888   4.365   3.660  15.033 -1.4330  0.4697 -0.3356
 1476SOL     OW15889   0.815   2.591  11.581 -0.0897  0.7537 -0.5824
 1476SOL    HW115890   0.882   2.654  11.607  0.7877 -0.1422 -0.6829
 1476SOL    HW215891   0.822   2.526  11.651  0.7871  1.5613  0.0736
 1477SOL     OW15892   1.654   0.271   5.950 -0.2350  0.2047  0.2864
 1477SOL    HW115893   1.606   0.347   5.917  0.0838 -0.7587 -2.3865
 1477SOL    HW215894   1.714   0.261   5.876 -0.6991  0.2059 -0.0873
 1478SOL     OW15895   1.060   0.166   3.168  0.3320 -0.2274  0.3154
 1478SOL    HW115896   1.039   0.258   3.153  2.3086 -0.2102 -2.4578
 1478SOL    HW215897   1.078   0.140   3.077  1.0733 -0.5637  0.5526
 1479SOL     OW15898   1.060   2.020   2.665  0.5993 -0.3545  0.3764
 1479SOL    HW115899   0.967   2.033   2.645  0.8487 -2.6433 -2.3585
 1479SOL    HW215900   1.087   2.110   2.652 -0.4541  0.1702  1.8068
 1480SOL     OW15901   1.648   4.193   1.981  0.6307  0.3072  0.9385
 1480SOL    HW115902   1.601   4.231   1.907 -0.4296 -1.2487  0.7942
 1480SOL    HW215903   1.604   4.113   2.011  1.7805 -0.7683 -0.1923
 1481SOL     OW15904   3.081   0.435   8.802  0.2017 -0.1224  0.1388
 1481SOL    HW115905   3.028   0.375   8.749 -0.5658  0.4607  0.2524
 1481SOL    HW215906   3.073   0.379   8.880  1.4705 -1.8464 -0.9595
 1482SOL     OW15907   2.383   1.986   3.333 -0.3560  0.3138 -0.2706
 1482SOL    HW115908   2.313   1.922   3.341 -0.8780  1.0240  0.9003
 1482SOL    HW215909   2.456   1.926   3.317 -0.1086  0.5659 -0.0881
 1483SOL     OW15910   4.244   0.166   3.686  0.3117  0.0308 -0.3445
 1483SOL    HW115911   4.154   0.133   3.681  0.5140 -1.0632  3.3119
 1483SOL    HW215912   4.237   0.199   3.776  0.5030 -1.0331  0.0656
 1484SOL     OW15913   1.186   4.182   7.030 -0.4868 -0.5293  0.1076
 1484SOL    HW115914   1.269   4.206   7.072 -1.0674 -0.6642  1.3484
 1484SOL    HW215915   1.191   4.241   6.955 -0.4115 -0.0620  0.4739
 1485SOL     OW15916   0.077   3.082   3.070  0.0278 -0.2482 -0.7361
 1485SOL    HW115917   0.090   2.987   3.072 -0.1638 -0.3272 -3.3289
 1485SOL    HW215918   0.121   3.106   2.988  3.8583 -3.1312  0.4545
 1486SOL     OW15919   0.280   1.556   8.438  0.0624 -0.3800 -0.1519
 1486SOL    HW115920   0.270   1.587   8.348  0.4729  2.0079  0.6285
 1486SOL    HW215921   0.191   1.562   8.473 -0.2419 -1.3197 -0.7524
 1487SOL     OW15922   0.597   4.567   4.018  0.0382 -0.2445 -0.7359
 1487SOL    HW115923   0.552   4.485   4.038  1.8206 -0.8409  0.8189
 1487SOL    HW215924   0.659   4.549   3.947 -0.2519  1.9027 -1.5178
 1488SOL     OW15925   0.472   2.623   1.361  0.5773  0.2535 -0.5621
 1488SOL    HW115926   0.535   2.557   1.332  0.6858  0.1640 -0.1249
 1488SOL    HW215927   0.449   2.567   1.435 -1.2592  0.9545 -0.6157
 1489SOL     OW15928   2.498   1.942  13.964  0.1051  0.0510  0.5030
 1489SOL    HW115929   2.466   1.926  14.053  0.0327 -2.5439  0.0275
 1489SOL    HW215930   2.419   1.964  13.915 -0.4357 -2.3303  0.2915
 1490SOL     OW15931   3.088   2.279   8.139 -0.3911  0.1903  0.1620
 1490SOL    HW115932   3.138   2.197   8.130  0.0706  0.4397  0.4334
 1490SOL    HW215933   3.023   2.261   8.071  0.9505 -1.4522 -0.6932
 1491SOL     OW15934   1.304   1.899   0.082  0.0583 -0.0404  0.0832
 1491SOL    HW115935   1.239   1.943   0.027  1.9211  0.7048 -1.5452
 1491SOL    HW215936   1.310   1.815   0.036 -0.2902 -0.7980  1.4258
 1492SOL     OW15937   0.789   2.621   0.764  0.1034  0.0967  0.0911
 1492SOL    HW115938   0.784   2.567   0.842 -0.7235  0.4103  0.2617
 1492SOL    HW215939   0.698   2.605   0.737  0.5796 -3.0387  0.3414
 1493SOL     OW15940   2.639   3.895   7.121  0.1162 -0.2306 -0.2396
 1493SOL    HW115941   2.581   3.948   7.067  0.5626 -0.8247 -1.2916
 1493SOL    HW215942   2.582   3.832   7.165  0.2509 -0.0301  0.2280
 1494SOL     OW15943   0.525   2.887   2.679  0.5408 -0.4615  0.1147
 1494SOL    HW115944   0.507   2.806   2.726  0.8177 -0.5552  0.0576
 1494SOL    HW215945   0.520   2.853   2.589  0.4934  0.6142 -0.2906
 1495SOL     OW15946   0.214   3.327   2.351  0.2355  0.3268  0.1990
 1495SOL    HW115947   0.162   3.248   2.338 -1.1778  1.1436  0.7876
 1495SOL    HW215948   0.154   3.392   2.314 -1.7018 -0.7591  1.4411
 1496SOL     OW15949   0.504   0.278  12.482 -0.3878  0.6242 -0.1853
 1496SOL    HW115950   0.471   0.189  12.495 -1.7462  1.0012 -1.0921
 1496SOL    HW215951   0.423   0.327  12.469 -2.3997 -2.5338  0.4610
 1497SOL     OW15952   2.371   1.811   6.190 -0.0947  0.1575  0.1898
 1497SOL    HW115953   2.421   1.827   6.270  1.6127 -0.4486 -0.7747
 1497SOL    HW215954   2.325   1.895   6.190 -1.0837 -0.3837  2.2359
 1498SOL     OW15955   0.833   3.144  16.245 -0.3038  0.0298 -0.2448
 1498SOL    HW115956   0.855   3.133  16.338  0.1769  0.5143 -0.2977
 1498SOL    HW215957   0.746   3.104  16.243 -0.1824 -0.1942 -1.0973
 1499SOL     OW15958   4.673   2.630  13.038 -0.0837 -0.2538  0.0111
 1499SOL    HW115959   4.652   2.702  12.979 -1.6750 -1.1670 -0.5354
 1499SOL    HW215960   4.599   2.575  13.014  0.2438 -0.5445 -0.3320
 1500SOL     OW15961   2.026   2.110  11.966 -0.7019 -0.3577 -0.1931
 1500SOL    HW115962   2.001   2.054  11.893 -0.1335 -1.3808  0.3935
 1500SOL    HW215963   1.945   2.096  12.016 -0.8745  0.4838 -0.2364
 1501SOL     OW15964   3.461   3.336  16.710 -0.2600 -0.2206 -0.2975
 1501SOL    HW115965   3.435   3.426  16.729 -2.6831 -1.0156  0.1884
 1501SOL    HW215966   3.532   3.310  16.769  0.0606  0.9313 -0.1827
 1502SOL     OW15967   2.316   3.948   4.496 -0.3380 -0.5631 -0.4248
 1502SOL    HW115968   2.352   3.935   4.583 -1.7864  1.4941  0.4882
 1502SOL    HW215969   2.393   3.994   4.463 -1.5565  1.9090  0.1463
 1503SOL     OW15970   0.591   3.891  16.302 -0.2601 -0.6783  0.0657
 1503SOL    HW115971   0.673   3.922  16.342 -1.4089  0.0988  1.8338
 1503SOL    HW215972   0.587   3.945  16.223  0.1199 -0.7285  0.0131
 1504SOL     OW15973   1.822   2.912   9.729 -0.9373 -0.3399 -0.0420
 1504SOL    HW115974   1.837   2.870   9.644  1.3621  0.3033  0.0306
 1504SOL    HW215975   1.842   3.004   9.712 -0.9381 -0.3752 -0.2393
 1505SOL     OW15976   4.252   0.026   7.861  0.5061  0.6914 -0.2001
 1505SOL    HW115977   4.249   0.120   7.845  1.0320  1.1658  2.5270
 1505SOL    HW215978   4.180   4.713   7.807  2.2265 -1.2362 -1.4602
 1506SOL     OW15979   4.417   3.131   7.986  0.0288 -0.0056  0.3240
 1506SOL    HW115980   4.327   3.164   7.977 -0.2146 -0.4674  1.0685
 1506SOL    HW215981   4.414   3.121   8.081 -0.1817 -0.0143  0.3166
 1507SOL     OW15982   3.330   4.041   3.469  0.7371  0.0772  0.3516
 1507SOL    HW115983   3.333   4.130   3.436  2.1827 -0.2741 -0.4374
 1507SOL    HW215984   3.255   4.042   3.529  0.6891  0.2096  0.2867
 1508SOL     OW15985   2.981   1.436   0.998 -0.3075  0.6471 -0.1344
 1508SOL    HW115986   2.920   1.503   0.967 -1.2120  0.3763  1.0401
 1508SOL    HW215987   2.989   1.473   1.087 -1.2148 -1.0013  0.6350
 1509SOL     OW15988   2.032   2.424   7.443  0.0808 -0.1247 -0.3675
 1509SOL    HW115989   2.008   2.478   7.369 -0.6603 -0.0451 -0.0741
 1509SOL    HW215990   2.054   2.341   7.400 -2.1667 -0.2756 -1.2292
 1510SOL     OW15991   3.160   1.957  14.103 -0.1087  0.5733 -0.3790
 1510SOL    HW115992   3.162   2.052  14.094 -2.6986  0.4871 -2.0046
 1510SOL    HW215993   3.080   1.945  14.154  0.5119 -1.8972 -0.0012
 1511SOL     OW15994   3.739   4.085   6.558 -0.1631 -0.6650  0.0942
 1511SOL    HW115995   3.682   4.030   6.505  1.4828 -0.4954 -1.8706
 1511SOL    HW215996   3.819   4.082   6.505  0.6086  2.4316  1.1088
 1512SOL     OW15997   1.240   4.335   6.353 -0.3352 -0.2017 -0.1211
 1512SOL    HW115998   1.184   4.271   6.309 -1.3368  1.3223 -1.0749
 1512SOL    HW215999   1.305   4.346   6.284  1.0420  0.6018  1.3023
 1513SOL     OW16000   4.208   4.715   0.985  0.1111  0.3559 -0.4945
 1513SOL    HW116001   4.151   4.652   0.941 -0.6609  1.1474 -0.6274
 1513SOL    HW216002   4.220   0.048   0.904 -2.5070  1.5091 -0.1805
 1514SOL     OW16003   2.593   1.795   0.891 -0.8663 -0.1692  0.1922
 1514SOL    HW116004   2.659   1.864   0.881 -1.2650  0.1375 -0.3240
 1514SOL    HW216005   2.541   1.828   0.964 -0.8947 -0.6356  0.3844
 1515SOL     OW16006   0.773   2.712   5.314  0.7449 -0.8057  0.0309
 1515SOL    HW116007   0.772   2.626   5.272  0.6477  0.3201 -2.2755
 1515SOL    HW216008   0.807   2.757   5.236 -0.4780  2.4410  1.3639
 1516SOL     OW16009   2.892   2.993   8.058 -0.3160  0.1714 -0.3892
 1516SOL    HW116010   2.929   2.905   8.050 -0.2615 -0.0975  2.6628
 1516SOL    HW216011   2.800   2.980   8.082 -0.0085  0.8394  1.1039
 1517SOL     OW16012   1.476   0.300   3.656  0.0781  0.1163 -0.5892
 1517SOL    HW116013   1.404   0.296   3.720  1.0662 -0.0940  0.5210
 1517SOL    HW216014   1.531   0.370   3.691  0.5587 -0.8384  0.5592
 1518SOL     OW16015   1.608   2.306  14.281 -0.1881  0.9057  0.0773
 1518SOL    HW116016   1.657   2.318  14.200 -1.9901 -2.0036 -1.4650
 1518SOL    HW216017   1.522   2.327  14.246 -2.0697 -2.8779  2.4024
 1519SOL     OW16018   4.070   3.557   9.828 -0.1471  0.4017 -0.7671
 1519SOL    HW116019   4.165   3.570   9.823 -0.0806  0.0319 -0.4663
 1519SOL    HW216020   4.072   3.464   9.806  0.6855  0.4047 -0.7005
 1520SOL     OW16021   4.090   0.807   2.156  0.1909 -0.0184 -0.0900
 1520SOL    HW116022   4.137   0.890   2.150 -1.0566  0.8354  2.4504
 1520SOL    HW216023   4.157   0.763   2.102 -0.8984 -0.9610 -0.6708
 1521SOL     OW16024   2.366   2.608   0.045 -0.5508  0.2579 -0.3666
 1521SOL    HW116025   2.341   2.516   0.051 -2.0489  0.7776  1.1079
 1521SOL    HW216026   2.443   2.620   0.101 -0.0954  0.6763 -1.0780
 1522SOL     OW16027   2.816   3.711   5.980 -0.2482  0.0158  0.4074
 1522SOL    HW116028   2.724   3.688   5.987 -0.3066  0.5097  1.3558
 1522SOL    HW216029   2.816   3.795   5.933 -2.2017  0.5906  1.4445
 1523SOL     OW16030   0.016   0.343  11.904  0.1255 -0.6610 -0.1902
 1523SOL    HW116031   0.072   0.390  11.842  0.5322 -0.3752  0.4006
 1523SOL    HW216032   0.023   0.257  11.863 -1.8533 -1.3530  0.9392
 1524SOL     OW16033   3.835   1.484   3.780  0.0805  0.2293  0.5156
 1524SOL    HW116034   3.812   1.548   3.848  0.1324 -0.1234  0.8673
 1524SOL    HW216035   3.782   1.410   3.811  3.2758 -1.3251  2.3041
 1525SOL     OW16036   4.417   4.623  17.400  0.2751 -0.4259  0.1887
 1525SOL    HW116037   4.485   4.596  17.462  0.7415 -0.9701 -0.5610
 1525SOL    HW216038   4.363   4.679  17.456 -1.6794 -1.5048 -0.6062
 1526SOL     OW16039   1.819   1.194   1.227  0.2881  0.0180  0.3010
 1526SOL    HW116040   1.761   1.148   1.287  1.0205 -1.4127 -0.1084
 1526SOL    HW216041   1.806   1.286   1.253 -1.8243  0.2653 -1.6367
 1527SOL     OW16042   2.738   2.387   4.104 -0.4975  0.2111 -0.1628
 1527SOL    HW116043   2.781   2.335   4.036  2.3552  0.9961  1.0513
 1527SOL    HW216044   2.647   2.361   4.095 -0.1126 -0.5908 -1.7406
 1528SOL     OW16045   2.823   1.638   0.889  0.5021  0.2080 -0.2833
 1528SOL    HW116046   2.867   1.720   0.912 -0.4190  0.0027  2.1216
 1528SOL    HW216047   2.733   1.667   0.899 -0.2709 -2.0599 -0.5820
 1529SOL     OW16048   3.860   4.054   7.192  0.3884  0.0424  0.4573
 1529SOL    HW116049   3.846   4.130   7.248 -1.0290 -0.7854  1.2212
 1529SOL    HW216050   3.790   3.993   7.214  0.1252  0.0733 -0.2885
 1530SOL     OW16051   3.595   3.684   5.423  0.0050 -0.0814  0.0365
 1530SOL    HW116052   3.585   3.776   5.446 -0.1205 -0.5497  1.8434
 1530SOL    HW216053   3.641   3.641   5.495 -0.2252 -2.3397 -1.1681
 1531SOL     OW16054   1.907   3.065   8.144 -0.3116 -0.2064  0.0398
 1531SOL    HW116055   1.812   3.054   8.139 -0.4169  0.7118 -0.0301
 1531SOL    HW216056   1.925   3.073   8.050 -1.2302  2.6135  0.1156
 1532SOL     OW16057   2.173   2.981   6.586  0.2689 -0.2997  0.1949
 1532SOL    HW116058   2.138   2.900   6.626 -0.9829 -0.9944 -2.2709
 1532SOL    HW216059   2.130   2.963   6.502 -0.9906  0.7109  0.6103
 1533SOL     OW16060   2.098   3.891  11.541  0.5172  0.3949  0.0015
 1533SOL    HW116061   2.083   3.798  11.557  1.8460 -0.0821 -1.5612
 1533SOL    HW216062   2.121   3.878  11.449 -0.8845  4.3547 -0.8991
 1534SOL     OW16063   0.048   0.996   2.210 -0.1468  0.4954 -0.2397
 1534SOL    HW116064   0.125   0.996   2.267  1.1199  0.7848 -1.9555
 1534SOL    HW216065   0.089   1.051   2.143 -1.9320 -1.3018 -2.7590
 1535SOL     OW16066   1.881   2.674  16.212  0.0972 -0.7958  0.5502
 1535SOL    HW116067   1.820   2.604  16.190  0.2689 -0.6637 -0.3709
 1535SOL    HW216068   1.811   2.727  16.250  0.1494 -0.4358  0.1486
 1536SOL     OW16069   1.129   0.845   3.027  0.2227 -0.1453  0.3063
 1536SOL    HW116070   1.151   0.755   3.002  0.9840  0.2452 -0.4410
 1536SOL    HW216071   1.035   0.849   3.008  0.4288 -0.3097 -0.7432
 1537SOL     OW16072   1.317   1.178  16.698 -0.1787  0.2679  0.3119
 1537SOL    HW116073   1.282   1.267  16.697 -2.1176 -0.5005  1.0963
 1537SOL    HW216074   1.234   1.133  16.710 -0.0944  0.4472  1.5579
 1538SOL     OW16075   1.242   1.869   5.249 -0.2118 -0.3863 -0.0862
 1538SOL    HW116076   1.268   1.938   5.188  1.5016 -0.3476  0.6866
 1538SOL    HW216077   1.274   1.788   5.209  1.2936  0.2869 -0.2557
 1539SOL     OW16078   1.806   1.933  16.059  0.3486  0.6504 -0.1570
 1539SOL    HW116079   1.754   1.899  16.132 -0.6056  0.1355 -1.0882
 1539SOL    HW216080   1.866   1.858  16.061  0.7463  0.9154 -2.2183
 1540SOL     OW16081   0.124   4.642  16.633 -0.4022  0.2524  0.6022
 1540SOL    HW116082   0.042   4.661  16.587 -1.5623 -0.2230  2.5005
 1540SOL    HW216083   0.145   0.017  16.649 -0.3600  0.1802  0.9493
 1541SOL     OW16084   1.557   1.902   2.682  0.0417  0.7451 -0.1862
 1541SOL    HW116085   1.566   1.983   2.632 -0.5918  0.5513 -0.6154
 1541SOL    HW216086   1.487   1.927   2.742  2.1097  0.9902  2.1147
 1542SOL     OW16087   4.703   3.172   7.537  0.1618  0.0556  0.2567
 1542SOL    HW116088   0.069   3.215   7.558  0.0684  0.1467  0.4381
 1542SOL    HW216089   0.011   3.114   7.465  0.5893 -0.5115  0.8655
 1543SOL     OW16090   0.797   0.805  13.171  1.0019  0.2221  0.1521
 1543SOL    HW116091   0.733   0.875  13.187  2.2913  0.7225  3.2137
 1543SOL    HW216092   0.779   0.776  13.082 -0.1848 -0.2330  0.5319
 1544SOL     OW16093   3.996   4.008   8.904  0.7691 -0.4725  0.1243
 1544SOL    HW116094   3.924   3.972   8.956  0.4066 -1.2769 -0.9248
 1544SOL    HW216095   4.061   3.949   8.942 -0.0759 -0.2012  1.9475
 1545SOL     OW16096   3.691   2.851  12.450  0.2401 -0.3795 -0.2313
 1545SOL    HW116097   3.688   2.889  12.362 -1.6451  0.9574  0.4084
 1545SOL    HW216098   3.598   2.863  12.468 -0.0942 -2.5071 -0.4929
 1546SOL     OW16099   2.478   1.492  15.961  0.0629  0.4497  0.4594
 1546SOL    HW116100   2.390   1.473  15.992 -0.1238  1.0946  0.3153
 1546SOL    HW216101   2.528   1.425  16.009  0.0556  0.7656  0.9102
 1547SOL     OW16102   2.690   2.782   7.529 -0.1656  0.0357  0.3937
 1547SOL    HW116103   2.739   2.807   7.608  0.8450  1.1156 -0.5923
 1547SOL    HW216104   2.642   2.702   7.550 -0.7940  0.7604  1.7564
 1548SOL     OW16105   3.496   0.158   8.058  0.1458  0.7505 -0.6833
 1548SOL    HW116106   3.494   0.226   7.991  1.3692  1.4549 -0.0120
 1548SOL    HW216107   3.421   0.105   8.032  0.7713 -0.2886 -0.3326
 1549SOL     OW16108   2.831   1.887   1.155  0.0172  0.1947  0.5401
 1549SOL    HW116109   2.897   1.874   1.223  0.2106 -0.5071  0.2215
 1549SOL    HW216110   2.748   1.906   1.198 -0.4042 -0.0682 -0.1556
 1550SOL     OW16111   2.787   3.538  12.456  0.2838 -0.6847 -0.0828
 1550SOL    HW116112   2.739   3.610  12.416  3.4514  1.1819 -0.5457
 1550SOL    HW216113   2.869   3.575  12.489  0.7517 -1.6244 -0.1925
 1551SOL     OW16114   0.837   2.764   8.784  0.0376  0.6987  0.1011
 1551SOL    HW116115   0.926   2.782   8.755 -1.0035  1.2863 -2.7395
 1551SOL    HW216116   0.790   2.847   8.777 -0.3291  0.3788 -1.1785
 1552SOL     OW16117   3.737   4.674   6.783  0.2944  0.3702 -0.4612
 1552SOL    HW116118   3.650   4.645   6.756  0.0541 -0.6243  1.3254
 1552SOL    HW216119   3.791   4.606   6.742 -1.1911 -1.3178  0.3596
 1553SOL     OW16120   0.569   0.856  10.921  0.0042  0.0100 -0.2499
 1553SOL    HW116121   0.614   0.786  10.969  1.7917  0.6589 -0.9807
 1553SOL    HW216122   0.553   0.921  10.990  1.9099 -1.6083  1.7103
 1554SOL     OW16123   1.169   0.825   6.868 -0.0229 -0.0207 -0.7394
 1554SOL    HW116124   1.249   0.841   6.917 -0.4367  0.6605 -0.2933
 1554SOL    HW216125   1.199   0.779   6.789 -0.5222  0.6234 -1.2995
 1555SOL     OW16126   3.643   0.188   5.353  0.0739  0.1405  0.2294
 1555SOL    HW116127   3.701   0.113   5.336 -1.6737 -1.1438 -0.0032
 1555SOL    HW216128   3.698   0.231   5.418  1.5942 -0.9039 -0.3557
 1556SOL     OW16129   0.110   3.947   7.796  0.1209 -0.4334 -0.4761
 1556SOL    HW116130   0.102   4.038   7.824  0.0813 -1.2393  2.1216
 1556SOL    HW216131   0.179   3.958   7.731  1.0104  0.4696  0.6146
 1557SOL     OW16132   4.134   4.590   6.376  0.0359 -0.3627  0.2474
 1557SOL    HW116133   4.080   4.626   6.306  3.1099 -0.5806 -2.2218
 1557SOL    HW216134   4.072   4.524   6.409  0.6558 -1.9433 -1.8081
 1558SOL     OW16135   0.208   1.373   6.140  0.0441  0.3695 -0.1417
 1558SOL    HW116136   0.165   1.420   6.212  0.4292  0.4304  0.0498
 1558SOL    HW216137   0.294   1.349   6.175 -0.3885  1.6777  1.8149
 1559SOL     OW16138   2.377   4.297  14.203 -0.4475 -0.0400  0.4613
 1559SOL    HW116139   2.283   4.305  14.185 -0.1863  1.0789 -0.3716
 1559SOL    HW216140   2.404   4.383  14.171  0.8627 -0.9075 -0.7486
 1560SOL     OW16141   0.118   3.678  11.322 -0.1348  0.1572 -0.6084
 1560SOL    HW116142   0.044   3.738  11.336  0.4326  0.3834  1.4252
 1560SOL    HW216143   0.180   3.721  11.263 -0.4788  1.0163 -0.3458
 1561SOL     OW16144   0.604   4.701   0.208 -0.2042  0.0295  0.0173
 1561SOL    HW116145   0.524   4.649   0.216 -0.2200  0.2177  1.1906
 1561SOL    HW216146   0.621   0.016   0.297 -0.9326  1.5235 -0.3625
 1562SOL     OW16147   2.126   3.330   7.201  0.0263 -0.1176 -0.1836
 1562SOL    HW116148   2.126   3.394   7.272  0.5710  1.0049 -1.2086
 1562SOL    HW216149   2.174   3.377   7.133 -2.0226  2.6934  0.3107
 1563SOL     OW16150   2.840   2.454   2.649  0.2522  0.0020  0.3139
 1563SOL    HW116151   2.915   2.407   2.614  0.3673 -0.7415  1.5680
 1563SOL    HW216152   2.768   2.413   2.602 -2.0885  2.8532  1.3753
 1564SOL     OW16153   2.371   2.540   6.597 -0.1061 -0.0294  0.2012
 1564SOL    HW116154   2.369   2.452   6.558 -0.7426  0.1797 -0.2431
 1564SOL    HW216155   2.311   2.547   6.671 -2.3366 -1.4129 -1.4560
 1565SOL     OW16156   4.589   0.157   5.772 -0.2063  0.1748  0.4958
 1565SOL    HW116157   4.642   0.113   5.839  0.8706 -0.3630 -0.7152
 1565SOL    HW216158   4.504   0.117   5.790 -0.6859  2.3651  3.2942
 1566SOL     OW16159   4.236   1.616   3.736  0.4319 -0.1170  0.1867
 1566SOL    HW116160   4.149   1.652   3.719 -1.2518 -3.1804  2.3265
 1566SOL    HW216161   4.272   1.640   3.651  0.6820  1.6175  0.7947
 1567SOL     OW16162   1.655   1.687   4.263 -0.1332 -0.7814  0.2836
 1567SOL    HW116163   1.732   1.636   4.237  1.3473  1.2986  0.5374
 1567SOL    HW216164   1.596   1.614   4.280 -0.6080 -0.5688 -0.4420
 1568SOL     OW16165   1.202   4.016   2.488  0.3123  0.4430 -0.1331
 1568SOL    HW116166   1.224   3.938   2.539 -1.9150  1.0084  1.7016
 1568SOL    HW216167   1.286   4.064   2.484  0.3490  0.3859 -0.0505
 1569SOL     OW16168   1.652   4.212   9.625  0.1380 -0.2015  0.2146
 1569SOL    HW116169   1.561   4.240   9.615  0.5656  1.2976  0.4282
 1569SOL    HW216170   1.651   4.123   9.660  0.3360 -0.0877  0.5093
 1570SOL     OW16171   3.097   4.107   3.590  0.7110 -0.6222  0.1848
 1570SOL    HW116172   3.088   4.190   3.636 -3.0161 -0.6999 -0.4688
 1570SOL    HW216173   3.030   4.048   3.623 -0.2122  0.2028 -0.2353
 1571SOL     OW16174   3.112   4.325  15.217 -0.1958  0.6175  0.6432
 1571SOL    HW116175   3.136   4.316  15.124 -0.6637  2.2019  0.3648
 1571SOL    HW216176   3.038   4.386  15.217  1.4822  2.6902 -3.5229
 1572SOL     OW16177   1.946   3.210   8.364  0.1167 -0.0297 -0.2963
 1572SOL    HW116178   1.930   3.160   8.284  1.5135  2.0244 -1.8334
 1572SOL    HW216179   1.893   3.159   8.426 -0.7700  0.4829 -0.6253
 1573SOL     OW16180   3.711   1.763  11.621 -0.2342  0.5783 -0.4155
 1573SOL    HW116181   3.749   1.732  11.538 -0.6575 -0.7107 -0.1237
 1573SOL    HW216182   3.780   1.812  11.665  0.9695 -1.0463 -0.5005
 1574SOL     OW16183   0.746   4.017   1.122 -0.0512 -0.2036  0.0082
 1574SOL    HW116184   0.743   4.062   1.038 -0.2502 -0.0032  0.1249
 1574SOL    HW216185   0.784   4.081   1.183  2.0740  0.0283 -1.5583
 1575SOL     OW16186   0.150   0.862   7.093 -0.4890  0.0164 -0.1319
 1575SOL    HW116187   0.239   0.893   7.081 -0.3897  0.4994  1.7795
 1575SOL    HW216188   0.131   0.921   7.166 -1.6403  0.1470 -0.5378
 1576SOL     OW16189   0.242   1.212   3.850  0.6000  0.4006 -0.0834
 1576SOL    HW116190   0.150   1.227   3.829  0.3911  1.4751  1.6072
 1576SOL    HW216191   0.244   1.129   3.897 -0.0863  1.0205  1.0339
 1577SOL     OW16192   0.962   1.763   3.707 -0.3320  0.1816  0.7177
 1577SOL    HW116193   0.887   1.756   3.649  1.9445 -1.8892 -1.9751
 1577SOL    HW216194   0.954   1.690   3.769  0.6753 -0.8388 -0.3641
 1578SOL     OW16195   1.372   2.853   6.095 -0.1992 -0.7676  0.4950
 1578SOL    HW116196   1.305   2.888   6.154 -0.5389 -3.2760  1.5845
 1578SOL    HW216197   1.428   2.931   6.089 -1.4578  0.0444 -0.6319
 1579SOL     OW16198   2.048   0.044  17.077 -0.1273 -0.0591  0.2676
 1579SOL    HW116199   2.052   4.683  17.022  0.6395  0.6388 -0.6589
 1579SOL    HW216200   1.987   0.009  17.142 -1.6952  1.1641 -0.5340
 1580SOL     OW16201   0.759   0.766  12.896 -0.4961 -0.4479 -0.1584
 1580SOL    HW116202   0.754   0.739  12.804 -0.7624 -0.9737  0.0077
 1580SOL    HW216203   0.666   0.756  12.919  0.0576 -0.4705  2.0458
 1581SOL     OW16204   2.702   2.322   5.173  0.2843 -0.0002  0.4379
 1581SOL    HW116205   2.611   2.297   5.158  0.1844 -0.1408  1.3247
 1581SOL    HW216206   2.737   2.319   5.084 -0.3661 -0.9308  0.2117
 1582SOL     OW16207   3.013   3.775   5.653 -0.1188  0.2732 -0.0466
 1582SOL    HW116208   3.082   3.806   5.595 -0.7254  1.7003 -0.0081
 1582SOL    HW216209   2.985   3.851   5.704 -0.5420  1.1759 -1.6166
 1583SOL     OW16210   2.573   0.530   2.195  0.1210 -0.1634 -0.0178
 1583SOL    HW116211   2.553   0.520   2.288  1.1487 -0.1141  0.2043
 1583SOL    HW216212   2.484   0.545   2.164  0.1189 -0.8957 -0.3474
 1584SOL     OW16213   2.317   3.767   8.166 -0.1927  0.0690  0.0599
 1584SOL    HW116214   2.298   3.691   8.111  2.0948 -1.3488  1.2695
 1584SOL    HW216215   2.259   3.833   8.126  0.8034 -0.0256 -1.5476
 1585SOL     OW16216   2.726   0.383   8.463  0.5674  0.3356  0.2332
 1585SOL    HW116217   2.756   0.372   8.372 -0.8776 -0.4403 -0.1431
 1585SOL    HW216218   2.763   0.468   8.488  0.6621  0.8327 -1.5604
 1586SOL     OW16219   4.063   0.557  12.278 -0.0768  0.1208 -0.0688
 1586SOL    HW116220   4.055   0.640  12.324 -1.6328  0.4987 -1.0201
 1586SOL    HW216221   4.087   0.591  12.192 -2.6824 -0.6361 -1.0884
 1587SOL     OW16222   0.100   2.588  15.457 -0.1289 -0.8002  0.1942
 1587SOL    HW116223   0.060   2.673  15.440  1.7369  0.5331  2.3638
 1587SOL    HW216224   0.132   2.570  15.369 -0.1334  2.2003 -0.3894
 1588SOL     OW16225   3.040   4.299   9.280  0.0364 -0.3111 -0.3798
 1588SOL    HW116226   2.956   4.346   9.275  0.1524  0.3041  3.4715
 1588SOL    HW216227   3.043   4.264   9.368 -1.7193  0.5444  0.0205
 1589SOL     OW16228   3.016   2.824   9.965  0.7318 -0.3522  1.2360
 1589SOL    HW116229   3.055   2.881   9.898  1.1926 -1.4982  0.5122
 1589SOL    HW216230   3.083   2.833  10.033  0.2071 -0.5980  1.7905
 1590SOL     OW16231   1.198   4.053   4.857 -0.2200  0.0576 -0.5768
 1590SOL    HW116232   1.283   4.051   4.900 -0.1808  1.3659 -0.5858
 1590SOL    HW216233   1.162   4.125   4.910  1.7846  1.2690 -0.8699
 1591SOL     OW16234   0.955   4.627   9.772 -0.2636 -1.1166  0.5291
 1591SOL    HW116235   0.923   4.650   9.859  0.3787 -1.9091  0.9690
 1591SOL    HW216236   1.043   4.595   9.795 -1.5785 -4.9297  0.1302
 1592SOL     OW16237   1.887   3.245   4.572 -0.4140  0.6009  0.6591
 1592SOL    HW116238   1.841   3.320   4.532  3.1081  2.2353 -0.3389
 1592SOL    HW216239   1.885   3.171   4.512 -2.7609 -0.1609  1.6763
 1593SOL     OW16240   4.191   1.938   1.052  0.4268 -0.0846  0.0847
 1593SOL    HW116241   4.190   1.843   1.048  0.7167 -0.1187  0.7131
 1593SOL    HW216242   4.182   1.943   1.148  1.0634 -0.2929  0.1567
 1594SOL     OW16243   2.243   2.104   8.916 -0.2688 -0.1311  0.1602
 1594SOL    HW116244   2.248   2.046   8.840 -0.5181 -1.2894  1.0443
 1594SOL    HW216245   2.148   2.114   8.910 -0.1756  1.2704  1.0541
 1595SOL     OW16246   1.567   3.767   7.236  0.0723 -0.1738 -0.0514
 1595SOL    HW116247   1.642   3.826   7.241 -0.2846  0.1724  1.2837
 1595SOL    HW216248   1.532   3.786   7.149 -0.0511  0.1722  0.0765
 1596SOL     OW16249   3.516   2.226   8.696 -0.0541 -0.5783  0.2162
 1596SOL    HW116250   3.553   2.265   8.775  2.5261  0.4887 -1.5343
 1596SOL    HW216251   3.540   2.134   8.707 -2.0594 -0.9673  1.5414
 1597SOL     OW16252   0.305   4.093   5.568  0.0296 -0.2296  0.4082
 1597SOL    HW116253   0.306   4.091   5.663 -1.6016  1.0514  0.4671
 1597SOL    HW216254   0.300   3.998   5.559  0.9084 -0.2342 -0.0207
 1598SOL     OW16255   3.654   2.247   8.923 -0.3579 -0.1120 -0.6362
 1598SOL    HW116256   3.682   2.288   9.005  0.9077  0.3779 -1.3228
 1598SOL    HW216257   3.730   2.192   8.906 -0.7149 -0.8188  0.0229
 1599SOL     OW16258   4.161   1.812   6.964  0.1478  0.1431  0.2551
 1599SOL    HW116259   4.236   1.849   6.918  2.0692 -2.7234  1.0576
 1599SOL    HW216260   4.132   1.737   6.912  3.4791 -1.0045  0.0043
 1600SOL     OW16261   4.488   4.463   8.890 -0.3209  0.2326  1.1704
 1600SOL    HW116262   4.565   4.415   8.859 -0.1592 -1.1391  3.6787
 1600SOL    HW216263   4.416   4.400   8.892  1.5176 -1.9578 -1.3979
 1601SOL     OW16264   1.060   0.474   3.071  0.1634  0.0429  0.6806
 1601SOL    HW116265   1.134   0.487   3.012  1.2426 -1.0826  1.7885
 1601SOL    HW216266   1.087   0.525   3.146  1.2720  2.0749 -1.1128
 1602SOL     OW16267   4.293   3.011   9.739  0.1603  0.0251 -0.1880
 1602SOL    HW116268   4.209   3.023   9.784 -0.7761 -0.7089 -1.7451
 1602SOL    HW216269   4.354   2.966   9.797  0.2496 -1.0111 -1.0829
 1603SOL     OW16270   2.475   0.686   5.262  0.0646  0.4726 -0.0807
 1603SOL    HW116271   2.513   0.763   5.219  2.1587  0.5567  1.9237
 1603SOL    HW216272   2.422   0.725   5.331  2.4665  0.5527  1.7222
 1604SOL     OW16273   3.034   3.176  12.687 -0.1815 -0.0160 -0.3939
 1604SOL    HW116274   3.021   3.265  12.655  1.5780  0.2506 -0.3624
 1604SOL    HW216275   2.952   3.162  12.733  0.1140 -1.5272 -0.3276
 1605SOL     OW16276   4.053   1.093   7.165  0.6272  0.0279 -0.5146
 1605SOL    HW116277   4.143   1.078   7.137  0.4079 -1.7127 -0.3177
 1605SOL    HW216278   4.067   1.131   7.252 -1.1836 -2.2328  0.7745
 1606SOL     OW16279   0.449   0.180   2.038 -0.1620  0.0018  1.2872
 1606SOL    HW116280   0.464   0.086   2.031 -0.2360  0.2231 -1.8418
 1606SOL    HW216281   0.398   0.189   1.957  1.2832 -2.5523  0.1018
 1607SOL     OW16282   0.588   3.609   0.723  0.0948 -0.2286 -0.1998
 1607SOL    HW116283   0.605   3.649   0.808  4.2347 -1.7256 -0.2900
 1607SOL    HW216284   0.664   3.552   0.705 -0.3202 -0.9695  0.3599
 1608SOL     OW16285   3.988   4.691   7.247  0.0795  0.1577 -0.1799
 1608SOL    HW116286   3.947   4.624   7.193  1.2008 -0.7882  0.1506
 1608SOL    HW216287   3.921   0.007   7.309 -0.3843  3.0274 -2.1805
 1609SOL     OW16288   0.478   3.794   4.755 -0.9715  0.0003 -0.5742
 1609SOL    HW116289   0.391   3.831   4.767 -0.2065  1.3428  0.6659
 1609SOL    HW216290   0.543   3.862   4.772 -0.0707 -0.7757 -0.8678
 1610SOL     OW16291   1.606   0.278   5.640  0.0695 -0.4233  0.0437
 1610SOL    HW116292   1.645   0.364   5.652  0.4071 -0.9536  2.7821
 1610SOL    HW216293   1.515   0.292   5.615  0.7380  0.9685 -1.6227
 1611SOL     OW16294   0.418   1.192   3.459  0.2264  0.2057  0.4083
 1611SOL    HW116295   0.481   1.132   3.420 -1.0730 -0.8347 -0.0725
 1611SOL    HW216296   0.411   1.261   3.393 -1.8635 -0.1720  0.2085
 1612SOL     OW16297   0.038   3.298   6.027  0.1068 -0.6447 -0.0381
 1612SOL    HW116298   0.087   3.224   5.992  0.3213 -0.3276 -0.4080
 1612SOL    HW216299   4.686   3.310   5.962 -0.1940  0.5176  0.4888
 1613SOL     OW16300   1.968   3.856  13.305 -0.5407 -0.6028  0.7854
 1613SOL    HW116301   2.036   3.810  13.354  0.2238  0.9559  1.2025
 1613SOL    HW216302   1.980   3.949  13.324 -2.2245  0.0496 -1.3989
 1614SOL     OW16303   2.002   0.086   3.398 -0.4495  0.0960  0.5794
 1614SOL    HW116304   2.059   0.091   3.321  0.1617 -2.5559  0.8560
 1614SOL    HW216305   1.955   0.170   3.394 -1.6948 -0.5240  2.1431
 1615SOL     OW16306   1.075   2.721   4.354  0.0543 -0.4828 -0.3701
 1615SOL    HW116307   1.045   2.732   4.444 -1.8233  0.9573 -1.1791
 1615SOL    HW216308   0.991   2.722   4.309  0.8906 -0.0736 -1.9222
 1616SOL     OW16309   0.664   0.063   3.796 -0.0486 -0.3992  0.1689
 1616SOL    HW116310   0.740   0.006   3.783 -0.0233 -0.3772  0.2198
 1616SOL    HW216311   0.683   0.095   3.884 -0.2356 -1.2552  0.5176
 1617SOL     OW16312   4.555   3.924   5.850  0.0963 -0.3146 -0.0009
 1617SOL    HW116313   4.494   3.923   5.924  1.2840  0.7447  1.0036
 1617SOL    HW216314   4.553   4.020   5.841  1.6490 -0.2437  0.3909
 1618SOL     OW16315   3.005   1.153   6.963 -0.0474  0.5628  0.3232
 1618SOL    HW116316   3.093   1.188   6.979 -0.0983  0.1888  1.3544
 1618SOL    HW216317   2.992   1.176   6.870  2.4862 -1.6189 -0.5714
 1619SOL     OW16318   1.971   4.037   3.754 -0.2130 -0.3001 -0.6041
 1619SOL    HW116319   2.052   4.054   3.802  0.9144 -0.8417 -2.3394
 1619SOL    HW216320   1.985   4.087   3.674 -4.0949  0.5276 -0.7490
 1620SOL     OW16321   3.802   4.170   8.055  0.3139 -0.3788  0.3829
 1620SOL    HW116322   3.720   4.165   8.007  1.3710  0.3303 -1.5083
 1620SOL    HW216323   3.805   4.266   8.058  2.1152 -0.4448  0.8357
 1621SOL     OW16324   2.771   3.459  17.495 -0.4667 -0.1390  0.1610
 1621SOL    HW116325   2.735   3.524  17.435  1.1999 -1.8303 -2.6682
 1621SOL    HW216326   2.716   3.492  17.565 -0.7112 -1.1038  0.4194
 1622SOL     OW16327   0.965   3.402   1.644  0.4566 -0.2529 -0.8364
 1622SOL    HW116328   0.927   3.490   1.647  1.4982  0.2159 -1.2408
 1622SOL    HW216329   1.056   3.433   1.635  0.1166  0.9277 -0.1154
 1623SOL     OW16330   2.856   0.776  13.674 -0.2665  0.0852  0.2855
 1623SOL    HW116331   2.871   0.709  13.607 -2.1673  3.6737 -3.6773
 1623SOL    HW216332   2.879   0.731  13.756  1.9666  1.3432  0.3516
 1624SOL     OW16333   3.232   1.953   7.157  0.2531 -0.0477  0.4970
 1624SOL    HW116334   3.272   1.951   7.244  1.8005  1.3913 -0.1864
 1624SOL    HW216335   3.283   2.025   7.117 -0.6268 -0.0764 -0.6820
 1625SOL     OW16336   4.516   0.635   3.196  0.2603 -0.2263  0.4121
 1625SOL    HW116337   4.503   0.651   3.103 -1.1416 -0.6515  0.5313
 1625SOL    HW216338   4.607   0.606   3.194 -0.1557 -1.3852 -1.2711
 1626SOL     OW16339   1.558   3.001   9.719 -0.3312 -0.1942 -0.1981
 1626SOL    HW116340   1.612   2.965   9.789  2.3057  2.6543 -0.7399
 1626SOL    HW216341   1.590   2.946   9.649  0.6540 -0.9737  0.8663
 1627SOL     OW16342   1.780   3.850   3.211 -0.1494 -0.2117 -0.2881
 1627SOL    HW116343   1.851   3.891   3.162 -0.4446 -0.6965 -1.1137
 1627SOL    HW216344   1.719   3.815   3.147 -2.0062  2.4106  0.0459
 1628SOL     OW16345   2.675   2.564  16.238 -0.1358 -0.4277 -0.2184
 1628SOL    HW116346   2.765   2.587  16.218  0.0345 -0.2393  0.7751
 1628SOL    HW216347   2.665   2.612  16.320 -0.5380 -1.7556  0.5029
 1629SOL     OW16348   1.603   0.390  13.086 -0.0106  0.4184  0.2990
 1629SOL    HW116349   1.692   0.415  13.059 -0.1354  1.3894  0.7685
 1629SOL    HW216350   1.572   0.363  13.000 -0.9035  1.1276  0.3942
 1630SOL     OW16351   1.472   3.125   6.056 -0.0961  0.1261  0.2429
 1630SOL    HW116352   1.526   3.152   5.981 -2.4313  2.5762 -0.5408
 1630SOL    HW216353   1.524   3.163   6.126  0.1348  0.4456 -0.1030
 1631SOL     OW16354   4.269   1.415   3.921 -0.1788  0.4699 -0.2216
 1631SOL    HW116355   4.194   1.413   3.980  0.0894  0.3250  0.1146
 1631SOL    HW216356   4.246   1.490   3.866  1.1959  1.4947  0.6125
 1632SOL     OW16357   2.381   1.237   5.244 -0.1868 -0.4173 -0.6248
 1632SOL    HW116358   2.334   1.299   5.299 -0.5741 -0.2229 -1.1652
 1632SOL    HW216359   2.391   1.280   5.159  2.9361 -2.2186 -1.1560
 1633SOL     OW16360   3.219   4.589   0.731 -1.0059  0.4253 -0.1725
 1633SOL    HW116361   3.205   4.652   0.660  1.5581 -0.0702 -1.1213
 1633SOL    HW216362   3.184   4.636   0.807  1.7282  0.1100  1.2682
 1634SOL     OW16363   2.268   0.828   9.026  0.0548  0.0795  0.0307
 1634SOL    HW116364   2.323   0.870   9.092  0.2187  0.1228 -0.1336
 1634SOL    HW216365   2.311   0.744   9.017  1.4554  0.8502 -0.4924
 1635SOL     OW16366   0.339   1.328  13.833 -0.0590  0.1476 -0.4167
 1635SOL    HW116367   0.358   1.265  13.903 -1.7552  1.9758  1.7068
 1635SOL    HW216368   0.248   1.356  13.848  0.7219  1.1876  2.2994
 1636SOL     OW16369   2.157   0.596   1.264  0.4125  0.4982  0.5148
 1636SOL    HW116370   2.183   0.688   1.256 -1.6504  1.0576  0.2901
 1636SOL    HW216371   2.171   0.570   1.173  0.2230  0.6908  0.4330
 1637SOL     OW16372   0.349   3.925   3.457 -0.1626 -0.7695  0.2206
 1637SOL    HW116373   0.437   3.955   3.437 -0.1059 -2.6968 -2.4574
 1637SOL    HW216374   0.312   4.013   3.451  0.6861 -0.4373 -0.1739
 1638SOL     OW16375   3.474   3.606   7.704 -0.4945  0.3978 -0.0671
 1638SOL    HW116376   3.530   3.633   7.777  0.7349  1.4221 -1.3850
 1638SOL    HW216377   3.499   3.668   7.636  2.3586  1.0916  1.5946
 1639SOL     OW16378   0.565   0.918   3.910  0.6716 -0.3026 -0.5037
 1639SOL    HW116379   0.536   0.838   3.955  3.0820 -1.4705 -1.0121
 1639SOL    HW216380   0.536   0.984   3.973 -0.1401 -1.9468  0.8385
 1640SOL     OW16381   1.702   4.297  17.124  0.0582  0.0334  0.1208
 1640SOL    HW116382   1.640   4.225  17.126  1.5120 -1.2096  0.3434
 1640SOL    HW216383   1.757   4.282  17.047  0.0170 -0.7314  0.2450
 1641SOL     OW16384   2.351   0.509   2.825 -1.1938  0.1510  0.6394
 1641SOL    HW116385   2.397   0.553   2.897 -0.2620  0.5460 -0.1897
 1641SOL    HW216386   2.371   0.568   2.752 -2.5297 -0.8066 -0.4957
 1642SOL     OW16387   0.529   3.897   0.812  0.1317 -0.5931  0.4055
 1642SOL    HW116388   0.560   3.841   0.741 -1.9409 -2.4726  0.9576
 1642SOL    HW216389   0.521   3.823   0.872  0.7981  0.6974  2.0769
 1643SOL     OW16390   4.478   4.704  16.295  0.1873 -0.6691 -0.1394
 1643SOL    HW116391   4.415   0.048  16.256 -1.1224 -2.1643 -0.3457
 1643SOL    HW216392   4.423   4.625  16.297 -1.8374  0.7051 -1.0327
 1644SOL     OW16393   2.745   0.614  11.878 -0.1550 -0.5619  0.0032
 1644SOL    HW116394   2.713   0.703  11.866 -1.8580 -1.3428 -1.2057
 1644SOL    HW216395   2.703   0.606  11.964 -0.8603  0.9593 -0.2049
 1645SOL     OW16396   1.968   3.206  14.997 -0.2172  0.3462 -0.6136
 1645SOL    HW116397   1.874   3.193  15.004 -0.3498  2.5484  1.6094
 1645SOL    HW216398   1.977   3.188  14.903 -0.7225 -1.1581 -0.3706
 1646SOL     OW16399   1.529   2.836  11.720  0.9733  0.2861 -0.5969
 1646SOL    HW116400   1.480   2.871  11.794  0.6892  2.7837 -1.9680
 1646SOL    HW216401   1.479   2.757  11.698  1.7810 -0.9034  1.8152
 1647SOL     OW16402   2.382   1.981   2.940 -0.0225 -0.1056 -0.0124
 1647SOL    HW116403   2.401   1.887   2.937  1.1255  0.1421 -0.6081
 1647SOL    HW216404   2.436   2.004   2.864  1.4629 -0.7915  0.8211
 1648SOL     OW16405   3.447   1.237   5.599  0.2142 -0.7465  0.2692
 1648SOL    HW116406   3.434   1.142   5.605 -0.4072 -0.5989  1.2219
 1648SOL    HW216407   3.541   1.237   5.612  0.2689 -0.0479 -0.1631
 1649SOL     OW16408   1.646   1.522  10.248 -0.6733  0.2649 -0.8602
 1649SOL    HW116409   1.573   1.567  10.205 -1.9448 -1.6651 -0.7325
 1649SOL    HW216410   1.711   1.507  10.179  0.4429 -3.2205  0.9402
 1650SOL     OW16411   2.541   1.247  10.983  0.0587 -0.6217 -0.5508
 1650SOL    HW116412   2.563   1.311  11.050  0.5904 -0.0324 -1.2981
 1650SOL    HW216413   2.615   1.187  10.974 -0.4285 -1.5300  1.5977
 1651SOL     OW16414   0.633   2.012   4.076  0.5919  0.0193 -0.2360
 1651SOL    HW116415   0.544   2.046   4.085 -0.4748 -2.1708 -2.4935
 1651SOL    HW216416   0.621   1.917   4.069 -0.1985 -0.0427  1.7669
 1652SOL     OW16417   2.642   1.273   1.993 -0.0131 -0.5587  0.2049
 1652SOL    HW116418   2.718   1.274   1.936 -0.4291 -0.7504 -0.3457
 1652SOL    HW216419   2.624   1.180   2.002  2.3060 -0.9327  1.0635
 1653SOL     OW16420   1.359   4.580  14.792  0.2690 -0.3290  0.3366
 1653SOL    HW116421   1.305   4.523  14.846 -2.1886  0.0463 -1.7079
 1653SOL    HW216422   1.413   4.522  14.738  2.5604  0.8978  1.2674
 1654SOL     OW16423   3.390   3.369   6.263  0.3122  0.1043  0.3278
 1654SOL    HW116424   3.471   3.347   6.310 -1.9367 -1.9808  3.2328
 1654SOL    HW216425   3.349   3.430   6.325  0.3884 -0.9371  1.4013
 1655SOL     OW16426   2.676   0.339   4.314  0.5680  0.2596  0.6043
 1655SOL    HW116427   2.654   0.247   4.296  0.7576 -0.0612  2.0268
 1655SOL    HW216428   2.712   0.327   4.402  1.3031 -0.8461  0.1574
 1656SOL     OW16429   0.716   0.234   4.044 -0.0244  0.3763  0.1364
 1656SOL    HW116430   0.668   0.287   3.980 -1.1235 -2.3318 -1.2824
 1656SOL    HW216431   0.685   0.271   4.127  3.5522  0.4304  1.4497
 1657SOL     OW16432   0.605   3.784  10.734 -0.0147 -0.0925  0.3182
 1657SOL    HW116433   0.651   3.854  10.687  1.0826 -1.5127 -0.7238
 1657SOL    HW216434   0.680   3.735  10.768 -0.5548 -1.4993 -0.5183
 1658SOL     OW16435   3.780   0.726   4.559  0.4933 -0.1394  0.2699
 1658SOL    HW116436   3.736   0.781   4.623 -1.5443 -1.3185 -0.0857
 1658SOL    HW216437   3.821   0.798   4.510  0.2934  1.3622  2.3313
 1659SOL     OW16438   0.480   3.956   4.041 -0.1953 -0.3825  0.0060
 1659SOL    HW116439   0.533   3.889   4.083 -0.1122 -0.0337  0.4596
 1659SOL    HW216440   0.530   3.981   3.963  0.9074 -0.0581  0.8263
 1660SOL     OW16441   1.336   4.030   3.622  0.0345  0.8043 -0.3542
 1660SOL    HW116442   1.311   3.947   3.582 -0.6124  0.1956  1.2899
 1660SOL    HW216443   1.432   4.030   3.623  0.0316  0.2267  1.3318
 1661SOL     OW16444   4.179   3.771   4.041  0.4811  0.0566 -0.1943
 1661SOL    HW116445   4.181   3.840   3.976 -0.3955  0.8662  0.6411
 1661SOL    HW216446   4.111   3.716   4.002  2.0875 -0.0816 -2.7575
 1662SOL     OW16447   0.706   2.466   8.748 -0.1886 -0.2330  0.5683
 1662SOL    HW116448   0.765   2.397   8.777 -0.3240  0.2491  1.9763
 1662SOL    HW216449   0.727   2.533   8.813 -1.5321 -0.3805  1.1556
 1663SOL     OW16450   3.066   3.921  11.038 -0.3082 -0.0745  0.1107
 1663SOL    HW116451   2.993   3.963  10.994  0.7063 -0.1886 -1.6842
 1663SOL    HW216452   3.081   3.854  10.972 -1.0042 -0.7558  0.6465
 1664SOL     OW16453   2.712   2.392   9.434 -0.2011  0.2603 -0.6817
 1664SOL    HW116454   2.779   2.326   9.451 -0.7239 -0.3443 -0.9997
 1664SOL    HW216455   2.710   2.398   9.339 -0.5954  0.2672 -0.6719
 1665SOL     OW16456   1.537   2.186   7.190 -0.0188 -0.2731 -0.0143
 1665SOL    HW116457   1.487   2.266   7.208 -0.1195 -0.3345 -0.0234
 1665SOL    HW216458   1.584   2.174   7.272  0.7622  1.0208 -0.2780
 1666SOL     OW16459   0.132   4.599   5.547 -0.2081 -0.5052  0.0201
 1666SOL    HW116460   0.160   4.618   5.636  2.4690  1.8401 -1.3237
 1666SOL    HW216461   0.153   4.506   5.540  1.0851 -0.2208  0.0880
 1667SOL     OW16462   2.286   4.373  13.637  0.1177 -0.0132  0.3015
 1667SOL    HW116463   2.251   4.290  13.671  0.5845 -0.7433 -1.0000
 1667SOL    HW216464   2.321   4.354  13.550 -1.9135 -0.7055 -0.3834
 1668SOL     OW16465   3.563   4.296   2.805 -0.4662 -0.1142 -0.2065
 1668SOL    HW116466   3.581   4.204   2.823  2.6168  0.4451 -0.3190
 1668SOL    HW216467   3.599   4.340   2.882  0.8560 -2.1457  0.3208
 1669SOL     OW16468   0.103   0.101   6.807 -0.7608  0.3342 -0.0708
 1669SOL    HW116469   0.132   0.017   6.772  2.2782  0.4536  2.1680
 1669SOL    HW216470   0.161   0.165   6.766 -1.0004  1.0224  0.6530
 1670SOL     OW16471   3.938   1.915  11.979  0.1703  0.0120  0.4594
 1670SOL    HW116472   3.918   1.995  11.930 -0.3948 -0.6811 -0.4193
 1670SOL    HW216473   4.028   1.905  11.951 -1.0913 -2.7533 -2.5435
 1671SOL     OW16474   0.877   1.805   7.586 -0.0245  0.1290 -0.2195
 1671SOL    HW116475   0.951   1.856   7.618  0.2408 -1.7461  2.0852
 1671SOL    HW216476   0.883   1.805   7.490  0.4791  1.6079 -0.1865
 1672SOL     OW16477   1.109   2.534   5.738  0.2482  0.3728 -0.3188
 1672SOL    HW116478   1.190   2.584   5.733  0.3045  0.2450 -0.6671
 1672SOL    HW216479   1.106   2.512   5.645  1.5718 -5.0431  0.9411
 1673SOL     OW16480   2.282   1.474  10.418  0.3331 -0.3006 -0.0400
 1673SOL    HW116481   2.328   1.558  10.422  1.4503 -0.8081 -2.0073
 1673SOL    HW216482   2.194   1.495  10.389 -0.5110 -0.5759  2.3481
 1674SOL     OW16483   3.206   4.715   2.624 -0.2013 -0.1320  0.5761
 1674SOL    HW116484   3.259   0.075   2.645  0.4472 -0.5369  0.3880
 1674SOL    HW216485   3.126   0.042   2.595 -0.4618  0.8912  2.8273
 1675SOL     OW16486   2.830   1.679   4.295  0.1480  1.1271 -0.2120
 1675SOL    HW116487   2.880   1.760   4.284  2.3671 -0.2324 -0.1149
 1675SOL    HW216488   2.887   1.616   4.251 -0.5489 -0.0071  0.5219
 1676SOL     OW16489   4.581   0.522   1.417  0.3865  0.0227 -0.4559
 1676SOL    HW116490   4.530   0.445   1.394 -0.8097  0.9823 -0.9897
 1676SOL    HW216491   4.671   0.489   1.415 -0.0534 -1.1283 -1.0952
 1677SOL     OW16492   4.271   0.628   4.520 -0.6136 -0.0764 -0.5569
 1677SOL    HW116493   4.327   0.670   4.584 -2.1230  0.9253  0.1174
 1677SOL    HW216494   4.202   0.694   4.513  1.4943  2.2944  1.1318
 1678SOL     OW16495   0.640   1.918   4.439  0.2694  0.3475  0.0648
 1678SOL    HW116496   0.718   1.914   4.494 -0.1942 -0.9002  0.6213
 1678SOL    HW216497   0.655   1.846   4.378  1.3596 -0.6291  1.4817
 1679SOL     OW16498   0.196   0.179  16.749 -0.1709  0.0063 -0.3593
 1679SOL    HW116499   0.112   0.204  16.788  0.6004 -0.8585  1.7883
 1679SOL    HW216500   0.175   0.216  16.663  0.7234  0.4555 -0.3869
 1680SOL     OW16501   0.466   0.242  14.051 -0.1634 -0.3391 -0.3917
 1680SOL    HW116502   0.503   0.232  14.138 -0.8206  0.6864  0.0149
 1680SOL    HW216503   0.466   0.337  14.037  1.8500 -0.2830 -0.0431
 1681SOL     OW16504   2.373   2.227   9.113 -0.6331 -0.3480  0.0598
 1681SOL    HW116505   2.334   2.218   9.026  2.5275 -0.6490 -1.3455
 1681SOL    HW216506   2.403   2.139   9.134 -1.6788 -1.3414 -2.7160
 1682SOL     OW16507   2.673   4.177  13.104 -0.5327  0.0591  0.1577
 1682SOL    HW116508   2.618   4.099  13.100 -2.3860  1.4926 -1.5916
 1682SOL    HW216509   2.711   4.181  13.017 -0.0106 -2.5209  0.2545
 1683SOL     OW16510   2.841   2.899   4.513  0.3105  0.1420 -0.1850
 1683SOL    HW116511   2.754   2.906   4.553 -0.0401  1.5716 -1.1700
 1683SOL    HW216512   2.896   2.924   4.588 -0.7502 -0.3185  0.7375
 1684SOL     OW16513   0.865   0.958   7.813 -0.2817 -0.5272 -0.1993
 1684SOL    HW116514   0.837   0.938   7.902  1.3631 -2.5620 -0.1464
 1684SOL    HW216515   0.912   1.041   7.826 -0.4444 -0.3639 -0.6608
 1685SOL     OW16516   0.387   0.164   1.324 -0.0758  0.0014 -0.2217
 1685SOL    HW116517   0.469   0.210   1.344 -0.6226 -0.1112  2.3031
 1685SOL    HW216518   0.355   0.119   1.403 -1.6785 -0.6623 -1.2584
 1686SOL     OW16519   0.659   2.301   4.263 -0.5879 -0.5006 -0.1996
 1686SOL    HW116520   0.601   2.233   4.297  0.5329 -1.2040  0.2826
 1686SOL    HW216521   0.612   2.321   4.181 -0.9565 -0.7596 -0.0520
 1687SOL     OW16522   2.606   4.652   5.338 -0.5184  0.1205  0.2149
 1687SOL    HW116523   2.565   4.695   5.414 -2.2102 -1.8206  0.3929
 1687SOL    HW216524   2.577   4.705   5.264  0.9844 -1.4346 -1.4823
 1688SOL     OW16525   1.550   3.107   7.377 -0.0771  0.0547  0.0159
 1688SOL    HW116526   1.465   3.140   7.408 -1.3219 -1.7433 -1.4539
 1688SOL    HW216527   1.557   3.030   7.433 -1.5239 -0.3727 -0.3827
 1689SOL     OW16528   2.219   3.391   3.787 -0.3870 -0.5344 -0.2243
 1689SOL    HW116529   2.269   3.472   3.781  0.1384 -0.9488 -1.3373
 1689SOL    HW216530   2.220   3.351   3.700  1.0527 -0.7163 -0.1160
 1690SOL     OW16531   0.687   0.194  12.923  0.0280  0.4017 -0.4946
 1690SOL    HW116532   0.777   0.206  12.952  0.0199 -1.1540  0.1706
 1690SOL    HW216533   0.691   0.099  12.934 -0.0424  0.3927 -0.5434
 1691SOL     OW16534   3.455   1.910   5.320 -0.1354 -0.5638 -0.0569
 1691SOL    HW116535   3.451   1.841   5.385  0.6598 -1.8039 -1.3110
 1691SOL    HW216536   3.547   1.936   5.320  0.4771 -2.7312 -0.5335
 1692SOL     OW16537   4.078   0.634   6.132  0.0524  0.0845 -0.6667
 1692SOL    HW116538   4.060   0.727   6.150  2.3266  0.3708  0.1798
 1692SOL    HW216539   4.158   0.627   6.184 -1.5307  1.8402  2.0813
 1693SOL     OW16540   1.658   0.785  17.236 -0.6769  0.4908 -0.0287
 1693SOL    HW116541   1.612   0.869  17.244 -0.2464  0.6853  0.4178
 1693SOL    HW216542   1.642   0.746  17.323 -3.5956 -1.6051 -1.4886
 1694SOL     OW16543   1.843   1.813   4.434 -0.7254  0.3955  0.1985
 1694SOL    HW116544   1.777   1.769   4.380 -0.7002  1.5516 -0.7770
 1694SOL    HW216545   1.921   1.828   4.381 -0.4719 -0.5977  0.2998
 1695SOL     OW16546   4.504   2.802   4.545  0.2563  0.1933 -0.2943
 1695SOL    HW116547   4.491   2.766   4.458 -0.6458  0.2556 -0.1847
 1695SOL    HW216548   4.433   2.867   4.540  0.7470  0.7661  0.1497
 1696SOL     OW16549   2.422   3.801   1.969  0.8694  0.1872 -0.0349
 1696SOL    HW116550   2.482   3.741   2.013  1.6911  0.4309 -0.7943
 1696SOL    HW216551   2.381   3.846   2.043  0.3064  1.4892 -1.1281
 1697SOL     OW16552   0.729   2.305  11.226  0.3750  0.1195  0.5236
 1697SOL    HW116553   0.652   2.288  11.172  1.5489 -1.1853 -0.7276
 1697SOL    HW216554   0.757   2.385  11.181  0.0796 -0.4096 -0.6029
 1698SOL     OW16555   0.881   3.694   4.375 -0.0000 -0.2304  0.3125
 1698SOL    HW116556   0.975   3.707   4.391 -0.2815  3.0224 -0.7241
 1698SOL    HW216557   0.887   3.636   4.299  1.9088 -1.4933  1.4153
 1699SOL     OW16558   2.070   1.658   8.275 -0.2028  0.0157  0.2461
 1699SOL    HW116559   1.976   1.650   8.292  0.2567 -0.9840  2.3115
 1699SOL    HW216560   2.079   1.619   8.188  2.9327 -0.4481  0.7599
 1700SOL     OW16561   1.009   3.186  15.981  0.3498 -0.2396  0.4474
 1700SOL    HW116562   0.979   3.248  16.048  0.1619 -2.2024  2.2122
 1700SOL    HW216563   1.011   3.234  15.899 -0.1030  0.4371  0.8291
 1701SOL     OW16564   2.792   0.376   8.200 -0.1223 -0.4188 -0.0137
 1701SOL    HW116565   2.765   0.449   8.144 -1.1378 -0.4879  0.3901
 1701SOL    HW216566   2.885   0.364   8.181 -0.4089 -2.6623  0.0065
 1702SOL     OW16567   3.521   1.083  13.447 -0.2650  0.1201 -0.5343
 1702SOL    HW116568   3.438   1.084  13.496  0.0218 -0.4764 -0.0322
 1702SOL    HW216569   3.562   1.165  13.473  0.0968 -0.2303 -0.0130
 1703SOL     OW16570   0.571   3.043   0.651 -0.6208  0.2529 -1.3606
 1703SOL    HW116571   0.525   2.982   0.709 -0.0112  1.6364  0.5968
 1703SOL    HW216572   0.521   3.119   0.680  0.2567  0.8418 -1.3751
 1704SOL     OW16573   1.007   0.677  16.890  0.4520  0.4113 -0.0075
 1704SOL    HW116574   1.029   0.585  16.895 -0.9865  0.0823  0.4544
 1704SOL    HW216575   0.956   0.681  16.971 -0.9310  0.8023 -0.8855
 1705SOL     OW16576   3.554   2.471  10.190 -0.7508  0.3842  0.0792
 1705SOL    HW116577   3.625   2.444  10.132 -1.6042  0.1403 -0.8591
 1705SOL    HW216578   3.580   2.451  10.279  2.0334 -0.4810 -0.9180
 1706SOL     OW16579   2.274   4.479   7.342 -0.5483 -0.1087  0.3085
 1706SOL    HW116580   2.328   4.552   7.373  0.4428  0.0734 -1.8614
 1706SOL    HW216581   2.256   4.501   7.251 -0.3457 -0.4137  0.1959
 1707SOL     OW16582   2.912   3.055   7.596  0.8958  0.1895 -0.2537
 1707SOL    HW116583   2.914   2.971   7.641 -0.5961  0.6737  0.7048
 1707SOL    HW216584   2.837   3.057   7.537  2.0500 -1.0138 -1.7701
 1708SOL     OW16585   2.924   1.807  12.052  0.1382  0.2728  0.5225
 1708SOL    HW116586   2.908   1.735  12.113  0.6367  0.3230  0.7147
 1708SOL    HW216587   2.833   1.835  12.039 -0.1286 -2.1830 -2.8735
 1709SOL     OW16588   2.499   3.411   1.799 -0.2147  0.5804  0.1550
 1709SOL    HW116589   2.472   3.482   1.742 -2.2452 -0.5959 -0.3633
 1709SOL    HW216590   2.586   3.438   1.828 -0.5451  1.6024  0.1712
 1710SOL     OW16591   3.545   1.196   2.233  0.4411 -0.7140 -0.1965
 1710SOL    HW116592   3.510   1.130   2.294 -3.0900 -1.5054 -3.0674
 1710SOL    HW216593   3.506   1.277   2.266 -0.5023 -1.1571 -0.1963
 1711SOL     OW16594   4.134   0.330  10.913  0.3621  0.4599  0.8812
 1711SOL    HW116595   4.192   0.319  10.838 -0.4320  0.7213  0.2299
 1711SOL    HW216596   4.075   0.259  10.889  1.1685 -0.7867  2.5921
 1712SOL     OW16597   3.792   3.710  17.424 -0.0522 -0.2552  0.0765
 1712SOL    HW116598   3.743   3.783  17.386  2.6845  1.9427  0.7108
 1712SOL    HW216599   3.811   3.747  17.510 -1.5186 -1.3840  0.8624
 1713SOL     OW16600   3.289   1.670   3.349 -0.0304  0.8350  0.5430
 1713SOL    HW116601   3.209   1.675   3.400  0.1274 -2.3776  1.1049
 1713SOL    HW216602   3.354   1.731   3.384 -0.3435  1.5064 -0.0496
 1714SOL     OW16603   2.243   3.389   2.820  0.4022  0.2064 -0.2457
 1714SOL    HW116604   2.272   3.399   2.729  0.5397 -0.1239 -0.2387
 1714SOL    HW216605   2.257   3.295   2.832 -0.5465  0.0861 -0.1350
 1715SOL     OW16606   0.900   3.591   0.163  0.4196  0.4106 -0.0267
 1715SOL    HW116607   0.821   3.642   0.182 -0.7683 -1.5637  0.3238
 1715SOL    HW216608   0.921   3.634   0.080  1.6438  0.0090  0.0844
 1716SOL     OW16609   2.445   2.983   5.010 -0.5372  0.5721 -0.2545
 1716SOL    HW116610   2.534   3.004   4.981 -0.2493  1.0299  0.9703
 1716SOL    HW216611   2.444   3.029   5.094 -0.5245  0.3647 -0.1399
 1717SOL     OW16612   3.396   4.533   8.609  0.1744  0.1932  0.0055
 1717SOL    HW116613   3.362   4.475   8.542 -0.5428 -0.0857  0.6060
 1717SOL    HW216614   3.425   4.465   8.670  0.4510 -1.2268 -1.7319
 1718SOL     OW16615   3.091   2.932   8.451  0.2737  0.5787 -0.2202
 1718SOL    HW116616   3.005   2.897   8.476  0.6058 -0.0981 -0.0320
 1718SOL    HW216617   3.100   2.990   8.527  0.0501  0.5347 -0.1577
 1719SOL     OW16618   4.415   2.578   1.951 -0.2966  1.1319  0.2216
 1719SOL    HW116619   4.369   2.661   1.948 -0.6544  1.0652  3.8110
 1719SOL    HW216620   4.403   2.546   1.862 -1.7260  0.3694  0.6972
 1720SOL     OW16621   2.180   0.279  17.145 -0.0487  0.1688 -0.1407
 1720SOL    HW116622   2.144   0.283  17.056 -1.1246  0.2315  0.2920
 1720SOL    HW216623   2.153   0.188  17.159  3.1298 -1.2391 -3.1264
 1721SOL     OW16624   4.529   4.026   7.619 -0.2938  0.6368  0.5428
 1721SOL    HW116625   4.581   3.992   7.692  0.5668 -2.3234 -1.4311
 1721SOL    HW216626   4.461   3.959   7.617  1.3491 -1.0464  1.9726
 1722SOL     OW16627   4.580   1.849  13.939 -0.1295 -0.3981 -0.0967
 1722SOL    HW116628   4.516   1.920  13.949  0.5353  0.0172  1.1891
 1722SOL    HW216629   4.549   1.803  14.016 -1.4509 -1.0790 -1.0390
 1723SOL     OW16630   4.112   1.942   7.962 -0.1720  0.1262  0.4332
 1723SOL    HW116631   4.139   2.030   7.989  4.4396 -0.5245 -1.9943
 1723SOL    HW216632   4.136   1.927   7.870 -1.1729 -3.5510  0.7610
 1724SOL     OW16633   0.425   3.461  11.377 -0.0303 -0.4971 -0.1081
 1724SOL    HW116634   0.428   3.547  11.336 -0.8635 -0.6098 -0.4170
 1724SOL    HW216635   0.479   3.475  11.454 -0.2858 -0.2560  0.0275
 1725SOL     OW16636   0.422   4.530   9.555  0.3957  0.8514 -0.0059
 1725SOL    HW116637   0.499   4.577   9.589  0.2644 -0.9537  2.8294
 1725SOL    HW216638   0.464   4.488   9.481  1.5786  0.0835  1.0896
 1726SOL     OW16639   0.201   1.414   2.671  0.9546  0.0721 -0.0186
 1726SOL    HW116640   0.289   1.391   2.644  1.0897  1.6180 -0.9512
 1726SOL    HW216641   0.195   1.368   2.755  2.1830 -0.6261 -0.3141
 1727SOL     OW16642   0.015   1.808   8.950  0.0627  0.3718  0.5284
 1727SOL    HW116643   0.043   1.883   9.003 -1.0949  0.7677  0.5813
 1727SOL    HW216644   4.681   1.760   9.016 -0.0090 -1.2346 -0.6969
 1728SOL     OW16645   2.114   1.744   4.810  0.0814  0.2704  0.4089
 1728SOL    HW116646   2.039   1.726   4.867 -0.5015 -0.1180 -0.4704
 1728SOL    HW216647   2.166   1.797   4.870 -0.3604  0.4791  0.6109
 1729SOL     OW16648   4.429   2.575  13.259 -0.0749 -0.0217  0.1268
 1729SOL    HW116649   4.446   2.590  13.166 -1.4396 -2.6417 -0.5614
 1729SOL    HW216650   4.404   2.482  13.259  2.2377 -0.6284  0.7374
 1730SOL     OW16651   4.048   2.404   9.249  0.4325  0.6180  0.8284
 1730SOL    HW116652   4.111   2.475   9.234  0.8823 -0.2941 -1.6147
 1730SOL    HW216653   4.105   2.327   9.251  1.4107  1.3941  2.9126
 1731SOL     OW16654   3.221   3.305   4.345  0.3119  0.4699  0.1466
 1731SOL    HW116655   3.254   3.379   4.396 -0.3565 -0.1797  1.4935
 1731SOL    HW216656   3.196   3.355   4.267  1.0900 -0.5414 -0.7499
 1732SOL     OW16657   4.151   3.940   4.324  0.0670  0.2742 -0.4005
 1732SOL    HW116658   4.107   4.024   4.330  0.0970  0.3954 -1.7602
 1732SOL    HW216659   4.137   3.911   4.234  0.3140 -1.2278  0.0486
 1733SOL     OW16660   1.647   3.007   8.061  0.2919  0.0416  0.1950
 1733SOL    HW116661   1.592   3.067   8.009  1.1193  0.8222  0.2259
 1733SOL    HW216662   1.673   2.936   8.002  0.5499  1.9357 -1.9863
 1734SOL     OW16663   1.725   3.496   6.391 -0.4314  0.0743  0.5781
 1734SOL    HW116664   1.796   3.545   6.350 -1.9083  4.0576  2.7475
 1734SOL    HW216665   1.776   3.419   6.415 -0.1380 -0.5090 -1.9432
 1735SOL     OW16666   4.347   0.579   2.955 -1.1020 -0.0746 -0.3065
 1735SOL    HW116667   4.396   0.651   2.916  0.3701 -0.7833  0.2621
 1735SOL    HW216668   4.271   0.620   2.996 -0.8478  2.2018 -2.1128
 1736SOL     OW16669   1.944   2.757  15.286  0.4886  0.7167  0.0029
 1736SOL    HW116670   1.976   2.786  15.201 -1.6095  1.5144 -0.5137
 1736SOL    HW216671   1.872   2.698  15.261  3.4524 -1.9597 -2.3105
 1737SOL     OW16672   2.962   2.663   3.271 -0.0478  0.5735 -0.1785
 1737SOL    HW116673   2.935   2.580   3.232  1.4503 -0.1042  0.2025
 1737SOL    HW216674   3.045   2.685   3.228 -0.0292  0.2777 -0.2966
 1738SOL     OW16675   0.169   2.432   5.367 -0.7893  0.0542  0.0789
 1738SOL    HW116676   0.083   2.413   5.404 -0.1643 -1.2636  0.8502
 1738SOL    HW216677   0.170   2.528   5.366 -1.9740  0.0686  2.0826
 1739SOL     OW16678   2.231   3.204   8.998 -0.3840  0.3512 -0.4300
 1739SOL    HW116679   2.327   3.204   8.994 -0.2892  1.6411  1.6691
 1739SOL    HW216680   2.209   3.214   8.905 -1.1785 -0.1702 -0.2895
 1740SOL     OW16681   0.357   1.966   5.173  0.0568 -0.2538 -0.3801
 1740SOL    HW116682   0.342   1.924   5.257  2.4015  0.9218  0.6366
 1740SOL    HW216683   0.329   2.054   5.199  0.9892 -0.3000  0.7819
 1741SOL     OW16684   3.130   3.803   2.634  0.2071  0.0045  0.1320
 1741SOL    HW116685   3.142   3.708   2.636  1.1622  0.1236  0.0260
 1741SOL    HW216686   3.117   3.825   2.726  1.6032  0.1112  0.3057
 1742SOL     OW16687   4.687   4.290  14.033 -1.0432 -0.1100 -0.1060
 1742SOL    HW116688   0.060   4.287  14.065 -1.9957  0.5037  2.5965
 1742SOL    HW216689   4.639   4.268  14.113 -0.9050  0.0006  0.0049
 1743SOL     OW16690   0.060   1.451   8.145  0.3721  0.0693 -0.1851
 1743SOL    HW116691   0.090   1.363   8.127  1.3062  0.3890 -0.1818
 1743SOL    HW216692   4.711   1.444   8.215  2.8337  2.1187  2.3727
 1744SOL     OW16693   1.515   4.415   8.790  0.8935 -0.6197 -0.4826
 1744SOL    HW116694   1.461   4.351   8.745  1.5399 -0.6148 -1.2721
 1744SOL    HW216695   1.502   4.492   8.734  1.3441 -0.4183 -0.3102
 1745SOL     OW16696   0.045   4.304   2.386 -0.1684 -0.2589 -0.5337
 1745SOL    HW116697   0.140   4.312   2.385 -0.2863  1.4199  2.4248
 1745SOL    HW216698   0.019   4.358   2.460  1.2429  2.1419 -1.7870
 1746SOL     OW16699   2.965   0.137  10.464 -0.2788  0.6639 -0.4884
 1746SOL    HW116700   3.040   0.159  10.409  0.8094 -3.3823 -0.6180
 1746SOL    HW216701   2.999   0.135  10.554  0.1159  2.5982 -0.5971
 1747SOL     OW16702   1.155   0.179   1.693  0.1699  0.0547 -0.5371
 1747SOL    HW116703   1.127   0.093   1.663 -0.9299 -0.0647  0.8617
 1747SOL    HW216704   1.142   0.229   1.612 -3.6565  2.0132  1.2731
 1748SOL     OW16705   2.851   0.340  14.455  0.1945  0.4080 -0.4922
 1748SOL    HW116706   2.905   0.409  14.417  0.5856 -0.1607 -0.9611
 1748SOL    HW216707   2.910   0.300  14.519 -1.3619 -0.1463  0.6249
 1749SOL     OW16708   0.413   2.387   0.338 -0.3501 -0.3299  0.1999
 1749SOL    HW116709   0.389   2.480   0.343  0.5369 -0.0684 -0.3847
 1749SOL    HW216710   0.347   2.363   0.273 -1.6822  1.4429  0.8920
 1750SOL     OW16711   2.327   4.611  16.668  0.4536  0.1307  0.2540
 1750SOL    HW116712   2.296   4.627  16.579 -0.2536 -1.2746  0.2503
 1750SOL    HW216713   2.295   4.523  16.688 -1.9353  1.1883  1.0188
 1751SOL     OW16714   0.463   0.314   4.234  0.4512  0.4069  0.4820
 1751SOL    HW116715   0.412   0.394   4.245  0.0802 -0.1338  2.6318
 1751SOL    HW216716   0.491   0.290   4.323 -0.9046 -0.8907  0.5400
 1752SOL     OW16717   0.826   1.996   3.547  0.0851 -0.3426  0.3786
 1752SOL    HW116718   0.890   2.059   3.579  0.1935  0.7421 -1.9511
 1752SOL    HW216719   0.879   1.916   3.557  0.2773 -0.4560 -1.3722
 1753SOL     OW16720   3.701   3.724  12.766  0.1083 -0.4231 -0.1826
 1753SOL    HW116721   3.617   3.679  12.773  0.3476 -1.0289 -1.2279
 1753SOL    HW216722   3.731   3.698  12.853 -0.5688  0.8647  0.4470
 1754SOL     OW16723   1.144   2.543  16.740  0.3641  0.0505  0.0765
 1754SOL    HW116724   1.074   2.580  16.685 -0.9617  0.1971  1.8573
 1754SOL    HW216725   1.121   2.452  16.722  1.0545  0.2002 -1.6356
 1755SOL     OW16726   1.334   1.012   7.263  0.1419  0.8414 -0.9624
 1755SOL    HW116727   1.265   1.076   7.243 -1.3472 -0.5424 -0.2851
 1755SOL    HW216728   1.376   1.050   7.340 -1.1279 -0.3365  0.3220
 1756SOL     OW16729   1.484   3.920   5.227  0.2644 -0.1233  0.0615
 1756SOL    HW116730   1.471   3.926   5.322 -3.7131 -0.5847 -0.4247
 1756SOL    HW216731   1.577   3.898   5.232 -0.3868 -2.5337  1.3528
 1757SOL     OW16732   2.322   0.219   7.406  0.0004  0.1077 -0.0111
 1757SOL    HW116733   2.382   0.290   7.381 -2.3463  1.5293 -1.6236
 1757SOL    HW216734   2.290   0.249   7.491 -2.3947  1.5580 -1.4141
 1758SOL     OW16735   0.951   4.168   2.540 -0.1772  0.1474  0.0605
 1758SOL    HW116736   0.916   4.114   2.468 -0.3861 -0.0266  0.2929
 1758SOL    HW216737   1.030   4.117   2.556 -0.4095 -0.4564 -0.6792
 1759SOL     OW16738   1.610   4.691  13.480 -0.4120  0.0922  0.8283
 1759SOL    HW116739   1.608   0.002  13.572 -0.6473 -0.0006  0.8502
 1759SOL    HW216740   1.527   0.012  13.452  0.8431  0.7281 -1.9536
 1760SOL     OW16741   1.815   2.386   2.418 -0.0171  0.0116 -0.2272
 1760SOL    HW116742   1.875   2.451   2.454 -1.3724  0.8793  0.4698
 1760SOL    HW216743   1.748   2.388   2.487  1.6890  0.5116  1.4203
 1761SOL     OW16744   0.578   0.023   1.725 -0.0685 -0.1797 -0.2546
 1761SOL    HW116745   0.561   0.001   1.816 -1.0874  1.1801 -0.1014
 1761SOL    HW216746   0.653   0.083   1.726  0.4996 -0.9162  0.2054
 1762SOL     OW16747   0.454   2.300   7.453 -0.2200  0.1970 -0.3702
 1762SOL    HW116748   0.493   2.294   7.541  1.4480  1.8070 -1.0216
 1762SOL    HW216749   0.368   2.333   7.477  0.5875  1.8611  0.2395
 1763SOL     OW16750   3.400   0.954  15.423 -0.0462 -0.0027  0.1369
 1763SOL    HW116751   3.485   0.918  15.446 -0.7667 -2.0018 -0.2921
 1763SOL    HW216752   3.406   0.940  15.328 -1.0430  1.6892 -0.1752
 1764SOL     OW16753   0.287   0.074   7.191  0.6903  0.1406  0.1543
 1764SOL    HW116754   0.351   0.004   7.205 -0.3532 -0.5861  1.2845
 1764SOL    HW216755   0.214   0.026   7.152 -1.8450  2.3482  2.1517
 1765SOL     OW16756   1.610   1.347   7.351  0.0765 -0.3272 -0.0622
 1765SOL    HW116757   1.679   1.406   7.383 -0.4500  0.6375 -0.7313
 1765SOL    HW216758   1.655   1.263   7.344 -0.5516 -0.8517  2.0956
 1766SOL     OW16759   1.608   1.833  16.232  0.1532 -0.3119 -0.7389
 1766SOL    HW116760   1.635   1.759  16.286 -1.4356  1.5777  2.6485
 1766SOL    HW216761   1.516   1.851  16.253  0.5323  0.0530  0.5885
 1767SOL     OW16762   2.852   3.939   7.288 -0.4825 -0.9034 -0.1312
 1767SOL    HW116763   2.929   3.956   7.233 -0.3861 -0.4439  0.1430
 1767SOL    HW216764   2.777   3.943   7.228 -1.9674  0.7288  1.8366
 1768SOL     OW16765   4.407   0.388   5.789  0.2773 -0.3232  0.3252
 1768SOL    HW116766   4.399   0.296   5.765  1.1554  0.2627 -2.1847
 1768SOL    HW216767   4.447   0.380   5.876  0.6267 -3.7097 -0.1330
 1769SOL     OW16768   1.715   3.694   8.219  0.5120 -0.0580 -0.3739
 1769SOL    HW116769   1.736   3.641   8.142  2.7911 -0.5785  0.5930
 1769SOL    HW216770   1.805   3.700   8.253 -0.0184 -1.7916  1.3774
 1770SOL     OW16771   3.311   2.748   6.666 -0.6954  0.3662 -0.2872
 1770SOL    HW116772   3.218   2.771   6.659 -1.4056 -1.7164  2.0895
 1770SOL    HW216773   3.324   2.728   6.759  0.2916  3.3632  0.1956
 1771SOL     OW16774   0.829   3.202   4.596 -0.2147 -0.6266  1.2651
 1771SOL    HW116775   0.900   3.160   4.548 -0.4065 -0.1944  0.6118
 1771SOL    HW216776   0.863   3.176   4.682  1.6704 -0.0676  0.6979
 1772SOL     OW16777   4.039   0.691   4.201 -0.1025 -0.4796 -0.4795
 1772SOL    HW116778   4.130   0.661   4.204  0.0947  0.1233 -0.6442
 1772SOL    HW216779   4.020   0.690   4.108 -1.4220 -2.1345 -0.1966
 1773SOL     OW16780   3.764   0.327  11.401  0.0742 -0.1315  0.3857
 1773SOL    HW116781   3.712   0.404  11.422 -2.5523 -1.6415 -0.6347
 1773SOL    HW216782   3.705   0.300  11.331  0.0782 -1.1391  0.7864
 1774SOL     OW16783   3.595   2.738   4.216  0.0595  0.5909 -0.2408
 1774SOL    HW116784   3.573   2.662   4.270 -2.1644  3.0837  2.3707
 1774SOL    HW216785   3.652   2.791   4.273 -0.4495  1.3587 -0.4462
 1775SOL     OW16786   2.870   3.251   4.830  0.4416 -0.5942  0.3649
 1775SOL    HW116787   2.796   3.302   4.799  0.5054 -0.3162  0.6675
 1775SOL    HW216788   2.920   3.317   4.878 -0.7269  1.1849 -0.9018
 1776SOL     OW16789   4.094   3.269   0.310 -0.6623  0.2826  0.1536
 1776SOL    HW116790   4.037   3.296   0.238 -0.3327  1.6120  0.3914
 1776SOL    HW216791   4.178   3.245   0.270 -0.7007  0.1823  0.1347
 1777SOL     OW16792   3.492   0.137  14.172 -0.4191 -0.1126  0.6832
 1777SOL    HW116793   3.539   0.058  14.146  3.1822  2.7223 -1.3414
 1777SOL    HW216794   3.477   0.170  14.084  1.7287  1.0206  0.7364
 1778SOL     OW16795   1.577   0.271  16.161  0.3505  0.5999 -0.5190
 1778SOL    HW116796   1.658   0.255  16.113  0.0892  0.1056 -0.7867
 1778SOL    HW216797   1.547   0.180  16.169  1.2806  0.3942  0.6831
 1779SOL     OW16798   1.576   2.606  17.556  0.3541 -0.2959  0.1918
 1779SOL    HW116799   1.593   2.648  17.641 -1.2636 -0.3174  0.5225
 1779SOL    HW216800   1.484   2.620  17.536  0.5611  1.0976  0.2090
 1780SOL     OW16801   0.225   2.331   0.152  0.0613 -0.4103 -0.0396
 1780SOL    HW116802   0.174   2.405   0.184  0.6297 -0.3518  0.7369
 1780SOL    HW216803   0.159   2.263   0.166 -0.9392  0.2382 -1.5731
 1781SOL     OW16804   2.390   2.628   4.261 -0.6527  0.3232  0.2424
 1781SOL    HW116805   2.486   2.637   4.260 -0.8099  2.1432  0.2612
 1781SOL    HW216806   2.364   2.627   4.169  0.9653  1.2925 -0.2332
 1782SOL     OW16807   0.754   0.237   2.518 -0.5849 -0.2904 -0.0487
 1782SOL    HW116808   0.665   0.225   2.485  0.0405  1.2946 -2.3623
 1782SOL    HW216809   0.814   0.177   2.476 -0.8585 -0.5372 -0.0864
 1783SOL     OW16810   4.170   1.575  10.491 -0.3275  0.9086  0.0020
 1783SOL    HW116811   4.221   1.623  10.556  1.8872 -3.0265  1.1917
 1783SOL    HW216812   4.194   1.615  10.407 -2.2566 -0.1592 -1.0449
 1784SOL     OW16813   3.935   0.561   2.886 -0.2167 -0.2846 -0.3150
 1784SOL    HW116814   4.005   0.522   2.834  0.8772 -0.2109  1.1095
 1784SOL    HW216815   3.883   0.613   2.825 -1.5752 -1.3051 -0.0306
 1785SOL     OW16816   1.288   3.815   5.055  0.8155 -0.3409 -0.0368
 1785SOL    HW116817   1.259   3.730   5.089  0.7489  0.9007  3.0143
 1785SOL    HW216818   1.365   3.844   5.103  0.9354 -0.8740  0.0961
 1786SOL     OW16819   0.077   3.397   5.222  0.6260  0.6830  0.2789
 1786SOL    HW116820   0.131   3.422   5.297 -0.0319  0.9686  0.6597
 1786SOL    HW216821   0.106   3.305   5.225  2.2318  1.1806 -0.0450
 1787SOL     OW16822   3.191   3.241   9.611 -0.1234 -0.0266  0.0852
 1787SOL    HW116823   3.212   3.187   9.535  1.3220  0.5223  0.0969
 1787SOL    HW216824   3.187   3.327   9.571  0.2752  0.0904  0.2986
 1788SOL     OW16825   0.082   2.521   6.933  0.1835 -0.6960  0.0817
 1788SOL    HW116826   0.051   2.568   7.010  0.0432  2.1386 -1.7193
 1788SOL    HW216827   0.170   2.554   6.916 -0.5886  1.6661  0.7144
 1789SOL     OW16828   0.427   3.310   2.887  0.4592 -0.5025  0.0957
 1789SOL    HW116829   0.489   3.255   2.934  0.3951 -0.3615  0.3476
 1789SOL    HW216830   0.349   3.327   2.939 -1.1327 -1.5498 -1.9245
 1790SOL     OW16831   0.585   4.035   6.656  0.7987 -0.0594  0.5148
 1790SOL    HW116832   0.532   3.989   6.590  1.0110 -0.4433  0.6085
 1790SOL    HW216833   0.643   4.096   6.610 -0.5737  1.8479  1.3363
 1791SOL     OW16834   0.844   3.770   2.208  0.2347 -0.6562  0.5203
 1791SOL    HW116835   0.788   3.705   2.164  0.1176  1.1277 -2.0050
 1791SOL    HW216836   0.930   3.747   2.172  1.8205  4.1945  1.2665
 1792SOL     OW16837   2.948   3.257   8.057  0.2786 -0.3214 -0.0490
 1792SOL    HW116838   2.916   3.168   8.074 -0.6963  0.0239 -0.1227
 1792SOL    HW216839   2.880   3.292   8.000  0.8070 -0.6499 -0.8941
 1793SOL     OW16840   0.027   0.245   0.386  0.4210 -0.2638 -0.2047
 1793SOL    HW116841   0.090   0.298   0.435 -0.2266 -0.0599  0.3937
 1793SOL    HW216842   0.040   0.266   0.293 -2.3011 -2.1614 -1.0002
 1794SOL     OW16843   1.872   4.365   2.387  0.6530 -0.4913  0.0839
 1794SOL    HW116844   1.925   4.429   2.434 -0.2994  1.4365 -1.4407
 1794SOL    HW216845   1.941   4.299   2.390  1.0453 -0.0549  0.7273
 1795SOL     OW16846   3.806   4.497   4.829 -0.0947 -0.1436  0.1203
 1795SOL    HW116847   3.751   4.568   4.794  3.6066  2.2640 -0.7362
 1795SOL    HW216848   3.751   4.420   4.816  0.4618 -0.2946 -1.3906
 1796SOL     OW16849   0.697   1.454   2.086  0.4448  0.8773  0.6313
 1796SOL    HW116850   0.764   1.424   2.025 -1.4622  0.6872 -1.3605
 1796SOL    HW216851   0.631   1.488   2.025 -0.0219  1.9058  1.7118
 1797SOL     OW16852   3.086   4.388   3.681  0.1454 -0.6537 -0.2105
 1797SOL    HW116853   3.045   4.470   3.654 -2.8015 -1.7180  0.9607
 1797SOL    HW216854   3.009   4.340   3.711 -1.9204  1.2945 -2.3832
 1798SOL     OW16855   3.671   4.111   5.946  0.0516  0.2606 -0.1252
 1798SOL    HW116856   3.715   4.029   5.924  2.4974  1.6529 -0.3542
 1798SOL    HW216857   3.625   4.078   6.023 -1.3430 -3.3851 -2.5266
 1799SOL     OW16858   3.413   0.403   8.174  0.7394 -0.3683  0.4228
 1799SOL    HW116859   3.440   0.317   8.142 -0.0078  0.7650 -3.2691
 1799SOL    HW216860   3.496   0.448   8.188  0.0542  0.6921  1.1384
 1800SOL     OW16861   2.998   4.080  14.649  0.0439  0.1452  0.0187
 1800SOL    HW116862   3.085   4.044  14.629  1.0645  2.9619 -0.6501
 1800SOL    HW216863   2.945   4.018  14.599  1.4440  0.9261 -2.4381
 1801SOL     OW16864   0.327   3.772   0.328 -0.0612  0.9104  0.2055
 1801SOL    HW116865   0.233   3.765   0.313  0.3515 -0.0328 -1.9278
 1801SOL    HW216866   0.362   3.717   0.258  2.3163  2.0693  0.5041
 1802SOL     OW16867   0.971   4.450   0.712  0.1593  0.4430 -0.4261
 1802SOL    HW116868   0.937   4.467   0.800  1.3684  1.6478 -0.1816
 1802SOL    HW216869   0.919   4.512   0.661  0.5577  0.7867 -0.4125
 1803SOL     OW16870   3.319   2.068   5.007  0.1326  0.2957  0.3737
 1803SOL    HW116871   3.372   2.126   5.061  0.0427 -0.3087  1.1178
 1803SOL    HW216872   3.384   2.003   4.978 -0.9522 -1.7846  2.5470
 1804SOL     OW16873   3.843   3.418   6.168 -0.4664 -1.2563  0.8240
 1804SOL    HW116874   3.876   3.487   6.227  0.3137 -2.8613  2.2866
 1804SOL    HW216875   3.881   3.341   6.211  0.4448 -0.2392  1.8592
 1805SOL     OW16876   1.338   2.706   1.509  0.1375 -0.1554 -0.6432
 1805SOL    HW116877   1.390   2.664   1.578  0.3688 -1.1391 -1.4194
 1805SOL    HW216878   1.371   2.797   1.507  0.9813 -0.3991  1.8468
 1806SOL     OW16879   0.668   4.358   5.295  0.0420  0.0057  0.3480
 1806SOL    HW116880   0.710   4.276   5.269  0.3946  0.3214 -0.0917
 1806SOL    HW216881   0.692   4.359   5.387  3.4645  0.6706 -0.5636
 1807SOL     OW16882   0.135   3.705  13.878  0.5148 -0.5114 -0.1742
 1807SOL    HW116883   0.207   3.643  13.881  0.7633 -0.0390  3.2214
 1807SOL    HW216884   0.073   3.648  13.923  0.6143  1.2703  2.2075
 1808SOL     OW16885   1.069   4.172   6.204 -0.3255  0.3742  0.3692
 1808SOL    HW116886   1.059   4.224   6.124 -1.0976 -0.1274  0.1393
 1808SOL    HW216887   1.043   4.089   6.165 -1.5175 -0.0178  2.0089
 1809SOL     OW16888   2.650   1.574  16.211 -0.5627  0.7071 -0.4522
 1809SOL    HW116889   2.708   1.504  16.243 -0.3482  1.0432 -0.1139
 1809SOL    HW216890   2.563   1.563  16.248 -0.6173  0.1158 -0.7538
 1810SOL     OW16891   0.019   0.846   4.953 -0.6774 -0.9713  0.1851
 1810SOL    HW116892   0.105   0.811   4.932  0.1879  3.1112 -3.1525
 1810SOL    HW216893   0.048   0.882   5.036 -0.8540  0.2107 -0.2547
 1811SOL     OW16894   3.451   3.359   5.287 -0.5464  0.2043  0.5943
 1811SOL    HW116895   3.427   3.444   5.324 -1.5878 -1.0109  2.7299
 1811SOL    HW216896   3.486   3.386   5.203  0.3879  0.4701  1.0642
 1812SOL     OW16897   4.616   3.699   4.721 -0.6744 -0.9466 -0.3732
 1812SOL    HW116898   4.533   3.747   4.728 -0.2997 -0.6489  2.0819
 1812SOL    HW216899   4.636   3.726   4.631  0.1867  3.5660  1.1762
 1813SOL     OW16900   2.212   0.169   3.204 -0.3078  0.9175 -0.0672
 1813SOL    HW116901   2.271   0.163   3.279  0.9440  2.4534 -0.9461
 1813SOL    HW216902   2.257   0.234   3.150  0.2868 -0.2909 -1.0336
 1814SOL     OW16903   4.670   4.595  14.162 -0.0448  0.1648 -0.1501
 1814SOL    HW116904   0.029   4.597  14.103  0.3815 -1.0168  0.3352
 1814SOL    HW216905   4.674   4.506  14.199 -0.7056  0.6005  0.9618
 1815SOL     OW16906   1.355   4.503   4.368  0.4974 -0.4797  0.2356
 1815SOL    HW116907   1.272   4.516   4.414  0.0367 -0.7860 -0.5061
 1815SOL    HW216908   1.365   4.589   4.328  1.8742 -1.4872 -1.6425
 1816SOL     OW16909   2.839   2.232   3.498 -0.0511  0.4733 -0.2911
 1816SOL    HW116910   2.917   2.182   3.521  0.3444  1.3060  0.2016
 1816SOL    HW216911   2.773   2.163   3.502  2.1036 -1.6404 -1.6196
 1817SOL     OW16912   0.489   3.388   2.522  0.2892  0.7874 -0.3044
 1817SOL    HW116913   0.447   3.302   2.517  1.9167 -0.0240 -0.0543
 1817SOL    HW216914   0.432   3.431   2.458 -1.1447 -1.0181 -0.2382
 1818SOL     OW16915   3.899   1.197  14.315  0.0098  0.0860  0.2600
 1818SOL    HW116916   3.814   1.183  14.272 -1.0980  1.6491  1.9649
 1818SOL    HW216917   3.867   1.218  14.403 -0.4478  1.3250 -0.1984
 1819SOL     OW16918   1.321   1.690   2.113 -0.2726  0.1757  0.1835
 1819SOL    HW116919   1.353   1.632   2.182  0.3930  1.5118  0.9927
 1819SOL    HW216920   1.227   1.692   2.130 -0.6215  1.1288 -1.8045
 1820SOL     OW16921   0.308   1.073   8.347 -0.0888 -0.3134 -0.0005
 1820SOL    HW116922   0.216   1.098   8.358  0.3440 -0.1062  3.1309
 1820SOL    HW216923   0.331   1.164   8.326 -1.2246 -0.0370 -0.0416
 1821SOL     OW16924   3.034   1.721   9.490 -0.2547 -0.3293  0.2336
 1821SOL    HW116925   3.086   1.654   9.445  0.4280  1.0222 -1.0129
 1821SOL    HW216926   2.947   1.702   9.454 -0.6492 -0.9999  1.5610
 1822SOL     OW16927   4.046   0.176   2.601 -0.0568 -0.3337  0.0901
 1822SOL    HW116928   3.952   0.179   2.620  0.4033 -0.7344  2.4211
 1822SOL    HW216929   4.060   0.262   2.560  0.3005  0.6925  2.3565
 1823SOL     OW16930   4.386   2.301   8.316 -0.5124 -0.2121  0.0791
 1823SOL    HW116931   4.390   2.212   8.279  1.6962 -0.4318  0.8663
 1823SOL    HW216932   4.311   2.335   8.268 -0.3524 -0.7842 -0.5794
 1824SOL     OW16933   3.711   0.572   2.479  0.4055  0.3996  0.6434
 1824SOL    HW116934   3.745   0.650   2.524 -0.8375  0.5933  1.2291
 1824SOL    HW216935   3.622   0.601   2.458 -0.0819 -0.9757  0.8312
 1825SOL     OW16936   2.345   1.380  10.124 -0.5891 -0.5370  0.7326
 1825SOL    HW116937   2.400   1.303  10.115 -0.0077 -0.4102  3.0998
 1825SOL    HW216938   2.337   1.394  10.219 -1.1459 -1.0697  0.7645
 1826SOL     OW16939   0.262   0.469   3.500  0.2257 -0.0042 -0.0255
 1826SOL    HW116940   0.349   0.483   3.463 -0.5494 -2.1893 -2.6787
 1826SOL    HW216941   0.247   0.563   3.509 -1.2763 -0.0921 -1.6326
 1827SOL     OW16942   0.534   2.222   7.217 -0.2309 -0.0970 -0.2754
 1827SOL    HW116943   0.624   2.243   7.243 -1.2527  1.0541  2.3335
 1827SOL    HW216944   0.487   2.244   7.298 -0.6715  1.3332 -0.9228
 1828SOL     OW16945   1.820   2.088  11.166 -0.2419  0.2427 -0.1120
 1828SOL    HW116946   1.914   2.082  11.149 -0.2471 -1.9473  0.6532
 1828SOL    HW216947   1.806   2.005  11.210  0.4266 -0.9218 -2.1077
 1829SOL     OW16948   0.011   1.793   7.206 -0.0624 -0.9030 -0.4750
 1829SOL    HW116949   0.102   1.806   7.178  0.4628  0.6391  1.9459
 1829SOL    HW216950   4.708   1.702   7.182  2.3623 -1.2485 -1.1732
 1830SOL     OW16951   3.555   0.819  15.962  1.0376 -0.4262 -0.0386
 1830SOL    HW116952   3.629   0.848  16.014 -0.6750  3.5005  0.1690
 1830SOL    HW216953   3.584   0.762  15.890 -0.4469  0.3037 -1.2150
 1831SOL     OW16954   2.126   2.777   9.670 -0.1904  0.5576 -0.2238
 1831SOL    HW116955   2.179   2.850   9.638  1.5416 -0.1970  0.9405
 1831SOL    HW216956   2.159   2.705   9.617 -0.2580  0.0173  0.4605
 1832SOL     OW16957   2.045   2.081   3.460  0.4292  0.4095 -0.2345
 1832SOL    HW116958   2.072   2.010   3.403  0.0882  1.1742 -1.3444
 1832SOL    HW216959   1.971   2.115   3.409 -0.9900  0.1068  1.5931
 1833SOL     OW16960   4.677   1.059   5.906  0.6250 -0.0926  0.0719
 1833SOL    HW116961   0.038   1.097   5.865  1.3753 -1.1417  0.5264
 1833SOL    HW216962   4.688   1.105   5.989 -2.2006  0.5561  0.1017
 1834SOL     OW16963   0.999   0.636   3.601 -0.2989  0.8319 -0.3716
 1834SOL    HW116964   0.929   0.571   3.608  0.3207  0.4436  2.0342
 1834SOL    HW216965   1.062   0.615   3.670 -0.5275 -1.3605 -0.8201
 1835SOL     OW16966   4.608   2.370   6.055 -0.2329 -0.0807 -0.4767
 1835SOL    HW116967   4.542   2.308   6.087 -0.8553  1.2681  0.8500
 1835SOL    HW216968   4.676   2.316   6.015 -0.4236 -1.9507  1.6526
 1836SOL     OW16969   3.577   3.501   5.095  0.4372 -0.0772  0.4268
 1836SOL    HW116970   3.628   3.569   5.137 -0.5432  0.4554  0.7461
 1836SOL    HW216971   3.583   3.519   5.001  0.7181 -0.9449  0.2820
 1837SOL     OW16972   4.369   2.586  14.159 -0.3053  0.3758  0.0886
 1837SOL    HW116973   4.335   2.647  14.224 -2.5605 -3.2608  2.3708
 1837SOL    HW216974   4.456   2.569  14.196  0.1844  3.8657  0.5415
 1838SOL     OW16975   1.108   1.552   9.790  0.2712 -0.4352 -0.3143
 1838SOL    HW116976   1.088   1.491   9.861  0.1285 -0.6094 -0.5036
 1838SOL    HW216977   1.183   1.504   9.755  0.8588  0.6448 -0.5219
 1839SOL     OW16978   1.292   3.341  17.547 -0.6726 -0.7465  0.5596
 1839SOL    HW116979   1.318   3.344  17.455 -0.1567 -0.9214  0.7008
 1839SOL    HW216980   1.204   3.378  17.549  0.6099  2.3440  0.8729
 1840SOL     OW16981   3.319   2.328  11.746 -0.0625  0.1182  0.2286
 1840SOL    HW116982   3.327   2.365  11.834  0.6694 -3.9510  1.8784
 1840SOL    HW216983   3.331   2.406  11.693 -0.0444 -0.0762 -0.0521
 1841SOL     OW16984   2.848   4.355   7.152 -0.2370  0.8616 -0.1899
 1841SOL    HW116985   2.802   4.438   7.134 -1.6387  0.6209  2.1604
 1841SOL    HW216986   2.829   4.307   7.072  1.9654 -0.9175  0.3826
 1842SOL     OW16987   3.231   3.352   6.732 -0.6549 -0.1329 -0.1114
 1842SOL    HW116988   3.270   3.408   6.664 -1.4119  0.6061  0.0530
 1842SOL    HW216989   3.244   3.412   6.806 -0.2801 -0.2716 -0.0691
 1843SOL     OW16990   1.701   4.560   2.405  0.1310 -0.3324  0.3928
 1843SOL    HW116991   1.727   4.468   2.402 -0.7872 -0.6475  1.7027
 1843SOL    HW216992   1.783   4.600   2.375  0.0379  0.3901  1.0820
 1844SOL     OW16993   2.356   2.070  11.089 -0.2402 -0.8895  0.2727
 1844SOL    HW116994   2.354   2.101  10.998  1.2841 -1.7291 -0.0480
 1844SOL    HW216995   2.440   2.024  11.091  1.2643  1.9197  0.9900
 1845SOL     OW16996   4.123   1.124  17.346  0.0554  0.0035  0.1933
 1845SOL    HW116997   4.169   1.046  17.378  0.4799  0.3840  0.5027
 1845SOL    HW216998   4.126   1.177  17.425 -0.1007  1.6770 -0.9410
 1846SOL     OW16999   4.573   1.727   2.650 -0.3302 -0.0163  0.3601
 1846SOL    HW117000   4.572   1.664   2.578  0.5846  1.5431 -1.0397
 1846SOL    HW217001   4.575   1.670   2.726  1.5571 -0.0146  0.3107
 1847SOL     OW17002   3.051   1.729   3.529  0.0854 -0.1525  0.7045
 1847SOL    HW117003   2.985   1.775   3.581 -2.0581 -0.0534 -2.1401
 1847SOL    HW217004   3.076   1.796   3.465 -0.6367 -2.7855 -2.2954
 1848SOL     OW17005   3.106   0.651   9.494 -0.4470  0.2933  0.1034
 1848SOL    HW117006   3.111   0.625   9.402 -0.8577 -1.4299  0.5633
 1848SOL    HW217007   3.039   0.593   9.531  0.6698 -2.6737 -2.4923
 1849SOL     OW17008   2.754   0.785   1.272 -0.1915 -0.0236  0.4190
 1849SOL    HW117009   2.661   0.796   1.256  0.0653  0.9645 -0.4528
 1849SOL    HW217010   2.763   0.821   1.360  3.3442 -1.0034  0.4884
 1850SOL     OW17011   3.521   2.280   4.862 -0.9178  0.3987  0.1958
 1850SOL    HW117012   3.472   2.284   4.944  1.0213  3.2285  1.2170
 1850SOL    HW217013   3.446   2.280   4.802 -0.2838 -0.0753 -0.5911
 1851SOL     OW17014   4.358   1.089  16.701 -0.2189 -0.1609  0.1374
 1851SOL    HW117015   4.378   1.060  16.790 -0.6485  0.9575  0.6103
 1851SOL    HW217016   4.420   1.028  16.662  0.5468 -0.2178  1.4135
 1852SOL     OW17017   4.584   0.006  11.200  0.3151  0.0205 -0.1680
 1852SOL    HW117018   4.558   4.664  11.129  1.6175  0.0752 -0.6809
 1852SOL    HW217019   4.641   0.065  11.151 -0.9710  1.0403 -0.4602
 1853SOL     OW17020   2.241   0.761   3.267 -0.2897 -0.5109 -0.2501
 1853SOL    HW117021   2.183   0.685   3.260 -0.1762 -0.8274  2.2671
 1853SOL    HW217022   2.261   0.786   3.177 -3.1824 -1.0515 -1.0531
 1854SOL     OW17023   0.490   4.581   6.582 -0.2919  0.3469  0.0370
 1854SOL    HW117024   0.560   4.588   6.517  0.5889 -0.0156  0.9639
 1854SOL    HW217025   0.490   4.671   6.615  1.9878  0.1242  0.6570
 1855SOL     OW17026   4.177   2.476   5.092  0.5810  0.3072  0.1660
 1855SOL    HW117027   4.202   2.462   5.183 -0.1993  0.7114  0.4428
 1855SOL    HW217028   4.257   2.448   5.047 -0.0262 -1.7740  0.3988
 1856SOL     OW17029   0.346   3.756   9.132  0.7441  0.4838 -0.0656
 1856SOL    HW117030   0.338   3.765   9.227 -1.2779  2.1362 -0.3655
 1856SOL    HW217031   0.347   3.663   9.113  1.4608  0.5135 -0.1597
 1857SOL     OW17032   0.803   2.110  14.660  0.6900 -0.0879 -0.5809
 1857SOL    HW117033   0.782   2.023  14.693 -0.0618  0.0813 -0.6047
 1857SOL    HW217034   0.889   2.117  14.700  0.1384  0.7322  0.4753
 1858SOL     OW17035   1.288   3.079   6.989  0.4597 -0.4192  0.1995
 1858SOL    HW117036   1.363   3.022   6.974  2.0526  2.4570 -2.6644
 1858SOL    HW217037   1.219   3.040   6.935  0.3708  1.6908 -1.2229
 1859SOL     OW17038   3.545   1.221   6.490  0.2901 -0.2179 -0.0560
 1859SOL    HW117039   3.541   1.150   6.426  3.4387 -0.3158 -0.1566
 1859SOL    HW217040   3.630   1.204   6.531  0.5371  0.6361 -0.2148
 1860SOL     OW17041   2.313   4.155   2.278 -0.5228 -0.5933 -0.0482
 1860SOL    HW117042   2.379   4.189   2.338  0.7199  1.5088 -2.6186
 1860SOL    HW217043   2.321   4.204   2.196 -0.8234 -1.0756 -0.3678
 1861SOL     OW17044   3.885   0.844  17.425  0.1781  0.1002 -0.0683
 1861SOL    HW117045   3.902   0.755  17.393  0.9527 -0.6268  2.3591
 1861SOL    HW217046   3.972   0.883  17.427 -0.4645  1.5243  0.5364
 1862SOL     OW17047   4.377   3.405   1.478  0.0333 -0.2765  0.1227
 1862SOL    HW117048   4.349   3.316   1.497 -0.2221  0.0689  1.3866
 1862SOL    HW217049   4.358   3.412   1.385  1.8003  0.9311 -0.1562
 1863SOL     OW17050   2.970   1.866   8.628  0.4324 -0.9394 -0.1550
 1863SOL    HW117051   2.879   1.877   8.654  0.0618  3.9778 -3.6408
 1863SOL    HW217052   2.985   1.776   8.658 -1.0687 -0.9547  0.5314
 1864SOL     OW17053   4.133   1.362   7.056  0.2932  0.1617 -0.1357
 1864SOL    HW117054   4.073   1.434   7.076 -1.4113 -2.0890  2.7323
 1864SOL    HW217055   4.092   1.281   7.083 -1.1446 -0.3369 -3.8519
 1865SOL     OW17056   1.061   2.687   6.659  0.2386 -0.0256  0.3657
 1865SOL    HW117057   1.102   2.658   6.578 -2.9613  0.5839 -1.4353
 1865SOL    HW217058   0.982   2.633   6.665  0.4986 -0.3229  1.1302
 1866SOL     OW17059   1.110   2.138   4.033 -0.5861 -0.1317 -0.6150
 1866SOL    HW117060   1.052   2.114   4.105  0.6848 -1.4659 -0.0417
 1866SOL    HW217061   1.151   2.056   4.007 -0.9226 -1.4640  2.9544
 1867SOL     OW17062   3.065   1.882   0.898 -0.1652  0.4007 -0.1190
 1867SOL    HW117063   3.049   1.955   0.957  3.8354  1.3544 -0.1854
 1867SOL    HW217064   3.146   1.916   0.860  0.3960  0.1475  0.8349
 1868SOL     OW17065   3.286   2.592   7.651  0.0304  0.2580  0.6035
 1868SOL    HW117066   3.289   2.543   7.569 -1.4475  1.2379 -0.0279
 1868SOL    HW217067   3.350   2.540   7.700  0.9426  0.1777 -0.6722
 1869SOL     OW17068   2.755   4.004  10.534 -0.5785 -0.1359  0.3289
 1869SOL    HW117069   2.842   3.968  10.517 -0.4459  0.4703 -0.2954
 1869SOL    HW217070   2.713   3.923  10.560  0.1857 -0.5636  0.2291
 1870SOL     OW17071   4.080   2.139   3.818  0.3101  0.3667  0.3481
 1870SOL    HW117072   4.053   2.231   3.808  1.6161  0.9120  1.8449
 1870SOL    HW217073   4.167   2.149   3.857  0.3008 -0.7345  0.6580
 1871SOL     OW17074   4.059   3.464   0.490 -0.2155  0.3934  0.3541
 1871SOL    HW117075   4.074   3.382   0.444  1.5777  1.1418 -0.3868
 1871SOL    HW217076   4.137   3.513   0.467  1.3126 -1.8311  0.8428
 1872SOL     OW17077   3.338   0.096   8.372  0.1258 -0.8450 -0.1119
 1872SOL    HW117078   3.426   0.131   8.385 -0.5365  0.4663  0.9441
 1872SOL    HW217079   3.304   0.100   8.462  0.8775 -0.3465  0.1573
 1873SOL     OW17080   1.752   0.909   3.373  0.2578  0.3007  0.2271
 1873SOL    HW117081   1.671   0.909   3.322  0.4249 -0.5352 -0.0427
 1873SOL    HW217082   1.817   0.909   3.303 -1.8633  0.1520 -1.7386
 1874SOL     OW17083   2.328   2.709  13.200 -0.1043 -0.1029 -0.4358
 1874SOL    HW117084   2.295   2.799  13.208  4.3992  1.6629 -1.5654
 1874SOL    HW217085   2.327   2.712  13.104 -0.1926 -0.0321 -0.4330
 1875SOL     OW17086   1.152   2.664   0.156  0.1532  0.3453 -0.1632
 1875SOL    HW117087   1.119   2.700   0.238  0.8007  2.3724 -0.7999
 1875SOL    HW217088   1.243   2.639   0.171 -0.2112  0.0776  1.6325
 1876SOL     OW17089   2.865   0.420   4.819 -0.4301  0.5554 -0.3661
 1876SOL    HW117090   2.924   0.376   4.881 -0.0555  0.5475 -0.7287
 1876SOL    HW217091   2.787   0.388   4.864  1.3658 -0.8910  1.6957
 1877SOL     OW17092   0.028   0.138  11.704 -0.3761  0.1902 -0.1210
 1877SOL    HW117093   0.097   0.103  11.648 -0.6912  0.4918 -0.6976
 1877SOL    HW217094   0.033   0.088  11.785 -1.4917  0.0867 -0.1144
 1878SOL     OW17095   1.307   2.624  10.190 -0.1085  0.7781 -0.1444
 1878SOL    HW117096   1.277   2.659  10.273  0.2471 -0.0796  0.3396
 1878SOL    HW217097   1.225   2.629  10.141 -1.3843 -1.9326  1.7882
 1879SOL     OW17098   4.133   4.316   7.189  0.3066  0.0361 -0.2255
 1879SOL    HW117099   4.057   4.267   7.158 -0.0977 -0.6327  1.8503
 1879SOL    HW217100   4.193   4.310   7.114 -0.0220  3.2863 -0.7852
 1880SOL     OW17101   2.617   2.855   4.658 -0.6515 -0.1915  0.1101
 1880SOL    HW117102   2.567   2.936   4.645  1.3569  1.0562  0.3082
 1880SOL    HW217103   2.557   2.793   4.700  0.8602 -1.6582  0.0978
 1881SOL     OW17104   4.531   4.104   2.902 -0.4732 -0.2569 -0.2961
 1881SOL    HW117105   4.527   4.157   2.982  1.1923 -0.1097 -0.3015
 1881SOL    HW217106   4.469   4.150   2.845  1.4215  2.6844  0.0046
 1882SOL     OW17107   2.430   2.211   5.822 -0.4416 -0.6519 -0.4922
 1882SOL    HW117108   2.478   2.289   5.793  2.6621 -1.9615  1.0751
 1882SOL    HW217109   2.508   2.156   5.820 -1.0701 -1.6543  2.1739
 1883SOL     OW17110   1.833   0.580   0.581 -0.6821 -0.1302  0.2119
 1883SOL    HW117111   1.775   0.504   0.573 -1.3949  0.1959  2.3775
 1883SOL    HW217112   1.856   0.594   0.489 -1.8730  2.9587  0.3785
 1884SOL     OW17113   3.824   1.112   6.345 -0.2274 -0.6576  0.0091
 1884SOL    HW117114   3.900   1.100   6.402  0.1720 -0.1132 -0.4133
 1884SOL    HW217115   3.758   1.056   6.387  1.4182 -2.9442 -0.4433
 1885SOL     OW17116   2.884   0.997   0.127 -0.1615 -0.2180  0.6222
 1885SOL    HW117117   2.919   1.070   0.076 -0.3831  1.1059  2.3710
 1885SOL    HW217118   2.810   1.037   0.172 -1.1401 -2.6149  1.1534
 1886SOL     OW17119   0.736   2.031   6.106  0.1683 -0.4301  0.6193
 1886SOL    HW117120   0.806   2.055   6.166  0.5954  0.6128 -0.2873
 1886SOL    HW217121   0.769   2.072   6.026  0.9485  0.5205  1.4255
 1887SOL     OW17122   3.939   2.697   3.752  1.2063  0.2735  0.2171
 1887SOL    HW117123   3.882   2.624   3.730  0.5745  1.3620 -1.7400
 1887SOL    HW217124   3.922   2.694   3.846 -0.4493  1.0722 -0.0608
 1888SOL     OW17125   1.000   2.580   3.564 -0.0218  0.3580  0.1280
 1888SOL    HW117126   1.036   2.493   3.549 -1.3588 -0.2961  0.7325
 1888SOL    HW217127   1.052   2.617   3.634  2.4703 -3.1690  0.1227
 1889SOL     OW17128   3.038   1.284   3.301 -0.1348  0.2941  0.0487
 1889SOL    HW117129   3.131   1.278   3.277 -0.7244 -1.8604 -1.6361
 1889SOL    HW217130   3.045   1.333   3.383 -3.1245  0.2433  0.3110
 1890SOL     OW17131   3.108   3.432   8.511 -0.7454  0.8312  0.5380
 1890SOL    HW117132   3.134   3.504   8.453 -1.3200  0.2731 -0.4110
 1890SOL    HW217133   3.181   3.374   8.489 -0.6151  0.6218  1.5305
 1891SOL     OW17134   0.140   1.560   5.296 -0.2880  0.0590 -0.3651
 1891SOL    HW117135   0.176   1.598   5.376 -2.6391  0.8322  0.3133
 1891SOL    HW217136   0.219   1.512   5.267 -0.1027  0.2076 -0.1039
 1892SOL     OW17137   2.791   0.205   8.882 -0.2237 -0.2440  0.5536
 1892SOL    HW117138   2.783   0.228   8.974  0.0539 -0.9224  0.7440
 1892SOL    HW217139   2.766   0.114   8.897  0.8623 -0.5674  0.3577
 1893SOL     OW17140   2.752   4.024   4.989  0.0731  0.0663  0.4839
 1893SOL    HW117141   2.684   4.090   4.977  0.3974  0.2904 -0.1535
 1893SOL    HW217142   2.734   3.987   5.075 -1.8679  0.1541  0.1256
 1894SOL     OW17143   0.875   0.241   7.008 -0.6843  0.2400 -0.2491
 1894SOL    HW117144   0.836   0.258   7.094  1.5138  0.8699  0.6233
 1894SOL    HW217145   0.896   0.147   7.011 -0.6874  0.2384 -0.2775
 1895SOL     OW17146   3.711   3.964   1.754 -0.0307  0.1877  0.7964
 1895SOL    HW117147   3.676   4.007   1.676 -0.2880 -0.0885  0.7572
 1895SOL    HW217148   3.798   4.004   1.754  0.3976 -0.7959 -3.4738
 1896SOL     OW17149   0.305   2.615   3.949 -0.0234 -0.5300  0.4322
 1896SOL    HW117150   0.264   2.680   3.892  1.1091 -1.0185 -0.9268
 1896SOL    HW217151   0.382   2.589   3.898 -1.2072 -1.0675 -1.0632
 1897SOL     OW17152   2.711   1.361   2.608 -0.1586 -1.0010  0.2482
 1897SOL    HW117153   2.773   1.371   2.680  0.1910 -1.7014  0.0553
 1897SOL    HW217154   2.715   1.265   2.600 -0.4986 -1.1852  2.3286
 1898SOL     OW17155   1.255   4.199  11.281 -0.0284  0.0182  0.1986
 1898SOL    HW117156   1.207   4.164  11.356 -1.5372  2.3708  0.3428
 1898SOL    HW217157   1.215   4.284  11.263 -1.5965 -0.1699  2.7221
 1899SOL     OW17158   2.744   4.181   4.258  0.0819  0.1723  0.0311
 1899SOL    HW117159   2.837   4.197   4.270 -0.0183  0.4163  0.4778
 1899SOL    HW217160   2.710   4.257   4.211  0.2633  1.7240  2.4206
 1900SOL     OW17161   3.671   3.061   0.868 -0.2305 -0.6595  0.2061
 1900SOL    HW117162   3.692   2.972   0.896  1.6359 -0.2145  0.2719
 1900SOL    HW217163   3.590   3.036   0.824 -0.8714  2.1865 -0.2410
 1901SOL     OW17164   2.263   4.044   9.231  0.9601  0.4491  0.9729
 1901SOL    HW117165   2.224   3.990   9.300 -0.1368 -2.0790 -1.6063
 1901SOL    HW217166   2.356   4.024   9.246  0.6947  1.6370  4.1819
 1902SOL     OW17167   2.068   4.240   6.130  0.1313  0.3754 -0.6916
 1902SOL    HW117168   1.992   4.184   6.115 -0.7124  0.6287  2.5216
 1902SOL    HW217169   2.062   4.302   6.057  0.2240 -1.0410 -1.9018
 1903SOL     OW17170   2.244   0.301   7.975 -0.1984  0.0636 -0.2836
 1903SOL    HW117171   2.320   0.336   8.021  0.5453 -0.4517 -1.1307
 1903SOL    HW217172   2.222   0.226   8.030 -0.9777 -0.8858 -1.8920
 1904SOL     OW17173   0.182   4.245   7.055  0.0838 -0.2721 -0.0122
 1904SOL    HW117174   0.170   4.259   6.961  3.0471 -0.9803 -0.4986
 1904SOL    HW217175   0.234   4.165   7.047  2.0485  1.0482 -0.5321
 1905SOL     OW17176   1.908   0.582   7.413 -0.6575 -0.2168 -0.2809
 1905SOL    HW117177   1.888   0.622   7.328 -1.1379 -0.6960 -0.3908
 1905SOL    HW217178   1.835   0.520   7.420 -1.3810  0.8784  2.0865
 1906SOL     OW17179   1.663   3.664   3.050 -0.3589 -0.1581  0.0974
 1906SOL    HW117180   1.592   3.643   2.989 -0.4137  1.6792 -0.4640
 1906SOL    HW217181   1.724   3.594   3.027 -0.3534 -0.4532  0.9849
 1907SOL     OW17182   3.434   1.098   2.989  0.1812  0.2878 -0.0273
 1907SOL    HW117183   3.471   1.057   3.068 -0.9114 -0.9455 -0.1543
 1907SOL    HW217184   3.363   1.152   3.023  0.3370 -0.6246  1.7677
 1908SOL     OW17185   2.774   4.453   3.491  0.5156  0.1248 -0.1832
 1908SOL    HW117186   2.682   4.428   3.501  1.0100 -1.8540 -0.6796
 1908SOL    HW217187   2.802   4.385   3.430 -3.0976 -1.5262 -0.0110
 1909SOL     OW17188   2.757   1.138  17.524 -0.3456  0.6055 -0.1961
 1909SOL    HW117189   2.673   1.149  17.568 -0.5855  0.1833 -0.5464
 1909SOL    HW217190   2.745   1.053  17.482  0.4275 -0.3978  1.6017
 1910SOL     OW17191   1.824   0.166   4.866 -0.3361  0.1283 -0.4856
 1910SOL    HW117192   1.767   0.117   4.926 -0.3422  1.1669  0.3678
 1910SOL    HW217193   1.780   0.163   4.781  1.5437  0.8873 -1.4876
 1911SOL     OW17194   3.799   2.491   3.614  0.0664 -0.5262 -0.1418
 1911SOL    HW117195   3.801   2.399   3.588 -0.6302 -0.7346  0.5325
 1911SOL    HW217196   3.812   2.541   3.534 -0.6842 -0.5085 -0.2518
 1912SOL     OW17197   1.898   0.362   5.781 -0.2571  0.1605 -0.4720
 1912SOL    HW117198   1.979   0.329   5.820  0.7162  2.3411 -0.6694
 1912SOL    HW217199   1.930   0.451   5.770 -1.5813  0.8761  1.4276
 1913SOL     OW17200   0.262   0.354   1.087  0.2982  0.0935 -0.3694
 1913SOL    HW117201   0.271   0.267   1.126 -2.7080  0.8970  2.1551
 1913SOL    HW217202   0.335   0.388   1.138  1.3086 -1.3623 -0.8467
 1914SOL     OW17203   1.167   2.370   0.449 -0.1220  0.5311 -0.8815
 1914SOL    HW117204   1.219   2.432   0.499 -1.1564 -0.3355  1.2582
 1914SOL    HW217205   1.085   2.409   0.478  0.2750  0.8081 -0.1245
 1915SOL     OW17206   4.281   3.399   8.115  0.1634 -0.6078 -0.1256
 1915SOL    HW117207   4.376   3.408   8.123  0.0921  1.6774 -1.7421
 1915SOL    HW217208   4.250   3.358   8.196 -0.6221 -1.2805 -0.7618
 1916SOL     OW17209   3.483   0.302   2.373  0.2318 -0.4499  0.3835
 1916SOL    HW117210   3.408   0.304   2.315  0.4989  1.5588  0.1014
 1916SOL    HW217211   3.543   0.249   2.320 -0.2493 -0.0947 -0.5111
 1917SOL     OW17212   3.987   2.675   8.294 -0.0290  0.4924  0.3075
 1917SOL    HW117213   3.896   2.646   8.285 -0.1468  0.3526  1.9766
 1917SOL    HW217214   3.995   2.693   8.388 -0.5176 -1.8461  0.7891
 1918SOL     OW17215   0.508   4.362  12.277 -0.1666 -0.5721 -0.2537
 1918SOL    HW117216   0.514   4.288  12.217  0.0708  0.9114 -2.0548
 1918SOL    HW217217   0.595   4.400  12.262  0.2844 -2.1874 -1.6496
 1919SOL     OW17218   0.780   2.872  11.385 -0.1252 -0.1428 -0.1520
 1919SOL    HW117219   0.686   2.876  11.404 -0.2626  0.1691 -0.8718
 1919SOL    HW217220   0.805   2.945  11.441 -1.1513  0.2419 -0.1958
 1920SOL     OW17221   3.843   0.179   5.977 -0.1931  0.4533  0.2654
 1920SOL    HW117222   3.864   0.272   5.972  1.1055  0.0754 -1.1675
 1920SOL    HW217223   3.855   0.177   6.072  0.8264  1.4191  0.1545
 1921SOL     OW17224   0.535   4.030   7.408 -0.4427 -0.0641 -0.4857
 1921SOL    HW117225   0.625   4.060   7.419 -0.4031 -0.5354  0.4097
 1921SOL    HW217226   0.518   4.027   7.313 -1.2593 -0.8004 -0.3126
 1922SOL     OW17227   0.384   0.704   3.756  0.0903 -0.0764  0.0674
 1922SOL    HW117228   0.451   0.694   3.688 -0.4187 -0.2109 -0.4118
 1922SOL    HW217229   0.436   0.680   3.833  1.4944  2.3543 -0.1105
 1923SOL     OW17230   2.444   4.243   5.396  0.0778  0.1596 -0.3670
 1923SOL    HW117231   2.396   4.314   5.439 -0.0389  0.8076 -1.5569
 1923SOL    HW217232   2.529   4.284   5.407  0.5129 -0.6718 -0.5879
 1924SOL     OW17233   0.009   3.358  15.560  0.0151  0.6747 -0.1676
 1924SOL    HW117234   4.640   3.399  15.551 -0.3920  0.2340  1.6920
 1924SOL    HW217235   0.061   3.437  15.572 -2.7603  2.4642  0.1679
 1925SOL     OW17236   3.305   3.006   5.595  0.2099  0.8302 -0.1158
 1925SOL    HW117237   3.220   2.964   5.608  0.2374  0.2234 -1.9714
 1925SOL    HW217238   3.287   3.074   5.530  3.7610  0.2234 -1.7332
 1926SOL     OW17239   2.981   2.639  17.418 -0.7366 -0.2705 -0.1377
 1926SOL    HW117240   2.963   2.674  17.505  0.6420  1.0543 -0.3902
 1926SOL    HW217241   3.066   2.598  17.437  0.7626  1.9519 -2.0770
 1927SOL     OW17242   2.119   2.517  16.168  0.2226  0.0418 -0.1919
 1927SOL    HW117243   2.026   2.530  16.188  0.5014  0.6300  0.7148
 1927SOL    HW217244   2.142   2.453  16.235 -0.0912  1.6653  1.4650
 1928SOL     OW17245   2.538   2.017   9.187 -0.3281 -0.2233  0.1175
 1928SOL    HW117246   2.623   2.012   9.231  0.5966  0.5751 -1.5862
 1928SOL    HW217247   2.484   1.979   9.256  0.1920  1.0778  1.2610
 1929SOL     OW17248   2.567   2.683  13.317  0.2879 -0.3789  0.1709
 1929SOL    HW117249   2.581   2.746  13.388 -0.1488  0.1145 -0.1794
 1929SOL    HW217250   2.477   2.700  13.291 -0.0661 -2.4422  0.0723
 1930SOL     OW17251   1.352   0.909  10.366 -0.3021 -0.0885  0.4449
 1930SOL    HW117252   1.376   1.000  10.349  0.2563 -0.2301  0.4878
 1930SOL    HW217253   1.434   0.862  10.350 -0.1831 -0.0321  0.8881
 1931SOL     OW17254   1.160   1.415  16.745  0.1698 -0.0493  0.3992
 1931SOL    HW117255   1.223   1.479  16.711  0.7959 -0.3504  0.9768
 1931SOL    HW217256   1.082   1.470  16.738  0.3977  0.5851  2.6277
 1932SOL     OW17257   4.227   2.257  14.467  0.2228 -0.1880 -0.0982
 1932SOL    HW117258   4.212   2.239  14.559 -3.4262  0.7306 -0.5119
 1932SOL    HW217259   4.139   2.280  14.435 -0.0896  0.8176  1.4861
 1933SOL     OW17260   0.258   1.658   1.736  0.4037  0.1177 -0.0647
 1933SOL    HW117261   0.241   1.583   1.679  0.9558  0.3652 -0.5488
 1933SOL    HW217262   0.192   1.721   1.704 -0.9027 -2.2943 -2.0945
 1934SOL     OW17263   4.465   0.656  17.242  0.3053  0.2565  0.6942
 1934SOL    HW117264   4.558   0.660  17.266  0.8644  2.1309 -1.8733
 1934SOL    HW217265   4.477   0.628  17.152 -0.1959 -2.0213  1.3211
 1935SOL     OW17266   2.594   1.056   4.910 -0.2939 -0.4089 -0.5787
 1935SOL    HW117267   2.560   1.016   4.829 -0.2074  1.3135 -1.4522
 1935SOL    HW217268   2.685   1.045   4.885 -0.3680 -0.0299 -1.0071
 1936SOL     OW17269   2.883   3.211   8.606 -0.1928 -0.1104  0.0057
 1936SOL    HW117270   2.922   3.138   8.654 -0.5028 -0.1677  0.1680
 1936SOL    HW217271   2.963   3.249   8.569  0.3224  0.4081  1.6546
 1937SOL     OW17272   3.793   3.645   4.142  0.0236  0.1030 -0.0595
 1937SOL    HW117273   3.782   3.557   4.106  0.6469  0.7354 -1.7987
 1937SOL    HW217274   3.767   3.619   4.230 -2.5343  0.0208 -0.8521
 1938SOL     OW17275   4.301   2.003  13.821  0.1911  0.3313 -0.3488
 1938SOL    HW117276   4.214   2.016  13.859  1.4250 -0.5289  2.7001
 1938SOL    HW217277   4.280   1.974  13.732 -2.8702  2.4673 -0.3416
 1939SOL     OW17278   2.912   1.819  14.687 -0.2060 -0.0215 -0.0457
 1939SOL    HW117279   2.996   1.794  14.648 -0.4765  0.0320 -0.6651
 1939SOL    HW217280   2.861   1.738  14.683  1.4978 -1.0480 -0.7630
 1940SOL     OW17281   0.972   3.561  10.121  0.0764  0.0112  0.3776
 1940SOL    HW117282   1.053   3.575  10.170 -0.5217  2.7684  0.5454
 1940SOL    HW217283   0.981   3.610  10.039 -0.3087  0.3327  0.5299
 1941SOL     OW17284   4.208   0.702  17.293 -0.4622  0.1950  0.5886
 1941SOL    HW117285   4.300   0.682  17.271 -0.4329 -0.9218  1.7526
 1941SOL    HW217286   4.163   0.651  17.226 -0.9469  0.1845  0.9272
 1942SOL     OW17287   2.349   0.054   4.673 -0.0389 -0.7822  0.3273
 1942SOL    HW117288   2.341   0.128   4.732 -0.4294 -0.0450 -0.6576
 1942SOL    HW217289   2.381   0.106   4.599 -0.4149 -0.5032  0.3642
 1943SOL     OW17290   0.647   0.432   6.008 -0.8385  0.1170 -0.0187
 1943SOL    HW117291   0.578   0.463   6.065 -0.5072 -0.6601  0.8018
 1943SOL    HW217292   0.719   0.493   6.025 -1.3824  0.5209  0.8047
 1944SOL     OW17293   3.965   0.568   1.177 -0.2640  0.1912 -0.0334
 1944SOL    HW117294   4.008   0.643   1.218 -0.4635 -0.5146  1.4839
 1944SOL    HW217295   3.891   0.552   1.236  0.5289 -0.7132  0.7072
 1945SOL     OW17296   4.069   3.061   6.070 -0.0479  0.2010  0.0880
 1945SOL    HW117297   4.119   3.142   6.070 -1.0223  0.8010 -1.7299
 1945SOL    HW217298   4.057   3.034   5.979  0.3459 -0.6150  0.2838
 1946SOL     OW17299   1.265   1.930  14.812  0.7327  0.4976  0.5322
 1946SOL    HW117300   1.315   1.963  14.737  0.9321 -2.0710 -0.4453
 1946SOL    HW217301   1.187   1.892  14.772  0.5381  0.8603  0.5653
 1947SOL     OW17302   2.639   4.698  12.773  0.2848  0.1592  0.5506
 1947SOL    HW117303   2.649   0.032  12.693 -2.3425 -1.3041 -0.6862
 1947SOL    HW217304   2.721   4.713  12.821  1.3519 -3.8199 -0.0309
 1948SOL     OW17305   4.054   3.445   7.468  0.1564  0.1544 -0.2851
 1948SOL    HW117306   4.096   3.416   7.549 -0.2864 -0.0565 -0.1305
 1948SOL    HW217307   3.959   3.448   7.480  0.2475 -2.5212  1.0886
 1949SOL     OW17308   0.709   3.118   4.206 -0.2621  0.4532  0.1014
 1949SOL    HW117309   0.789   3.141   4.253  1.1295 -3.5695 -0.2783
 1949SOL    HW217310   0.741   3.161   4.127 -1.4278 -0.5045 -0.8897
 1950SOL     OW17311   1.735   2.451   7.084  0.1286  0.5136 -0.0410
 1950SOL    HW117312   1.650   2.440   7.041  1.0915 -0.8752 -1.6007
 1950SOL    HW217313   1.699   2.500   7.158 -0.0084 -1.0143  0.9017
 1951SOL     OW17314   2.812   3.168   7.044  0.6696  0.5632 -0.2091
 1951SOL    HW117315   2.719   3.180   7.059  1.2059  0.4001  3.2197
 1951SOL    HW217316   2.822   3.206   6.957 -2.6226 -1.6612 -1.5169
 1952SOL     OW17317   1.246   3.833   2.657  0.2216 -0.5606  0.0430
 1952SOL    HW117318   1.302   3.756   2.649 -0.5485 -0.8079 -3.2732
 1952SOL    HW217319   1.258   3.854   2.749  0.1081 -0.3219  0.0053
 1953SOL     OW17320   2.613   3.235  15.672 -0.0432  0.1833  0.3725
 1953SOL    HW117321   2.641   3.310  15.619  0.9797 -1.8146 -1.8946
 1953SOL    HW217322   2.694   3.184  15.674 -0.5075 -0.5308  1.1880
 1954SOL     OW17323   2.551   4.048  14.841 -0.1866  0.1584 -0.1254
 1954SOL    HW117324   2.518   4.080  14.925  1.3734 -3.1055  1.7329
 1954SOL    HW217325   2.631   4.099  14.828  0.2445 -0.7277 -0.9041
 1955SOL     OW17326   2.691   0.597  12.151 -0.3231  0.3110  0.1987
 1955SOL    HW117327   2.608   0.578  12.194  0.4974  1.6478  2.3645
 1955SOL    HW217328   2.742   0.535  12.204 -1.2082  0.4362  1.1919
 1956SOL     OW17329   0.668   2.045  11.013  0.1160 -0.1565 -0.5669
 1956SOL    HW117330   0.640   2.004  11.095  1.3721  1.1278  0.4882
 1956SOL    HW217331   0.596   2.011  10.960 -1.1040  0.9779  0.3638
 1957SOL     OW17332   4.124   2.435  11.610 -0.3494 -0.0292  0.0867
 1957SOL    HW117333   4.091   2.525  11.603  1.5914  0.4657 -2.5897
 1957SOL    HW217334   4.092   2.409  11.696 -2.7682 -1.2214 -1.1702
 1958SOL     OW17335   0.252   4.142   4.650  0.1298 -1.0059  0.8652
 1958SOL    HW117336   0.341   4.174   4.661 -0.4115 -0.0687  2.5110
 1958SOL    HW217337   0.248   4.134   4.555  1.3425  0.1155  0.7360
 1959SOL     OW17338   3.684   0.116   6.533 -0.2080 -0.1886  0.1496
 1959SOL    HW117339   3.674   0.093   6.625  1.0612  3.9538  1.3265
 1959SOL    HW217340   3.598   0.155   6.518  0.0035 -0.1292 -0.9153
 1960SOL     OW17341   2.244   4.603   7.078 -0.0955 -0.8233 -0.4770
 1960SOL    HW117342   2.202   4.570   6.999 -0.4177 -1.3096 -0.0979
 1960SOL    HW217343   2.313   4.655   7.036 -0.1833  0.1572  0.5820
 1961SOL     OW17344   2.391   0.980  14.278  0.2961  0.8842 -0.0073
 1961SOL    HW117345   2.447   1.052  14.250 -1.3933  2.3940  0.4413
 1961SOL    HW217346   2.423   0.916  14.215 -2.1231  0.9298 -1.3097
 1962SOL     OW17347   4.477   1.383   3.742 -0.4507  0.2032 -0.1818
 1962SOL    HW117348   4.411   1.379   3.811  0.0309 -0.4431  0.2366
 1962SOL    HW217349   4.433   1.330   3.677 -1.0212  0.7920 -0.2804
 1963SOL     OW17350   3.503   2.781  15.592  0.3530 -0.2156  0.0347
 1963SOL    HW117351   3.502   2.700  15.643 -2.0851 -0.6047 -0.6806
 1963SOL    HW217352   3.422   2.817  15.627 -0.3198 -0.5597 -1.1971
 1964SOL     OW17353   0.273   4.244  12.458 -0.4017 -0.2548  0.1720
 1964SOL    HW117354   0.327   4.322  12.455  1.7847 -1.8910 -2.6668
 1964SOL    HW217355   0.339   4.174  12.466  0.3820  0.5934  1.1839
 1965SOL     OW17356   1.633   4.684   4.936  0.0714 -0.2444  0.0435
 1965SOL    HW117357   1.611   4.596   4.906  1.4883  0.3871 -2.9321
 1965SOL    HW217358   1.652   4.674   5.029  0.1675 -1.1694 -0.0744
 1966SOL     OW17359   1.990   3.889   6.675 -0.5283 -0.3296 -0.6483
 1966SOL    HW117360   2.020   3.932   6.595  1.3352 -0.8699 -0.2330
 1966SOL    HW217361   1.937   3.958   6.715  1.2124  1.3682 -1.2115
 1967SOL     OW17362   1.244   2.786   0.774 -0.1607  0.5932  0.2675
 1967SOL    HW117363   1.150   2.800   0.773  0.0213  1.7890 -0.0470
 1967SOL    HW217364   1.257   2.797   0.868 -1.3484 -0.2409  0.5208
 1968SOL     OW17365   4.469   1.545   8.817 -0.5012 -0.3900 -0.2479
 1968SOL    HW117366   4.390   1.597   8.825  0.2558  0.2314  3.3254
 1968SOL    HW217367   4.448   1.451   8.817  0.6483 -0.6541 -0.8697
 1969SOL     OW17368   2.320   3.038  12.651 -0.5605  0.2016 -0.4213
 1969SOL    HW117369   2.316   2.963  12.592 -1.6771 -0.9856  1.1478
 1969SOL    HW217370   2.325   2.992  12.735  3.5924  0.8887 -0.2676
 1970SOL     OW17371   0.373   4.598  12.325  0.5306  0.1516  0.3346
 1970SOL    HW117372   0.424   4.518  12.313 -0.1417 -0.5002  1.9054
 1970SOL    HW217373   0.387   4.616  12.232  1.6248  2.0200  0.8639
 1971SOL     OW17374   3.645   1.598   8.516  0.6072  0.5321  0.3847
 1971SOL    HW117375   3.726   1.610   8.466  0.7146  0.2272  0.4869
 1971SOL    HW217376   3.607   1.526   8.466 -0.1692  2.0603 -1.2361
 1972SOL     OW17377   2.678   4.682   7.832 -0.0258  0.2339  0.1587
 1972SOL    HW117378   2.675   4.613   7.898 -2.0042  0.5520  0.4025
 1972SOL    HW217379   2.635   0.041   7.872 -0.2185  0.3781 -0.3136
 1973SOL     OW17380   1.136   1.238  13.387  0.3085  0.0214 -0.3537
 1973SOL    HW117381   1.157   1.166  13.328 -3.7055 -0.8044 -0.7425
 1973SOL    HW217382   1.104   1.186  13.460 -0.1925  0.8186 -0.0026
 1974SOL     OW17383   1.726   3.955   0.637  0.6890 -0.1039 -0.2333
 1974SOL    HW117384   1.667   3.997   0.575 -1.2409 -0.5530  1.2872
 1974SOL    HW217385   1.693   3.986   0.721  0.4224  1.5673 -0.9701
 1975SOL     OW17386   4.312   3.451  17.314  0.1306 -0.0332  0.1200
 1975SOL    HW117387   4.248   3.505  17.267  0.8123  1.0444  0.4310
 1975SOL    HW217388   4.393   3.471  17.267  0.7229  1.2759  1.7092
 1976SOL     OW17389   2.413   3.052   8.670 -0.1597  0.1271  0.2663
 1976SOL    HW117390   2.334   3.065   8.617 -1.1387 -0.0088  1.6836
 1976SOL    HW217391   2.478   3.081   8.606 -0.9007  3.3430  0.9545
 1977SOL     OW17392   3.631   2.199   2.777  0.3183 -0.0672  0.0775
 1977SOL    HW117393   3.705   2.203   2.716  2.3471 -0.4790  2.4804
 1977SOL    HW217394   3.634   2.108   2.807 -0.6176 -0.1369 -0.0657
 1978SOL     OW17395   1.820   0.669   5.261 -0.0084 -0.0097 -0.5187
 1978SOL    HW117396   1.765   0.656   5.184  0.1452 -1.0588 -0.4562
 1978SOL    HW217397   1.858   0.582   5.270  1.1971  0.5790  0.1665
 1979SOL     OW17398   0.695   3.090  17.490  0.1534 -0.3030  0.1970
 1979SOL    HW117399   0.786   3.121  17.484 -0.8586  2.6692  0.3847
 1979SOL    HW217400   0.716   3.000  17.466  1.8055 -0.3179  1.6990
 1980SOL     OW17401   3.235   4.396   4.925  0.0630 -0.6814 -0.2356
 1980SOL    HW117402   3.300   4.423   4.990 -0.6931  0.9680 -0.1442
 1980SOL    HW217403   3.154   4.397   4.977  0.5523  2.5098  0.4431
 1981SOL     OW17404   0.558   2.829   3.504  0.1325 -0.1136  0.5402
 1981SOL    HW117405   0.588   2.792   3.420 -0.8387  0.3737 -0.0122
 1981SOL    HW217406   0.463   2.826   3.496 -0.0045 -0.9559  2.6045
 1982SOL     OW17407   0.651   3.004   8.307 -0.5009  0.1640 -0.3449
 1982SOL    HW117408   0.600   3.024   8.229  2.9745  0.0347 -2.6570
 1982SOL    HW217409   0.714   2.944   8.266  0.7081  0.7016  0.7046
 1983SOL     OW17410   3.991   0.159   6.538  0.3164  0.1894 -0.1077
 1983SOL    HW117411   3.897   0.173   6.551  0.3769  0.4724  0.0171
 1983SOL    HW217412   4.025   0.160   6.628  1.0084  0.7000 -0.3774
 1984SOL     OW17413   0.312   2.895   3.168  0.4067 -0.5507 -0.0503
 1984SOL    HW117414   0.315   2.800   3.157 -0.3444 -0.7063  1.0739
 1984SOL    HW217415   0.288   2.910   3.260 -1.9311  0.0732 -0.7523
 1985SOL     OW17416   3.909   4.120   4.192  0.1258 -0.0107 -0.3910
 1985SOL    HW117417   3.843   4.150   4.255 -0.2170  2.3049 -1.8641
 1985SOL    HW217418   3.963   4.198   4.185 -1.0678  0.9263  0.8644
 1986SOL     OW17419   0.343   0.477   7.790  0.1821 -0.2302 -0.0512
 1986SOL    HW117420   0.381   0.489   7.703 -0.9786 -0.6964 -0.6178
 1986SOL    HW217421   0.254   0.504   7.767  0.9534  0.5971 -1.9926
 1987SOL     OW17422   0.385   3.967   3.136 -0.5345  0.0048  0.2362
 1987SOL    HW117423   0.351   3.891   3.184 -0.1223 -2.2252 -3.0096
 1987SOL    HW217424   0.346   4.031   3.195 -1.6265  0.9325 -1.5016
 1988SOL     OW17425   0.533   3.713   5.699  0.2061  0.4030  0.0463
 1988SOL    HW117426   0.442   3.730   5.674  0.1638  1.3203  0.7801
 1988SOL    HW217427   0.573   3.800   5.689  2.2323 -0.5530 -0.1640
 1989SOL     OW17428   0.892   1.461   6.560  0.2020  0.5837 -0.2767
 1989SOL    HW117429   0.855   1.477   6.473  1.2574 -2.0328 -1.1946
 1989SOL    HW217430   0.928   1.547   6.583 -0.0010 -0.2473  3.1282
 1990SOL     OW17431   4.114   1.063  14.210  0.0995 -0.7592  0.6727
 1990SOL    HW117432   4.043   1.108  14.255 -1.6750 -3.1865  0.3330
 1990SOL    HW217433   4.150   1.140  14.167 -1.9019 -0.9340 -1.3584
 1991SOL     OW17434   1.895   1.914   8.731 -0.1629 -0.0734  0.3355
 1991SOL    HW117435   1.924   1.825   8.712  0.9979  0.3094  0.2499
 1991SOL    HW217436   1.834   1.920   8.658 -0.3119 -1.9080  0.3050
 1992SOL     OW17437   4.504   2.792   0.736  0.7315 -0.1861 -0.1994
 1992SOL    HW117438   4.435   2.781   0.671 -0.5835 -2.0433  1.5080
 1992SOL    HW217439   4.539   2.868   0.690  1.8290  0.0226  0.9776
 1993SOL     OW17440   2.405   2.308   0.606  0.4567  0.5702  0.9079
 1993SOL    HW117441   2.462   2.281   0.534  0.5040  0.8881  0.8271
 1993SOL    HW217442   2.429   2.242   0.671 -1.0762 -0.8818  0.0231
 1994SOL     OW17443   4.151   2.023  11.699 -0.1336  0.5421  0.0054
 1994SOL    HW117444   4.166   2.007  11.792  3.3088 -0.3942 -0.7365
 1994SOL    HW217445   4.201   2.102  11.680 -1.3307  1.3484  0.1753
 1995SOL     OW17446   3.836   3.781   8.532 -0.1955 -0.0130  0.1154
 1995SOL    HW117447   3.787   3.859   8.507  1.9617  1.2317 -0.3102
 1995SOL    HW217448   3.772   3.711   8.542  1.4067 -1.4472  0.3057
 1996SOL     OW17449   2.722   1.447   2.180 -0.4611 -0.2013  0.0708
 1996SOL    HW117450   2.717   1.527   2.126  0.1163 -0.3012 -0.1280
 1996SOL    HW217451   2.687   1.378   2.124  0.2612 -1.1134  0.7657
 1997SOL     OW17452   0.003   1.549   8.599  0.4325  0.6154 -0.1803
 1997SOL    HW117453   4.687   1.520   8.513 -1.3139 -0.2533  0.7873
 1997SOL    HW217454   4.687   1.639   8.602  2.8237  1.5103 -0.7425
 1998SOL     OW17455   3.251   4.548   9.161 -0.1022 -0.0370  0.1775
 1998SOL    HW117456   3.209   4.464   9.180  1.6734 -1.1960 -1.1295
 1998SOL    HW217457   3.172   4.602   9.160  0.7694  1.1890 -3.3146
 1999SOL     OW17458   3.787   3.616  12.509  0.3108  0.3047 -0.1620
 1999SOL    HW117459   3.740   3.668  12.575  0.7049  0.0868  0.2861
 1999SOL    HW217460   3.846   3.680  12.468 -1.0580  1.3528 -0.4939
 2000SOL     OW17461   0.477   3.845   6.466 -0.0369 -0.3712  0.2953
 2000SOL    HW117462   0.542   3.794   6.419 -1.9480 -0.9735 -1.7352
 2000SOL    HW217463   0.425   3.769   6.494  2.1491 -1.3028  1.7291
 2001SOL     OW17464   1.354   2.574   8.582 -0.0944  0.1459 -0.2302
 2001SOL    HW117465   1.427   2.634   8.566 -0.5657  0.7752 -0.0162
 2001SOL    HW217466   1.393   2.525   8.655 -0.1324  2.6070  1.4347
 2002SOL     OW17467   1.997   2.591   0.566  0.2801  0.2876  0.2414
 2002SOL    HW117468   1.962   2.522   0.510 -0.6842  1.1123 -0.1641
 2002SOL    HW217469   1.921   2.635   0.605  0.2781  0.1672  0.3728
 2003SOL     OW17470   4.203   0.142  11.213  0.0707 -0.8301 -0.4829
 2003SOL    HW117471   4.144   0.200  11.261  0.9782 -1.7514  1.7618
 2003SOL    HW217472   4.265   0.207  11.178 -1.7398  1.4889  0.6184
 2004SOL     OW17473   1.904   0.530   0.325 -0.5354  0.4414  0.2497
 2004SOL    HW117474   1.999   0.537   0.332 -0.7023  1.2515  1.5524
 2004SOL    HW217475   1.890   0.603   0.264 -0.6588  0.5694  0.4337
 2005SOL     OW17476   0.717   3.853   5.487  0.1845 -0.1302 -0.2866
 2005SOL    HW117477   0.784   3.792   5.519 -0.6315 -0.6053  0.5058
 2005SOL    HW217478   0.712   3.906   5.566  0.1503  0.6681 -0.8262
 2006SOL     OW17479   2.758   0.235  10.302 -0.7924 -0.4680 -0.5242
 2006SOL    HW117480   2.827   0.192  10.353 -0.9946 -0.6208 -0.3803
 2006SOL    HW217481   2.742   0.177  10.227  0.6891  0.1764 -1.3385
 2007SOL     OW17482   3.877   4.467   7.676  0.5557  0.4604 -0.5345
 2007SOL    HW117483   3.936   4.436   7.745  0.1146 -0.1286 -0.4228
 2007SOL    HW217484   3.913   4.429   7.596 -2.4477  0.4987 -1.8967
 2008SOL     OW17485   1.620   1.656   3.932 -0.2630  0.2161  0.2074
 2008SOL    HW117486   1.598   1.727   3.993  1.4014 -1.3517  2.6413
 2008SOL    HW217487   1.672   1.701   3.866  0.6973  0.6590  1.2550
 2009SOL     OW17488   2.372   3.513   9.879 -0.1577  0.0339 -0.4599
 2009SOL    HW117489   2.462   3.500   9.849  0.1585  0.6081  0.2514
 2009SOL    HW217490   2.332   3.479   9.799  1.4211  0.7671 -1.5499
 2010SOL     OW17491   0.670   0.424   2.673 -0.7940  0.2124  0.2055
 2010SOL    HW117492   0.719   0.359   2.623  0.1263  1.2975 -0.2929
 2010SOL    HW217493   0.727   0.449   2.746  2.4712 -1.0756 -1.9156
 2011SOL     OW17494   3.642   0.523   5.492  0.2727 -0.5285 -0.3179
 2011SOL    HW117495   3.586   0.507   5.416 -0.3727 -0.3196  0.1110
 2011SOL    HW217496   3.613   0.452   5.549 -1.1221 -1.2296 -1.8977
 2012SOL     OW17497   1.635   3.838   7.860 -0.2344 -0.0475  0.3754
 2012SOL    HW117498   1.645   3.766   7.797 -0.9036 -0.0095  0.2216
 2012SOL    HW217499   1.555   3.875   7.822  0.6046  2.8207  1.3666
 2013SOL     OW17500   4.594   2.843   3.686 -0.2151 -0.3124 -0.2453
 2013SOL    HW117501   4.665   2.789   3.719  0.0693  0.6324  0.6850
 2013SOL    HW217502   4.604   2.921   3.740 -0.8591  0.3689 -1.1013
 2014SOL     OW17503   3.463   0.335   7.852  0.1352  0.1881  0.3749
 2014SOL    HW117504   3.535   0.325   7.790 -1.6489 -1.5522 -1.4022
 2014SOL    HW217505   3.397   0.367   7.790  3.4643  2.5792 -1.9432
 2015SOL     OW17506   2.497   1.331   2.368 -0.2038 -0.0158  0.3010
 2015SOL    HW117507   2.454   1.352   2.451 -2.8983 -1.7338 -0.6323
 2015SOL    HW217508   2.504   1.237   2.385 -1.5594 -0.7502 -3.1066
 2016SOL     OW17509   2.224   0.101  12.945  0.1964  0.4446 -0.2755
 2016SOL    HW117510   2.316   0.084  12.967 -0.0847  1.1917  1.4855
 2016SOL    HW217511   2.205   0.012  12.915  0.2832  0.2629  0.2061
 2017SOL     OW17512   1.634   2.126  15.418  0.6978  0.2253 -0.0443
 2017SOL    HW117513   1.698   2.055  15.418  0.8267  0.3330 -1.1056
 2017SOL    HW217514   1.578   2.087  15.485 -1.1632  2.1031 -0.4794
 2018SOL     OW17515   0.974   1.289   3.922 -0.5266 -0.7911 -0.0201
 2018SOL    HW117516   1.053   1.297   3.869  0.2025  0.7246  1.3082
 2018SOL    HW217517   0.965   1.194   3.909 -1.1405 -0.8862  1.0485
 2019SOL     OW17518   3.723   3.172   5.604  0.1902  0.5183 -0.3175
 2019SOL    HW117519   3.657   3.146   5.540 -0.3040  1.5282 -0.2235
 2019SOL    HW217520   3.696   3.263   5.617 -3.6379 -1.0188  2.2613
 2020SOL     OW17521   4.096   4.597  17.381  0.1853 -0.2037  0.1074
 2020SOL    HW117522   4.138   4.678  17.352  0.7585 -0.0986  1.2113
 2020SOL    HW217523   4.082   4.610  17.475 -1.6566 -0.8473 -0.0852
 2021SOL     OW17524   4.634   4.063   2.428  0.6285  0.1756  1.1049
 2021SOL    HW117525   4.700   4.032   2.490  0.5415 -0.8055  0.7122
 2021SOL    HW217526   4.672   4.142   2.390 -0.2078  1.1851  2.3676
 2022SOL     OW17527   4.483   2.319  11.183 -0.3537 -0.3316  0.0426
 2022SOL    HW117528   4.400   2.281  11.153  0.3575 -1.8185 -0.0296
 2022SOL    HW217529   4.502   2.267  11.262  2.7149  0.8362  0.0520
 2023SOL     OW17530   1.794   4.193   2.630  0.4175  0.1965  0.0546
 2023SOL    HW117531   1.868   4.243   2.666  0.8416 -1.2045  1.1470
 2023SOL    HW217532   1.837   4.129   2.574  1.3529 -1.3607  2.5296
 2024SOL     OW17533   3.671   0.675  13.978  0.3622  0.1794  0.5215
 2024SOL    HW117534   3.625   0.711  14.054 -0.2418  2.0696 -0.7428
 2024SOL    HW217535   3.711   0.603  14.026 -1.6982 -0.5511  1.1811
 2025SOL     OW17536   1.840   0.992  14.151  0.2786 -0.3016  0.3410
 2025SOL    HW117537   1.900   0.989  14.226  1.5690 -1.2303 -0.7406
 2025SOL    HW217538   1.904   1.008  14.082 -0.2584  3.2185  0.6359
 2026SOL     OW17539   2.604   3.201  11.040  0.0936 -0.4784  0.3850
 2026SOL    HW117540   2.584   3.150  10.962 -0.0526  0.3137 -0.1027
 2026SOL    HW217541   2.639   3.135  11.100  1.5726  0.1215  0.1861
 2027SOL     OW17542   4.038   3.223  11.714  0.2255 -0.1889  0.5165
 2027SOL    HW117543   4.089   3.146  11.687 -0.5888 -1.3250  2.2419
 2027SOL    HW217544   4.074   3.292  11.658 -1.4541 -1.7418 -2.4991
 2028SOL     OW17545   2.769   2.668  14.984 -0.1871  0.0005 -0.0894
 2028SOL    HW117546   2.735   2.717  15.059  0.1146  0.8461 -0.5060
 2028SOL    HW217547   2.693   2.631  14.941  2.2784 -3.1976 -1.6661
 2029SOL     OW17548   3.966   2.404   2.426 -0.2094  0.4249  0.7852
 2029SOL    HW117549   3.961   2.322   2.377  0.2131  1.3868 -0.8688
 2029SOL    HW217550   3.875   2.405   2.456 -0.2125  1.4568  0.7635
 2030SOL     OW17551   0.916   0.902   2.499  0.1404  0.3581 -0.2623
 2030SOL    HW117552   0.898   0.932   2.589  1.1248  0.2913 -0.0392
 2030SOL    HW217553   0.989   0.957   2.472  1.0057 -1.4084 -1.4786
 2031SOL     OW17554   4.381   3.755  12.291  0.7811 -0.4060 -0.0425
 2031SOL    HW117555   4.413   3.817  12.357  1.8713 -1.6927  0.6320
 2031SOL    HW217556   4.400   3.803  12.210 -1.8536 -1.7519 -1.4398
 2032SOL     OW17557   1.604   0.996   1.113 -0.0394  0.1614  0.4453
 2032SOL    HW117558   1.682   1.044   1.085  0.0964 -0.6337 -0.5253
 2032SOL    HW217559   1.526   1.029   1.069  1.2210  1.7137 -0.6173
 2033SOL     OW17560   0.718   0.180   3.004 -0.0352 -0.4615 -0.6329
 2033SOL    HW117561   0.734   0.250   2.940  1.0066  2.7504  3.1098
 2033SOL    HW217562   0.664   0.228   3.067  0.4534  0.2379 -0.7454
 2034SOL     OW17563   4.323   1.247  12.565 -0.5776 -0.0057  0.2973
 2034SOL    HW117564   4.322   1.289  12.479 -1.5952  0.5748  0.5907
 2034SOL    HW217565   4.244   1.286  12.603 -0.8176 -2.6094  2.5228
 2035SOL     OW17566   2.505   0.508   9.683 -0.0263 -0.5416 -0.0238
 2035SOL    HW117567   2.531   0.565   9.755 -2.4719 -2.6687  2.5483
 2035SOL    HW217568   2.529   0.554   9.603  0.0634 -2.3324 -1.0408
 2036SOL     OW17569   1.999   4.475   4.552 -0.8926 -0.1804  0.0337
 2036SOL    HW117570   2.000   4.442   4.463 -0.3859  0.4803 -0.2030
 2036SOL    HW217571   2.078   4.442   4.594  0.1563  2.7411  0.3640
 2037SOL     OW17572   4.583   0.242   1.862 -0.2213 -0.1330 -0.3581
 2037SOL    HW117573   4.638   0.267   1.937 -0.6439  1.8150 -0.6843
 2037SOL    HW217574   4.511   0.304   1.856 -0.5882 -0.5408 -0.1248
 2038SOL     OW17575   1.347   0.705   9.414 -0.4025  0.0283  0.0988
 2038SOL    HW117576   1.342   0.751   9.330 -0.3264 -0.3021 -0.0858
 2038SOL    HW217577   1.256   0.696   9.440  0.3456  1.2790  3.1152
 2039SOL     OW17578   1.168   2.501   1.785  0.6870  0.3255  0.6270
 2039SOL    HW117579   1.149   2.535   1.872  0.8363  0.5653  0.5656
 2039SOL    HW217580   1.135   2.577   1.736  1.6396 -0.4030 -1.1573
 2040SOL     OW17581   4.541   0.013  11.479  0.0990  0.6175 -0.0018
 2040SOL    HW117582   4.573   4.694  11.397  1.7766  1.4923  0.2684
 2040SOL    HW217583   4.471   4.669  11.504 -0.5108  1.1895 -0.3522
 2041SOL     OW17584   1.665   0.221   4.610 -0.1153 -0.1659 -0.5858
 2041SOL    HW117585   1.594   0.218   4.675  0.1808 -1.3465 -0.3177
 2041SOL    HW217586   1.620   0.179   4.537 -0.6773 -1.2163  0.3543
 2042SOL     OW17587   3.540   1.968  10.901 -0.2013 -0.4380 -0.0451
 2042SOL    HW117588   3.484   2.011  10.965  0.4918  0.3559  0.0285
 2042SOL    HW217589   3.622   2.018  10.907 -0.0969 -0.4747 -1.1386
 2043SOL     OW17590   3.511   4.446  11.839  0.1874 -0.0098 -0.1836
 2043SOL    HW117591   3.604   4.427  11.847  1.1445  4.1998 -1.1764
 2043SOL    HW217592   3.517   4.541  11.825  3.2012 -0.1360  0.2921
 2044SOL     OW17593   0.998   1.664   5.794 -0.4352  0.0043 -0.4799
 2044SOL    HW117594   0.910   1.639   5.823 -0.1572  0.4469  0.7587
 2044SOL    HW217595   1.040   1.611   5.862 -1.4180 -1.0810 -0.7253
 2045SOL     OW17596   4.142   1.822   9.714 -0.2699  0.3080  0.2951
 2045SOL    HW117597   4.190   1.797   9.635 -1.0167 -1.8354  0.5156
 2045SOL    HW217598   4.214   1.849   9.772 -1.2046  1.3941  0.9406
 2046SOL     OW17599   1.834   3.456   3.015  0.3259 -0.6064 -0.0872
 2046SOL    HW117600   1.825   3.363   2.995 -2.1768  0.1756 -2.7274
 2046SOL    HW217601   1.892   3.461   2.939  0.5686  2.2674  0.2586
 2047SOL     OW17602   3.650   4.252  16.510  0.2510 -0.1471 -0.5198
 2047SOL    HW117603   3.559   4.228  16.527 -0.0907  1.7122  0.3273
 2047SOL    HW217604   3.653   4.246  16.415 -0.1042  1.7515 -0.6553
 2048SOL     OW17605   0.700   0.298   5.338 -0.0687  0.4114  0.4017
 2048SOL    HW117606   0.674   0.207   5.345 -0.7543  0.7005  1.4976
 2048SOL    HW217607   0.795   0.296   5.333  0.0055  1.2203  1.4973
 2049SOL     OW17608   0.786   0.747  15.444 -0.1399  0.1826 -0.1287
 2049SOL    HW117609   0.818   0.795  15.521  0.4828  0.5457 -0.6154
 2049SOL    HW217610   0.698   0.782  15.430 -0.1508  0.4742  0.6525
 2050SOL     OW17611   3.914   4.209   9.291  0.1912 -0.0107  0.1210
 2050SOL    HW117612   3.978   4.139   9.280  0.1793 -0.2955  1.8822
 2050SOL    HW217613   3.944   4.271   9.225  2.5122 -1.9904 -0.6654
 2051SOL     OW17614   4.277   0.730   2.488  0.3670  0.3238 -0.3724
 2051SOL    HW117615   4.337   0.655   2.494 -0.6113 -0.4330 -0.1309
 2051SOL    HW217616   4.214   0.682   2.434  1.7176 -2.2117  0.2889
 2052SOL     OW17617   4.515   3.757  17.116  0.0951 -0.6275 -0.0729
 2052SOL    HW117618   4.453   3.781  17.185 -1.1649  1.8100 -2.0904
 2052SOL    HW217619   4.601   3.775  17.155 -0.6141  1.5810  0.4588
 2053SOL     OW17620   0.409   0.048   3.961 -0.2486 -0.2712 -0.0476
 2053SOL    HW117621   0.439   4.678   3.988 -1.5075 -0.7612 -0.2162
 2053SOL    HW217622   0.460   0.092   4.029 -1.3040  2.5033 -1.0418
 2054SOL     OW17623   3.646   2.426   2.481 -0.6873 -0.5361 -0.4282
 2054SOL    HW117624   3.612   2.337   2.474  0.9084 -1.0857 -1.1304
 2054SOL    HW217625   3.595   2.454   2.558  1.3268  3.0458 -0.3887
 2055SOL     OW17626   2.265   1.464   8.626 -0.7791  0.6405 -0.0784
 2055SOL    HW117627   2.284   1.443   8.717 -0.5230 -1.7259 -0.6694
 2055SOL    HW217628   2.201   1.395   8.607 -0.6072  0.5621 -0.3751
 2056SOL     OW17629   0.225   0.305   6.649 -0.6121 -0.3513  0.4772
 2056SOL    HW117630   0.230   0.367   6.575  0.8761 -1.8431 -0.6714
 2056SOL    HW217631   0.287   0.239   6.618  0.7766  0.2046  2.0603
 2057SOL     OW17632   0.986   3.598   5.449 -0.0051 -0.1656 -0.1452
 2057SOL    HW117633   1.077   3.568   5.444 -0.7193 -1.6768 -3.8514
 2057SOL    HW217634   0.940   3.540   5.389 -1.0817 -2.6281  3.0680
 2058SOL     OW17635   0.589   3.922  11.921 -0.1767 -0.2686  0.3202
 2058SOL    HW117636   0.589   3.920  11.825  0.1545  0.1430  0.3128
 2058SOL    HW217637   0.677   3.913  11.957  0.2630  2.0529 -0.1653
 2059SOL     OW17638   0.796   1.335   0.200  0.4082  0.5040  0.0073
 2059SOL    HW117639   0.851   1.325   0.278 -0.8430 -0.6032  0.7427
 2059SOL    HW217640   0.864   1.300   0.142  1.8761  3.3882  0.0212
 2060SOL     OW17641   2.599   2.383   1.779 -0.1063  0.0979 -0.0557
 2060SOL    HW117642   2.638   2.300   1.751  0.7153  0.3006  0.4843
 2060SOL    HW217643   2.561   2.411   1.696 -1.4254  2.1225  1.2346
 2061SOL     OW17644   1.332   1.212   5.364 -0.3836  0.3002 -0.2913
 2061SOL    HW117645   1.256   1.256   5.403  0.0559  2.1822 -1.5482
 2061SOL    HW217646   1.352   1.144   5.428  1.8154  0.8582 -0.3827
 2062SOL     OW17647   0.482   2.812  10.292  0.0484  0.3784 -0.0473
 2062SOL    HW117648   0.482   2.885  10.229 -2.4346  0.3516 -0.0788
 2062SOL    HW217649   0.387   2.814  10.307  0.3614 -2.6760  2.0223
 2063SOL     OW17650   1.059   4.539  14.413 -0.0262  0.7429 -0.0934
 2063SOL    HW117651   1.042   4.478  14.485  2.8224  3.1606  2.6245
 2063SOL    HW217652   1.135   4.586  14.447  0.1680  0.7078 -0.4724
 2064SOL     OW17653   3.247   1.903   8.499 -0.1716  0.3775 -0.5103
 2064SOL    HW117654   3.316   1.846   8.532  0.0273  0.2738 -1.1147
 2064SOL    HW217655   3.206   1.897   8.585  2.4496  0.9733  0.7551
 2065SOL     OW17656   2.908   0.940   7.715 -0.1421  0.1961 -0.5787
 2065SOL    HW117657   2.958   0.888   7.777 -1.8969  1.8319  2.1853
 2065SOL    HW217658   2.982   0.976   7.666 -0.7960  1.2228 -0.8196
 2066SOL     OW17659   1.654   0.590   2.792  0.0484  0.0420  0.2677
 2066SOL    HW117660   1.667   0.634   2.708  2.8394 -1.0736  0.0819
 2066SOL    HW217661   1.724   0.615   2.852  0.2010  0.0461  0.0882
 2067SOL     OW17662   1.420   0.255   4.156 -0.1364 -0.7704 -0.2967
 2067SOL    HW117663   1.486   0.318   4.129  2.2813 -3.5569 -0.8985
 2067SOL    HW217664   1.375   0.304   4.225 -0.8087 -1.1552 -0.4616
 2068SOL     OW17665   3.334   1.370   3.295 -0.0612  0.5203 -0.3839
 2068SOL    HW117666   3.338   1.465   3.305 -2.9819  0.5156  0.8376
 2068SOL    HW217667   3.421   1.338   3.318 -1.5007 -2.3985  1.0746
 2069SOL     OW17668   0.455   1.524   7.133 -0.4036 -0.3226 -0.3112
 2069SOL    HW117669   0.367   1.511   7.098 -0.5807 -0.2314  0.1008
 2069SOL    HW217670   0.500   1.473   7.066 -1.2953 -0.7626 -0.5619
 2070SOL     OW17671   3.010   4.131  13.554 -0.3328  0.3060  0.3254
 2070SOL    HW117672   2.945   4.158  13.620 -1.9937 -1.7086 -0.4734
 2070SOL    HW217673   3.039   4.049  13.594  1.4330  1.4566  1.3925
 2071SOL     OW17674   3.706   3.947  17.333 -0.4602  0.2242  0.0396
 2071SOL    HW117675   3.615   3.945  17.362 -0.0638  0.6487  1.3174
 2071SOL    HW217676   3.693   4.007  17.260  2.6229  1.7646  0.7633
 2072SOL     OW17677   1.929   1.241  12.224  0.1290  0.3429  0.0874
 2072SOL    HW117678   1.934   1.177  12.152  0.8134  2.2275 -1.5529
 2072SOL    HW217679   1.948   1.175  12.290  1.5008 -0.0358 -0.6802
 2073SOL     OW17680   3.898   4.258   6.079  0.7693  0.5018  0.0899
 2073SOL    HW117681   3.858   4.217   6.002 -1.3845  2.3725  0.2165
 2073SOL    HW217682   3.971   4.293   6.028 -0.0502  1.6284 -0.3204
 2074SOL     OW17683   2.903   2.780   5.820 -0.4735  0.0308 -0.2795
 2074SOL    HW117684   2.935   2.869   5.838 -1.5694  0.3221  0.1992
 2074SOL    HW217685   2.950   2.765   5.737 -0.2424  0.2746 -0.1928
 2075SOL     OW17686   2.101   3.530   1.931 -0.1841 -0.0662 -0.6220
 2075SOL    HW117687   2.065   3.597   1.988 -1.0923 -0.3321 -0.8768
 2075SOL    HW217688   2.017   3.487   1.914 -0.2597  0.2941 -1.1555
 2076SOL     OW17689   4.207   3.576   2.692  0.1122 -0.1163 -0.4364
 2076SOL    HW117690   4.196   3.655   2.639 -0.7153 -0.7179 -1.1485
 2076SOL    HW217691   4.211   3.505   2.628  2.5979 -0.4532  0.0802
 2077SOL     OW17692   1.163   0.972   3.570 -0.6687  0.3870  0.6518
 2077SOL    HW117693   1.162   0.959   3.665  0.8033  0.6104  0.6891
 2077SOL    HW217694   1.069   0.988   3.557 -0.3858  1.9635  0.5773
 2078SOL     OW17695   1.414   4.037   8.337 -0.2967 -0.1775  0.5364
 2078SOL    HW117696   1.470   4.008   8.265 -3.8793 -1.2886 -1.8192
 2078SOL    HW217697   1.460   4.005   8.414 -0.2776 -0.3418  0.4583
 2079SOL     OW17698   3.997   2.378  11.847  0.0187  0.1067 -0.0663
 2079SOL    HW117699   4.011   2.403  11.938  0.1460  0.2598 -0.1298
 2079SOL    HW217700   3.953   2.295  11.868 -1.6822  0.7593 -1.0064
 2080SOL     OW17701   4.435   0.233   7.063 -0.1248 -0.1871  0.4804
 2080SOL    HW117702   4.348   0.192   7.062 -0.0027 -0.3834 -1.8565
 2080SOL    HW217703   4.435   0.283   7.145  0.4374  0.4951  0.0589
 2081SOL     OW17704   1.533   2.879   7.505  0.1599  0.5091 -0.2144
 2081SOL    HW117705   1.565   2.866   7.416 -1.0273 -0.9473 -0.4300
 2081SOL    HW217706   1.619   2.894   7.544  0.6616 -0.5045 -0.9417
 2082SOL     OW17707   2.353   2.588   3.560  0.4200  0.7617  0.0500
 2082SOL    HW117708   2.266   2.608   3.596  0.0373 -0.5879 -0.1270
 2082SOL    HW217709   2.366   2.658   3.497 -0.3560  1.2291  0.3999
 2083SOL     OW17710   1.437   2.804   5.179 -0.0666  0.3231 -0.1698
 2083SOL    HW117711   1.404   2.721   5.143 -0.2565  0.4702 -0.3368
 2083SOL    HW217712   1.514   2.793   5.233  0.1287 -0.7323 -0.6581
 2084SOL     OW17713   4.684   3.214   9.016 -0.3781 -0.7053 -0.0547
 2084SOL    HW117714   4.665   3.184   8.927 -1.5946 -2.1735  0.7005
 2084SOL    HW217715   4.674   3.134   9.067  1.2373 -0.2770  0.9351
 2085SOL     OW17716   1.587   4.480   5.913 -0.8475  0.0032  0.5572
 2085SOL    HW117717   1.589   4.575   5.914  0.2516 -0.0296  1.0223
 2085SOL    HW217718   1.519   4.461   5.847  0.8803 -0.7200 -1.0259
 2086SOL     OW17719   2.642   1.637   6.491  0.0696 -0.4750  0.1454
 2086SOL    HW117720   2.727   1.662   6.455 -0.3947  0.4433 -0.3102
 2086SOL    HW217721   2.659   1.549   6.458  0.5406  0.2606 -1.5856
 2087SOL     OW17722   2.238   3.476   0.798 -0.4273  0.2365 -0.1914
 2087SOL    HW117723   2.190   3.394   0.810 -3.0062  1.8082  0.3149
 2087SOL    HW217724   2.273   3.492   0.886  0.7406  2.0921 -0.9922
 2088SOL     OW17725   1.070   1.831  14.688 -0.3529 -0.4830 -0.1329
 2088SOL    HW117726   1.011   1.759  14.710 -1.8750  1.2450  1.4341
 2088SOL    HW217727   1.104   1.801  14.604  0.1322 -1.2138  0.3327
 2089SOL     OW17728   1.557   3.494   8.362  0.4953 -0.1432 -0.2581
 2089SOL    HW117729   1.633   3.471   8.415  0.0522 -0.0158  0.4327
 2089SOL    HW217730   1.587   3.583   8.344 -0.4259  0.1775 -0.2436
 2090SOL     OW17731   2.736   0.557   9.250  0.0011 -0.3026  0.0742
 2090SOL    HW117732   2.642   0.560   9.232 -0.0407 -0.2425  0.3040
 2090SOL    HW217733   2.776   0.625   9.196 -0.3692 -1.8820 -2.1804
 2091SOL     OW17734   3.152   4.111   5.808 -0.2010 -0.3403 -0.2714
 2091SOL    HW117735   3.219   4.044   5.819 -1.4553 -1.3872  0.9719
 2091SOL    HW217736   3.104   4.108   5.890  2.3351 -0.5751  1.2019
 2092SOL     OW17737   4.507   3.515   7.718 -0.2907 -0.4362  0.0351
 2092SOL    HW117738   4.465   3.576   7.779  0.7698  1.7549 -1.3897
 2092SOL    HW217739   4.479   3.428   7.746 -0.7089 -0.4690 -0.4829
 2093SOL     OW17740   0.609   2.962   3.983  0.0969 -0.2840  0.0345
 2093SOL    HW117741   0.548   2.968   4.056  0.2999 -1.8145  0.3367
 2093SOL    HW217742   0.559   3.012   3.920  0.3258 -1.1493 -0.8306
 2094SOL     OW17743   4.269   3.243   3.748  0.2026 -0.1994  0.3159
 2094SOL    HW117744   4.192   3.202   3.788  0.3282 -0.2322  0.5263
 2094SOL    HW217745   4.230   3.291   3.676  0.7194  0.9126  0.7845
 2095SOL     OW17746   0.800   2.324  15.595  0.0189 -0.5686 -0.7857
 2095SOL    HW117747   0.777   2.258  15.530 -1.3057 -1.0420  0.1598
 2095SOL    HW217748   0.888   2.305  15.628 -0.6198 -2.0434  0.0869
 2096SOL     OW17749   2.402   1.218   3.253 -0.3948 -0.0675  0.0539
 2096SOL    HW117750   2.406   1.213   3.349 -0.8884  0.6850  0.1090
 2096SOL    HW217751   2.486   1.262   3.246 -0.1593 -0.6908 -1.0753
 2097SOL     OW17752   3.168   1.127   2.021 -0.5529  0.1242 -0.0372
 2097SOL    HW117753   3.162   1.181   1.942  1.5712  0.8787  0.3061
 2097SOL    HW217754   3.224   1.055   1.990 -0.9049 -0.7469  1.3764
 2098SOL     OW17755   2.775   3.612  12.141 -0.3082 -0.1811  0.2744
 2098SOL    HW117756   2.749   3.615  12.049 -0.5813 -3.1591  0.2442
 2098SOL    HW217757   2.740   3.525  12.162 -0.5400  0.0348  0.7794
 2099SOL     OW17758   0.481   1.668   1.895 -0.4552 -0.0455  0.0085
 2099SOL    HW117759   0.418   1.685   1.825  2.7606  1.0192 -2.6150
 2099SOL    HW217760   0.431   1.631   1.967 -1.5212  1.8069  0.2294
 2100SOL     OW17761   3.418   2.076  13.902 -0.0194  0.2409 -0.2932
 2100SOL    HW117762   3.392   1.986  13.879  0.5034  0.7005 -2.7037
 2100SOL    HW217763   3.339   2.119  13.869  0.3708  1.4940  0.4056
 2101SOL     OW17764   1.851   1.344   8.290 -0.0401  0.1849 -0.2401
 2101SOL    HW117765   1.840   1.375   8.380 -0.4559  0.0244 -0.2353
 2101SOL    HW217766   1.795   1.402   8.237 -1.2692 -0.4391  0.3752
 2102SOL     OW17767   0.920   3.934   0.119 -0.7027 -0.5153  0.6117
 2102SOL    HW117768   0.852   3.997   0.095  0.7023  0.2988 -1.3320
 2102SOL    HW217769   0.892   3.858   0.067  0.0749 -0.9183  0.7886
 2103SOL     OW17770   1.359   4.255   8.625 -1.1511 -0.8017  0.2807
 2103SOL    HW117771   1.402   4.175   8.596  0.4346  0.5589 -1.0594
 2103SOL    HW217772   1.299   4.213   8.687 -2.2070  1.7344  1.0039
 2104SOL     OW17773   1.730   1.850   1.855 -0.0328 -0.1477  0.3727
 2104SOL    HW117774   1.672   1.791   1.904  1.1662 -0.7341  1.0836
 2104SOL    HW217775   1.678   1.929   1.846 -1.8257 -1.5340 -1.6355
 2105SOL     OW17776   3.518   3.733   6.225  0.1943  1.0346 -0.0131
 2105SOL    HW117777   3.543   3.652   6.179  1.3681  1.0170  0.6443
 2105SOL    HW217778   3.436   3.725   6.273  2.0197 -0.1249  2.9260
 2106SOL     OW17779   3.800   4.186  10.116  0.2525  0.4271  0.3500
 2106SOL    HW117780   3.709   4.176  10.086  0.7615 -2.2139 -0.2233
 2106SOL    HW217781   3.773   4.198  10.207  1.6417  1.7561  0.5742
 2107SOL     OW17782   2.597   1.348   8.506 -0.0473  0.1431  0.4499
 2107SOL    HW117783   2.574   1.264   8.544 -0.1640 -1.1951 -2.6104
 2107SOL    HW217784   2.538   1.338   8.431  0.7556 -0.3838 -0.1116
 2108SOL     OW17785   3.901   0.401   1.613 -0.1746  0.3100  0.1871
 2108SOL    HW117786   3.895   0.312   1.648  3.3802 -0.3969 -0.9693
 2108SOL    HW217787   3.882   0.379   1.521  3.9063  1.7270 -1.0141
 2109SOL     OW17788   1.390   2.974   6.565 -0.5272 -0.3884  0.2405
 2109SOL    HW117789   1.482   2.996   6.553 -0.3478 -1.3195 -0.1099
 2109SOL    HW217790   1.404   2.892   6.612 -0.3242 -1.1938 -1.2220
 2110SOL     OW17791   0.612   1.856  12.843  0.0035 -0.4528 -0.2908
 2110SOL    HW117792   0.707   1.851  12.845  0.1039  1.1688 -0.6848
 2110SOL    HW217793   0.588   1.765  12.864  2.8391 -1.2058 -0.4104
 2111SOL     OW17794   2.533   2.702   0.296 -0.7197  0.4699  0.2864
 2111SOL    HW117795   2.548   2.747   0.213 -1.5865  0.3090  0.0422
 2111SOL    HW217796   2.627   2.689   0.309 -0.7038 -2.0710 -2.5573
 2112SOL     OW17797   0.391   4.314   6.498  0.3270 -0.1929 -0.1527
 2112SOL    HW117798   0.460   4.301   6.433  0.9095  1.3947  0.1372
 2112SOL    HW217799   0.423   4.398   6.532  0.7346 -0.7817  0.9030
 2113SOL     OW17800   0.070   0.661   2.032  0.1672  0.2555 -0.4194
 2113SOL    HW117801   4.707   0.654   1.979 -1.2904  3.0684  1.3607
 2113SOL    HW217802   0.140   0.651   1.968 -1.9233  1.5927 -2.9147
 2114SOL     OW17803   0.853   2.177  14.397  0.0677  0.1314  0.3926
 2114SOL    HW117804   0.778   2.141  14.349 -0.1854  2.6361 -1.0512
 2114SOL    HW217805   0.839   2.154  14.489 -0.4300  2.1758  0.8281
 2115SOL     OW17806   1.526   2.439   8.756  0.0899 -0.1367  0.1889
 2115SOL    HW117807   1.583   2.369   8.726  0.0886  1.1383 -2.7562
 2115SOL    HW217808   1.537   2.447   8.851 -2.5727 -1.6841  0.6411
 2116SOL     OW17809   1.556   2.097   4.715  0.0043  0.3318 -0.3993
 2116SOL    HW117810   1.603   2.150   4.781  1.4641  0.8282 -1.8218
 2116SOL    HW217811   1.466   2.094   4.748  0.1762 -2.8716 -0.2191
 2117SOL     OW17812   3.036   2.653   6.672  0.3693  0.3584  0.3838
 2117SOL    HW117813   2.956   2.640   6.623 -0.2122 -0.4865  1.5358
 2117SOL    HW217814   3.093   2.593   6.623 -0.3865 -1.3698  1.5990
 2118SOL     OW17815   0.322   0.732  15.710 -0.2376  0.3472 -0.3833
 2118SOL    HW117816   0.263   0.678  15.658 -2.5835  1.6791  0.8917
 2118SOL    HW217817   0.338   0.802  15.647  0.0571  0.2657 -0.3953
 2119SOL     OW17818   2.357   2.895   2.708 -0.1377 -0.5730 -0.1710
 2119SOL    HW117819   2.278   2.843   2.695 -0.9587  0.1901  1.7708
 2119SOL    HW217820   2.397   2.857   2.786  0.6987  0.8254  0.0820
 2120SOL     OW17821   2.604   3.759   4.118  0.0443  0.1551 -0.4491
 2120SOL    HW117822   2.652   3.687   4.076  0.9171  0.3656  0.1840
 2120SOL    HW217823   2.662   3.834   4.104  0.4366 -0.0695 -0.0378
 2121SOL     OW17824   2.381   2.862   5.598 -0.0385  0.1254  0.0301
 2121SOL    HW117825   2.357   2.941   5.548 -1.5693  0.3195  1.0678
 2121SOL    HW217826   2.393   2.888   5.689 -1.9434 -0.8382  0.5650
 2122SOL     OW17827   0.285   3.561   5.154 -0.2616  0.0048  0.2305
 2122SOL    HW117828   0.241   3.634   5.110 -0.9098 -0.7321 -0.3572
 2122SOL    HW217829   0.230   3.485   5.131  0.8788 -0.9742  0.7551
 2123SOL     OW17830   2.372   1.019   6.203  0.1583 -0.6117  0.0351
 2123SOL    HW117831   2.381   0.970   6.121  1.3761  1.1233 -0.8640
 2123SOL    HW217832   2.460   1.012   6.240 -0.4050 -0.4139  1.3981
 2124SOL     OW17833   2.274   1.821   6.681 -0.2723  0.3367 -0.2570
 2124SOL    HW117834   2.301   1.891   6.741  1.8433 -0.7787  0.0956
 2124SOL    HW217835   2.339   1.753   6.698 -0.6880 -0.6297 -2.6716
 2125SOL     OW17836   3.221   0.496   6.497  0.2302  0.1299 -0.1472
 2125SOL    HW117837   3.172   0.493   6.414  2.5637 -0.3071 -1.5098
 2125SOL    HW217838   3.176   0.561   6.550  0.1176  0.8015 -1.0536
 2126SOL     OW17839   4.170   2.108   3.284  0.0565  0.8716 -0.3278
 2126SOL    HW117840   4.233   2.138   3.349  1.2998  1.3042 -1.7473
 2126SOL    HW217841   4.130   2.191   3.260 -0.0323  0.4235 -1.7366
 2127SOL     OW17842   0.698   2.724  10.425  0.1347 -0.1672 -0.4928
 2127SOL    HW117843   0.662   2.643  10.460  2.6019 -0.7558  0.6829
 2127SOL    HW217844   0.625   2.763  10.378  0.2625  2.6590  1.6513
 2128SOL     OW17845   1.829   2.656  15.541 -0.1757 -0.1303  0.2690
 2128SOL    HW117846   1.869   2.714  15.477  2.5973 -0.5591  1.6115
 2128SOL    HW217847   1.841   2.567  15.506 -0.0608 -0.2181  0.5323
 2129SOL     OW17848   2.466   3.562   8.618  0.7428  0.0216 -0.5745
 2129SOL    HW117849   2.476   3.532   8.528 -2.9419 -2.4113 -0.1628
 2129SOL    HW217850   2.553   3.530   8.641  0.1480  0.0437  1.7526
 2130SOL     OW17851   3.686   2.045   1.952 -0.2580 -0.1235  0.0780
 2130SOL    HW117852   3.777   2.048   1.981 -0.2543  1.1960 -0.0704
 2130SOL    HW217853   3.670   2.133   1.918 -0.5753  0.2703  1.2268
 2131SOL     OW17854   1.781   1.222   2.278 -0.3738 -0.2004  0.1156
 2131SOL    HW117855   1.737   1.271   2.208  0.0582 -2.7131 -1.9354
 2131SOL    HW217856   1.707   1.196   2.333 -1.7565  2.0849 -0.6416
 2132SOL     OW17857   0.298   4.591  11.304  0.6099 -0.0947 -0.4566
 2132SOL    HW117858   0.380   4.635  11.283  0.9738 -0.8020 -0.5298
 2132SOL    HW217859   0.325   4.499  11.305  0.2280 -0.1682  1.9140
 2133SOL     OW17860   1.899   4.080  17.205  0.0644 -0.0696  0.4792
 2133SOL    HW117861   1.832   4.147  17.188  0.7289  0.6534  0.6685
 2133SOL    HW217862   1.974   4.117  17.157 -0.7853  0.4227 -0.4712
 2134SOL     OW17863   2.217   3.709  11.005  0.7928  0.7732  0.0145
 2134SOL    HW117864   2.247   3.795  11.033 -0.8067  0.6612  2.0665
 2134SOL    HW217865   2.128   3.727  10.976  1.2383  3.9023  0.5741
 2135SOL     OW17866   3.582   3.268   8.842 -0.4073  0.0965 -0.4911
 2135SOL    HW117867   3.607   3.219   8.920 -0.9735  0.0568 -0.3349
 2135SOL    HW217868   3.653   3.332   8.844  1.1678 -1.6095 -1.7665
 2136SOL     OW17869   3.064   2.663  12.015 -0.2497 -0.3089 -0.0419
 2136SOL    HW117870   3.052   2.598  11.946 -1.6502  0.8468 -0.9030
 2136SOL    HW217871   3.025   2.736  11.966 -0.0919  0.1767  0.5506
 2137SOL     OW17872   1.557   2.729   0.712 -0.1344  0.5754  0.4529
 2137SOL    HW117873   1.567   2.688   0.627  1.0734 -2.1928  1.9355
 2137SOL    HW217874   1.646   2.717   0.744 -0.7310 -1.2967  1.4321
 2138SOL     OW17875   1.446   0.729  14.120  0.0616  0.0956 -0.4529
 2138SOL    HW117876   1.462   0.674  14.197 -2.0631 -0.2484 -0.2543
 2138SOL    HW217877   1.363   0.692  14.090  1.0039 -0.9453 -1.7746
 2139SOL     OW17878   0.110   3.267   4.297 -0.1185  0.3186 -0.3030
 2139SOL    HW117879   0.200   3.297   4.284  0.4917 -0.6464  1.6152
 2139SOL    HW217880   0.105   3.203   4.368 -0.9713  0.1701 -0.4967
 2140SOL     OW17881   3.665   0.506   8.171 -0.4067  0.3554  0.1369
 2140SOL    HW117882   3.721   0.457   8.111  0.8090  3.5777 -1.3537
 2140SOL    HW217883   3.734   0.531   8.232 -1.6582  1.5029  1.0794
 2141SOL     OW17884   2.531   1.163   9.487  0.7858  0.0040 -0.2684
 2141SOL    HW117885   2.578   1.118   9.417  0.0071 -1.7894  0.3470
 2141SOL    HW217886   2.506   1.247   9.449 -1.1921 -1.6343 -2.5573
 2142SOL     OW17887   0.777   4.662   2.884  0.2050 -0.0071  0.4569
 2142SOL    HW117888   0.756   0.031   2.919 -0.8010  0.0288 -0.2110
 2142SOL    HW217889   0.858   4.683   2.838 -0.0582  1.4816  0.6735
 2143SOL     OW17890   1.600   3.715   2.036 -0.3813  0.1287 -0.3211
 2143SOL    HW117891   1.653   3.703   1.957  1.9857 -1.1916  1.4559
 2143SOL    HW217892   1.533   3.769   1.994  0.0144  1.0026  0.1437
 2144SOL     OW17893   1.049   0.225  14.984 -0.2008 -0.1077  0.1304
 2144SOL    HW117894   1.000   0.149  14.955 -0.5530 -0.6717  2.2261
 2144SOL    HW217895   1.127   0.179  15.014  0.6614  1.5369  0.4528
 2145SOL     OW17896   2.466   1.923   7.899 -0.0945 -0.7662 -0.4249
 2145SOL    HW117897   2.384   1.941   7.854  0.2666  0.3364 -0.6286
 2145SOL    HW217898   2.429   1.869   7.970  0.0015  1.4461  1.3121
 2146SOL     OW17899   2.477   2.089   0.418  0.1643 -0.1846  0.3520
 2146SOL    HW117900   2.461   2.022   0.485 -1.8483  0.4199  0.4914
 2146SOL    HW217901   2.534   2.040   0.359 -1.2214 -2.0675  0.5479
 2147SOL     OW17902   3.117   1.066   9.079  0.3706 -0.0633 -0.0128
 2147SOL    HW117903   3.171   0.987   9.079  0.0941 -0.2580 -1.3240
 2147SOL    HW217904   3.028   1.035   9.066  0.8553 -1.5789  0.3177
 2148SOL     OW17905   1.983   1.744   5.718  0.4146  0.0946 -0.6190
 2148SOL    HW117906   2.063   1.794   5.705  0.2698  0.2444 -0.9331
 2148SOL    HW217907   1.919   1.809   5.688  2.7704  1.7429 -2.0529
 2149SOL     OW17908   2.577   3.921   8.197  0.1808  0.1336 -0.0337
 2149SOL    HW117909   2.543   3.838   8.162  1.3361 -0.0838 -0.6259
 2149SOL    HW217910   2.584   3.977   8.120  0.0060  0.1077 -0.0694
 2150SOL     OW17911   1.113   2.420   2.234 -0.2361 -1.0303  0.1726
 2150SOL    HW117912   1.131   2.513   2.249  0.7724 -0.9518 -1.5465
 2150SOL    HW217913   1.188   2.386   2.282  0.8642 -0.6315 -1.2639
 2151SOL     OW17914   0.920   1.561  12.838 -0.4964 -0.5996 -0.0518
 2151SOL    HW117915   0.918   1.655  12.821  2.2867 -0.7127 -0.9453
 2151SOL    HW217916   0.916   1.558  12.933  2.5338 -2.1349  0.0379
 2152SOL     OW17917   1.417   2.514   9.466  0.2669  0.3009 -1.1974
 2152SOL    HW117918   1.366   2.504   9.546 -0.7598 -0.4910 -1.9423
 2152SOL    HW217919   1.467   2.433   9.467  0.0149  0.1495 -0.9023
 2153SOL     OW17920   1.089   3.662  11.130  0.7910 -0.4909  0.5257
 2153SOL    HW117921   1.120   3.745  11.166 -0.1893 -0.2448  0.7895
 2153SOL    HW217922   0.995   3.673  11.140  0.4216 -2.1959 -0.9014
 2154SOL     OW17923   3.954   0.176  10.775  0.1009  0.5255  0.0061
 2154SOL    HW117924   3.963   0.249  10.713 -2.2872  1.8416  1.2140
 2154SOL    HW217925   3.920   0.103  10.722 -1.7618  0.4736  1.3075
 2155SOL     OW17926   1.927   3.905   5.776 -0.4513  0.0376  0.3352
 2155SOL    HW117927   1.992   3.864   5.832 -0.5881  0.9207  1.1472
 2155SOL    HW217928   1.855   3.844   5.794 -0.1789 -0.5530 -0.5765
 2156SOL     OW17929   1.868   4.063   2.226  0.0465 -0.3698 -0.0608
 2156SOL    HW117930   1.932   4.018   2.170  1.8542  0.3057  1.4843
 2156SOL    HW217931   1.924   4.103   2.292  0.2337  0.0761 -0.4864
 2157SOL     OW17932   2.082   4.157  17.001  0.3767  0.3697  0.6010
 2157SOL    HW117933   2.170   4.194  17.005  1.0917 -1.3462  0.6519
 2157SOL    HW217934   2.059   4.195  16.917 -1.7813 -2.5604 -0.1439
 2158SOL     OW17935   1.328   3.160   7.707  0.2840  0.2437  0.2436
 2158SOL    HW117936   1.397   3.210   7.751  0.9162 -1.3720  1.1190
 2158SOL    HW217937   1.286   3.107   7.774 -1.0340  0.4609 -0.4199
 2159SOL     OW17938   4.096   2.375  11.170  0.1678 -0.8453  0.0823
 2159SOL    HW117939   4.131   2.299  11.123 -0.0809 -0.4787 -0.6959
 2159SOL    HW217940   4.142   2.446  11.126  1.6118 -1.7390  0.1455
 2160SOL     OW17941   1.690   1.377  17.178  1.1137  0.1773 -0.2036
 2160SOL    HW117942   1.743   1.298  17.164  0.0377 -0.5058 -0.4057
 2160SOL    HW217943   1.725   1.434  17.110 -1.2946 -1.3617 -2.7098
 2161SOL     OW17944   4.389   3.165   4.899  0.2986  0.3307  0.7418
 2161SOL    HW117945   4.330   3.114   4.843  0.7294 -1.4981  1.9558
 2161SOL    HW217946   4.346   3.152   4.984  0.9211 -2.8165  0.5710
 2162SOL     OW17947   2.229   1.492   3.649  0.3173  0.1150  0.1782
 2162SOL    HW117948   2.203   1.404   3.677  3.3364 -1.6975 -2.5626
 2162SOL    HW217949   2.164   1.491   3.579 -2.5094  1.3603  2.8449
 2163SOL     OW17950   3.881   3.075   5.785  0.1207 -0.4571 -0.0477
 2163SOL    HW117951   3.810   3.101   5.727  1.3417  1.2308 -0.8151
 2163SOL    HW217952   3.870   2.981   5.774  0.4313 -0.4050 -0.8824
 2164SOL     OW17953   4.709   3.450   3.200 -1.0308  0.2777 -0.1176
 2164SOL    HW117954   4.635   3.498   3.163  1.0443  2.8857 -0.8748
 2164SOL    HW217955   0.023   3.515   3.264  1.2364 -0.1465 -0.7405
 2165SOL     OW17956   4.185   1.032  12.753  0.4704  0.0822  0.0827
 2165SOL    HW117957   4.093   1.015  12.771  0.7013 -0.3936  0.8044
 2165SOL    HW217958   4.215   0.942  12.743  1.8720  0.5591 -0.0972
 2166SOL     OW17959   3.494   1.085   5.964  0.6330 -0.1203  0.2905
 2166SOL    HW117960   3.425   1.148   5.983  1.2074 -0.0128  2.0364
 2166SOL    HW217961   3.569   1.144   5.964  0.4644  0.1130  3.1125
 2167SOL     OW17962   0.550   2.570   2.421  0.2751  0.6171  0.2963
 2167SOL    HW117963   0.498   2.604   2.349  1.0521  1.7877  0.2808
 2167SOL    HW217964   0.589   2.650   2.458  3.4697 -0.6937 -0.2236
 2168SOL     OW17965   0.086   3.470   2.567  0.1923 -0.1499 -0.2595
 2168SOL    HW117966   0.160   3.438   2.516 -2.0362 -4.3361 -0.8100
 2168SOL    HW217967   0.108   3.563   2.558  2.9484 -0.6950  0.6488
 2169SOL     OW17968   2.303   3.351   2.542 -0.5368  0.1147  0.0771
 2169SOL    HW117969   2.245   3.278   2.565  0.6216 -1.6498 -2.5582
 2169SOL    HW217970   2.365   3.309   2.483 -0.3069 -0.4724  0.7292
 2170SOL     OW17971   4.576   4.043   1.965  0.0948 -0.0773  0.1517
 2170SOL    HW117972   4.598   3.959   1.925 -1.1133  0.8695 -2.4692
 2170SOL    HW217973   4.621   4.106   1.909 -0.2944 -0.4716 -0.6033
 2171SOL     OW17974   1.431   4.272   2.242 -0.8887  0.1613  0.3483
 2171SOL    HW117975   1.408   4.179   2.234  1.4193 -0.3302 -0.6110
 2171SOL    HW217976   1.514   4.272   2.291 -0.8676 -0.3267  0.3112
 2172SOL     OW17977   3.207   2.235   8.913  0.4139  0.6375  0.0690
 2172SOL    HW117978   3.222   2.157   8.860  0.9838  0.7898 -0.0016
 2172SOL    HW217979   3.112   2.239   8.913  0.3799 -0.3418  1.9933
 2173SOL     OW17980   0.425   2.220   1.443  0.3382  0.0567 -0.4870
 2173SOL    HW117981   0.453   2.289   1.503 -1.0948  0.9498 -0.8541
 2173SOL    HW217982   0.407   2.246   1.353 -0.3840 -2.1502 -0.9731
 2174SOL     OW17983   0.617   3.287  17.083 -0.0113  0.1256 -0.1707
 2174SOL    HW117984   0.566   3.316  17.007 -0.9731 -2.3129 -0.4690
 2174SOL    HW217985   0.700   3.329  17.063 -0.0665  1.7520  3.0005
 2175SOL     OW17986   4.317   3.597   2.407  0.1784  0.0371  0.1437
 2175SOL    HW117987   4.393   3.628   2.458  0.2569  0.2381 -0.0951
 2175SOL    HW217988   4.357   3.591   2.320 -0.5727  0.4121 -0.2181
 2176SOL     OW17989   1.670   2.571   9.603 -0.1960  0.2079 -0.1173
 2176SOL    HW117990   1.599   2.507   9.611 -0.4471  0.5005 -0.0090
 2176SOL    HW217991   1.630   2.649   9.565  1.1224  1.4977  1.0956
 2177SOL     OW17992   0.078   0.286   2.078  0.0587 -0.2158 -0.2058
 2177SOL    HW117993   0.020   0.323   2.146  0.6162 -0.5328  0.4451
 2177SOL    HW217994   0.152   0.342   2.103  0.1481 -0.3405 -0.1942
 2178SOL     OW17995   0.229   3.769  11.889  0.7817  0.3300  0.1060
 2178SOL    HW117996   0.202   3.677  11.893  2.4881 -0.2232 -0.9276
 2178SOL    HW217997   0.312   3.771  11.937  1.0032  0.7464 -0.2883
 2179SOL     OW17998   1.071   2.772   4.687  0.1173  0.1993  0.0104
 2179SOL    HW117999   1.046   2.681   4.701  0.9125  0.1235  0.9393
 2179SOL    HW218000   1.127   2.777   4.764  0.8434 -1.3210 -0.4273
 2180SOL     OW18001   1.789   3.502  14.532 -0.0799  0.2984  0.1037
 2180SOL    HW118002   1.777   3.420  14.486 -1.3203  1.5180 -1.7138
 2180SOL    HW218003   1.742   3.475  14.611 -1.3332  1.3073 -0.2983
 2181SOL     OW18004   0.868   2.267   0.211 -0.1991  0.8008 -0.1659
 2181SOL    HW118005   0.829   2.269   0.124 -2.8851 -2.5389  0.9488
 2181SOL    HW218006   0.882   2.358   0.234  3.2664  0.0957  0.5816
 2182SOL     OW18007   3.319   4.243   5.570 -0.2380  0.3004  0.0233
 2182SOL    HW118008   3.261   4.200   5.633  3.3534 -1.9201  1.8221
 2182SOL    HW218009   3.401   4.200   5.595 -0.4359 -0.1164 -0.0583
 2183SOL     OW18010   3.272   2.842   4.459 -0.7104  0.5053  0.8741
 2183SOL    HW118011   3.225   2.840   4.543  0.5607 -0.0853  1.5597
 2183SOL    HW218012   3.212   2.797   4.399 -0.0268  0.7548  0.0137
 2184SOL     OW18013   0.818   0.609   2.341 -0.0884 -0.2431  0.1251
 2184SOL    HW118014   0.876   0.681   2.317  0.7930 -1.4502 -1.3499
 2184SOL    HW218015   0.820   0.553   2.263  2.2172  0.0904 -0.0347
 2185SOL     OW18016   1.024   0.718  12.326 -0.0342  0.8299 -1.0336
 2185SOL    HW118017   1.006   0.729  12.232  1.9623 -1.3039 -1.6781
 2185SOL    HW218018   0.985   0.630  12.325 -0.4355  1.0028  0.5142
 2186SOL     OW18019   0.937   3.751  11.426 -0.2636  0.3882  0.2860
 2186SOL    HW118020   0.967   3.728  11.515  0.3864  0.3824  0.0657
 2186SOL    HW218021   1.014   3.797  11.394  0.7345 -3.1699 -2.3707
 2187SOL     OW18022   4.451   3.318   0.964 -0.4389  0.1889  0.2298
 2187SOL    HW118023   4.403   3.334   0.882 -0.3195  1.4631  0.4091
 2187SOL    HW218024   4.417   3.392   1.013 -0.7766  0.1511  0.0512
 2188SOL     OW18025   4.419   1.759   1.110  0.5471  0.2031  0.3945
 2188SOL    HW118026   4.452   1.823   1.047  0.4988  0.0916  0.2570
 2188SOL    HW218027   4.358   1.709   1.055  1.4576 -0.3848 -0.0744
 2189SOL     OW18028   2.982   1.971  15.800 -0.3757  0.1168 -0.2658
 2189SOL    HW118029   2.963   1.999  15.710 -0.5507  2.3615  0.4939
 2189SOL    HW218030   2.918   2.017  15.854  0.1370 -0.4338  0.8112
 2190SOL     OW18031   1.334   2.468  17.147 -0.2603  0.0230  0.9224
 2190SOL    HW118032   1.380   2.472  17.230  0.5730  0.8561  0.4121
 2190SOL    HW218033   1.395   2.432  17.083  1.5872  2.2157  1.4744
 2191SOL     OW18034   0.899   2.930   2.645  0.2357  0.0840 -0.3626
 2191SOL    HW118035   0.875   2.903   2.733  1.8130  1.6075  0.5228
 2191SOL    HW218036   0.963   2.863   2.621 -1.1173 -0.2154 -3.1855
 2192SOL     OW18037   3.427   2.605   1.290  0.4646 -0.1753  0.2430
 2192SOL    HW118038   3.338   2.620   1.321 -0.5154 -0.0032 -2.6718
 2192SOL    HW218039   3.482   2.599   1.368 -0.1425 -1.9672  0.5539
 2193SOL     OW18040   2.660   4.330   0.768 -0.6894 -0.2257  0.0959
 2193SOL    HW118041   2.721   4.271   0.812  2.3655  1.9492 -1.2431
 2193SOL    HW218042   2.724   4.389   0.730  0.3819 -1.9526 -0.7641
 2194SOL     OW18043   1.945   4.137   4.831 -0.0071 -0.0162  0.0605
 2194SOL    HW118044   2.000   4.185   4.893 -1.4987  0.4051  1.0562
 2194SOL    HW218045   2.006   4.064   4.818 -1.6130 -1.5370  1.0802
 2195SOL     OW18046   0.105   2.355   1.327 -0.5318 -0.6080  0.5265
 2195SOL    HW118047   0.176   2.315   1.277 -0.8480  0.3627 -0.7129
 2195SOL    HW218048   0.058   2.408   1.263  0.8379  0.8409  0.7065
 2196SOL     OW18049   3.740   1.851   5.102  0.2841  0.1875 -0.5056
 2196SOL    HW118050   3.789   1.934   5.100  1.7231 -0.6009  1.9745
 2196SOL    HW218051   3.758   1.830   5.193 -5.4552 -0.4576  0.4117
 2197SOL     OW18052   3.081   2.716   4.094  0.3287 -0.1225 -0.7291
 2197SOL    HW118053   3.175   2.699   4.094  0.5947  1.3442  3.1220
 2197SOL    HW218054   3.070   2.702   4.188 -0.3045 -0.4695 -0.8520
 2198SOL     OW18055   4.471   4.057   3.241  0.1964  0.1979  0.8565
 2198SOL    HW118056   4.431   4.098   3.317 -1.4652 -0.1603  0.1907
 2198SOL    HW218057   4.462   3.964   3.265  2.4071  0.0608  1.1301
 2199SOL     OW18058   0.142   1.992   4.797  0.0500 -0.6576 -0.2079
 2199SOL    HW118059   0.173   1.908   4.762 -1.7658 -1.3533 -0.1513
 2199SOL    HW218060   0.142   1.967   4.889  0.3190 -0.0201 -0.0336
 2200SOL     OW18061   0.294   3.228   3.695  0.5082 -0.3749  0.0169
 2200SOL    HW118062   0.291   3.164   3.624 -0.9474 -1.5483  1.1495
 2200SOL    HW218063   0.293   3.311   3.647  0.6837 -1.3149 -1.6421
 2201SOL     OW18064   4.628   2.539  11.277 -0.0319 -0.0710  0.4583
 2201SOL    HW118065   4.588   2.456  11.249  1.9757 -0.2489 -1.9127
 2201SOL    HW218066   4.716   2.536  11.241 -1.5316  1.2689 -3.3296
 2202SOL     OW18067   1.296   1.876   5.725  0.3211  0.5778  0.2363
 2202SOL    HW118068   1.317   1.791   5.762  1.3385  0.9564  0.5169
 2202SOL    HW218069   1.379   1.910   5.693  0.4034  1.0298  0.9249
 2203SOL     OW18070   0.155   0.002   2.759  0.2317 -0.6182 -0.1312
 2203SOL    HW118071   0.093   0.000   2.833 -0.1763 -0.7114 -0.4779
 2203SOL    HW218072   0.227   0.055   2.794  0.9897 -2.3132  0.9220
 2204SOL     OW18073   3.464   4.360   9.544  0.0624  0.5714  0.0167
 2204SOL    HW118074   3.415   4.337   9.466 -0.2529 -0.5712  0.5555
 2204SOL    HW218075   3.536   4.412   9.507  0.5720 -0.5050 -0.5196
 2205SOL     OW18076   3.329   4.291   2.401 -0.7841 -0.3484 -0.0741
 2205SOL    HW118077   3.300   4.353   2.467 -0.6642 -0.0333 -0.3170
 2205SOL    HW218078   3.305   4.208   2.441  0.2318 -0.3614  0.4876
 2206SOL     OW18079   2.171   4.046  14.869  0.8289 -0.9925 -0.4306
 2206SOL    HW118080   2.235   4.019  14.934 -1.2008 -1.0107  1.5592
 2206SOL    HW218081   2.214   4.126  14.837 -0.2864  0.1053  0.8066
 2207SOL     OW18082   3.596   3.976  16.168  0.5019  0.2236  0.4155
 2207SOL    HW118083   3.560   3.902  16.217  2.1587  0.6963  2.3501
 2207SOL    HW218084   3.587   3.946  16.078  2.2161  1.0642 -0.0435
 2208SOL     OW18085   1.921   0.976   4.749  0.3851 -0.1972 -0.0174
 2208SOL    HW118086   1.882   0.893   4.777 -1.6265  0.5823 -0.4819
 2208SOL    HW218087   2.006   0.955   4.788 -1.6710 -1.3889  3.8373
 2209SOL     OW18088   1.627   3.143   9.054 -0.4166 -0.1166  0.2146
 2209SOL    HW118089   1.639   3.129   9.148  1.2594 -0.7600 -0.1079
 2209SOL    HW218090   1.709   3.110   9.019 -0.3132 -0.1174  0.4616
 2210SOL     OW18091   2.208   1.126   7.015  0.9861  0.1915 -0.2126
 2210SOL    HW118092   2.161   1.174   6.947 -1.3202 -1.1495  0.4703
 2210SOL    HW218093   2.297   1.163   7.017  0.6514  0.9476  0.7863
 2211SOL     OW18094   4.408   3.906  17.341 -0.1686 -0.3351  0.3745
 2211SOL    HW118095   4.463   3.939  17.412  0.9502 -2.8452  0.6986
 2211SOL    HW218096   4.407   3.988  17.291  0.9316 -0.2342  0.5085
 2212SOL     OW18097   2.955   3.074   2.536 -1.1481  0.2450  0.2158
 2212SOL    HW118098   2.950   3.165   2.563  1.5621  0.3113  0.5361
 2212SOL    HW218099   2.884   3.073   2.472 -0.8716  0.3927 -0.0905
 2213SOL     OW18100   4.210   0.351  11.822 -0.4620 -0.3970 -0.1072
 2213SOL    HW118101   4.153   0.305  11.760 -2.0379  0.2633  0.8656
 2213SOL    HW218102   4.163   0.325  11.901 -1.1222 -1.7929 -0.9543
 2214SOL     OW18103   3.166   2.223  14.243 -0.2741  0.3423 -0.4321
 2214SOL    HW118104   3.247   2.248  14.198  0.0512 -2.0525 -1.1788
 2214SOL    HW218105   3.100   2.287  14.215  0.5348  1.6804  0.7394
 2215SOL     OW18106   4.622   1.435   5.811 -0.1481  0.1233  0.2757
 2215SOL    HW118107   4.660   1.475   5.733 -2.1011 -0.1623 -0.8158
 2215SOL    HW218108   4.660   1.494   5.876  0.7188 -2.5461  2.1469
 2216SOL     OW18109   1.310   0.052   4.301 -0.1774  0.5790  0.4535
 2216SOL    HW118110   1.346   0.119   4.244  0.2330  0.5314  0.6529
 2216SOL    HW218111   1.231   0.093   4.336  0.2694  0.5865  1.4589
 2217SOL     OW18112   0.059   1.609   5.979 -0.1171  0.3867 -0.2061
 2217SOL    HW118113   0.130   1.666   6.008 -0.4386  1.6942 -2.0065
 2217SOL    HW218114   0.015   1.593   6.062  0.2770  0.6181  0.0486
 2218SOL     OW18115   1.630   0.753   4.105 -0.8841 -0.5321  0.0521
 2218SOL    HW118116   1.678   0.790   4.031 -0.9576  0.0863  0.3151
 2218SOL    HW218117   1.684   0.790   4.175  1.2139 -0.6217 -1.5467
 2219SOL     OW18118   3.392   4.387   5.882  0.1975  0.1182  0.1071
 2219SOL    HW118119   3.345   4.466   5.909 -0.0267 -0.5522  1.6921
 2219SOL    HW218120   3.434   4.365   5.965  2.3913  0.5367 -0.8680
 2220SOL     OW18121   2.434   0.452  14.922  0.3391 -0.5909  0.5478
 2220SOL    HW118122   2.406   0.361  14.910  0.7897 -0.6449 -0.0731
 2220SOL    HW218123   2.351   0.485  14.955  0.0171  0.0375 -0.8856
 2221SOL     OW18124   3.748   0.119   3.283 -0.7438  0.0899 -0.5126
 2221SOL    HW118125   3.716   0.067   3.209 -2.4153 -1.4019  1.2421
 2221SOL    HW218126   3.667   0.151   3.323 -1.2830  0.6323 -2.0637
 2222SOL     OW18127   4.177   1.705   8.917 -0.0862  0.6163 -0.0069
 2222SOL    HW118128   4.236   1.733   8.848 -0.8440  0.1226 -0.8539
 2222SOL    HW218129   4.176   1.769   8.988 -1.3173 -0.2666  0.7835
 2223SOL     OW18130   2.329   1.969   4.707  0.2929  0.2249 -0.5186
 2223SOL    HW118131   2.238   1.997   4.698 -0.2322 -1.8062 -1.4961
 2223SOL    HW218132   2.379   2.041   4.668  1.9645 -0.6272  0.0259
 2224SOL     OW18133   1.603   1.680   7.465 -0.1391  0.0315 -0.3416
 2224SOL    HW118134   1.554   1.651   7.388 -2.7186 -0.6068  1.5824
 2224SOL    HW218135   1.539   1.647   7.527 -0.4411  1.3103  0.0130
 2225SOL     OW18136   0.029   0.947   5.500  0.6922 -0.3385  0.3211
 2225SOL    HW118137   0.055   1.036   5.523 -0.2870 -0.0655  0.4014
 2225SOL    HW218138   4.674   0.937   5.563  0.0274  0.3686 -0.3210
 2226SOL     OW18139   0.979   1.474   8.086  0.0983 -0.1054  0.5567
 2226SOL    HW118140   0.918   1.435   8.024  0.3474  2.5558 -1.3824
 2226SOL    HW218141   1.017   1.401   8.135 -0.9405 -1.9064 -1.3536
 2227SOL     OW18142   0.138   1.693  15.843  0.3750 -0.0188 -0.1516
 2227SOL    HW118143   0.220   1.693  15.894  1.3647 -2.0780 -1.7353
 2227SOL    HW218144   0.103   1.781  15.857 -0.3225 -0.3669  0.2766
 2228SOL     OW18145   3.932   2.434   7.536 -0.4113  0.3205 -0.7443
 2228SOL    HW118146   3.848   2.466   7.566 -0.7311 -1.3698  0.1740
 2228SOL    HW218147   3.954   2.480   7.455 -2.1608 -0.8639 -1.8811
 2229SOL     OW18148   1.154   0.991   2.455 -0.5074 -0.0513  0.4390
 2229SOL    HW118149   1.240   0.952   2.471 -0.2001  1.7540  3.1264
 2229SOL    HW218150   1.176   1.068   2.402 -3.5093  2.0643  2.2779
 2230SOL     OW18151   0.396   0.142   2.910  0.1614 -0.8148  0.9034
 2230SOL    HW118152   0.391   0.214   2.847 -0.1323 -1.2120  0.4692
 2230SOL    HW218153   0.438   0.197   2.976 -0.6070  0.2752  0.4851
 2231SOL     OW18154   0.489   1.980   1.326 -0.6888  0.2431  0.0271
 2231SOL    HW118155   0.458   2.062   1.363  1.6800  1.1027  0.1265
 2231SOL    HW218156   0.571   2.006   1.283  0.5602 -1.8128  1.1409
 2232SOL     OW18157   2.621   0.952   6.283 -0.5016  0.1226  0.0725
 2232SOL    HW118158   2.667   0.884   6.235  0.0264 -0.2834  1.1580
 2232SOL    HW218159   2.675   0.951   6.362 -2.3223  2.4179  1.3870
 2233SOL     OW18160   1.096   2.317  14.486 -0.1550  0.7388 -0.1316
 2233SOL    HW118161   1.022   2.270  14.448 -1.3388 -0.0730  3.2359
 2233SOL    HW218162   1.169   2.276  14.440 -1.3427 -1.6274  0.1134
 2234SOL     OW18163   4.219   1.290  14.576  0.3168 -0.1629  0.1546
 2234SOL    HW118164   4.177   1.318  14.494 -0.8841 -1.5373  0.2904
 2234SOL    HW218165   4.190   1.361  14.633 -1.0591  0.0139 -0.7541
 2235SOL     OW18166   0.584   0.839   7.262  0.6557 -0.4039 -0.1962
 2235SOL    HW118167   0.623   0.779   7.325  0.6620  0.1154  0.2843
 2235SOL    HW218168   0.656   0.898   7.241 -0.2274  1.9663  3.6122
 2236SOL     OW18169   2.977   3.931  10.423 -0.1752  0.7079  0.0459
 2236SOL    HW118170   3.064   3.967  10.438  0.7077 -1.7343  0.7727
 2236SOL    HW218171   3.001   3.838  10.420  0.0382  0.8139 -1.4607
 2237SOL     OW18172   1.467   3.031   3.339  0.4056 -0.0176  0.1935
 2237SOL    HW118173   1.412   3.109   3.340 -2.0109 -1.7332  0.7056
 2237SOL    HW218174   1.506   3.038   3.426 -0.8719 -0.1697  0.7793
 2238SOL     OW18175   2.343   3.686   8.996 -0.7765  0.2306 -0.3937
 2238SOL    HW118176   2.283   3.671   9.069 -0.1482  2.9588  0.6925
 2238SOL    HW218177   2.315   3.775   8.974  2.1534  1.9871  3.1230
 2239SOL     OW18178   1.062   0.675   2.685  0.0294 -0.7921 -0.2831
 2239SOL    HW118179   1.040   0.752   2.737  1.3385  0.3456 -1.3877
 2239SOL    HW218180   1.045   0.708   2.596 -0.6957 -1.4348 -0.3775
 2240SOL     OW18181   1.628   1.084   3.989  0.4973 -0.5409 -0.0724
 2240SOL    HW118182   1.538   1.116   3.983  0.5633 -0.2984  0.2567
 2240SOL    HW218183   1.669   1.133   4.060 -0.9859  1.3549 -0.5377
 2241SOL     OW18184   3.395   2.297  14.115 -0.2333  0.2459  0.2644
 2241SOL    HW118185   3.443   2.225  14.076  2.4069  2.3752 -0.4542
 2241SOL    HW218186   3.465   2.356  14.145  0.1838  1.7041 -3.5932
 2242SOL     OW18187   0.646   4.248   3.244  0.0455 -0.0635  0.0132
 2242SOL    HW118188   0.646   4.203   3.159 -1.6646  0.4806 -0.2648
 2242SOL    HW218189   0.577   4.312   3.229  2.5748  3.0508  1.6100
 2243SOL     OW18190   3.714   3.316   4.129 -0.3006  0.2052  0.1505
 2243SOL    HW118191   3.654   3.365   4.072 -3.2226 -0.2664  2.8047
 2243SOL    HW218192   3.654   3.309   4.203 -0.1800 -1.6410  0.0708
 2244SOL     OW18193   0.415   3.372   1.511 -0.2761  0.4733  0.3287
 2244SOL    HW118194   0.410   3.377   1.416  0.9757  0.0334  0.2436
 2244SOL    HW218195   0.506   3.346   1.528  0.4540  4.2281  2.0280
 2245SOL     OW18196   1.641   2.542  11.777  0.4704 -0.1730 -0.0205
 2245SOL    HW118197   1.570   2.589  11.734 -1.5414 -0.0931  3.3821
 2245SOL    HW218198   1.721   2.591  11.757 -0.5350  1.3384 -0.2609
 2246SOL     OW18199   2.457   4.419   3.063  0.3519 -0.0129  0.4555
 2246SOL    HW118200   2.479   4.441   2.973  0.1970 -0.4430  0.3097
 2246SOL    HW218201   2.362   4.428   3.060  0.4092 -0.4706 -3.0225
 2247SOL     OW18202   3.958   3.306   1.090 -0.0554 -1.1955  0.3098
 2247SOL    HW118203   3.927   3.395   1.109 -1.7687 -1.5351 -0.9084
 2247SOL    HW218204   3.878   3.253   1.098 -1.3660  0.6306 -0.5543
 2248SOL     OW18205   2.227   2.678   4.977  0.1216 -0.0810 -0.1660
 2248SOL    HW118206   2.237   2.732   5.055  0.5005  0.5633 -0.6544
 2248SOL    HW218207   2.252   2.739   4.907 -0.3337  1.4874  1.0538
 2249SOL     OW18208   1.069   1.141   0.540 -0.7022 -0.2426 -0.5266
 2249SOL    HW118209   1.155   1.184   0.548 -1.7265  1.6517  0.1833
 2249SOL    HW218210   1.026   1.157   0.624  0.1752  1.8578 -0.4696
 2250SOL     OW18211   1.355   2.682  10.478 -0.1419  0.3334 -0.3179
 2250SOL    HW118212   1.360   2.603  10.532  0.9955  1.1175  0.7283
 2250SOL    HW218213   1.291   2.730  10.529 -0.5645  0.0646 -0.5998
 2251SOL     OW18214   0.636   0.253   0.151  0.1791 -0.1422  0.1389
 2251SOL    HW118215   0.614   0.299   0.231  0.3264 -2.2193  1.3717
 2251SOL    HW218216   0.626   0.159   0.167  1.2022 -0.3889 -0.6884
 2252SOL     OW18217   0.278   0.380  11.405 -0.2295 -0.2300 -0.1991
 2252SOL    HW118218   0.252   0.392  11.314  0.7281 -3.0877 -0.8507
 2252SOL    HW218219   0.219   0.312  11.438 -1.5375  0.4706 -1.1235
 2253SOL     OW18220   0.890   4.532  17.087  0.2024 -0.7800  0.0673
 2253SOL    HW118221   0.900   4.512  17.180 -0.8450 -1.0594  0.1276
 2253SOL    HW218222   0.893   4.441  17.058  0.8516 -0.5836 -0.4776
 2254SOL     OW18223   3.621   2.138   7.836 -0.1601 -0.3611  0.3692
 2254SOL    HW118224   3.557   2.208   7.829  0.0908 -0.0600  1.0350
 2254SOL    HW218225   3.664   2.151   7.921 -1.3693 -0.7984  1.0494
 2255SOL     OW18226   2.630   3.947   3.066  0.2045 -0.1035  0.0500
 2255SOL    HW118227   2.651   3.868   3.117  0.0958  0.8119  1.5028
 2255SOL    HW218228   2.646   4.012   3.134 -1.6118  1.2656 -0.8320
 2256SOL     OW18229   0.915   1.164   5.150 -0.0461  0.6284 -0.3396
 2256SOL    HW118230   0.888   1.243   5.197 -1.7072 -0.9309  1.3459
 2256SOL    HW218231   0.987   1.199   5.098  0.1103 -0.6155 -0.9680
 2257SOL     OW18232   2.381   0.640   6.583  0.3332  0.0933  0.5008
 2257SOL    HW118233   2.403   0.593   6.664  1.6924  1.4777  0.9169
 2257SOL    HW218234   2.413   0.727   6.606  1.0349  0.0156 -0.1695
 2258SOL     OW18235   0.204   1.556   6.969  0.2909  0.2080  0.0336
 2258SOL    HW118236   0.184   1.525   6.881 -1.2997 -1.6902  1.0709
 2258SOL    HW218237   0.125   1.540   7.021  0.6418  0.3815  0.6253
 2259SOL     OW18238   3.727   4.193  10.391 -0.0785 -0.2722 -0.3202
 2259SOL    HW118239   3.798   4.207  10.454  0.9104 -1.7724 -1.0948
 2259SOL    HW218240   3.719   4.287  10.377 -0.8423 -0.2519  0.2810
 2260SOL     OW18241   3.086   4.447   5.159 -0.2240 -0.0984  0.7157
 2260SOL    HW118242   3.003   4.426   5.203 -0.5921  1.8663  0.9460
 2260SOL    HW218243   3.134   4.447   5.242 -0.2826  0.8305  0.7463
 2261SOL     OW18244   4.574   1.652   9.583 -0.0005  0.0448  0.0785
 2261SOL    HW118245   4.662   1.639   9.619 -0.4058  0.0186  1.0654
 2261SOL    HW218246   4.544   1.561   9.579  0.2583 -0.0438  0.1455
 2262SOL     OW18247   1.910   3.169   9.722 -0.4688  0.3019  0.4222
 2262SOL    HW118248   1.924   3.257   9.757 -2.2316  1.5526 -2.0221
 2262SOL    HW218249   1.969   3.179   9.648 -1.3602  0.1396 -0.3178
 2263SOL     OW18250   1.529   3.054  13.327  0.2995 -0.1645  0.6884
 2263SOL    HW118251   1.465   3.097  13.269  0.4389  0.3935  0.9535
 2263SOL    HW218252   1.560   3.130  13.376  0.1007 -0.4977  1.3242
 2264SOL     OW18253   4.305   3.786   8.186  0.3319  0.1363  0.5293
 2264SOL    HW118254   4.254   3.708   8.210 -0.6873  0.7120  0.2374
 2264SOL    HW218255   4.331   3.825   8.269 -0.0787 -3.4108  2.3687
 2265SOL     OW18256   2.232   0.033   5.930  0.1908 -0.3381  0.2605
 2265SOL    HW118257   2.243   0.036   6.025  1.2495  1.1074  0.0901
 2265SOL    HW218258   2.281   4.671   5.905 -1.1002 -1.6158  1.7816
 2266SOL     OW18259   3.674   2.905   9.741 -0.0385 -0.5488  0.1037
 2266SOL    HW118260   3.597   2.848   9.747  0.5044 -1.3116 -0.1745
 2266SOL    HW218261   3.636   2.986   9.705  1.2215  1.0259  2.3112
 2267SOL     OW18262   0.648   2.007   9.833 -0.3351  0.3116  0.1282
 2267SOL    HW118263   0.723   1.998   9.891  0.5255 -1.1372 -1.2274
 2267SOL    HW218264   0.650   1.922   9.790  0.5738 -1.2788  3.3210
 2268SOL     OW18265   1.440   3.435   5.689  0.5399 -0.3363  0.0282
 2268SOL    HW118266   1.442   3.453   5.783  0.9365 -1.5478  0.2411
 2268SOL    HW218267   1.413   3.520   5.653  2.1734 -0.3364 -1.2191
 2269SOL     OW18268   2.649   2.036   4.896  0.4997 -0.1633  0.5516
 2269SOL    HW118269   2.728   2.032   4.950  1.7156 -0.6060 -1.2500
 2269SOL    HW218270   2.685   2.064   4.812 -1.7178 -2.9721 -1.3666
 2270SOL     OW18271   3.682   1.541  16.435 -0.4725  0.0224 -0.4094
 2270SOL    HW118272   3.747   1.472  16.424 -0.5972 -0.4576  1.9769
 2270SOL    HW218273   3.612   1.506  16.380 -0.0729 -0.9714 -0.2826
 2271SOL     OW18274   4.254   0.142   2.817  0.0949 -0.1439  0.9358
 2271SOL    HW118275   4.197   0.174   2.886  1.8054  2.8329  0.9759
 2271SOL    HW218276   4.198   0.143   2.740  0.8755 -0.6278  0.3626
 2272SOL     OW18277   1.532   1.803  16.762  0.1997  0.3739  0.0176
 2272SOL    HW118278   1.593   1.801  16.688 -0.6352  1.0724 -0.6881
 2272SOL    HW218279   1.582   1.811  16.843  2.0837  3.1336 -1.3876
 2273SOL     OW18280   2.990   0.776  10.486 -0.5813 -0.2289  0.4956
 2273SOL    HW118281   2.969   0.869  10.490  0.8258  0.0872  0.4901
 2273SOL    HW218282   2.920   0.749  10.426  0.2327 -0.0410 -0.5400
 2274SOL     OW18283   1.910   2.014   1.993 -0.0575 -0.3014  0.4634
 2274SOL    HW118284   1.862   2.036   2.073 -0.4287 -0.1112  0.1887
 2274SOL    HW218285   1.855   1.944   1.958 -1.1455  1.4584 -1.3493
 2275SOL     OW18286   3.657   0.886   6.465  0.3012 -0.7938  0.0797
 2275SOL    HW118287   3.578   0.911   6.514 -0.6367 -0.7883 -1.4238
 2275SOL    HW218288   3.629   0.810   6.414 -0.0137  0.3301 -1.4300
 2276SOL     OW18289   3.597   2.994   3.121 -0.1664  0.2487  0.2452
 2276SOL    HW118290   3.606   3.030   3.032  2.3021 -1.5653 -0.2493
 2276SOL    HW218291   3.578   3.079   3.162  2.7104  1.0421 -0.0081
 2277SOL     OW18292   1.349   2.096   6.129 -0.5291  0.1207 -0.7683
 2277SOL    HW118293   1.289   2.044   6.076 -0.1583  0.2556 -1.3095
 2277SOL    HW218294   1.420   2.087   6.066  1.7721  0.3044  1.7808
 2278SOL     OW18295   2.868   2.809   8.614 -0.0489 -0.2780 -0.2953
 2278SOL    HW118296   2.914   2.730   8.585 -1.6608 -0.7133 -1.6723
 2278SOL    HW218297   2.793   2.779   8.666  0.4221  2.1350  1.7825
 2279SOL     OW18298   0.030   4.512   2.611  0.6359 -0.0594 -0.0619
 2279SOL    HW118299   0.107   4.564   2.634 -0.1789  1.1914 -0.2061
 2279SOL    HW218300   4.706   4.490   2.695  0.4059  0.0354 -0.1478
 2280SOL     OW18301   4.690   4.466   2.151 -0.4562  0.4644  0.0935
 2280SOL    HW118302   4.716   4.441   2.240  0.6827 -0.4297 -0.4746
 2280SOL    HW218303   4.711   4.388   2.099 -2.7136  0.2739 -0.5155
 2281SOL     OW18304   1.106   1.777   4.218  0.6578  0.0753  0.5589
 2281SOL    HW118305   1.075   1.821   4.139  1.8610 -0.2751 -0.0932
 2281SOL    HW218306   1.158   1.850   4.253  1.2412  0.3170 -0.8232
 2282SOL     OW18307   4.500   0.481  11.914  0.1175  0.1746  0.0475
 2282SOL    HW118308   4.514   0.540  11.988 -2.3356  0.5944  0.1780
 2282SOL    HW218309   4.581   0.430  11.918 -0.9970 -1.7833 -2.2339
 2283SOL     OW18310   0.208   0.162  14.115  0.3332 -0.0345 -0.1675
 2283SOL    HW118311   0.205   0.082  14.062  1.2589 -0.4402  0.3963
 2283SOL    HW218312   0.289   0.201  14.083 -0.4782 -0.3668 -2.6147
 2284SOL     OW18313   4.374   2.024   2.184 -0.5494 -0.5847  0.2348
 2284SOL    HW118314   4.418   1.960   2.241  0.9204  0.6801  0.5132
 2284SOL    HW218315   4.424   2.104   2.201 -0.9340 -0.0791 -1.0831
 2285SOL     OW18316   1.461   2.071   8.929 -0.3597  0.6170  0.1950
 2285SOL    HW118317   1.402   2.145   8.941  0.4741  1.4935 -1.0119
 2285SOL    HW218318   1.397   2.003   8.910 -0.8733  1.5347 -1.4439
 2286SOL     OW18319   4.243   0.148   1.760  0.0793 -0.4042  0.3552
 2286SOL    HW118320   4.227   0.183   1.848 -0.1840 -0.3428  0.2849
 2286SOL    HW218321   4.194   0.212   1.708 -3.5223  0.4342  4.7608
 2287SOL     OW18322   1.987   4.335   2.732  0.4671 -0.0490  0.9462
 2287SOL    HW118323   1.984   4.368   2.821 -0.8129 -2.4899  1.7934
 2287SOL    HW218324   2.039   4.398   2.681  1.0851 -0.0354  1.5950
 2288SOL     OW18325   4.048   4.336   7.831 -0.4108 -0.1864 -0.0822
 2288SOL    HW118326   4.089   4.336   7.918  2.2409  1.1388 -1.3376
 2288SOL    HW218327   4.081   4.255   7.792 -0.8380  0.6177 -2.1258
 2289SOL     OW18328   2.110   2.920   4.480  0.1759  0.1677 -0.3468
 2289SOL    HW118329   2.063   2.837   4.466  1.6017 -0.3300 -2.2299
 2289SOL    HW218330   2.056   2.986   4.437  1.6140  0.2911 -1.9831
 2290SOL     OW18331   4.394   0.336  10.227 -0.3333  0.0455 -0.9964
 2290SOL    HW118332   4.464   0.336  10.293  0.1696  1.2609 -1.5293
 2290SOL    HW218333   4.447   0.308  10.153 -0.5802 -0.6630 -0.9048
 2291SOL     OW18334   0.034   3.457   4.102 -0.2769 -0.3778  0.6088
 2291SOL    HW118335   0.026   3.387   4.166 -1.4111 -0.2032  0.6571
 2291SOL    HW218336   0.092   3.413   4.040 -0.0956  0.9983 -0.2177
 2292SOL     OW18337   0.195   2.852   7.102 -0.0423  0.1875 -0.1883
 2292SOL    HW118338   0.115   2.799   7.107  0.3105 -0.2856  0.4865
 2292SOL    HW218339   0.226   2.808   7.023 -0.3451 -1.2804  0.4959
 2293SOL     OW18340   2.777   0.282   9.179 -0.1359 -0.4850 -0.2851
 2293SOL    HW118341   2.861   0.323   9.200 -0.0371  0.1849 -1.9426
 2293SOL    HW218342   2.721   0.342   9.230  1.8243  1.0354  0.0816
 2294SOL     OW18343   1.745   2.468   3.790  0.5226  0.2517 -0.5203
 2294SOL    HW118344   1.691   2.538   3.826  0.1660 -1.4865  2.3283
 2294SOL    HW218345   1.779   2.420   3.866 -1.9084 -1.2005 -0.3707
 2295SOL     OW18346   1.653   3.038   6.546 -0.4210 -0.0683  0.3587
 2295SOL    HW118347   1.686   3.011   6.631 -0.1447  0.6502  0.4835
 2295SOL    HW218348   1.679   2.970   6.484 -0.9368 -0.8858  1.0561
 2296SOL     OW18349   3.320   3.130   3.954  0.1384 -0.2743 -0.3753
 2296SOL    HW118350   3.242   3.076   3.971 -0.1956 -0.0828 -1.3163
 2296SOL    HW218351   3.360   3.117   4.040  1.1181  1.3107 -0.6009
 2297SOL     OW18352   1.139   2.717  10.644 -0.6155 -0.1417  0.0971
 2297SOL    HW118353   1.174   2.692  10.730  2.6131  1.0531 -0.8740
 2297SOL    HW218354   1.107   2.804  10.667  3.2407  1.4525 -0.6777
 2298SOL     OW18355   2.263   3.118   2.946 -0.3458 -0.2370  0.0551
 2298SOL    HW118356   2.273   3.025   2.970  0.0357 -0.6969 -1.9449
 2298SOL    HW218357   2.358   3.131   2.946 -0.7561  2.6149 -2.8313
 2299SOL     OW18358   2.786   2.024   0.933 -0.3275 -0.2497 -0.2758
 2299SOL    HW118359   2.806   1.972   1.011  0.9910  0.2159 -0.3041
 2299SOL    HW218360   2.759   2.111   0.962  0.5507  0.2150 -0.8587
 2300SOL     OW18361   0.800   3.494   9.826 -0.7323 -0.2803  0.0967
 2300SOL    HW118362   0.737   3.494   9.898 -1.8039 -1.0606 -0.8439
 2300SOL    HW218363   0.862   3.563   9.847 -0.5252 -0.7080  0.8781
 2301SOL     OW18364   0.925   4.302   6.392  0.3618  0.1904 -0.1754
 2301SOL    HW118365   0.954   4.217   6.359  2.2490  0.8885 -0.3365
 2301SOL    HW218366   0.889   4.336   6.311  0.6274  1.6790  0.3347
 2302SOL     OW18367   3.518   2.741   4.721  0.3541 -0.3140  0.0812
 2302SOL    HW118368   3.568   2.819   4.700  1.2965 -0.3147  2.3292
 2302SOL    HW218369   3.472   2.767   4.801 -0.1736  0.1536 -0.3749
 2303SOL     OW18370   0.817   2.427  15.895 -0.1984 -0.3664 -0.3026
 2303SOL    HW118371   0.911   2.420  15.878  0.4694  1.6858  2.4936
 2303SOL    HW218372   0.797   2.486  15.823  0.3904  1.4557  1.0006
 2304SOL     OW18373   4.635   3.575   6.363  0.5767 -0.2122  0.6046
 2304SOL    HW118374   4.608   3.490   6.328 -0.6748  0.7409 -0.7784
 2304SOL    HW218375   4.668   3.622   6.286  0.1709 -0.7745  0.0840
 2305SOL     OW18376   2.264   2.813   3.778  0.0775 -0.4517  0.2070
 2305SOL    HW118377   2.193   2.755   3.751  0.9957 -1.0273 -0.9735
 2305SOL    HW218378   2.219   2.859   3.849 -1.0738 -1.2431 -0.0092
 2306SOL     OW18379   3.785   2.064  10.949  0.7018 -0.4871 -0.0402
 2306SOL    HW118380   3.847   2.004  10.991  0.1112 -0.5524  0.7315
 2306SOL    HW218381   3.802   2.052  10.856 -3.4684 -1.9651 -0.6267
 2307SOL     OW18382   0.085   4.550   4.690 -0.4150  0.5604 -0.1832
 2307SOL    HW118383   0.060   4.490   4.619  1.7169 -0.0380 -0.4370
 2307SOL    HW218384   0.156   4.597   4.646  0.6511 -0.4519  0.4448
 2308SOL     OW18385   1.776   2.774   0.280 -0.0741 -0.0883 -0.4744
 2308SOL    HW118386   1.834   2.775   0.204  1.3144  0.0701  0.5889
 2308SOL    HW218387   1.828   2.814   0.351  0.0245 -0.7241 -0.1832
 2309SOL     OW18388   0.318   3.817   2.482 -0.1673  0.2075  0.2362
 2309SOL    HW118389   0.286   3.884   2.422  2.1867  1.7356  0.6957
 2309SOL    HW218390   0.395   3.787   2.434 -1.2918 -1.6823 -0.3897
 2310SOL     OW18391   2.164   0.388   5.433  0.3889  0.2359  0.1950
 2310SOL    HW118392   2.072   0.359   5.432  0.3311  0.4355 -0.1687
 2310SOL    HW218393   2.175   0.408   5.526 -0.9071  0.7573  0.2423
 2311SOL     OW18394   0.586   0.219   5.827 -0.1586 -0.1321 -0.2099
 2311SOL    HW118395   0.616   0.290   5.884 -2.1759  2.0835 -1.9474
 2311SOL    HW218396   0.592   0.266   5.744 -1.4324  2.8141  1.3663
 2312SOL     OW18397   0.650   1.381  16.110 -0.3454 -0.3379  0.2597
 2312SOL    HW118398   0.621   1.405  16.198  0.5793 -0.7615  0.6807
 2312SOL    HW218399   0.580   1.426  16.061  0.3593  1.4454  0.8975
 2313SOL     OW18400   2.786   3.819   3.589  0.0342  0.3541 -0.9268
 2313SOL    HW118401   2.761   3.728   3.577 -0.3614  0.3751 -0.2472
 2313SOL    HW218402   2.862   3.803   3.645 -0.0912 -1.3639 -1.2721
 2314SOL     OW18403   3.437   1.360   1.877 -0.2368  0.2836  0.1682
 2314SOL    HW118404   3.354   1.314   1.863 -0.7291  0.9784  0.7985
 2314SOL    HW218405   3.476   1.278   1.909 -1.3415 -0.4053 -0.2389
 2315SOL     OW18406   1.105   1.995   3.668  0.4676 -0.4730 -0.3006
 2315SOL    HW118407   1.060   1.916   3.697  0.4817 -1.0715 -1.9139
 2315SOL    HW218408   1.189   1.953   3.684  0.7649  0.5066  0.7513
 2316SOL     OW18409   1.397   4.655  17.062 -0.0761  0.0524 -0.1419
 2316SOL    HW118410   1.361   4.689  17.144 -1.1156 -2.4549  0.4444
 2316SOL    HW218411   1.466   4.604  17.106 -0.6721 -0.2999  0.3861
 2317SOL     OW18412   3.149   2.382  15.150 -0.4482  0.2903 -0.2187
 2317SOL    HW118413   3.113   2.468  15.126 -3.2907 -1.0565 -0.8108
 2317SOL    HW218414   3.167   2.404  15.241 -2.1298 -3.1504  0.9688
 2318SOL     OW18415   0.070   3.660   7.460  0.1723  0.5081  0.1625
 2318SOL    HW118416   0.160   3.655   7.491  1.0533 -0.9162 -2.6581
 2318SOL    HW218417   0.061   3.580   7.408 -2.3815  0.9444 -0.0778
 2319SOL     OW18418   2.542   0.531   4.194  0.0571 -0.8185  0.3034
 2319SOL    HW118419   2.477   0.477   4.150 -0.2943 -0.5887  0.5450
 2319SOL    HW218420   2.586   0.470   4.253  0.5222 -2.0461 -1.3312
 2320SOL     OW18421   0.698   0.769  12.320 -0.1582 -0.5644 -0.0215
 2320SOL    HW118422   0.789   0.739  12.321  0.0131  0.0338  2.2916
 2320SOL    HW218423   0.687   0.750  12.227  1.0000 -1.5898  0.0531
 2321SOL     OW18424   0.245   3.644   1.915 -0.0135 -0.0157  0.1774
 2321SOL    HW118425   0.312   3.591   1.873 -1.0519 -1.3895  0.2319
 2321SOL    HW218426   0.305   3.678   1.981  1.9967 -0.6324 -1.3255
 2322SOL     OW18427   1.622   4.601   4.192  0.2205 -0.4796 -0.9918
 2322SOL    HW118428   1.614   4.508   4.174  2.4378 -1.0374  0.8806
 2322SOL    HW218429   1.614   4.637   4.103  1.4724 -0.3087 -1.0403
 2323SOL     OW18430   4.676   0.591   5.561  0.3073  0.1305 -0.8161
 2323SOL    HW118431   0.044   0.607   5.519  1.0510 -0.6842  0.3566
 2323SOL    HW218432   4.630   0.542   5.492 -1.6699 -0.2255  0.7492
 2324SOL     OW18433   1.578   2.677  16.037  0.4813  0.3700  0.1245
 2324SOL    HW118434   1.637   2.604  16.056  1.0918  0.7757 -0.2099
 2324SOL    HW218435   1.599   2.695  15.946 -0.6217  0.7413 -0.0665
 2325SOL     OW18436   0.996   2.521   4.742  0.2571 -0.2878 -0.5256
 2325SOL    HW118437   0.901   2.524   4.734  0.4699  0.2205 -2.8399
 2325SOL    HW218438   1.014   2.436   4.701  0.9034 -0.2190 -0.3956
 2326SOL     OW18439   1.585   4.445   2.685  0.1540  0.1171 -0.6856
 2326SOL    HW118440   1.579   4.406   2.598 -1.7272 -0.4219 -0.2941
 2326SOL    HW218441   1.652   4.511   2.664 -1.0851  1.5051 -0.2616
 2327SOL     OW18442   1.080   1.316   9.977  0.0611  0.1508 -0.4446
 2327SOL    HW118443   1.035   1.272   9.905 -0.3132 -0.6270  0.2622
 2327SOL    HW218444   1.003   1.350  10.023 -0.7886 -0.3070 -1.5481
 2328SOL     OW18445   0.833   4.366   6.145 -0.1390  0.2719 -0.4813
 2328SOL    HW118446   0.771   4.325   6.085  1.5851 -0.1464 -1.9497
 2328SOL    HW218447   0.808   4.458   6.132 -1.2396 -0.2403 -2.0270
 2329SOL     OW18448   2.505   0.630  10.103 -0.2232  0.6422  0.1932
 2329SOL    HW118449   2.568   0.559  10.092  0.9932  1.8105 -0.4711
 2329SOL    HW218450   2.501   0.668  10.016 -2.7473 -0.3689 -0.1114
 2330SOL     OW18451   0.083   3.693   4.941 -0.3445  0.3982 -0.5447
 2330SOL    HW118452   0.133   3.753   4.885  1.1915 -0.7216 -0.3958
 2330SOL    HW218453   0.004   3.689   4.887  0.3659  0.9036 -1.6313
 2331SOL     OW18454   2.692   3.262  11.387 -0.3552  0.4391  0.3146
 2331SOL    HW118455   2.653   3.222  11.310  0.3712  0.0684  0.1393
 2331SOL    HW218456   2.784   3.234  11.380 -0.9636 -1.4709 -0.0246
 2332SOL     OW18457   4.590   0.227   8.533 -0.5089  0.5289 -0.2552
 2332SOL    HW118458   4.681   0.224   8.504 -1.1214  0.8430 -2.1806
 2332SOL    HW218459   4.592   0.311   8.579  1.0030 -0.1653  0.9660
 2333SOL     OW18460   1.473   1.279   7.002 -0.7327 -0.4068 -0.1475
 2333SOL    HW118461   1.568   1.266   6.994 -0.6042  0.9421 -0.6941
 2333SOL    HW218462   1.442   1.191   6.979  2.7634 -1.6780 -0.0926
 2334SOL     OW18463   1.719   0.857  16.991  0.5847  0.3720  0.1499
 2334SOL    HW118464   1.694   0.823  17.077  0.6230 -1.3793 -0.5224
 2334SOL    HW218465   1.661   0.808  16.933  0.9521 -0.5695  0.5835
 2335SOL     OW18466   2.653   2.101  15.351  0.0583  0.1658  0.1117
 2335SOL    HW118467   2.625   2.030  15.293  1.8545  0.7771 -1.4984
 2335SOL    HW218468   2.593   2.072  15.419 -1.8098  2.6553 -0.5148
 2336SOL     OW18469   3.496   2.617   2.351 -0.5027  0.6184 -0.5897
 2336SOL    HW118470   3.420   2.583   2.398  0.6134  0.2980  1.0097
 2336SOL    HW218471   3.561   2.551   2.377 -0.0553  1.6666  0.9871
 2337SOL     OW18472   4.496   0.396  12.814  0.3016  0.2407  0.3585
 2337SOL    HW118473   4.496   0.487  12.784 -0.6396  0.1834  0.1869
 2337SOL    HW218474   4.424   0.367  12.759  0.3434  0.4362  0.2019
 2338SOL     OW18475   4.229   0.334  17.159  0.6805 -0.5580 -0.0118
 2338SOL    HW118476   4.325   0.338  17.161  0.6009  0.5304  1.2627
 2338SOL    HW218477   4.214   0.280  17.237  1.9364  0.5738  1.0198
 2339SOL     OW18478   1.665   2.720   9.168  0.7963  0.2657 -0.3940
 2339SOL    HW118479   1.732   2.787   9.151  2.1750 -0.4510  2.2862
 2339SOL    HW218480   1.710   2.638   9.188  0.6894  0.7850  1.9021
 2340SOL     OW18481   3.681   1.417   1.381 -0.4872  0.4928 -0.2579
 2340SOL    HW118482   3.694   1.337   1.329 -0.1908  0.1981  0.2687
 2340SOL    HW218483   3.599   1.396   1.425 -0.9617  3.8182  0.4563
 2341SOL     OW18484   3.981   4.211   2.735  0.1887 -0.1969  0.0318
 2341SOL    HW118485   4.062   4.163   2.755  1.6280  1.6378 -1.3903
 2341SOL    HW218486   4.013   4.290   2.693  1.4505 -0.2023  0.9806
 2342SOL     OW18487   3.640   1.012   5.105  0.2645 -0.0220 -0.6599
 2342SOL    HW118488   3.602   1.092   5.141 -0.6213  0.0198 -1.6589
 2342SOL    HW218489   3.714   1.001   5.164 -0.1619 -0.8924 -0.2904
 2343SOL     OW18490   3.033   0.041   4.412 -1.0466 -0.2781  0.4514
 2343SOL    HW118491   2.939   0.036   4.429 -0.7007 -0.7845  2.2394
 2343SOL    HW218492   3.056   0.001   4.328 -0.8076 -2.3786  1.5150
 2344SOL     OW18493   1.082   0.937   7.645  0.5707 -0.0673 -1.0334
 2344SOL    HW118494   0.997   0.929   7.688 -0.0219 -1.3909 -2.4779
 2344SOL    HW218495   1.046   0.959   7.560  1.9603  1.6046 -1.1900
 2345SOL     OW18496   2.340   3.531   5.482 -0.0487  0.7144  0.1421
 2345SOL    HW118497   2.424   3.574   5.498  1.1436 -0.3826 -3.1919
 2345SOL    HW218498   2.379   3.443   5.485  0.4540  0.9700  1.2503
 2346SOL     OW18499   1.915   0.685   4.853  0.0814  0.3057  0.3047
 2346SOL    HW118500   1.981   0.690   4.922  0.1369 -0.7737  0.3368
 2346SOL    HW218501   1.920   0.590   4.839 -2.2079  0.1586  0.4395
 2347SOL     OW18502   3.966   0.335   7.009 -0.0416 -0.0215  0.1083
 2347SOL    HW118503   3.979   0.395   6.935  0.4748 -1.8717 -1.3057
 2347SOL    HW218504   3.892   0.284   6.976 -0.5095  0.6313  0.1616
 2348SOL     OW18505   3.891   2.364   9.819 -0.2303  0.1886 -0.1401
 2348SOL    HW118506   3.972   2.333   9.779 -1.2018  0.2555 -2.1516
 2348SOL    HW218507   3.883   2.448   9.774 -2.1763 -0.4124 -0.9120
 2349SOL     OW18508   1.549   0.418   1.445  0.2908 -0.0147 -0.3071
 2349SOL    HW118509   1.606   0.491   1.470 -0.1084  0.2943 -0.2925
 2349SOL    HW218510   1.607   0.357   1.491  0.1903  0.9854  1.1554
 2350SOL     OW18511   0.523   0.543   0.051 -0.4156 -0.0756 -0.6505
 2350SOL    HW118512   0.557   0.505   0.132 -0.6527 -0.0932 -0.5598
 2350SOL    HW218513   0.589   0.593   0.003  1.3555 -1.9516 -0.1467
 2351SOL     OW18514   3.900   2.920   0.517 -0.3581 -0.1896 -0.5423
 2351SOL    HW118515   3.889   3.004   0.562  2.3655  0.2571 -0.7317
 2351SOL    HW218516   3.915   2.869   0.597  1.5956 -1.2994 -1.6340
 2352SOL     OW18517   0.837   0.102   1.780  0.3114  0.4284  0.1093
 2352SOL    HW118518   0.836   0.008   1.793  0.2022  0.1836 -1.5954
 2352SOL    HW218519   0.881   0.144   1.854 -1.6161  0.6070  1.1525
 2353SOL     OW18520   2.659   4.271   4.626 -0.6279  0.0317  0.7480
 2353SOL    HW118521   2.699   4.341   4.678 -0.0437 -0.4638  0.9695
 2353SOL    HW218522   2.572   4.260   4.665 -0.6155 -0.0616  0.7489
 2354SOL     OW18523   4.035   1.825   2.109 -0.1551  0.0791 -0.3416
 2354SOL    HW118524   4.090   1.866   2.042 -1.5836 -0.1208 -1.6312
 2354SOL    HW218525   3.949   1.810   2.070 -0.1688  1.0656 -0.6894
 2355SOL     OW18526   0.894   1.118   9.842 -0.4945  0.5282  0.2059
 2355SOL    HW118527   0.912   1.038   9.793 -1.1141  0.8698 -0.5817
 2355SOL    HW218528   0.867   1.096   9.930  0.7393  0.9326  0.6924
 2356SOL     OW18529   1.800   3.676   2.221  0.2205 -0.6615  0.1565
 2356SOL    HW118530   1.882   3.660   2.173 -0.1143 -2.4489  0.2020
 2356SOL    HW218531   1.729   3.688   2.158 -2.0833 -2.2902  2.4701
 2357SOL     OW18532   1.845   3.405   0.689  0.6679  0.7825 -0.0798
 2357SOL    HW118533   1.774   3.469   0.698  0.1391  0.0764  0.7335
 2357SOL    HW218534   1.904   3.445   0.624  2.3053 -0.2989  0.7547
 2358SOL     OW18535   1.683   3.971   8.211  0.3293  0.3535 -0.1813
 2358SOL    HW118536   1.681   3.984   8.116 -0.1827  1.5582 -0.0106
 2358SOL    HW218537   1.695   3.876   8.216 -1.2542  0.1438 -0.4140
 2359SOL     OW18538   2.101   3.214  12.629 -0.0257  0.2546  0.3425
 2359SOL    HW118539   2.169   3.151  12.653 -1.2144 -1.1952 -0.1096
 2359SOL    HW218540   2.146   3.246  12.551  0.1083 -0.8475 -0.0308
 2360SOL     OW18541   2.074   2.913   0.697  0.3726  0.1386  0.2382
 2360SOL    HW118542   1.999   2.929   0.641  0.8417  0.4547 -0.3013
 2360SOL    HW218543   2.045   2.867   0.776  0.6973  0.3315  0.4729
 2361SOL     OW18544   0.817   3.110   2.136 -0.3582  0.2901 -0.3203
 2361SOL    HW118545   0.794   3.056   2.212 -0.3049 -0.8117 -1.0861
 2361SOL    HW218546   0.748   3.078   2.077  1.8147 -0.2272 -2.5642
 2362SOL     OW18547   4.183   4.701   8.406 -0.4114  0.1568 -0.0871
 2362SOL    HW118548   4.126   4.663   8.339 -0.3922 -1.5793  0.8725
 2362SOL    HW218549   4.259   0.007   8.352 -1.7430  0.7616 -1.6868
 2363SOL     OW18550   2.697   4.455   7.983 -0.1503  0.2703 -0.2885
 2363SOL    HW118551   2.690   4.367   8.019 -0.8176  0.3461 -0.2327
 2363SOL    HW218552   2.779   4.492   8.014 -0.5066  0.0499  0.9163
 2364SOL     OW18553   2.653   1.608   5.784  0.1424 -0.1171  0.5288
 2364SOL    HW118554   2.593   1.662   5.835 -0.6536 -0.8770  0.4002
 2364SOL    HW218555   2.727   1.665   5.770  0.8673 -2.4100 -4.8210
 2365SOL     OW18556   0.098   2.344   7.551 -0.6229  0.0143 -0.4330
 2365SOL    HW118557   0.114   2.250   7.566  1.5086  0.4574  0.0247
 2365SOL    HW218558   0.111   2.389   7.634  0.5822  0.3095 -0.7837
 2366SOL     OW18559   4.151   0.201   9.140 -0.0354 -0.2908  0.4632
 2366SOL    HW118560   4.231   0.234   9.100  0.0367 -2.6236 -1.2751
 2366SOL    HW218561   4.119   0.133   9.081  0.5495 -1.1482  1.1295
 2367SOL     OW18562   1.896   1.236   7.630 -0.4740 -0.2269  0.9227
 2367SOL    HW118563   1.802   1.216   7.626 -0.0632 -1.6646 -1.2095
 2367SOL    HW218564   1.882   1.331   7.634  1.8568  0.2300 -2.3743
 2368SOL     OW18565   3.153   3.489   1.171 -0.5864 -0.3863  0.0460
 2368SOL    HW118566   3.156   3.471   1.265  1.4242  0.1930  0.1149
 2368SOL    HW218567   3.116   3.403   1.152 -0.1035 -0.1868 -1.8035
 2369SOL     OW18568   0.481   3.068   8.493  0.2556 -0.3295 -0.4542
 2369SOL    HW118569   0.539   3.029   8.427 -0.2047  1.0040 -1.6600
 2369SOL    HW218570   0.403   3.018   8.470  0.4293 -0.6809 -0.2779
 2370SOL     OW18571   3.055   4.351   5.919 -0.5954 -0.1292 -0.4269
 2370SOL    HW118572   3.113   4.292   5.871  1.3698  1.7152 -0.3200
 2370SOL    HW218573   3.006   4.377   5.842  0.3354  2.0133 -0.2957
 2371SOL     OW18574   3.962   2.833  14.052 -0.6056  0.0412  0.5306
 2371SOL    HW118575   4.005   2.892  14.115 -0.5267  0.2986  0.2346
 2371SOL    HW218576   3.872   2.843  14.083 -0.7719  2.4769 -0.7289
 2372SOL     OW18577   1.802   4.232   4.388 -0.0540 -0.4529 -0.0057
 2372SOL    HW118578   1.872   4.189   4.438 -0.1754  1.2627  1.5958
 2372SOL    HW218579   1.784   4.161   4.325 -1.6513  0.7850 -0.9493
 2373SOL     OW18580   2.061   0.362  15.883 -0.2800  0.1537  0.0669
 2373SOL    HW118581   2.104   0.447  15.869  0.8528 -0.3966  0.2093
 2373SOL    HW218582   2.006   0.392  15.955 -1.8092  0.5360 -1.2600
 2374SOL     OW18583   3.653   4.244  11.106  0.0034  0.0943  0.4800
 2374SOL    HW118584   3.584   4.219  11.168  0.3098 -1.1667  0.3079
 2374SOL    HW218585   3.726   4.268  11.163  0.5144 -0.7283  0.1845
 2375SOL     OW18586   4.569   2.711   4.793  0.2384 -0.3057  0.1457
 2375SOL    HW118587   4.545   2.762   4.716  0.5839  0.2943  0.4387
 2375SOL    HW218588   4.481   2.675   4.800  0.3496 -0.2521  1.8582
 2376SOL     OW18589   2.049   1.756   5.248  0.0608 -0.2761  0.8080
 2376SOL    HW118590   2.136   1.744   5.286  0.5626 -1.3010 -0.6606
 2376SOL    HW218591   2.061   1.840   5.205 -0.6845 -0.3056  0.5332
 2377SOL     OW18592   3.949   2.327   1.837  0.1822 -0.3020  0.2211
 2377SOL    HW118593   3.918   2.303   1.750  0.4301  1.6646 -0.4136
 2377SOL    HW218594   3.999   2.404   1.810  1.6858 -0.8736  1.4259
 2378SOL     OW18595   3.539   1.409   9.130 -0.2217  1.0438  0.6180
 2378SOL    HW118596   3.543   1.401   9.225  0.5742  1.7786  0.6343
 2378SOL    HW218597   3.443   1.408   9.125 -0.2430  1.1886  1.0223
 2379SOL     OW18598   0.286   2.848   3.445 -0.5242 -0.4774  0.4207
 2379SOL    HW118599   0.233   2.927   3.456 -1.0590 -0.4794 -2.1354
 2379SOL    HW218600   0.218   2.789   3.414  2.1300 -1.7579 -2.9362
 2380SOL     OW18601   4.545   1.698  16.497  0.1618 -0.1962  0.2814
 2380SOL    HW118602   4.485   1.761  16.457 -1.3250 -1.3377  0.7192
 2380SOL    HW218603   4.627   1.721  16.454  1.2013 -1.6613  1.4807
 2381SOL     OW18604   1.246   3.375   8.975  0.0140  0.1123 -0.0104
 2381SOL    HW118605   1.221   3.330   9.056 -0.4803  0.5439  0.0779
 2381SOL    HW218606   1.340   3.365   8.963 -0.2295 -0.9206 -1.0982
 2382SOL     OW18607   0.867   4.291   0.092 -0.3127  0.2304  0.1593
 2382SOL    HW118608   0.797   4.232   0.065  1.0575 -0.2232 -2.4494
 2382SOL    HW218609   0.836   4.334   0.171  0.3354 -0.0598  0.5793
 2383SOL     OW18610   1.437   1.860  12.357 -0.2605 -0.1512  0.7173
 2383SOL    HW118611   1.511   1.821  12.405  0.6000  2.1696  1.2683
 2383SOL    HW218612   1.481   1.914  12.291 -0.2411  0.8644  1.5551
 2384SOL     OW18613   3.455   3.520   4.714 -0.2953  0.2338  0.0254
 2384SOL    HW118614   3.392   3.518   4.642  1.0807  2.3201 -1.2222
 2384SOL    HW218615   3.441   3.605   4.755 -0.7647 -0.0837  0.5351
 2385SOL     OW18616   1.949   3.056   4.011 -0.4560  0.2511 -0.2603
 2385SOL    HW118617   2.038   3.041   3.980  0.7156  2.0005  2.2113
 2385SOL    HW218618   1.930   3.144   3.980 -3.5316  0.2209  1.5447
 2386SOL     OW18619   0.232   0.570   2.247  0.0542 -0.3122 -0.0343
 2386SOL    HW118620   0.314   0.585   2.200  0.7113 -1.2744  0.8173
 2386SOL    HW218621   0.172   0.598   2.177 -1.8822 -0.6272  1.5120
 2387SOL     OW18622   1.129   0.394   7.975  0.5711  0.7806  0.0799
 2387SOL    HW118623   1.055   0.426   7.923  1.1174  1.4960 -0.2604
 2387SOL    HW218624   1.117   0.460   8.043 -2.5028 -0.1293  0.4023
 2388SOL     OW18625   3.972   3.998   8.629  0.1377 -0.1508  0.0188
 2388SOL    HW118626   3.977   3.908   8.597  1.6874  0.3950 -1.2472
 2388SOL    HW218627   3.948   3.991   8.722 -0.3400 -1.3709 -0.1956
 2389SOL     OW18628   2.223   1.546   3.927  0.3367 -0.1390  0.0548
 2389SOL    HW118629   2.238   1.553   3.833 -0.9174 -0.1851 -0.1465
 2389SOL    HW218630   2.231   1.453   3.945  0.9437  0.4518  2.7797
 2390SOL     OW18631   2.896   1.010   4.158  0.0012  0.4287 -0.5436
 2390SOL    HW118632   2.892   1.059   4.076  0.0547  0.3042 -0.6211
 2390SOL    HW218633   2.879   1.080   4.221 -0.2558 -0.5484  0.4861
 2391SOL     OW18634   2.859   0.255   3.346 -0.0472 -0.7137 -0.2622
 2391SOL    HW118635   2.814   0.270   3.263 -0.3654 -0.3815 -0.0287
 2391SOL    HW218636   2.812   0.188   3.395  1.4345 -1.4216  0.1815
 2392SOL     OW18637   3.502   2.029   4.375  0.4639 -0.4368 -0.0598
 2392SOL    HW118638   3.550   2.042   4.457  0.2113 -1.4803  0.2476
 2392SOL    HW218639   3.415   2.064   4.392  0.9515  1.4724 -1.5159
 2393SOL     OW18640   1.187   4.526   9.858 -0.4132  0.2116  0.2289
 2393SOL    HW118641   1.262   4.470   9.882  0.6329  0.8952 -1.4380
 2393SOL    HW218642   1.225   4.613   9.871 -0.3768  0.1561  0.4896
 2394SOL     OW18643   3.313   1.365   7.123  0.1772  0.2882  0.5402
 2394SOL    HW118644   3.405   1.356   7.148 -0.5832  2.1058  3.8970
 2394SOL    HW218645   3.282   1.279   7.152 -0.4602  0.1847 -0.4490
 2395SOL     OW18646   3.455   0.166   6.745 -0.3729 -0.3911  0.2825
 2395SOL    HW118647   3.417   0.188   6.660 -0.4058  1.5468  0.7757
 2395SOL    HW218648   3.377   0.148   6.798  1.8351 -0.5626  3.4904
 2396SOL     OW18649   3.758   2.151   8.084  0.3593  0.0681 -0.1940
 2396SOL    HW118650   3.791   2.238   8.061 -0.8359  0.6852  0.4282
 2396SOL    HW218651   3.836   2.100   8.106 -0.6517  0.1159  3.4039
 2397SOL     OW18652   4.658   4.148  10.172 -0.1752 -0.4774 -0.1899
 2397SOL    HW118653   0.022   4.166  10.222 -0.3525  0.5020 -0.2542
 2397SOL    HW218654   4.648   4.224  10.116  0.9914 -1.1298 -1.2816
 2398SOL     OW18655   1.779   3.747  10.467 -0.1347  0.3724 -0.4992
 2398SOL    HW118656   1.808   3.691  10.395  0.3505 -0.1479  0.0926
 2398SOL    HW218657   1.853   3.730  10.525  0.5139  2.2989 -0.7981
 2399SOL     OW18658   4.150   0.698   5.684 -0.1709 -0.3350 -0.1919
 2399SOL    HW118659   4.128   0.640   5.611  1.7013 -2.1292  0.6940
 2399SOL    HW218660   4.213   0.654   5.741 -0.6013 -0.6628  0.0343
 2400SOL     OW18661   4.438   1.647   8.039  0.7080 -0.4952  0.6626
 2400SOL    HW118662   4.367   1.633   8.102 -0.3724 -2.0752 -0.9024
 2400SOL    HW218663   4.387   1.612   7.966 -0.1585 -1.8830  1.9410
 2401SOL     OW18664   3.153   0.039   0.923 -0.3376 -0.2788  0.0609
 2401SOL    HW118665   3.127   0.015   1.012  0.4692 -0.6086  0.2061
 2401SOL    HW218666   3.229   0.096   0.936  1.2256 -2.3176 -0.1046
 2402SOL     OW18667   0.133   4.033  11.214  0.1064  0.2141  0.5660
 2402SOL    HW118668   0.195   3.970  11.176 -0.7902 -0.8616  0.8766
 2402SOL    HW218669   0.077   3.978  11.270  0.4508  2.1373  2.8008
 2403SOL     OW18670   2.833   0.550   7.472  0.0707  0.3635 -0.1489
 2403SOL    HW118671   2.856   0.467   7.514 -0.7976  0.4649  0.5377
 2403SOL    HW218672   2.916   0.595   7.458  0.3926 -0.4187 -0.7219
 2404SOL     OW18673   2.735   4.186   8.668  0.4880  0.0672  0.0886
 2404SOL    HW118674   2.642   4.173   8.649  1.2109 -1.4511 -2.3958
 2404SOL    HW218675   2.745   4.174   8.762  1.6502 -3.5763 -0.4987
 2405SOL     OW18676   1.405   0.146  11.772  0.4339 -0.3541 -0.3748
 2405SOL    HW118677   1.412   0.066  11.720 -0.7172 -1.5010  1.2664
 2405SOL    HW218678   1.310   0.139  11.783  0.5030 -0.8286 -0.0827
 2406SOL     OW18679   2.646   4.056   3.690 -0.0507  0.0383 -0.4217
 2406SOL    HW118680   2.553   4.045   3.709  0.6372 -0.7552  2.4530
 2406SOL    HW218681   2.657   3.976   3.638  0.5479  0.5069 -1.0175
 2407SOL     OW18682   2.432   0.231   4.490  0.6554 -0.0647 -0.4646
 2407SOL    HW118683   2.458   0.312   4.534 -1.2517 -0.1049  0.7507
 2407SOL    HW218684   2.356   0.259   4.438  0.5392  0.8842  0.2069
 2408SOL     OW18685   3.990   4.666  11.881  0.3372 -0.0066 -0.2244
 2408SOL    HW118686   4.070   4.715  11.900  1.3969 -2.1410  0.8160
 2408SOL    HW218687   3.978   4.678  11.786 -0.8225  2.4370  0.2368
 2409SOL     OW18688   1.546   3.972   2.772  0.2001 -0.0197 -0.5186
 2409SOL    HW118689   1.612   3.911   2.804 -1.7469 -1.6656  0.3528
 2409SOL    HW218690   1.478   3.984   2.839  2.1387  0.3285  1.3874
 2410SOL     OW18691   0.992   3.310   2.050 -0.2466  0.0607 -0.3108
 2410SOL    HW118692   0.992   3.354   2.135 -2.2148  0.3408 -0.4508
 2410SOL    HW218693   0.950   3.227   2.070 -1.4889  0.8941  0.5185
 2411SOL     OW18694   2.678   2.268   0.976 -0.1722 -0.4766 -0.4102
 2411SOL    HW118695   2.712   2.321   1.048  1.5096  0.8263 -2.1613
 2411SOL    HW218696   2.584   2.287   0.975 -0.5696 -2.3564  0.6460
 2412SOL     OW18697   4.203   1.734   2.524  0.1899  0.9332 -0.1498
 2412SOL    HW118698   4.288   1.765   2.492  1.2630 -0.9589  0.8664
 2412SOL    HW218699   4.169   1.698   2.442  0.2034  0.4062  0.0727
 2413SOL     OW18700   0.023   3.055   1.798 -0.2811 -0.3933 -0.3616
 2413SOL    HW118701   0.024   3.120   1.727 -0.6790 -0.5345 -0.4998
 2413SOL    HW218702   4.652   3.016   1.788 -0.9765  0.7621  1.1418
 2414SOL     OW18703   0.156   2.441   7.819 -0.5337 -0.1238 -0.2551
 2414SOL    HW118704   0.141   2.360   7.868  0.7024 -0.6531 -0.7715
 2414SOL    HW218705   0.083   2.498   7.844  0.1381  1.0213 -0.9101
 2415SOL     OW18706   4.520   2.991  16.883  0.4366 -0.1659 -0.9164
 2415SOL    HW118707   4.612   2.965  16.879  0.4438 -0.0671 -1.5207
 2415SOL    HW218708   4.499   2.959  16.795  1.7091 -1.0671 -0.8899
 2416SOL     OW18709   1.580   1.298   5.903  0.0234  0.2105  0.5832
 2416SOL    HW118710   1.658   1.353   5.912  0.1640 -0.2558  2.1713
 2416SOL    HW218711   1.510   1.351   5.865  2.6558  1.7840 -2.0682
 2417SOL     OW18712   1.551   4.306   4.487 -0.4464  0.4800 -0.0088
 2417SOL    HW118713   1.516   4.381   4.440 -0.5525 -0.3416 -1.2329
 2417SOL    HW218714   1.630   4.290   4.434  0.1375 -0.5530  1.1690
 2418SOL     OW18715   0.754   2.332   7.313  0.0766 -0.3283 -0.1192
 2418SOL    HW118716   0.798   2.383   7.245 -1.5417  1.1988  0.0015
 2418SOL    HW218717   0.710   2.403   7.359  1.0334  1.1560 -1.5195
 2419SOL     OW18718   3.794   2.287   6.701 -0.3006  0.2325  0.1594
 2419SOL    HW118719   3.745   2.361   6.666 -3.0960 -0.8810  1.7477
 2419SOL    HW218720   3.861   2.266   6.635 -0.4063 -1.0397  0.4517
 2420SOL     OW18721   1.290   2.785   7.551 -0.0236  0.0925  0.9021
 2420SOL    HW118722   1.384   2.802   7.545  0.3026 -1.9725  0.0332
 2420SOL    HW218723   1.269   2.785   7.644  0.1351 -0.3611  0.9356
 2421SOL     OW18724   4.186   4.164   6.594  0.5038  0.0257  0.5474
 2421SOL    HW118725   4.148   4.076   6.595  3.2340 -1.1542 -1.1422
 2421SOL    HW218726   4.277   4.146   6.616  0.5384 -0.9082 -0.3942
 2422SOL     OW18727   0.355   3.510   3.935  0.1860  0.1491  0.2365
 2422SOL    HW118728   0.291   3.579   3.952  1.0373  1.0160 -0.1062
 2422SOL    HW218729   0.396   3.560   3.864 -0.8374  0.9450  0.2004
 2423SOL     OW18730   2.049   2.217   7.738 -0.4615 -0.5651  0.2101
 2423SOL    HW118731   2.091   2.181   7.660 -0.1638 -0.7965  0.4737
 2423SOL    HW218732   2.098   2.298   7.748 -0.0781 -0.9443  1.4304
 2424SOL     OW18733   2.561   2.772  12.856  0.4717 -0.1808 -0.3726
 2424SOL    HW118734   2.622   2.705  12.889 -0.9175 -1.5868 -0.6702
 2424SOL    HW218735   2.589   2.854  12.897  0.2862 -0.8893  1.1380
 2425SOL     OW18736   2.590   0.459   0.787 -0.1522 -0.2671 -0.5787
 2425SOL    HW118737   2.526   0.398   0.824 -0.2484  0.6543  0.8134
 2425SOL    HW218738   2.549   0.544   0.808 -0.5178 -0.3260 -1.0638
 2426SOL     OW18739   1.639   0.776   5.456 -0.4393  0.5782 -0.2106
 2426SOL    HW118740   1.685   0.748   5.535 -0.5988 -2.4787 -1.1918
 2426SOL    HW218741   1.709   0.756   5.393  0.2561  1.2970  0.3396
 2427SOL     OW18742   3.456   2.613   4.475  0.2274  0.5071 -0.2798
 2427SOL    HW118743   3.490   2.633   4.562  0.4794 -1.9151  0.1904
 2427SOL    HW218744   3.383   2.674   4.475  1.1582  1.6051 -1.5779
 2428SOL     OW18745   3.732   4.641   5.063 -0.0519  0.2012  0.7009
 2428SOL    HW118746   3.652   4.652   5.012  1.4758  0.8173 -1.5181
 2428SOL    HW218747   3.740   4.547   5.048 -2.9851  0.2863 -1.2784
 2429SOL     OW18748   2.327   0.491   0.612  0.4104 -0.2030 -0.2170
 2429SOL    HW118749   2.314   0.499   0.706 -1.3994 -0.7784 -0.4037
 2429SOL    HW218750   2.342   0.584   0.595 -0.2702  0.0190  0.4032
 2430SOL     OW18751   3.659   4.537   3.357  0.7176 -0.1579  0.1407
 2430SOL    HW118752   3.584   4.512   3.303 -0.1359  2.1686  0.2334
 2430SOL    HW218753   3.618   4.596   3.421 -2.6197 -1.1219 -1.1389
 2431SOL     OW18754   3.666   3.001   2.252 -0.4811 -0.2153 -0.7676
 2431SOL    HW118755   3.749   2.965   2.283 -0.8770 -1.7050 -1.4378
 2431SOL    HW218756   3.682   3.085   2.211 -2.5268  0.8802  0.6717
 2432SOL     OW18757   2.969   2.255   7.878 -0.9048  0.0834  0.2935
 2432SOL    HW118758   2.900   2.192   7.856 -0.6477 -0.1852  0.2621
 2432SOL    HW218759   3.027   2.234   7.805  0.6876  0.2831  1.5182
 2433SOL     OW18760   1.014   3.628  15.743  0.0129 -0.3687 -0.0864
 2433SOL    HW118761   1.098   3.620  15.788  0.0557 -1.3762 -0.3492
 2433SOL    HW218762   0.956   3.661  15.812 -1.2540  1.2494 -1.9243
 2434SOL     OW18763   0.090   3.508   5.641 -0.5513  0.0152  0.0620
 2434SOL    HW118764   0.095   3.557   5.558  1.8328  1.6610  1.2038
 2434SOL    HW218765   0.162   3.446   5.630  0.4303  0.8725  1.7100
 2435SOL     OW18766   4.704   0.086   4.693  0.0701 -0.0546 -0.3615
 2435SOL    HW118767   0.007   4.709   4.688 -2.2761 -0.6482  1.2808
 2435SOL    HW218768   4.654   0.089   4.775  0.0330 -1.6009 -0.3343
 2436SOL     OW18769   0.004   0.665  17.307  1.1049  0.1904 -0.4682
 2436SOL    HW118770   0.017   0.585  17.258 -0.6468  1.0792 -2.3819
 2436SOL    HW218771   0.056   0.653  17.386  0.5907  1.1248  0.0158
 2437SOL     OW18772   3.714   3.715   3.785 -0.0152 -0.0220  0.5526
 2437SOL    HW118773   3.627   3.745   3.758  0.3358 -1.8140 -2.6194
 2437SOL    HW218774   3.712   3.741   3.877  0.7795  1.5851  0.1123
 2438SOL     OW18775   0.177   2.199   5.171 -0.4934  0.3118  0.2832
 2438SOL    HW118776   0.115   2.131   5.199 -0.1841  0.3837  1.1514
 2438SOL    HW218777   0.168   2.252   5.250  0.4163  1.7730 -0.6089
 2439SOL     OW18778   0.860   0.480   7.418  0.6653 -0.6045  0.0348
 2439SOL    HW118779   0.882   0.443   7.503 -0.7434  0.4599  0.8597
 2439SOL    HW218780   0.945   0.472   7.375  0.6630  1.1990 -0.3230
 2440SOL     OW18781   1.671   1.674  12.389 -0.3861  0.0384  0.0897
 2440SOL    HW118782   1.629   1.629  12.462 -1.1773 -3.2480 -2.4004
 2440SOL    HW218783   1.691   1.601  12.330 -0.7190  0.4093 -0.4809
 2441SOL     OW18784   1.715   3.186   3.520 -0.5547  0.5781 -0.2388
 2441SOL    HW118785   1.719   3.278   3.493  1.4945 -0.2093 -2.5566
 2441SOL    HW218786   1.802   3.155   3.495 -0.2963 -0.4303  1.8866
 2442SOL     OW18787   0.349   3.608   8.223  0.4149  0.2183 -0.1036
 2442SOL    HW118788   0.443   3.604   8.204  0.2948 -3.0217  0.0425
 2442SOL    HW218789   0.348   3.636   8.315 -1.1735 -0.5361  0.0986
 2443SOL     OW18790   3.624   2.819   2.469 -0.5549 -0.2947 -0.1216
 2443SOL    HW118791   3.566   2.792   2.397 -0.9707 -0.6920  0.3678
 2443SOL    HW218792   3.654   2.905   2.440  1.2647 -0.8738  0.0807
 2444SOL     OW18793   4.612   2.557   6.752 -0.2886  0.5061  0.1412
 2444SOL    HW118794   4.685   2.547   6.813 -1.5746 -0.6529  1.5004
 2444SOL    HW218795   4.568   2.473   6.765 -2.5591  1.1487 -3.4047
 2445SOL     OW18796   0.870   3.525   5.984  0.2047 -0.0176 -0.2743
 2445SOL    HW118797   0.846   3.604   6.033  0.5437 -1.1408  1.6926
 2445SOL    HW218798   0.855   3.557   5.895  1.4288 -0.2754 -0.5786
 2446SOL     OW18799   4.712   1.431   8.862  0.2366 -1.1673  0.1725
 2446SOL    HW118800   4.630   1.476   8.843  0.0568 -1.6256 -0.1413
 2446SOL    HW218801   0.030   1.439   8.773  0.6875  2.0743  0.6406
 2447SOL     OW18802   1.268   3.416   1.661 -0.3865 -0.7810  0.0661
 2447SOL    HW118803   1.360   3.395   1.645  0.4665  1.0210  2.6100
 2447SOL    HW218804   1.242   3.368   1.739 -0.3297  0.5427  0.8914
 2448SOL     OW18805   2.153   2.832   2.977 -1.2878 -0.2509 -0.0272
 2448SOL    HW118806   2.123   2.747   3.009  1.1691 -1.0187  0.2685
 2448SOL    HW218807   2.152   2.804   2.885  1.6588 -1.4438  0.2899
 2449SOL     OW18808   4.252   2.804   6.973  0.2486 -0.0698  0.3202
 2449SOL    HW118809   4.161   2.828   6.991 -0.0785 -0.1359 -1.2493
 2449SOL    HW218810   4.299   2.885   6.994  1.6220 -0.3337 -1.7490
 2450SOL     OW18811   4.694   4.022   4.558  0.5776  0.0271 -0.5106
 2450SOL    HW118812   0.046   4.062   4.505 -0.1775  0.6155 -1.0520
 2450SOL    HW218813   4.701   3.930   4.532  0.0105  0.4110 -2.0370
 2451SOL     OW18814   1.889   4.259  14.572 -0.0174  0.2934 -0.1213
 2451SOL    HW118815   1.939   4.246  14.491 -2.3673 -3.2254 -1.0349
 2451SOL    HW218816   1.815   4.312  14.542 -2.0456 -2.6142 -0.2740
 2452SOL     OW18817   2.563   1.112   4.441 -0.4419 -0.2446 -0.1430
 2452SOL    HW118818   2.507   1.067   4.504 -1.4529  0.3360 -0.6433
 2452SOL    HW218819   2.653   1.087   4.465 -1.3603 -1.0169  2.4262
 2453SOL     OW18820   3.611   4.369  12.180  0.2451  0.2091  0.2037
 2453SOL    HW118821   3.637   4.461  12.176 -0.9742  0.6106  1.9346
 2453SOL    HW218822   3.519   4.370  12.154  0.6287  2.3065 -1.0192
 2454SOL     OW18823   3.001   1.536  14.731  0.0988 -0.5496  0.1307
 2454SOL    HW118824   3.082   1.586  14.722 -0.7569  1.2933  2.5278
 2454SOL    HW218825   2.973   1.540  14.640  1.1079  0.7554 -0.1191
 2455SOL     OW18826   3.846   3.889   4.034 -0.1174  0.2590  0.1131
 2455SOL    HW118827   3.856   3.942   4.113 -1.1384 -0.2465  0.5845
 2455SOL    HW218828   3.830   3.804   4.075 -0.3043 -0.1423 -0.7885
 2456SOL     OW18829   3.066   0.532  14.387  0.4239 -0.4834  0.2660
 2456SOL    HW118830   3.104   0.617  14.412  1.8222 -1.3324  1.1050
 2456SOL    HW218831   3.142   0.474  14.397  1.1762  0.5745  0.6497
 2457SOL     OW18832   2.105   3.297  11.683 -0.7380 -0.1982  0.2728
 2457SOL    HW118833   2.102   3.315  11.777 -0.4721  0.9421  0.0567
 2457SOL    HW218834   2.200   3.281  11.682 -0.6609  0.3134 -0.3233
 2458SOL     OW18835   0.982   0.346   2.358  0.1255 -0.1801  0.0604
 2458SOL    HW118836   0.947   0.382   2.439 -0.9029  0.4735 -0.6679
 2458SOL    HW218837   0.993   0.417   2.294 -2.8860  2.3955  2.4148
 2459SOL     OW18838   2.251   3.816   6.359  0.4778 -0.3272 -0.4344
 2459SOL    HW118839   2.291   3.815   6.446  0.2866 -3.4638 -0.3945
 2459SOL    HW218840   2.163   3.847   6.381  1.2897  3.4193 -2.4680
 2460SOL     OW18841   2.354   4.219  14.757  0.9406  0.4551 -0.2797
 2460SOL    HW118842   2.429   4.171  14.793 -0.0816 -0.3513  0.7848
 2460SOL    HW218843   2.380   4.224  14.665  2.2881  0.1069  0.0904
 2461SOL     OW18844   4.354   1.374   9.193 -0.4227 -1.1651 -0.2826
 2461SOL    HW118845   4.342   1.287   9.153  0.3458 -1.2225 -0.3854
 2461SOL    HW218846   4.430   1.345   9.243 -0.4664  0.0932  0.4936
 2462SOL     OW18847   0.048   0.830   8.281  0.5993  0.3429 -0.3057
 2462SOL    HW118848   0.044   0.735   8.267  2.6864  0.0046  1.3020
 2462SOL    HW218849   4.696   0.862   8.223 -0.2163  0.0356  0.4858
 2463SOL     OW18850   4.339   2.169   3.713  0.0774  0.5625  0.3653
 2463SOL    HW118851   4.395   2.246   3.721  0.5199  0.1101  1.5517
 2463SOL    HW218852   4.360   2.114   3.788 -1.7274 -0.0534  0.4323
 2464SOL     OW18853   1.413   3.705   4.377 -0.0876  0.6044  0.0607
 2464SOL    HW118854   1.327   3.706   4.420 -0.0147 -2.6342  0.3012
 2464SOL    HW218855   1.406   3.788   4.332  1.6115  1.4958  1.4410
 2465SOL     OW18856   2.282   3.736  14.752 -0.4591 -0.0397  0.0011
 2465SOL    HW118857   2.202   3.747  14.804 -1.3828 -0.6703 -1.2892
 2465SOL    HW218858   2.336   3.753  14.830 -1.4338  0.8819  0.4801
 2466SOL     OW18859   3.596   2.952   0.389 -0.0467 -0.0736  0.6081
 2466SOL    HW118860   3.656   2.943   0.464  0.0600 -0.6345  0.4496
 2466SOL    HW218861   3.591   2.864   0.352 -0.6798  0.2148  0.0162
 2467SOL     OW18862   3.672   3.216  16.838  0.0006 -0.0689  0.0496
 2467SOL    HW118863   3.649   3.141  16.893  0.3590 -0.2794 -0.0832
 2467SOL    HW218864   3.731   3.269  16.891  1.1150 -0.3281 -0.9189
 2468SOL     OW18865   1.234   1.582   3.875  0.5084 -0.7715 -0.0392
 2468SOL    HW118866   1.153   1.628   3.900 -0.3504 -0.8120 -2.8170
 2468SOL    HW218867   1.281   1.657   3.840 -0.6711  0.4735  1.0288
 2469SOL     OW18868   0.339   3.261   7.025  1.2287 -0.0829 -0.3416
 2469SOL    HW118869   0.375   3.212   6.952  0.9173 -0.1597 -0.4414
 2469SOL    HW218870   0.270   3.319   6.994  1.1343  0.1405  0.2747
 2470SOL     OW18871   1.895   2.205   8.613 -0.4426 -0.2751  0.4289
 2470SOL    HW118872   1.884   2.234   8.523 -1.2975 -0.5214  0.4536
 2470SOL    HW218873   1.803   2.195   8.637 -0.6525 -0.1500 -0.3261
 2471SOL     OW18874   0.330   4.459   7.900 -0.2273  0.1206  0.4722
 2471SOL    HW118875   0.286   4.486   7.819  1.3885 -1.1286 -0.8247
 2471SOL    HW218876   0.253   4.434   7.950 -2.1101  2.5046 -1.1976
 2472SOL     OW18877   3.166   1.770   4.267 -0.1819 -0.3079 -0.3671
 2472SOL    HW118878   3.230   1.774   4.196 -0.8449  0.3731 -0.9166
 2472SOL    HW218879   3.106   1.840   4.241 -2.5647 -1.6423  1.5036
 2473SOL     OW18880   1.679   2.269  15.680  0.7549 -0.0062 -0.1858
 2473SOL    HW118881   1.670   2.209  15.605  0.6372 -0.0966 -0.1003
 2473SOL    HW218882   1.719   2.344  15.637  1.9518 -0.1557  0.6991
 2474SOL     OW18883   1.297   0.691   4.426 -0.1733 -0.2636 -0.0481
 2474SOL    HW118884   1.316   0.730   4.341 -0.1271  1.3081  0.6941
 2474SOL    HW218885   1.226   0.750   4.451 -0.2870 -1.2104  1.8206
 2475SOL     OW18886   2.767   3.506   8.270  0.1126  0.4378  0.3607
 2475SOL    HW118887   2.816   3.425   8.254 -0.5498  0.6067 -2.5990
 2475SOL    HW218888   2.836   3.551   8.319  0.7149 -0.6595  0.4952
 2476SOL     OW18889   1.559   2.759  13.779  0.3625 -0.2146 -0.3365
 2476SOL    HW118890   1.559   2.818  13.703  0.4191 -1.2171 -1.1097
 2476SOL    HW218891   1.467   2.741  13.795 -0.2110  2.7358 -0.2853
 2477SOL     OW18892   3.254   3.352   7.717  0.2059 -0.5795  0.3159
 2477SOL    HW118893   3.238   3.282   7.781 -0.2992  1.5875  2.5478
 2477SOL    HW218894   3.254   3.305   7.634  2.0808  1.5014 -0.8621
 2478SOL     OW18895   3.947   3.237   8.100  0.1162  0.2132  0.0496
 2478SOL    HW118896   3.965   3.143   8.106  1.6484  0.5639  0.9624
 2478SOL    HW218897   4.000   3.274   8.170 -0.3025 -0.0392  0.5008
 2479SOL     OW18898   2.886   1.035  10.408  0.0380  0.0061  0.6939
 2479SOL    HW118899   2.889   1.126  10.439  2.2865  0.8754 -2.1406
 2479SOL    HW218900   2.795   1.031  10.377  0.2864 -1.7211  0.1975
 2480SOL     OW18901   2.175   1.189   3.985  0.1832  0.1515  0.3591
 2480SOL    HW118902   2.228   1.193   4.064 -1.4366 -0.0103  1.4491
 2480SOL    HW218903   2.174   1.094   3.980  0.1871  0.1127  1.0513
 2481SOL     OW18904   2.567   2.879  13.974  0.4474 -0.2943 -0.1662
 2481SOL    HW118905   2.589   2.867  14.066 -0.8417  4.0184  0.6806
 2481SOL    HW218906   2.486   2.929  13.973 -0.2558 -1.3931  1.7344
 2482SOL     OW18907   2.441   2.871   7.645  0.7629  0.3306  0.3394
 2482SOL    HW118908   2.480   2.814   7.578 -0.9016  1.1454 -1.2852
 2482SOL    HW218909   2.495   2.835   7.716  1.0003  2.1967  1.0949
 2483SOL     OW18910   2.671   4.574  13.504  1.1349  0.3459  0.0473
 2483SOL    HW118911   2.607   4.534  13.444  0.0882  4.7542 -1.8042
 2483SOL    HW218912   2.704   4.651  13.457  0.5424  0.5421 -0.0459
 2484SOL     OW18913   1.736   1.789  11.563  0.2527 -0.0772 -0.3737
 2484SOL    HW118914   1.648   1.816  11.540  0.4378  0.5437 -0.3766
 2484SOL    HW218915   1.723   1.749  11.649 -1.0936 -1.3767 -1.1947
 2485SOL     OW18916   3.298   1.948   1.686 -0.1815 -0.3733 -0.0739
 2485SOL    HW118917   3.377   1.986   1.646 -1.9549  1.3885 -1.9304
 2485SOL    HW218918   3.325   1.962   1.777 -2.8875  0.4583  0.5768
 2486SOL     OW18919   0.116   4.041   3.671 -0.3558  0.2466  0.2400
 2486SOL    HW118920   0.044   4.053   3.609 -1.0166 -0.5962  0.8454
 2486SOL    HW218921   0.099   4.120   3.721  0.3720  1.1595 -0.9406
 2487SOL     OW18922   1.976   1.537  11.264  0.0766 -0.4276  0.3311
 2487SOL    HW118923   1.962   1.543  11.169 -2.6195 -0.1119  0.7400
 2487SOL    HW218924   1.993   1.629  11.283  0.3012 -1.2180  3.9199
 2488SOL     OW18925   1.343   0.230   3.880 -0.4124  0.4583  0.8090
 2488SOL    HW118926   1.359   0.228   3.974 -1.7466 -0.6191  1.0137
 2488SOL    HW218927   1.348   0.137   3.858  2.1524  0.6848  0.4608
 2489SOL     OW18928   3.010   1.639   2.801  0.0563  0.5255  0.0956
 2489SOL    HW118929   2.961   1.672   2.726 -2.3506  0.0712  1.4840
 2489SOL    HW218930   3.103   1.628   2.778 -0.0806  0.6397 -0.5038
 2490SOL     OW18931   2.519   1.297  11.840  0.1739  0.0899  0.4501
 2490SOL    HW118932   2.481   1.385  11.832  0.7823  0.1986 -1.3385
 2490SOL    HW218933   2.614   1.309  11.834  0.0222  0.8560 -0.3172
 2491SOL     OW18934   2.573   0.920   7.242 -0.5602  0.0693 -0.2359
 2491SOL    HW118935   2.646   0.904   7.181  1.0529 -0.2926  1.7826
 2491SOL    HW218936   2.611   0.964   7.318  1.0199  1.5600 -1.8762
 2492SOL     OW18937   4.226   4.145   8.353  0.1385  0.2066  0.3118
 2492SOL    HW118938   4.259   4.133   8.264 -0.5613 -0.4560  0.1407
 2492SOL    HW218939   4.136   4.127   8.327  0.5712  1.8912 -2.3124
 2493SOL     OW18940   3.523   4.576   0.205 -0.2351  0.0669  0.1222
 2493SOL    HW118941   3.526   4.481   0.219 -0.1422 -0.6373 -4.6777
 2493SOL    HW218942   3.429   4.586   0.196 -0.4038 -0.9749  0.6898
 2494SOL     OW18943   2.097   2.916   6.340 -0.3100  0.4869  0.4783
 2494SOL    HW118944   2.130   2.832   6.309  0.4736  0.0541  2.4569
 2494SOL    HW218945   2.155   2.977   6.294 -0.8200 -0.1722 -1.0138
 2495SOL     OW18946   0.818   2.397   6.851 -0.1648  0.6391  0.5707
 2495SOL    HW118947   0.774   2.312   6.860  0.6015  0.4486  2.4715
 2495SOL    HW218948   0.866   2.378   6.770  0.0477  1.2527  0.5495
 2496SOL     OW18949   0.676   1.349   7.309 -0.2695  0.1168  0.4647
 2496SOL    HW118950   0.598   1.342   7.364 -0.2648  0.6494  0.5361
 2496SOL    HW218951   0.652   1.304   7.229  1.4812  2.5596 -1.4246
 2497SOL     OW18952   0.336   4.286  17.339 -0.0543 -0.3645 -0.1633
 2497SOL    HW118953   0.371   4.287  17.250 -1.9713  0.4796 -0.9007
 2497SOL    HW218954   0.420   4.273  17.383  0.3059  1.8365 -0.2041
 2498SOL     OW18955   3.571   2.047  11.632 -0.0477 -0.5339  0.6052
 2498SOL    HW118956   3.602   1.956  11.636 -0.2789 -0.6361  0.1332
 2498SOL    HW218957   3.658   2.085  11.616 -1.1215  1.1671 -1.1850
 2499SOL     OW18958   0.786   3.631  15.915  0.3672 -0.0394 -0.0570
 2499SOL    HW118959   0.727   3.665  15.982 -0.8538 -1.9629 -0.1744
 2499SOL    HW218960   0.729   3.662  15.844 -0.2720  0.2533  0.5800
 2500SOL     OW18961   3.941   2.607   4.559 -0.3876 -0.3131  0.2160
 2500SOL    HW118962   4.037   2.606   4.554 -0.4289 -1.9082 -0.2166
 2500SOL    HW218963   3.923   2.695   4.590 -1.1976  0.3113 -2.0818
 2501SOL     OW18964   1.203   4.430  12.672 -0.4966  0.0518 -0.3058
 2501SOL    HW118965   1.252   4.383  12.739  0.6603  0.0102 -1.1901
 2501SOL    HW218966   1.177   4.511  12.715 -0.2744  0.4761 -0.9668
 2502SOL     OW18967   3.445   3.143   8.100  0.5942  0.0004 -0.4426
 2502SOL    HW118968   3.353   3.167   8.117  0.4881 -0.4804 -0.3334
 2502SOL    HW218969   3.438   3.096   8.017  0.2454  1.2733 -1.1525
 2503SOL     OW18970   0.222   2.975   0.929  0.3295  0.3993 -0.0484
 2503SOL    HW118971   0.162   3.005   0.997  0.9666  2.0025 -0.1779
 2503SOL    HW218972   0.163   2.938   0.863  1.1290  0.2758 -0.6990
 2504SOL     OW18973   4.687   3.377   0.832 -0.0176 -0.3020  0.1559
 2504SOL    HW118974   4.628   3.430   0.778 -0.6994 -0.8078  0.4009
 2504SOL    HW218975   4.627   3.334   0.893  0.2720 -2.7004 -1.2340
 2505SOL     OW18976   1.917   3.262  14.164 -0.1370  0.4495  0.6311
 2505SOL    HW118977   1.945   3.354  14.161 -0.2315  0.4921  1.1411
 2505SOL    HW218978   1.842   3.276  14.222 -1.7335 -1.0295 -1.1063
 2506SOL     OW18979   3.570   3.969   5.509 -0.0102  0.0394  0.8263
 2506SOL    HW118980   3.643   4.011   5.555  1.1051 -1.5114  0.4851
 2506SOL    HW218981   3.510   3.953   5.582  2.8520 -1.3218  2.9148
 2507SOL     OW18982   2.142   1.343   7.616 -0.0928 -0.2600 -0.0175
 2507SOL    HW118983   2.072   1.285   7.649 -0.6687  0.4609  0.0188
 2507SOL    HW218984   2.215   1.285   7.637 -0.5721 -0.3898  1.3276
 2508SOL     OW18985   1.149   0.017   8.228 -0.2501  0.3558 -0.1531
 2508SOL    HW118986   1.124   0.008   8.136  0.0446  2.3436 -0.4320
 2508SOL    HW218987   1.161   4.642   8.254 -0.4463 -0.3814 -2.6186
 2509SOL     OW18988   1.542   2.137  17.079 -0.7206  0.0626  0.2622
 2509SOL    HW118989   1.539   2.227  17.044 -1.1484  0.1257  0.4626
 2509SOL    HW218990   1.448   2.126  17.095 -0.3107 -1.8314  1.2617
 2510SOL     OW18991   2.257   3.948   8.969  0.9218 -0.2023 -0.0343
 2510SOL    HW118992   2.216   4.021   8.922 -3.3217 -3.6541 -1.7636
 2510SOL    HW218993   2.223   3.967   9.057  2.2020  0.5082  0.3047
 2511SOL     OW18994   2.737   2.987   4.262 -0.1920 -0.2245 -0.0586
 2511SOL    HW118995   2.736   2.940   4.345  0.9309  1.6678  1.0458
 2511SOL    HW218996   2.743   3.080   4.286 -0.5156 -0.0123 -0.7933
 2512SOL     OW18997   1.065   3.451  17.603  1.0300 -0.2826 -0.2396
 2512SOL    HW118998   1.061   3.540  17.639  0.4437 -0.9773  1.3770
 2512SOL    HW218999   0.979   3.454  17.561  0.9215 -0.2312 -0.0105
 2513SOL     OW19000   3.726   0.045   4.236  0.0106 -0.5769 -0.3315
 2513SOL    HW119001   3.788   4.698   4.199 -1.1514 -0.5778 -2.2457
 2513SOL    HW219002   3.739   0.118   4.176  2.0648 -0.1215  0.6738
 2514SOL     OW19003   4.316   1.107   7.816 -0.2349 -0.2503 -0.3970
 2514SOL    HW119004   4.378   1.172   7.849 -0.8942  0.9523 -1.5441
 2514SOL    HW219005   4.236   1.135   7.860 -0.5144 -2.5385  0.5938
 2515SOL     OW19006   1.992   2.650   5.918  0.1009  0.8819  0.0749
 2515SOL    HW119007   1.979   2.745   5.917 -1.7540  0.6633  3.0536
 2515SOL    HW219008   1.948   2.618   5.840  0.1516  1.1686 -0.0724
 2516SOL     OW19009   2.304   1.186   4.319 -0.1227 -0.1219 -0.1946
 2516SOL    HW119010   2.380   1.167   4.372  0.0915 -2.4193 -1.3521
 2516SOL    HW219011   2.251   1.239   4.379 -0.9982  0.0524 -1.0992
 2517SOL     OW19012   1.277   2.743   3.341 -0.1209  0.5702  0.0195
 2517SOL    HW119013   1.337   2.674   3.313 -1.4544 -0.6785  0.2100
 2517SOL    HW219014   1.317   2.771   3.423 -0.5957 -0.9196  0.7652
 2518SOL     OW19015   1.738   2.580   4.772 -0.2889  0.3307  0.1644
 2518SOL    HW119016   1.695   2.662   4.746 -1.6495  0.1122  1.7310
 2518SOL    HW219017   1.828   2.609   4.761 -0.9654  1.5795 -2.1005
 2519SOL     OW19018   2.782   4.631   4.362 -0.3428 -0.5164  0.2180
 2519SOL    HW119019   2.689   4.617   4.374 -0.4061 -0.7602 -0.5275
 2519SOL    HW219020   2.797   4.662   4.272  3.2216 -0.2681  0.8928
 2520SOL     OW19021   0.104   3.029   0.484 -0.1775 -0.2391  0.1865
 2520SOL    HW119022   0.030   2.989   0.440 -0.4270 -0.4239  0.7677
 2520SOL    HW219023   0.168   3.026   0.413  1.3309  0.4957  1.5064
 2521SOL     OW19024   2.558   3.265  13.241  0.5639  0.2963 -0.1595
 2521SOL    HW119025   2.653   3.277  13.249  0.4016  0.1017  2.2991
 2521SOL    HW219026   2.539   3.345  13.192 -0.7075 -0.7670 -1.3678
 2522SOL     OW19027   2.144   3.569   3.020  0.0962  0.5881 -0.2835
 2522SOL    HW119028   2.070   3.605   2.970 -2.5198 -1.1438  2.3883
 2522SOL    HW219029   2.184   3.533   2.940  1.3004  1.0785  0.0934
 2523SOL     OW19030   3.696   0.502   3.648 -0.5185  0.0024  0.5273
 2523SOL    HW119031   3.665   0.593   3.648 -0.4791  0.0170 -0.2558
 2523SOL    HW219032   3.715   0.490   3.741 -0.7445  1.9427  0.8356
 2524SOL     OW19033   1.131   2.748   1.035  0.2503  0.1416  0.5597
 2524SOL    HW119034   1.045   2.788   1.042  0.1150 -0.0240 -0.1240
 2524SOL    HW219035   1.139   2.729   1.128 -1.1085  1.3019  0.9114
 2525SOL     OW19036   4.619   1.844   5.624 -0.3559  0.1998 -0.5203
 2525SOL    HW119037   4.571   1.880   5.699  0.0740 -2.1166  0.8696
 2525SOL    HW219038   4.629   1.754   5.656  1.4477  0.0917 -1.3633
 2526SOL     OW19039   2.491   2.422   2.807 -0.0819 -0.2894  0.0922
 2526SOL    HW119040   2.538   2.412   2.724 -0.6481  2.9212 -0.5974
 2526SOL    HW219041   2.536   2.363   2.867 -3.0336 -2.4144  0.2724
 2527SOL     OW19042   1.147   3.818   7.901  0.5657  0.3120 -0.1137
 2527SOL    HW119043   1.103   3.741   7.935 -1.8091  1.2669 -1.0294
 2527SOL    HW219044   1.205   3.775   7.838 -0.5475 -1.8119  0.3263
 2528SOL     OW19045   4.127   1.577  11.889  0.6066 -0.3854  0.2391
 2528SOL    HW119046   4.091   1.646  11.833  0.9877  0.3070  0.8422
 2528SOL    HW219047   4.164   1.521  11.821 -2.3974 -2.1997  0.1079
 2529SOL     OW19048   2.753   4.057   2.459  0.0513  0.5371  0.0045
 2529SOL    HW119049   2.803   3.978   2.437 -2.0610 -0.6480 -0.5091
 2529SOL    HW219050   2.674   4.015   2.493  1.2977 -1.9948 -0.2097
 2530SOL     OW19051   1.973   0.544   7.718  0.1740 -0.5386  0.2756
 2530SOL    HW119052   1.911   0.604   7.677  0.9073  0.7439  1.0352
 2530SOL    HW219053   2.047   0.560   7.660 -0.6811  0.8190 -0.4343
 2531SOL     OW19054   3.503   1.309   4.893  0.0824  0.2322  0.1483
 2531SOL    HW119055   3.574   1.265   4.846  0.3530 -0.3247  1.0907
 2531SOL    HW219056   3.513   1.268   4.979  0.8418 -0.3246 -0.1975
 2532SOL     OW19057   2.998   1.729   0.105  0.0304  0.3855 -0.3916
 2532SOL    HW119058   2.988   1.660   0.039  1.2007  0.9523 -1.1712
 2532SOL    HW219059   2.923   1.785   0.090 -0.9258 -1.0096 -0.7897
 2533SOL     OW19060   4.436   3.301   9.143 -0.4308 -0.1844  0.0886
 2533SOL    HW119061   4.473   3.216   9.121  0.0456 -0.0635  0.4114
 2533SOL    HW219062   4.343   3.280   9.138 -1.0942  2.7350 -0.1404
 2534SOL     OW19063   2.107   2.248   6.764  0.4010  0.0438  0.0866
 2534SOL    HW119064   2.050   2.271   6.837  0.8118  0.5951  0.2356
 2534SOL    HW219065   2.044   2.265   6.694  0.9055  2.0294  0.1048
 2535SOL     OW19066   1.248   3.793   6.583 -0.2568 -0.8236  0.4281
 2535SOL    HW119067   1.212   3.880   6.601  4.2867  1.3577 -1.1978
 2535SOL    HW219068   1.195   3.742   6.645  0.4831 -1.4886  0.5196
 2536SOL     OW19069   0.813   3.521   0.614  0.0925 -0.3690 -0.1233
 2536SOL    HW119070   0.885   3.459   0.609  0.4724  0.1403 -0.9831
 2536SOL    HW219071   0.765   3.514   0.532 -0.5864  2.1080  0.0494
 2537SOL     OW19072   3.850   0.160  16.109 -0.7703  0.5940  0.6232
 2537SOL    HW119073   3.775   0.188  16.161 -0.6365 -1.0792  1.7037
 2537SOL    HW219074   3.907   0.235  16.126  1.1114 -0.7824  0.4436
 2538SOL     OW19075   0.123   2.168   8.574 -0.1192  0.4763 -0.8109
 2538SOL    HW119076   0.128   2.169   8.669  2.3467 -2.6103 -0.9063
 2538SOL    HW219077   0.043   2.216   8.552  0.9536  1.7354 -2.0155
 2539SOL     OW19078   0.900   2.715   7.085  0.5298  0.2167  0.0683
 2539SOL    HW119079   0.823   2.755   7.127  0.8449  0.5394  0.3403
 2539SOL    HW219080   0.953   2.792   7.065 -1.1876  1.9708  2.1545
 2540SOL     OW19081   2.315   4.146   3.550 -0.5308  0.0461  0.0796
 2540SOL    HW119082   2.361   4.104   3.478  1.0916  0.1133  1.0666
 2540SOL    HW219083   2.339   4.081   3.617 -1.3575 -0.2214  0.1115
 2541SOL     OW19084   2.227   3.560  11.667  0.2068 -0.2490 -0.5336
 2541SOL    HW119085   2.314   3.589  11.640  0.0144  1.5788  0.8123
 2541SOL    HW219086   2.199   3.536  11.579  1.2091  3.6184 -1.9092
 2542SOL     OW19087   2.699   1.329  15.934 -0.2652 -0.0514  0.3082
 2542SOL    HW119088   2.752   1.408  15.943 -0.3858 -0.1249  1.6687
 2542SOL    HW219089   2.748   1.264  15.985  0.1856 -1.1128 -1.4962
 2543SOL     OW19090   4.015   0.509  17.160  0.0187 -0.2617  0.3003
 2543SOL    HW119091   4.073   0.435  17.146 -0.2823 -0.6276  1.0035
 2543SOL    HW219092   3.946   0.492  17.095 -1.4277  1.0756  1.4726
 2544SOL     OW19093   0.841   2.114   0.659  0.2002  0.8469  0.0467
 2544SOL    HW119094   0.773   2.137   0.595  0.4163 -3.4749 -1.6904
 2544SOL    HW219095   0.883   2.199   0.670  0.5409  0.4552  1.7044
 2545SOL     OW19096   2.775   2.738   2.494  0.2022  0.0247  0.2083
 2545SOL    HW119097   2.773   2.646   2.519  0.7008  0.0340  0.2962
 2545SOL    HW219098   2.681   2.752   2.489  0.1651 -0.5707 -0.7598
 2546SOL     OW19099   4.384   2.271   3.126 -1.0389  0.6888 -0.1532
 2546SOL    HW119100   4.385   2.262   3.031 -0.6451 -1.0634  0.0058
 2546SOL    HW219101   4.460   2.218   3.151 -1.1213  0.2901 -0.7484
 2547SOL     OW19102   2.785   4.503   7.394 -0.1376  0.2457  0.2120
 2547SOL    HW119103   2.865   4.451   7.394  1.4848  2.7322 -1.6757
 2547SOL    HW219104   2.811   4.567   7.460  0.7943 -0.1005  0.1833
 2548SOL     OW19105   4.716   1.394   4.541 -0.4138  0.4399 -0.4619
 2548SOL    HW119106   4.645   1.444   4.499 -1.2358  0.3651  0.8493
 2548SOL    HW219107   0.077   1.441   4.508 -0.0429  0.7678  0.8790
 2549SOL     OW19108   4.353   1.977   6.067 -0.3612 -0.0713  0.7964
 2549SOL    HW119109   4.269   2.005   6.029  0.0443 -0.5760 -0.4780
 2549SOL    HW219110   4.396   1.951   5.985  1.2798  3.4283  0.5430
 2550SOL     OW19111   1.844   0.799  13.262 -0.7787 -0.2573 -0.0527
 2550SOL    HW119112   1.767   0.855  13.272  0.0553  1.2173 -1.7133
 2550SOL    HW219113   1.844   0.791  13.166  1.3478 -1.5705  0.0514
 2551SOL     OW19114   2.617   4.383  13.299  0.3560  0.3199 -0.6038
 2551SOL    HW119115   2.543   4.333  13.333 -1.5287  4.0479  0.8010
 2551SOL    HW219116   2.645   4.332  13.223 -0.1492  0.5717 -0.9636
 2552SOL     OW19117   2.749   2.670  15.605  0.6660 -0.0299 -0.1154
 2552SOL    HW119118   2.721   2.738  15.666 -0.0379 -1.8651  1.6035
 2552SOL    HW219119   2.821   2.716  15.561  0.8803 -0.9673 -0.7611
 2553SOL     OW19120   2.689   1.361  14.924  0.6441 -0.3894 -0.2222
 2553SOL    HW119121   2.637   1.318  14.856 -0.6442 -2.4735  2.0508
 2553SOL    HW219122   2.624   1.422  14.959 -0.4367 -2.1261  0.8465
 2554SOL     OW19123   3.536   3.239   7.827 -0.1843 -0.0149 -0.4340
 2554SOL    HW119124   3.580   3.157   7.850 -0.3963  0.4558  1.7282
 2554SOL    HW219125   3.494   3.262   7.911 -0.7069 -0.8133 -0.4740
 2555SOL     OW19126   4.451   4.620   7.993  0.2959  0.3147  0.1525
 2555SOL    HW119127   4.376   4.672   7.965 -1.0337 -0.4376  2.2832
 2555SOL    HW219128   4.466   4.572   7.911 -1.9158  2.9834 -1.8325
 2556SOL     OW19129   2.379   3.268   6.516 -0.1680  0.4474 -0.3427
 2556SOL    HW119130   2.290   3.252   6.547  0.0304  0.2661  0.1440
 2556SOL    HW219131   2.369   3.323   6.439  1.1968  0.4134 -0.5394
 2557SOL     OW19132   4.272   2.528  12.472  0.1076  0.2175  0.0773
 2557SOL    HW119133   4.201   2.591  12.461  0.3956 -0.1463 -3.8171
 2557SOL    HW219134   4.331   2.574  12.531  0.3219  2.4373 -1.8618
 2558SOL     OW19135   4.231   1.613   2.175 -0.2099  0.0794  0.2993
 2558SOL    HW119136   4.180   1.533   2.179 -0.5243  0.2638 -0.1831
 2558SOL    HW219137   4.181   1.664   2.239  2.1579  1.0128  1.4215
 2559SOL     OW19138   1.692   4.009   1.313  0.1470  0.3523  0.0753
 2559SOL    HW119139   1.780   4.047   1.319  0.5567 -0.2120 -2.2993
 2559SOL    HW219140   1.649   4.056   1.385 -1.4721 -0.0632 -0.6258
 2560SOL     OW19141   3.073   4.623   3.130  0.4495  0.2698  0.2737
 2560SOL    HW119142   3.125   4.671   3.194  0.3787  1.0564 -0.2607
 2560SOL    HW219143   3.135   4.598   3.062  0.3781  0.6802  0.0583
 2561SOL     OW19144   3.095   1.609   8.667  0.1652 -0.1999  0.2358
 2561SOL    HW119145   3.144   1.628   8.747  0.0944 -0.9618  0.4566
 2561SOL    HW219146   3.120   1.517   8.670 -0.0967 -0.2362  1.4772
 2562SOL     OW19147   3.973   3.150   4.498  0.3147  0.3074 -0.1714
 2562SOL    HW119148   3.894   3.196   4.528 -1.3656 -1.6631 -1.6551
 2562SOL    HW219149   4.038   3.210   4.536  0.1889 -0.4380  1.2458
 2563SOL     OW19150   2.246   2.330   0.978 -0.3986  0.4289  0.0895
 2563SOL    HW119151   2.259   2.236   0.990  1.2647  0.8271  1.3381
 2563SOL    HW219152   2.186   2.339   0.904 -0.4904  1.9650  0.3451
 2564SOL     OW19153   0.508   3.069   1.812 -0.2269 -0.3896  0.1813
 2564SOL    HW119154   0.426   3.111   1.837  0.4366  1.5428 -0.8017
 2564SOL    HW219155   0.478   3.011   1.742 -1.7658  2.2995 -1.4132
 2565SOL     OW19156   2.577   4.308  13.944 -0.1627  0.8854 -0.3992
 2565SOL    HW119157   2.612   4.357  13.870 -2.2140  0.8888 -1.3855
 2565SOL    HW219158   2.609   4.357  14.020 -1.0619  0.6576  0.1240
 2566SOL     OW19159   1.247   3.069   5.864 -0.0020  0.4463  0.7225
 2566SOL    HW119160   1.328   3.110   5.894  0.0094  1.5914 -0.8786
 2566SOL    HW219161   1.183   3.092   5.932 -0.9351  0.4582 -0.1679
 2567SOL     OW19162   0.986   3.956   7.018 -0.0715 -0.3894  0.2539
 2567SOL    HW119163   1.041   3.882   7.044  0.6511  0.4681  1.1572
 2567SOL    HW219164   1.047   4.029   7.027 -1.3071  0.4995  1.2781
 2568SOL     OW19165   4.687   0.418  15.818  0.4653  0.5025 -0.2279
 2568SOL    HW119166   4.621   0.488  15.818 -0.0690 -0.0160  2.6811
 2568SOL    HW219167   0.027   0.448  15.888  1.5710  0.9281 -1.3007
 2569SOL     OW19168   1.114   0.499  14.870  0.6570  0.1694 -0.4870
 2569SOL    HW119169   1.101   0.412  14.908  2.8001  0.6190  1.2564
 2569SOL    HW219170   1.033   0.541  14.899  0.9815  0.2011  0.3807
 2570SOL     OW19171   1.607   3.187  16.604  0.1763  0.2672 -0.1829
 2570SOL    HW119172   1.684   3.244  16.611  0.7755 -0.6812  0.9859
 2570SOL    HW219173   1.629   3.123  16.537 -0.0563 -0.1777  0.1609
 2571SOL     OW19174   2.988   0.288   2.781 -0.5524 -0.4535 -0.1664
 2571SOL    HW119175   3.004   0.267   2.873  0.4151  1.0051  0.0162
 2571SOL    HW219176   3.067   0.340   2.762  0.3996 -1.6536  0.5219
 2572SOL     OW19177   1.987   3.001   2.479 -0.1557 -0.3184 -0.2707
 2572SOL    HW119178   2.051   3.023   2.411  1.6905 -2.1200  0.8948
 2572SOL    HW219179   1.949   3.089   2.484 -0.2601 -0.3647 -0.2517
 2573SOL     OW19180   3.047   1.207   6.034  0.2832 -0.2130  0.0851
 2573SOL    HW119181   3.111   1.185   5.965  1.0796 -2.3311  1.5025
 2573SOL    HW219182   2.965   1.189   5.988  1.7557  0.9249 -2.9990
 2574SOL     OW19183   1.940   3.412   9.833 -0.1151  0.3026  0.0353
 2574SOL    HW119184   1.967   3.418   9.925 -0.7798 -1.6593  0.3608
 2574SOL    HW219185   1.949   3.501   9.800  2.9829  0.4785  1.2444
 2575SOL     OW19186   3.036   1.501  10.400 -0.1314  0.4884 -0.4075
 2575SOL    HW119187   2.991   1.421  10.427 -1.3808  0.9512 -1.0934
 2575SOL    HW219188   2.999   1.557  10.468  1.3051  0.5882  0.2759
 2576SOL     OW19189   3.617   1.496   6.441  0.0633  0.1031  0.1584
 2576SOL    HW119190   3.586   1.465   6.526  1.7063 -0.5387  0.5268
 2576SOL    HW219191   3.651   1.414   6.404 -2.6940 -0.1359 -1.8350
 2577SOL     OW19192   2.372   1.541   6.569 -0.4026 -0.4769 -0.3862
 2577SOL    HW119193   2.379   1.488   6.648 -0.5201 -2.2868 -1.5831
 2577SOL    HW219194   2.461   1.577   6.559 -1.0936  1.6183  1.0076
 2578SOL     OW19195   3.024   4.448  14.696 -0.0467  0.2954 -0.0789
 2578SOL    HW119196   2.933   4.476  14.684  0.3241  0.9430 -1.3628
 2578SOL    HW219197   3.002   4.392  14.770  0.8596 -0.9462 -0.7470
 2579SOL     OW19198   3.447   1.808  16.570 -0.6787 -0.4975  0.0447
 2579SOL    HW119199   3.352   1.818  16.574 -0.7893 -1.2302 -0.6711
 2579SOL    HW219200   3.464   1.899  16.594  0.7261 -0.2983 -1.7202
 2580SOL     OW19201   3.524   3.210   3.293 -0.2054 -0.6242 -0.5791
 2580SOL    HW119202   3.450   3.213   3.354  0.9118 -0.1111  0.7622
 2580SOL    HW219203   3.595   3.223   3.357 -0.8288  1.0261 -0.2186
 2581SOL     OW19204   2.249   4.518   4.975 -0.1094  0.1190 -0.2104
 2581SOL    HW119205   2.159   4.506   4.942  0.9402 -1.1513 -2.5998
 2581SOL    HW219206   2.228   4.529   5.068  0.5280  3.0508 -0.3985
 2582SOL     OW19207   3.491   2.950  14.977 -0.2296  0.3731 -0.1025
 2582SOL    HW119208   3.447   2.899  14.909  1.2772 -1.1282  0.0388
 2582SOL    HW219209   3.491   2.888  15.050 -0.2534  1.6469  0.9800
 2583SOL     OW19210   1.132   4.489   8.858  0.2730  0.1048 -0.6163
 2583SOL    HW119211   1.126   4.393   8.856  0.8028  0.0955 -1.9919
 2583SOL    HW219212   1.106   4.508   8.768  1.0978 -3.0858 -1.5605
 2584SOL     OW19213   1.374   3.436   6.519 -0.0915  0.2548  0.4014
 2584SOL    HW119214   1.284   3.456   6.495 -0.1793  0.4401  0.8831
 2584SOL    HW219215   1.364   3.395   6.605  1.2187 -0.5093  0.1858
 2585SOL     OW19216   2.566   1.978   2.746  0.2497  0.2285 -0.2571
 2585SOL    HW119217   2.566   2.023   2.662 -1.3730  2.3296  0.8692
 2585SOL    HW219218   2.572   1.887   2.717  0.6471 -0.1302  0.9377
 2586SOL     OW19219   1.745   0.312   2.762 -0.4136 -0.7366 -0.1547
 2586SOL    HW119220   1.716   0.402   2.746  1.0010 -0.2377  0.0766
 2586SOL    HW219221   1.827   0.309   2.714  0.4289  0.3547  1.1973
 2587SOL     OW19222   4.366   0.319  11.083 -0.3857 -0.1383 -0.8600
 2587SOL    HW119223   4.301   0.342  11.017 -0.5332 -1.2041 -1.0840
 2587SOL    HW219224   4.446   0.318  11.030 -0.2914  0.6872 -0.7397
 2588SOL     OW19225   1.597   4.490   6.243  0.0400  0.1486 -0.7532
 2588SOL    HW119226   1.558   4.408   6.274  2.3318 -0.5145  0.3594
 2588SOL    HW219227   1.531   4.512   6.177 -1.1740  1.6985  0.9594
 2589SOL     OW19228   1.458   2.374   8.439 -0.1084  0.0862 -0.1066
 2589SOL    HW119229   1.478   2.338   8.526  3.5548  0.5736 -0.7111
 2589SOL    HW219230   1.396   2.445   8.453  1.8182  2.0284 -1.3916
 2590SOL     OW19231   4.591   4.344  16.383  0.1187 -0.0974 -0.6199
 2590SOL    HW119232   4.665   4.337  16.443 -0.4322  0.9557  0.1868
 2590SOL    HW219233   4.515   4.350  16.442 -0.2619  2.1684 -1.3526
 2591SOL     OW19234   3.442   2.908   9.416  0.4757 -0.1070 -0.0144
 2591SOL    HW119235   3.533   2.938   9.423  0.7305 -0.5230 -1.6672
 2591SOL    HW219236   3.396   2.992   9.416 -0.7261 -0.7585 -2.0935
 2592SOL     OW19237   3.483   2.961   8.301 -0.3748 -0.1158 -0.1658
 2592SOL    HW119238   3.498   3.034   8.241 -0.6003 -0.3739 -0.5270
 2592SOL    HW219239   3.567   2.920   8.322 -0.7902  0.6519  2.9629
 2593SOL     OW19240   3.706   1.725   4.547 -0.3922  0.2319 -0.6004
 2593SOL    HW119241   3.628   1.703   4.599  1.5713 -1.0948  1.7792
 2593SOL    HW219242   3.764   1.742   4.622 -0.7842 -0.1985 -0.1978
 2594SOL     OW19243   0.073   2.799  16.598  0.3056  0.7292 -0.6120
 2594SOL    HW119244   0.066   2.833  16.687 -0.9005  0.2913 -0.5467
 2594SOL    HW219245   0.042   2.709  16.601  0.8802  0.4784 -2.3351
 2595SOL     OW19246   0.736   0.966  14.946  0.1609  0.6322  0.2882
 2595SOL    HW119247   0.766   0.920  15.024  0.6627  0.5990  0.0808
 2595SOL    HW219248   0.659   0.919  14.914 -0.3128  0.5123  1.6350
 2596SOL     OW19249   1.481   1.496   6.183  0.4450  0.2031  0.1442
 2596SOL    HW119250   1.574   1.478   6.175  0.3015 -0.7323  0.6187
 2596SOL    HW219251   1.451   1.423   6.237 -0.8194  1.9438  1.8146
 2597SOL     OW19252   0.474   0.961  14.790 -1.1425  0.2398 -0.7137
 2597SOL    HW119253   0.434   1.017  14.856 -0.3435  1.2758 -1.1208
 2597SOL    HW219254   0.401   0.963  14.729  0.8049 -0.0924 -3.0428
 2598SOL     OW19255   3.965   3.595   6.332  0.1375 -0.2916  0.0820
 2598SOL    HW119256   4.051   3.566   6.362  0.5587  0.2194 -0.6445
 2598SOL    HW219257   3.983   3.676   6.285  3.2684 -1.0726 -0.0858
 2599SOL     OW19258   0.862   2.819   5.079 -0.1155  0.1371 -0.3133
 2599SOL    HW119259   0.951   2.801   5.048 -0.1572 -0.9607  0.1795
 2599SOL    HW219260   0.852   2.913   5.087  1.4127  0.1608  1.3440
 2600SOL     OW19261   2.439   2.964   5.837 -0.4693 -0.5077 -0.3075
 2600SOL    HW119262   2.475   3.043   5.798  1.0990 -1.0548  0.0290
 2600SOL    HW219263   2.418   2.997   5.924 -0.3259 -0.4237 -0.3050
 2601SOL     OW19264   0.467   4.234   7.165 -0.0969 -0.1496  0.1977
 2601SOL    HW119265   0.405   4.186   7.110 -1.9176  1.2239  1.0225
 2601SOL    HW219266   0.412   4.299   7.209  1.7289  0.5089  1.5024
 2602SOL     OW19267   1.756   1.587   7.811 -0.3858 -0.3482  0.0530
 2602SOL    HW119268   1.817   1.644   7.856 -1.9435  0.5802  0.9861
 2602SOL    HW219269   1.667   1.611   7.836 -0.8774 -1.6680 -0.3882
 2603SOL     OW19270   1.733   4.373   7.584 -0.4346  0.2808  0.2391
 2603SOL    HW119271   1.697   4.286   7.603  1.0906 -0.2911  0.5401
 2603SOL    HW219272   1.828   4.358   7.584 -0.2418  1.4841 -0.7745
 2604SOL     OW19273   2.423   3.767  15.293  0.4353  0.0565  0.1343
 2604SOL    HW119274   2.348   3.728  15.337  1.0772 -0.6046  0.6509
 2604SOL    HW219275   2.482   3.766  15.368  0.2623  0.2682  0.2733
 2605SOL     OW19276   1.076   0.309   3.848  0.0890  0.1932 -0.3199
 2605SOL    HW119277   1.162   0.280   3.880  0.1941  0.7091 -0.1288
 2605SOL    HW219278   1.070   0.271   3.761 -1.4819  0.2906 -0.2529
 2606SOL     OW19279   3.596   1.717   9.295  0.0646 -0.3071 -0.5334
 2606SOL    HW119280   3.603   1.753   9.384 -2.1724 -1.0365 -0.0486
 2606SOL    HW219281   3.685   1.683   9.295 -0.1664 -0.8849 -1.6112
 2607SOL     OW19282   3.531   1.125   1.969 -0.3689 -0.5420 -0.1126
 2607SOL    HW119283   3.547   1.104   2.062  1.0191  0.5091 -0.1212
 2607SOL    HW219284   3.582   1.055   1.928 -3.6975 -1.2319 -3.0128
 2608SOL     OW19285   3.407   0.820   3.508 -0.1221 -0.3326 -0.2788
 2608SOL    HW119286   3.366   0.890   3.456  1.3064 -0.5076 -1.6277
 2608SOL    HW219287   3.454   0.769   3.442 -1.3894 -0.6192 -0.9648
 2609SOL     OW19288   0.205   2.231  14.982  0.5035  0.4228 -0.3287
 2609SOL    HW119289   0.116   2.238  15.015  0.7540 -0.3317  0.5022
 2609SOL    HW219290   0.235   2.322  14.984  4.8983 -1.0621  1.5134
 2610SOL     OW19291   2.534   4.108   2.848  0.6698  0.5914  0.0914
 2610SOL    HW119292   2.562   4.042   2.912  0.5988  1.7514  1.3297
 2610SOL    HW219293   2.440   4.090   2.851  0.9899 -1.2675 -1.5439
 2611SOL     OW19294   0.688   1.489   4.612  0.0242  0.1562  0.0835
 2611SOL    HW119295   0.675   1.528   4.526 -0.3914 -0.1724 -0.0038
 2611SOL    HW219296   0.754   1.426   4.582 -0.5357 -0.9597  1.1816
 2612SOL     OW19297   3.769   3.517   2.316  0.2649  0.0876  0.2994
 2612SOL    HW119298   3.753   3.533   2.223 -1.7878  0.9340  0.8051
 2612SOL    HW219299   3.856   3.556   2.327  0.0420 -0.0274  2.3911
 2613SOL     OW19300   4.160   1.382  15.899 -0.1860 -0.5307  0.3190
 2613SOL    HW119301   4.175   1.288  15.900 -0.2400 -0.5348  1.1599
 2613SOL    HW219302   4.093   1.387  15.967  0.9090 -1.0744  1.4427
 2614SOL     OW19303   3.779   3.489   5.607 -0.2204 -0.2991  0.0897
 2614SOL    HW119304   3.831   3.471   5.685 -0.5392  0.3180  0.4461
 2614SOL    HW219305   3.840   3.474   5.535 -0.2473  0.8073 -0.1635
 2615SOL     OW19306   2.792   0.810  15.792 -0.1238  0.3215 -0.1290
 2615SOL    HW119307   2.887   0.803  15.801 -0.2467 -0.7419  0.3700
 2615SOL    HW219308   2.773   0.734  15.737  0.8785  1.0823 -1.5143
 2616SOL     OW19309   4.667   4.228   6.179 -0.1984 -0.2284 -0.2164
 2616SOL    HW119310   0.029   4.186   6.215  0.4152  0.6724 -0.5213
 2616SOL    HW219311   4.613   4.149   6.189 -1.1725  0.4585 -0.0929
 2617SOL     OW19312   4.310   0.309   2.390  0.0173  0.1888 -0.1040
 2617SOL    HW119313   4.337   0.377   2.452  0.5472 -1.4175  1.4149
 2617SOL    HW219314   4.264   0.368   2.330 -0.5541  0.3626  0.5058
 2618SOL     OW19315   3.955   2.169  12.620  0.7243 -0.4547  0.2648
 2618SOL    HW119316   4.035   2.216  12.593 -1.2231  2.5807 -0.2431
 2618SOL    HW219317   3.897   2.245  12.627  2.2494  0.6321  1.2034
 2619SOL     OW19318   1.972   0.852   3.716 -0.0283 -0.3062  0.5712
 2619SOL    HW119319   2.050   0.846   3.772 -1.2331 -1.9443  2.0553
 2619SOL    HW219320   1.905   0.816   3.773 -2.5355  2.6707 -0.5198
 2620SOL     OW19321   0.355   0.563  10.065  0.3037  0.8428  0.4965
 2620SOL    HW119322   0.265   0.546  10.037  1.7122 -1.1148 -2.9236
 2620SOL    HW219323   0.373   0.632  10.001  0.8974 -0.3946 -0.6689
 2621SOL     OW19324   3.488   2.484   5.492  0.1717 -0.3362  0.1229
 2621SOL    HW119325   3.519   2.495   5.402 -0.2593  0.0415  0.0223
 2621SOL    HW219326   3.567   2.473   5.544 -0.0072 -2.6448 -0.0708
 2622SOL     OW19327   1.910   0.756   5.564 -0.2402 -0.0003 -0.1315
 2622SOL    HW119328   1.876   0.843   5.544 -2.5556 -0.8610  0.0891
 2622SOL    HW219329   1.945   0.710   5.487 -1.0871  0.6550 -0.8986
 2623SOL     OW19330   2.177   0.174   6.992 -0.3554  0.1714 -0.2716
 2623SOL    HW119331   2.268   0.148   6.992  0.2643  2.2993  1.4008
 2623SOL    HW219332   2.140   0.148   7.077  2.0491  1.6274  1.2040
 2624SOL     OW19333   3.637   3.153   6.103  0.1198  0.3154 -0.1119
 2624SOL    HW119334   3.610   3.216   6.170 -5.0751 -2.0116 -0.0639
 2624SOL    HW219335   3.732   3.164   6.104  0.3218 -1.4031 -0.2647
 2625SOL     OW19336   1.300   3.267   7.461 -0.3508  0.3283 -0.1793
 2625SOL    HW119337   1.279   3.188   7.412 -2.1417 -0.9323  2.5799
 2625SOL    HW219338   1.324   3.228   7.545  0.2322  2.1058  0.4795
 2626SOL     OW19339   4.400   3.899   8.426  0.1953  0.0265 -0.9347
 2626SOL    HW119340   4.440   3.986   8.423 -2.2132  1.0930 -2.1414
 2626SOL    HW219341   4.478   3.852   8.452  0.8079  1.1298 -0.7566
 2627SOL     OW19342   0.914   3.311   7.657 -0.0135  0.2635 -0.0055
 2627SOL    HW119343   0.871   3.249   7.716  1.4159 -1.7128 -1.0477
 2627SOL    HW219344   0.937   3.252   7.584 -0.4909  0.5834 -0.4199
 2628SOL     OW19345   1.745   3.722   6.686  0.0026 -0.0064 -0.3177
 2628SOL    HW119346   1.801   3.702   6.762  1.5484 -1.2117 -1.7584
 2628SOL    HW219347   1.740   3.816   6.700 -1.4050 -0.3484  1.4720
 2629SOL     OW19348   2.846   0.641   2.093  0.6337 -0.2004 -0.3156
 2629SOL    HW119349   2.812   0.686   2.016  1.8906 -0.3715 -0.9702
 2629SOL    HW219350   2.763   0.614   2.134  1.2713  0.2446  1.2766
 2630SOL     OW19351   0.548   2.394   6.560 -0.0912  0.2870  0.2340
 2630SOL    HW119352   0.621   2.409   6.499  1.1677 -1.0660  1.4307
 2630SOL    HW219353   0.579   2.337   6.629  0.0120 -1.2349 -1.0745
 2631SOL     OW19354   2.099   3.863  17.540 -0.5832 -0.2276 -0.6757
 2631SOL    HW119355   2.078   3.779  17.581 -1.0147  0.8564  1.2949
 2631SOL    HW219356   2.046   3.918  17.598 -1.6254  0.1860 -2.0026
 2632SOL     OW19357   2.260   3.851  12.463  0.0937  0.2390  0.8486
 2632SOL    HW119358   2.192   3.897  12.513 -1.0506  0.6725 -1.0954
 2632SOL    HW219359   2.238   3.765  12.499 -0.9913 -0.3259 -1.1609
 2633SOL     OW19360   1.575   0.059   4.410 -0.5659  0.2933  0.2366
 2633SOL    HW119361   1.618   0.018   4.335  0.5351  2.4249 -0.3078
 2633SOL    HW219362   1.483   0.054   4.385 -0.6359  0.2544  0.4980
 2634SOL     OW19363   0.433   0.370   2.781 -0.1804 -0.7848  0.0440
 2634SOL    HW119364   0.379   0.382   2.703  2.7064 -0.1665 -1.8556
 2634SOL    HW219365   0.521   0.380   2.745 -0.1189  0.7672  0.6071
 2635SOL     OW19366   2.316   3.453   3.212  0.1190 -0.0413  0.0165
 2635SOL    HW119367   2.296   3.362   3.189  1.6684 -0.4376  0.2005
 2635SOL    HW219368   2.308   3.506   3.132  1.8641  1.2346  0.6863
 2636SOL     OW19369   0.635   4.675   7.423 -0.0661 -0.3311 -0.1807
 2636SOL    HW119370   0.689   4.625   7.485  0.1454  0.9785  0.6714
 2636SOL    HW219371   0.563   4.709   7.475  1.6743  0.2744  1.8061
 2637SOL     OW19372   2.973   0.459  12.049  0.0906 -0.7710  0.0871
 2637SOL    HW119373   2.941   0.442  12.137  0.3567 -0.7237  0.1924
 2637SOL    HW219374   2.969   0.554  12.049 -2.8501 -0.8859 -0.5710
 2638SOL     OW19375   1.059   2.084   0.199 -0.4122 -0.1101  0.3784
 2638SOL    HW119376   0.996   2.156   0.202  1.4806  1.6863 -2.1675
 2638SOL    HW219377   1.012   2.006   0.226 -1.1235 -0.6531 -2.4256
 2639SOL     OW19378   2.209   1.416   5.373  0.4145 -0.0849 -0.6813
 2639SOL    HW119379   2.201   1.506   5.339  0.5109  0.5328  0.9140
 2639SOL    HW219380   2.145   1.417   5.444  0.5143  1.6412 -0.5995
 2640SOL     OW19381   2.623   0.973   3.358 -0.1765  1.0263  0.2478
 2640SOL    HW119382   2.577   0.893   3.381 -2.9014  2.6078  0.2300
 2640SOL    HW219383   2.571   1.038   3.406 -0.9809 -0.8693  1.9198
 2641SOL     OW19384   1.905   4.055   2.850 -0.3211  0.3677  0.0969
 2641SOL    HW119385   1.893   4.019   2.762 -1.1105 -0.2208  0.4371
 2641SOL    HW219386   1.965   4.127   2.832  0.9954 -0.1723  2.3984
 2642SOL     OW19387   2.904   2.793   5.351  0.1968 -0.5155  0.2415
 2642SOL    HW119388   2.895   2.818   5.259 -1.2075  0.8908  0.7419
 2642SOL    HW219389   2.829   2.735   5.364 -0.6464  0.1294 -1.5782
 2643SOL     OW19390   2.549   0.048   5.072  0.3672 -0.4114  0.1510
 2643SOL    HW119391   2.466   0.091   5.094 -0.2759 -2.3398  1.4546
 2643SOL    HW219392   2.525   0.001   4.992  0.8742  1.1534 -0.9375
 2644SOL     OW19393   0.855   0.709  12.067  0.0636  0.3111  0.7223
 2644SOL    HW119394   0.833   0.698  11.974 -2.1569  3.1061  0.9019
 2644SOL    HW219395   0.881   0.625  12.104 -0.3871  0.5465  1.5712
 2645SOL     OW19396   3.266   1.588   0.501  0.2028 -0.3552 -0.1221
 2645SOL    HW119397   3.276   1.623   0.590 -0.8113  0.1490 -0.2014
 2645SOL    HW219398   3.354   1.564   0.471  2.0799  1.8437  3.4712
 2646SOL     OW19399   3.852   3.462  17.547 -0.1392 -0.3579 -0.4069
 2646SOL    HW119400   3.938   3.498  17.568 -0.4162  2.2004 -3.6789
 2646SOL    HW219401   3.832   3.537  17.491 -1.4736  0.2836  0.9156
 2647SOL     OW19402   3.056   2.255   5.575 -0.8139  0.3138 -0.3007
 2647SOL    HW119403   3.009   2.325   5.620 -1.2290  0.1701 -0.5083
 2647SOL    HW219404   3.003   2.179   5.595 -1.1986  0.1974 -1.7517
 2648SOL     OW19405   3.347   0.905   7.526 -0.0137 -0.1172 -0.0525
 2648SOL    HW119406   3.364   0.830   7.582  2.6260  0.0003 -0.7036
 2648SOL    HW219407   3.423   0.890   7.470  1.4478 -0.3394  2.0066
 2649SOL     OW19408   3.001   1.995   5.363 -0.1038 -0.3683 -0.2339
 2649SOL    HW119409   2.977   2.082   5.331  3.2461  0.6985  0.1356
 2649SOL    HW219410   3.057   1.958   5.295 -0.2899 -0.5268 -0.3012
 2650SOL     OW19411   4.104   2.794   5.621 -0.0623 -0.5793 -0.0665
 2650SOL    HW119412   4.057   2.765   5.700  0.5920 -1.6656 -0.0688
 2650SOL    HW219413   4.049   2.766   5.547 -1.1154  1.2015  0.0517
 2651SOL     OW19414   1.139   2.354   0.025 -0.1079  0.4342  0.0664
 2651SOL    HW119415   1.108   2.432   0.071 -0.0519  0.9359 -0.7445
 2651SOL    HW219416   1.209   2.314   0.077 -1.9146 -1.5453  0.9594
 2652SOL     OW19417   1.037   0.775  16.388 -0.1955 -0.3855 -0.9630
 2652SOL    HW119418   0.956   0.726  16.404  0.6670 -1.6559 -0.5072
 2652SOL    HW219419   1.063   0.781  16.480  1.3028 -1.5519 -1.3083
 2653SOL     OW19420   4.237   2.574   5.530 -0.2688 -0.8627  0.2346
 2653SOL    HW119421   4.200   2.632   5.597 -0.5306  0.2536 -0.8697
 2653SOL    HW219422   4.278   2.647   5.482  0.1634 -1.1899  0.1096
 2654SOL     OW19423   4.433   4.685   3.296 -0.7395  0.0110 -0.1250
 2654SOL    HW119424   4.520   4.668   3.331 -0.3786  1.2004 -0.4437
 2654SOL    HW219425   4.449   4.709   3.204  1.2280  2.7575  0.9337
 2655SOL     OW19426   4.311   1.217   3.082  0.2109  0.6053 -0.1003
 2655SOL    HW119427   4.253   1.224   3.007  0.1067  1.2136  0.0395
 2655SOL    HW219428   4.334   1.309   3.092 -1.4124  1.0598 -0.6800
 2656SOL     OW19429   2.082   2.070  11.136 -0.2645  0.0461 -0.0720
 2656SOL    HW119430   2.091   2.156  11.095  0.5211 -0.1106 -0.2243
 2656SOL    HW219431   2.171   2.039  11.118 -0.9663 -0.8390 -1.9799
 2657SOL     OW19432   2.035   1.654  12.716  0.1625 -0.6275  0.4391
 2657SOL    HW119433   1.969   1.723  12.705  1.9276  1.1554  0.9345
 2657SOL    HW219434   2.075   1.660  12.629  1.2158 -0.5803  0.9387
 2658SOL     OW19435   1.681   4.583   8.300  0.0999 -0.5223 -0.9583
 2658SOL    HW119436   1.761   4.625   8.269  1.2054 -1.1774  0.9954
 2658SOL    HW219437   1.713   4.511   8.354 -0.7356 -0.3083 -0.1737
 2659SOL     OW19438   0.939   0.059   7.696 -0.4269  0.2458  0.2614
 2659SOL    HW119439   0.968   0.004   7.769  0.4823 -0.5255 -0.6782
 2659SOL    HW219440   0.875   4.712   7.664 -1.0928  1.6173 -1.0956
 2660SOL     OW19441   2.844   4.041  10.888 -0.2226  0.0061 -0.2017
 2660SOL    HW119442   2.924   4.032  10.835  0.0021 -0.1308  0.1599
 2660SOL    HW219443   2.823   4.130  10.861 -0.3287 -0.7862 -2.6653
 2661SOL     OW19444   0.275   0.555   1.562  0.2967  0.3386  0.1189
 2661SOL    HW119445   0.337   0.603   1.506  2.3070  0.1528  2.1954
 2661SOL    HW219446   0.260   0.473   1.516 -0.1333 -0.5598  1.8765
 2662SOL     OW19447   3.909   0.140   5.494 -0.0986 -0.0552  0.1015
 2662SOL    HW119448   3.912   0.086   5.415 -1.0633  2.1082 -1.4302
 2662SOL    HW219449   3.902   0.069   5.558 -0.0250  0.3930  0.6050
 2663SOL     OW19450   1.419   4.626  11.633  0.0760  0.0251  0.6442
 2663SOL    HW119451   1.407   4.603  11.540 -0.0185  2.3195  0.0807
 2663SOL    HW219452   1.458   4.546  11.668  0.2860 -0.4146 -0.5849
 2664SOL     OW19453   1.030   3.337  14.759  0.8479  0.0080 -0.1043
 2664SOL    HW119454   1.029   3.288  14.841 -2.3201  0.5687  0.2042
 2664SOL    HW219455   1.072   3.278  14.697  1.9888 -0.0396  0.7019
 2665SOL     OW19456   3.613   1.382   7.064 -0.0078 -0.1205 -0.0289
 2665SOL    HW119457   3.677   1.433   7.114  0.5220  1.3988 -2.2711
 2665SOL    HW219458   3.659   1.327   7.001 -1.6902  0.4726 -1.7742
 2666SOL     OW19459   0.581   2.253  14.256 -0.1864  0.3115  0.0125
 2666SOL    HW119460   0.643   2.322  14.283  0.1596  0.0793 -0.1893
 2666SOL    HW219461   0.564   2.209  14.339 -1.0601 -1.1880 -0.9818
 2667SOL     OW19462   0.290   2.342   6.075  0.3281 -0.0745 -1.0209
 2667SOL    HW119463   0.375   2.321   6.113 -0.5477 -0.6518  0.5982
 2667SOL    HW219464   0.227   2.329   6.146  0.8398 -0.3558 -0.6189
 2668SOL     OW19465   0.557   1.419   7.981 -0.0326  0.1941 -0.1375
 2668SOL    HW119466   0.577   1.507   7.949  0.4422  0.4944  0.9813
 2668SOL    HW219467   0.644   1.381   7.984 -1.0670 -1.9457  2.2584
 2669SOL     OW19468   4.329   4.592   1.177  0.6230 -0.0819 -0.0329
 2669SOL    HW119469   4.279   4.654   1.124  0.1956 -0.8250 -0.5117
 2669SOL    HW219470   4.351   4.526   1.112  2.9411  2.2691 -1.6207
 2670SOL     OW19471   3.510   1.410  16.263  0.5772 -0.6385 -0.0567
 2670SOL    HW119472   3.447   1.393  16.333  0.5963 -0.5082 -0.0057
 2670SOL    HW219473   3.521   1.324  16.224 -0.1885 -0.4606 -0.6661
 2671SOL     OW19474   0.271   1.786   6.080 -0.4285  0.5427  0.0711
 2671SOL    HW119475   0.312   1.851   6.023  1.3771 -0.8253 -0.1945
 2671SOL    HW219476   0.197   1.829   6.122 -0.5851  0.9095 -0.5732
 2672SOL     OW19477   4.090   1.808   4.490 -0.2690  0.4938 -0.2459
 2672SOL    HW119478   4.003   1.849   4.491 -0.5272 -0.0626 -0.2408
 2672SOL    HW219479   4.088   1.736   4.427 -0.3521  0.0993  0.2108
 2673SOL     OW19480   3.250   1.280  16.892  0.2437 -0.4147  0.1116
 2673SOL    HW119481   3.240   1.190  16.922  2.6206 -1.2881 -1.7661
 2673SOL    HW219482   3.345   1.277  16.880  0.3967 -0.3094  1.2245
 2674SOL     OW19483   3.845   4.079  10.696 -0.1990  0.0660  0.5107
 2674SOL    HW119484   3.898   4.000  10.702  0.3643  0.3858 -0.2184
 2674SOL    HW219485   3.771   4.047  10.645  0.4630  0.9153 -0.9940
 2675SOL     OW19486   0.643   2.877   7.649  0.3555  0.2669 -0.1114
 2675SOL    HW119487   0.563   2.928   7.662  2.3670  3.1817  0.6188
 2675SOL    HW219488   0.627   2.799   7.704 -0.0054  0.7747  0.5129
 2676SOL     OW19489   1.941   1.313   8.768 -0.0269 -0.0511 -0.3290
 2676SOL    HW119490   1.884   1.339   8.695  1.2364  1.5605 -0.7283
 2676SOL    HW219491   2.019   1.286   8.721  1.3007  0.4716  1.5814
 2677SOL     OW19492   0.703   4.150   7.704 -0.2485 -0.0833  0.3643
 2677SOL    HW119493   0.742   4.077   7.752  3.4269  1.8034  0.2882
 2677SOL    HW219494   0.773   4.215   7.717  0.9310 -0.9273 -1.6651
 2678SOL     OW19495   4.379   4.172  17.663 -1.0679 -0.5003 -0.1548
 2678SOL    HW119496   4.288   4.199   0.012 -0.9099  0.1506 -0.3077
 2678SOL    HW219497   4.419   4.202   0.075 -3.8291  2.2725  0.1855
 2679SOL     OW19498   0.240   0.793  16.994  0.5439  0.1260  0.2219
 2679SOL    HW119499   0.303   0.864  16.983  0.2170  0.0836 -1.9225
 2679SOL    HW219500   0.280   0.726  17.050  1.2814 -2.2895 -3.2100
 2680SOL     OW19501   3.361   1.128   4.574 -0.2024 -0.0346  0.4052
 2680SOL    HW119502   3.284   1.181   4.594 -0.6994 -0.9806  0.9757
 2680SOL    HW219503   3.419   1.200   4.548 -0.4273  0.1266  0.3541
 2681SOL     OW19504   2.609   0.340   8.708  0.2968 -0.2654  0.1546
 2681SOL    HW119505   2.652   0.266   8.750  1.9924 -0.8325 -2.5235
 2681SOL    HW219506   2.664   0.355   8.631 -0.2249  2.5665  0.3402
 2682SOL     OW19507   3.135   1.464  16.657 -0.2309 -0.3433  0.3286
 2682SOL    HW119508   3.114   1.456  16.750  0.8079  0.1309  0.6055
 2682SOL    HW219509   3.226   1.491  16.674 -0.4815  1.0011 -0.4427
 2683SOL     OW19510   4.031   4.498   2.994 -0.5342 -0.0742  0.0375
 2683SOL    HW119511   4.058   4.517   3.084  3.5916 -0.2392 -1.1425
 2683SOL    HW219512   4.091   4.426   2.973 -0.4400  0.3366 -1.1149
 2684SOL     OW19513   1.214   4.228   1.081 -0.1950 -0.4232  0.1837
 2684SOL    HW119514   1.241   4.312   1.044 -1.9379 -0.5309 -1.3071
 2684SOL    HW219515   1.165   4.261   1.156 -0.7288 -0.3515 -0.1944
 2685SOL     OW19516   1.492   3.918   2.505  0.1057  0.4257  0.3136
 2685SOL    HW119517   1.567   3.860   2.506  0.3916  0.8061  0.8112
 2685SOL    HW219518   1.482   3.947   2.595  1.9862  1.6561  0.1113
 2686SOL     OW19519   3.989   2.377   3.788  0.0775  0.1352  0.1725
 2686SOL    HW119520   4.063   2.435   3.769  2.1622 -1.8158  2.3084
 2686SOL    HW219521   3.921   2.407   3.729 -0.3642  0.4754  0.8502
 2687SOL     OW19522   0.852   0.434   7.875  0.1609 -0.5697 -0.4814
 2687SOL    HW119523   0.826   0.489   7.949 -0.7638 -1.0504 -0.4609
 2687SOL    HW219524   0.880   0.504   7.816 -1.1072  0.3323 -0.0055
 2688SOL     OW19525   3.574   1.718  15.900  0.4825  0.1965 -0.3674
 2688SOL    HW119526   3.516   1.686  15.969  0.3603  2.3160  0.4859
 2688SOL    HW219527   3.530   1.799  15.874 -1.9295 -0.3336  2.0842
 2689SOL     OW19528   1.191   0.082   8.690 -0.2717 -0.3832 -0.1950
 2689SOL    HW119529   1.097   0.064   8.690 -0.1485 -0.9621  1.3849
 2689SOL    HW219530   1.238   0.019   8.744 -0.1942 -0.6518 -0.5783
 2690SOL     OW19531   2.239   0.451  17.401  0.2600 -0.0695 -0.0615
 2690SOL    HW119532   2.151   0.482  17.381  1.1562  1.4182 -1.6727
 2690SOL    HW219533   2.221   0.357  17.391  1.9455 -0.5115  1.2848
 2691SOL     OW19534   1.713   1.452  12.227  0.1791 -0.0086 -0.1244
 2691SOL    HW119535   1.664   1.393  12.170 -3.1479 -0.7827  3.4948
 2691SOL    HW219536   1.793   1.400  12.236 -0.2362 -0.6645 -0.2524
 2692SOL     OW19537   4.226   3.499   5.767  0.4971  0.4033 -0.1336
 2692SOL    HW119538   4.199   3.451   5.846  0.4406 -0.4058 -0.6428
 2692SOL    HW219539   4.264   3.429   5.713 -1.0804  0.6518 -1.5373
 2693SOL     OW19540   2.907   2.686   9.583  0.0901 -0.5431  0.6927
 2693SOL    HW119541   2.937   2.596   9.598  0.9316 -0.4003 -0.1462
 2693SOL    HW219542   2.853   2.666   9.507  2.1536 -0.0480 -0.8998
 2694SOL     OW19543   3.319   0.742   5.450  0.0833  0.1487  0.3666
 2694SOL    HW119544   3.297   0.649   5.448 -0.3131  0.1923  2.2462
 2694SOL    HW219545   3.254   0.796   5.404  0.6720 -1.7921 -2.7239
 2695SOL     OW19546   3.639   0.633   3.010  0.3777  0.5260 -0.1321
 2695SOL    HW119547   3.569   0.634   3.075  1.3193  1.5466  0.8663
 2695SOL    HW219548   3.717   0.616   3.063 -0.8716 -1.1344  1.2029
 2696SOL     OW19549   1.526   2.647   7.782  0.1362  0.0618  0.0091
 2696SOL    HW119550   1.442   2.691   7.792 -0.8745 -1.5112 -1.7881
 2696SOL    HW219551   1.532   2.607   7.869 -0.5885  0.3660  0.1923
 2697SOL     OW19552   1.063   4.331  14.229 -0.2546 -0.6032 -0.1414
 2697SOL    HW119553   1.055   4.402  14.293  0.4473 -0.1366 -0.5674
 2697SOL    HW219554   0.994   4.345  14.165  1.1865 -2.4330 -2.0872
 2698SOL     OW19555   0.389   2.327   3.806 -0.6660  0.1298 -0.4316
 2698SOL    HW119556   0.458   2.261   3.811 -1.4837 -0.8123 -1.3998
 2698SOL    HW219557   0.311   2.277   3.784 -1.5761  1.9248 -1.3039
 2699SOL     OW19558   2.786   1.176   6.198  0.1588  0.6234 -0.5720
 2699SOL    HW119559   2.812   1.135   6.116  0.3436  0.0457 -0.2219
 2699SOL    HW219560   2.712   1.119   6.219  0.0684  1.7658  2.3487
 2700SOL     OW19561   1.951   1.691  16.085  0.5442  0.4225  0.0749
 2700SOL    HW119562   1.930   1.653  16.170 -0.1299  0.3225 -0.1350
 2700SOL    HW219563   2.017   1.630  16.053  0.7397  1.5301 -1.6241
 2701SOL     OW19564   3.753   1.137  16.105  0.3512 -0.4261 -0.2233
 2701SOL    HW119565   3.781   1.045  16.108 -0.9514 -0.7815  1.5261
 2701SOL    HW219566   3.818   1.175  16.046 -1.1823 -0.5262 -2.0042
 2702SOL     OW19567   1.668   2.882  16.186 -0.0290 -0.2454 -0.2507
 2702SOL    HW119568   1.600   2.823  16.153  0.5463 -0.5715 -0.8629
 2702SOL    HW219569   1.710   2.913  16.105  0.9839  0.5944  0.5987
 2703SOL     OW19570   3.943   2.099   2.050  0.5919  0.0411  0.3186
 2703SOL    HW119571   3.936   2.173   1.990  0.2120  1.0879  1.6401
 2703SOL    HW219572   4.037   2.080   2.046  0.4166 -0.5908 -0.8404
 2704SOL     OW19573   2.111   4.269  17.410  0.5476 -0.2101  0.1865
 2704SOL    HW119574   2.088   4.324  17.336 -4.0045  0.1873  1.8725
 2704SOL    HW219575   2.022   4.248  17.439 -0.1717 -0.7154 -2.4142
 2705SOL     OW19576   2.241   0.774   7.830  0.6575 -0.3445 -0.0591
 2705SOL    HW119577   2.182   0.831   7.880  0.7146  0.8382 -1.3448
 2705SOL    HW219578   2.185   0.761   7.753 -1.9110  3.8741  1.0961
 2706SOL     OW19579   2.496   0.775   1.279  0.3552  0.7967 -0.1593
 2706SOL    HW119580   2.456   0.707   1.226  1.4997  0.7659 -0.9659
 2706SOL    HW219581   2.479   0.855   1.229 -1.0132 -0.9537 -2.4619
 2707SOL     OW19582   3.754   4.482   8.317 -0.4623  0.6670  0.2853
 2707SOL    HW119583   3.700   4.533   8.379  0.4547 -0.8246  2.3220
 2707SOL    HW219584   3.696   4.415   8.282 -0.9883  3.0264 -3.3381
 2708SOL     OW19585   0.706   0.720   6.469 -0.9270 -0.3594  0.1519
 2708SOL    HW119586   0.765   0.685   6.536 -0.3375  1.1138  0.3903
 2708SOL    HW219587   0.723   0.814   6.474  0.4877 -0.5926 -0.4573
 2709SOL     OW19588   0.197   0.405   0.224  0.4853 -0.0343 -0.2739
 2709SOL    HW119589   0.230   0.435   0.139  0.5008  0.1326 -0.2088
 2709SOL    HW219590   0.160   0.487   0.257 -0.9252 -0.0160 -1.8870
 2710SOL     OW19591   1.175   2.875   1.952  0.2376 -0.0970  0.1616
 2710SOL    HW119592   1.152   2.956   1.906  0.0257  0.0581  0.5429
 2710SOL    HW219593   1.266   2.865   1.925  0.4622 -3.2265  2.1233
 2711SOL     OW19594   4.380   4.324   4.143 -0.5090 -0.0754 -0.0970
 2711SOL    HW119595   4.357   4.374   4.064  1.3314 -3.0510 -2.5072
 2711SOL    HW219596   4.406   4.235   4.119  0.8023  0.0997  0.6579
 2712SOL     OW19597   2.922   2.827  12.904 -0.0626  0.5180  0.7832
 2712SOL    HW119598   2.932   2.732  12.904 -1.1802  0.3911 -1.9963
 2712SOL    HW219599   2.930   2.853  12.812 -0.0767  0.0597  0.6533
 2713SOL     OW19600   0.299   3.922  10.592 -0.0684  0.2645  0.8954
 2713SOL    HW119601   0.250   3.972  10.527  1.0370  2.3851  1.6875
 2713SOL    HW219602   0.359   3.978  10.642  2.1614 -0.5046 -0.9453
 2714SOL     OW19603   4.166   4.279  13.231 -0.2426  0.4482  0.0949
 2714SOL    HW119604   4.215   4.340  13.176  0.6508 -0.7269 -0.4178
 2714SOL    HW219605   4.226   4.289  13.305 -1.5947 -0.5361  1.3178
 2715SOL     OW19606   3.358   1.318   8.481 -0.2219 -0.0681  0.3157
 2715SOL    HW119607   3.271   1.283   8.495 -0.4468  0.2610 -0.2635
 2715SOL    HW219608   3.342   1.401   8.437  0.5952 -0.2344 -0.3088
 2716SOL     OW19609   4.089   0.145   6.805  0.4201 -0.3781 -0.0978
 2716SOL    HW119610   4.178   0.178   6.815  0.6377 -0.9781 -0.0037
 2716SOL    HW219611   4.083   0.068   6.862 -2.5243  0.9523  1.3839
 2717SOL     OW19612   4.555   1.346   6.977  0.6077  0.3333 -0.0043
 2717SOL    HW119613   4.577   1.328   6.886 -0.9308 -0.7720 -0.1481
 2717SOL    HW219614   4.562   1.258   7.013 -1.8318  0.3937  0.5623
 2718SOL     OW19615   1.312   2.351   8.134  0.1389 -0.0108  0.5409
 2718SOL    HW119616   1.243   2.348   8.200  0.7713  3.8702  1.3528
 2718SOL    HW219617   1.271   2.288   8.074  1.5237  0.6873 -1.1544
 2719SOL     OW19618   3.759   3.843   3.006  0.2322  0.1053  0.8043
 2719SOL    HW119619   3.754   3.835   3.101 -0.7152 -0.8414  0.6771
 2719SOL    HW219620   3.668   3.817   2.990  0.2912  1.1116 -1.1012
 2720SOL     OW19621   4.066   2.673   2.150 -0.6851 -0.0697 -0.3043
 2720SOL    HW119622   4.117   2.598   2.119  1.1545  0.7232  0.7739
 2720SOL    HW219623   3.984   2.633   2.179 -1.3631  1.9499  0.5398
 2721SOL     OW19624   2.594   3.792   9.110 -0.1836 -0.2449  0.1188
 2721SOL    HW119625   2.658   3.731   9.075 -0.9156  0.2347 -2.0612
 2721SOL    HW219626   2.523   3.775   9.048 -0.3832  1.1486 -0.0375
 2722SOL     OW19627   1.766   1.928   9.746 -0.2265  0.1889  0.7523
 2722SOL    HW119628   1.834   1.994   9.761  1.8783 -2.2968  2.1368
 2722SOL    HW219629   1.736   1.944   9.657  0.8475  0.5393  0.4550
 2723SOL     OW19630   1.547   0.828  11.402  0.2729 -0.0053  0.2127
 2723SOL    HW119631   1.624   0.816  11.347  0.3605  0.5590  0.2142
 2723SOL    HW219632   1.566   0.757  11.464 -0.6249 -0.4762 -0.0521
 2724SOL     OW19633   0.595   2.233   2.460  0.3244 -0.4448  0.7193
 2724SOL    HW119634   0.519   2.253   2.404  1.1926 -4.6599 -1.9223
 2724SOL    HW219635   0.633   2.320   2.470  2.6844 -1.0241 -3.1300
 2725SOL     OW19636   3.895   3.283  12.862 -0.1619  0.7089 -0.1213
 2725SOL    HW119637   3.826   3.220  12.843  2.6370 -1.7262 -2.2582
 2725SOL    HW219638   3.927   3.266  12.950  1.4141  0.3601 -0.7658
 2726SOL     OW19639   4.044   1.137   2.097 -0.2035 -0.2983  0.5671
 2726SOL    HW119640   4.135   1.110   2.113 -0.0464 -1.0956 -1.6650
 2726SOL    HW219641   3.989   1.100   2.165 -0.0983 -0.3862  0.6027
 2727SOL     OW19642   3.350   0.854   2.796 -0.0670  0.1313 -0.5851
 2727SOL    HW119643   3.384   0.942   2.780  2.3903 -0.3793  1.8843
 2727SOL    HW219644   3.338   0.815   2.709  1.5925  0.8417 -1.1174
 2728SOL     OW19645   0.002   1.261   2.316  0.2232  0.3120 -0.0906
 2728SOL    HW119646   4.642   1.264   2.373 -0.8700 -2.1907 -1.3862
 2728SOL    HW219647   4.715   1.171   2.282  0.8384  1.4885 -3.2675
 2729SOL     OW19648   2.087   3.410  14.321  0.3583 -0.4513  0.0385
 2729SOL    HW119649   2.157   3.436  14.260 -0.9217 -1.6380 -1.9208
 2729SOL    HW219650   2.020   3.478  14.312 -0.6919 -1.9599 -3.4529
 2730SOL     OW19651   4.532   2.471   8.745  0.3366 -0.1494 -0.4771
 2730SOL    HW119652   4.534   2.463   8.650 -2.2324  1.3831 -0.6791
 2730SOL    HW219653   4.438   2.482   8.758  0.0442 -3.7903  0.5492
 2731SOL     OW19654   0.824   3.348   4.109  0.3353  0.4429 -0.2673
 2731SOL    HW119655   0.777   3.409   4.053  1.4719  0.9855 -0.6348
 2731SOL    HW219656   0.893   3.410   4.133  0.2596  0.6601 -0.6199
 2732SOL     OW19657   1.851   1.943  15.399  0.0440  0.2089 -0.4349
 2732SOL    HW119658   1.902   1.977  15.326  1.8788  1.7666  1.5554
 2732SOL    HW219659   1.866   1.849  15.387 -2.8261  0.0090 -2.4943
 2733SOL     OW19660   1.968   1.847  14.731 -0.5014  0.0609 -0.4197
 2733SOL    HW119661   2.046   1.866  14.782 -2.5582 -0.1903  2.8128
 2733SOL    HW219662   1.942   1.934  14.701  2.5441  1.3233  0.6405
 2734SOL     OW19663   2.944   0.966   5.570 -0.6571  0.3863 -0.0524
 2734SOL    HW119664   2.899   1.046   5.597 -2.5133  0.1606 -2.4974
 2734SOL    HW219665   2.882   0.898   5.595 -0.1815 -0.4339 -1.1223
 2735SOL     OW19666   4.098   3.223   7.327 -0.5438  0.2411  0.2035
 2735SOL    HW119667   4.032   3.179   7.273  0.7863 -1.5198  0.0234
 2735SOL    HW219668   4.058   3.307   7.350 -2.8201 -0.9248  0.5298
 2736SOL     OW19669   1.773   2.372  17.261 -0.3002  0.6109 -0.3371
 2736SOL    HW119670   1.761   2.279  17.278  0.8898  0.4247 -0.5459
 2736SOL    HW219671   1.812   2.374  17.174 -0.5854  1.8850 -0.4335
 2737SOL     OW19672   2.893   2.504   7.764  0.1397  0.0006 -0.4883
 2737SOL    HW119673   2.949   2.494   7.687 -0.0948 -0.9261 -0.5388
 2737SOL    HW219674   2.933   2.438   7.821 -2.3830 -0.3038  0.9412
 2738SOL     OW19675   3.954   4.019   6.413 -0.3620  0.2459 -0.1248
 2738SOL    HW119676   4.013   3.987   6.481  2.0430  1.9012 -1.4519
 2738SOL    HW219677   3.965   3.966   6.334  0.8973  2.0496 -1.1464
 2739SOL     OW19678   3.838   1.489   2.014  0.3730 -0.5735 -0.2512
 2739SOL    HW119679   3.805   1.423   1.953 -0.9115 -1.3733  1.3211
 2739SOL    HW219680   3.799   1.564   1.969  1.8191  1.2164  1.4795
 2740SOL     OW19681   2.291   3.122   7.602  0.0879 -0.0659 -0.3655
 2740SOL    HW119682   2.317   3.038   7.640  0.5580 -0.0518 -0.6466
 2740SOL    HW219683   2.379   3.160   7.608 -0.5239  1.3169 -0.1192
 2741SOL     OW19684   0.751   1.882   5.707 -0.5639  0.3504 -0.2077
 2741SOL    HW119685   0.725   1.958   5.758 -2.9543 -1.4319  1.2392
 2741SOL    HW219686   0.823   1.918   5.656  0.6130  1.6697  2.4279
 2742SOL     OW19687   0.616   3.310   1.173  0.2511 -0.5456 -0.3756
 2742SOL    HW119688   0.527   3.339   1.151 -0.5665 -1.9283  1.1617
 2742SOL    HW219689   0.676   3.367   1.125  0.0872 -1.0823 -1.2270
 2743SOL     OW19690   2.381   0.644   1.068  0.2031  0.6957 -0.1849
 2743SOL    HW119691   2.296   0.668   1.032  0.1490  0.5351 -0.1632
 2743SOL    HW219692   2.435   0.654   0.990  1.8722 -0.2718  0.8375
 2744SOL     OW19693   3.278   3.100  12.855  0.5379  0.0274 -0.4164
 2744SOL    HW119694   3.204   3.114  12.796 -0.2601 -2.3682  0.0114
 2744SOL    HW219695   3.353   3.097  12.796 -1.1826 -4.9327 -2.3550
 2745SOL     OW19696   0.771   4.113   1.856 -0.1970 -0.2603  0.9647
 2745SOL    HW119697   0.815   4.167   1.791 -2.8712 -1.3739 -1.8042
 2745SOL    HW219698   0.702   4.171   1.887 -0.3414 -1.1246  2.2913
 2746SOL     OW19699   4.644   3.871   2.806  0.0298 -0.6984  0.0088
 2746SOL    HW119700   0.005   3.827   2.841 -0.7465 -0.0254  2.5678
 2746SOL    HW219701   4.638   3.954   2.853  0.5598 -1.2562  1.0556
 2747SOL     OW19702   1.530   3.385  16.787  0.0529  0.1031 -0.2907
 2747SOL    HW119703   1.484   3.340  16.858 -1.5739  1.6872 -0.3665
 2747SOL    HW219704   1.543   3.310  16.729  2.5334  0.4777 -0.2135
 2748SOL     OW19705   3.790   3.716   6.522 -0.1490 -0.0450  0.1009
 2748SOL    HW119706   3.834   3.650   6.467 -1.5055  0.3128 -1.4202
 2748SOL    HW219707   3.844   3.731   6.599 -1.5109 -1.7621  1.4123
 2749SOL     OW19708   1.446   3.389   2.400 -0.0007 -0.2473  0.0758
 2749SOL    HW119709   1.425   3.453   2.331 -1.9249 -1.0488 -0.0740
 2749SOL    HW219710   1.361   3.351   2.419 -0.1210  0.4082  0.8463
 2750SOL     OW19711   4.425   2.740   4.274 -0.2870 -0.1425  0.6796
 2750SOL    HW119712   4.339   2.774   4.299  0.0382  1.0199  0.2163
 2750SOL    HW219713   4.447   2.790   4.195 -0.7998  1.3695  1.4798
 2751SOL     OW19714   2.759   4.515   1.727 -0.0195  0.3277 -0.2937
 2751SOL    HW119715   2.821   4.462   1.778  1.3846  2.4991  0.2843
 2751SOL    HW219716   2.786   4.605   1.745 -0.1643  0.4363 -0.6395
 2752SOL     OW19717   2.848   3.371   4.052 -0.8131 -0.2406 -0.0842
 2752SOL    HW119718   2.938   3.398   4.073 -1.1164  1.3529 -0.9015
 2752SOL    HW219719   2.859   3.307   3.982 -1.2282  0.9481 -1.2508
 2753SOL     OW19720   0.578   1.045   7.854  0.3170  0.6981 -0.2521
 2753SOL    HW119721   0.650   1.041   7.791 -0.5227  0.5665 -1.1943
 2753SOL    HW219722   0.615   1.018   7.939  3.5481 -0.5650 -2.0488
 2754SOL     OW19723   2.002   0.441   7.959  0.2338 -0.1811  0.0292
 2754SOL    HW119724   2.079   0.385   7.956 -1.1112 -1.8548 -2.7152
 2754SOL    HW219725   1.994   0.479   7.872  1.6608 -2.3683 -1.0332
 2755SOL     OW19726   0.013   0.426   2.675  0.1521 -0.4241 -0.4014
 2755SOL    HW119727   4.690   0.353   2.721  1.5440 -1.0666 -0.2179
 2755SOL    HW219728   0.026   0.482   2.752 -0.8454 -0.3494 -0.2935
 2756SOL     OW19729   2.098   0.329   6.372  0.1627  0.2929 -0.4873
 2756SOL    HW119730   2.193   0.319   6.364  0.0523 -0.2981 -1.0242
 2756SOL    HW219731   2.090   0.369   6.459  1.4947 -0.5620  0.0234
 2757SOL     OW19732   1.450   3.597  16.648  0.5537 -0.0368  0.1274
 2757SOL    HW119733   1.539   3.626  16.667 -0.1632  0.7144  2.3374
 2757SOL    HW219734   1.461   3.509  16.684 -3.3487  0.1843  1.9201
 2758SOL     OW19735   4.304   1.354  16.647  0.0385  1.0907  0.1535
 2758SOL    HW119736   4.272   1.361  16.558  0.5182  0.8535 -0.0406
 2758SOL    HW219737   4.300   1.260  16.667 -0.3596  1.1739  0.4797
 2759SOL     OW19738   2.640   3.880  15.126  0.2981  0.9239  0.2012
 2759SOL    HW119739   2.635   3.975  15.130 -0.3097  0.8402  1.3816
 2759SOL    HW219740   2.578   3.851  15.193  0.9681 -0.3973  0.2468
 2760SOL     OW19741   1.321   1.122   4.549  0.0764 -0.1753  0.2991
 2760SOL    HW119742   1.354   1.162   4.468 -0.6506  2.5199  1.3310
 2760SOL    HW219743   1.391   1.133   4.612 -1.2837 -2.4946  2.2090
 2761SOL     OW19744   1.128   4.426   6.033 -0.2696  0.0593  0.4932
 2761SOL    HW119745   1.150   4.404   5.942  0.5904  0.3426  0.6387
 2761SOL    HW219746   1.033   4.434   6.027 -0.2196  0.9306  0.8729
 2762SOL     OW19747   1.829   0.394   5.177  0.8143 -0.3298  0.2975
 2762SOL    HW119748   1.814   0.438   5.093  2.3972  2.3359  1.4175
 2762SOL    HW219749   1.739   0.379   5.204  0.9882  1.2890  1.7490
 2763SOL     OW19750   0.057   0.544   7.952  1.0018  0.3567 -0.4805
 2763SOL    HW119751   0.001   0.477   7.992  1.6609  0.6299  0.9010
 2763SOL    HW219752   0.010   0.625   7.970  1.6106  0.5266  0.3563
 2764SOL     OW19753   2.963   0.726   8.584  0.0805 -0.4223 -0.0216
 2764SOL    HW119754   2.878   0.684   8.600 -0.4432  1.4704  2.1119
 2764SOL    HW219755   3.022   0.651   8.580  0.2935 -0.1940 -1.1040
 2765SOL     OW19756   2.708   0.942   1.508  0.2285  0.2597  0.0710
 2765SOL    HW119757   2.620   0.904   1.517  0.0160  0.7118 -0.1207
 2765SOL    HW219758   2.764   0.902   1.575 -1.9413 -4.3052 -0.8186
 2766SOL     OW19759   0.735   2.855   0.546  0.1233  0.1431 -0.5500
 2766SOL    HW119760   0.682   2.927   0.580 -2.6378 -2.3324  0.3786
 2766SOL    HW219761   0.800   2.907   0.498  1.2918 -0.0736  0.8042
 2767SOL     OW19762   0.389   0.647   7.002  0.5208  0.4006 -0.6862
 2767SOL    HW119763   0.398   0.666   7.096  0.1615 -3.6061  0.1885
 2767SOL    HW219764   0.311   0.592   6.993  0.9408 -0.1978 -0.6907
 2768SOL     OW19765   3.209   1.219   2.754 -0.7210  0.1698  0.0464
 2768SOL    HW119766   3.240   1.217   2.845  0.0301 -2.2176 -0.2717
 2768SOL    HW219767   3.192   1.310   2.728  0.9173  0.8082  1.2315
 2769SOL     OW19768   1.786   2.240  15.914 -0.7316  0.3113 -0.2649
 2769SOL    HW119769   1.870   2.279  15.889  0.7163 -2.1813  0.5941
 2769SOL    HW219770   1.740   2.255  15.832 -3.9360  1.5541  1.7841
 2770SOL     OW19771   4.201   0.271   7.757  0.4654  0.0109  0.2668
 2770SOL    HW119772   4.282   0.296   7.712  1.8384 -0.1208  2.6833
 2770SOL    HW219773   4.134   0.307   7.698  0.9088  1.1230  0.4324
 2771SOL     OW19774   4.525   4.389   5.129  0.2231  0.1460  0.0494
 2771SOL    HW119775   4.602   4.429   5.170 -0.1843  0.3607  0.5893
 2771SOL    HW219776   4.571   4.321   5.079 -0.2234  1.3790 -2.0131
 2772SOL     OW19777   4.533   4.547   0.307  0.4767 -0.0110  0.6804
 2772SOL    HW119778   4.526   4.478   0.372  2.5976 -0.5822  0.2913
 2772SOL    HW219779   4.559   4.611   0.374 -0.6154  1.0810  0.0647
 2773SOL     OW19780   4.121   2.041   5.919 -0.6567 -0.2744  0.5859
 2773SOL    HW119781   4.029   2.029   5.945 -0.6892  0.7488  0.9246
 2773SOL    HW219782   4.116   2.116   5.861  0.4416 -0.0558  0.7769
 2774SOL     OW19783   2.208   0.793   5.915 -0.8481 -0.0490 -0.3873
 2774SOL    HW119784   2.189   0.753   6.000 -3.3054  2.7731  0.3548
 2774SOL    HW219785   2.208   0.886   5.936 -2.8153 -0.3881  1.0682
 2775SOL     OW19786   4.217   2.362   5.345 -0.4367  0.1169  0.2527
 2775SOL    HW119787   4.264   2.281   5.365 -2.1297 -0.5103  1.6067
 2775SOL    HW219788   4.226   2.410   5.427 -0.7956  1.1782 -0.3201
 2776SOL     OW19789   2.873   0.706   4.775 -0.0331 -0.1027 -0.0550
 2776SOL    HW119790   2.876   0.683   4.682 -1.1832 -1.5945  0.2755
 2776SOL    HW219791   2.886   0.619   4.812 -1.4637 -0.6152 -0.7132
 2777SOL     OW19792   1.470   1.523   2.793  0.1568  0.0067 -0.4205
 2777SOL    HW119793   1.536   1.506   2.726  1.8410  0.0626  1.2338
 2777SOL    HW219794   1.391   1.539   2.741  0.2699  0.4813 -0.4507
 2778SOL     OW19795   2.589   2.644   8.378 -0.3183  0.2539 -0.1455
 2778SOL    HW119796   2.657   2.658   8.312 -1.1235 -2.5089 -1.5684
 2778SOL    HW219797   2.541   2.726   8.389  1.0295  1.1598 -0.9898
 2779SOL     OW19798   0.814   0.458   3.652  0.0354 -0.2995 -0.1829
 2779SOL    HW119799   0.728   0.424   3.679  0.0710 -2.5361 -2.8344
 2779SOL    HW219800   0.867   0.379   3.665  0.8887  0.1751 -0.7767
 2780SOL     OW19801   2.775   2.331  14.452 -0.8681 -0.3432 -0.8582
 2780SOL    HW119802   2.725   2.383  14.514  0.7783 -0.7388  0.7909
 2780SOL    HW219803   2.804   2.255  14.503 -3.0740 -2.4019 -2.6385
 2781SOL     OW19804   1.030   2.136  13.256  0.5852 -0.4710  0.0758
 2781SOL    HW119805   1.078   2.079  13.316 -0.8344 -0.8531  0.8377
 2781SOL    HW219806   0.949   2.129  13.305  0.7314 -0.9926  0.2355
 2782SOL     OW19807   4.654   3.380  11.396 -0.4316 -0.3407 -0.7677
 2782SOL    HW119808   4.623   3.380  11.306 -0.0239 -0.7892 -0.9090
 2782SOL    HW219809   4.581   3.355  11.453  0.4375 -0.4839  0.2919
 2783SOL     OW19810   2.165   2.705   2.727 -0.4453 -0.2981  0.7220
 2783SOL    HW119811   2.166   2.622   2.774 -1.8271 -0.8191 -0.1487
 2783SOL    HW219812   2.141   2.676   2.639 -1.6148 -1.0980  1.3065
 2784SOL     OW19813   2.157   4.430   0.557  0.4093 -0.4175  0.1256
 2784SOL    HW119814   2.224   4.428   0.488  0.2409 -0.8506 -0.0254
 2784SOL    HW219815   2.074   4.417   0.512  0.7840 -0.9579 -0.4146
 2785SOL     OW19816   2.270   1.603   4.291  0.0002 -0.3994  0.5858
 2785SOL    HW119817   2.363   1.607   4.269  0.0938 -0.8662  0.8803
 2785SOL    HW219818   2.270   1.529   4.353 -0.0328  0.2361  1.3448
 2786SOL     OW19819   3.601   1.002   0.035  0.4877  0.1247 -0.2090
 2786SOL    HW119820   3.567   0.946  17.635 -0.1140 -0.1483  0.3017
 2786SOL    HW219821   3.554   0.965   0.109 -0.7405  0.1566 -0.9619
 2787SOL     OW19822   1.635   2.076   7.625  0.5902 -0.3223  0.1370
 2787SOL    HW119823   1.542   2.065   7.646  0.3105 -0.6583 -1.2881
 2787SOL    HW219824   1.651   2.020   7.549 -0.3239  0.6779 -0.7969
 2788SOL     OW19825   4.256   0.125   4.943  0.2877 -0.1498  0.3031
 2788SOL    HW119826   4.269   0.106   4.850  2.0915  0.1580  0.4784
 2788SOL    HW219827   4.166   0.097   4.952  0.4429 -0.6319  0.3340
 2789SOL     OW19828   0.896   2.550   0.234  0.3237 -0.0530  0.2433
 2789SOL    HW119829   0.925   2.547   0.325  0.6277  0.7969  0.1699
 2789SOL    HW219830   0.894   2.641   0.204 -1.2570 -0.5196 -1.0864
 2790SOL     OW19831   2.427   3.777   2.809  0.6238  0.7131  0.0364
 2790SOL    HW119832   2.435   3.727   2.728 -0.4033 -0.8657  0.9070
 2790SOL    HW219833   2.469   3.712   2.865  1.7553  2.1908  0.9096
 2791SOL     OW19834   1.455   2.387   7.761  0.3564  0.6077 -0.7632
 2791SOL    HW119835   1.400   2.464   7.775  1.1520  1.0483 -0.0067
 2791SOL    HW219836   1.522   2.444   7.721  2.6488 -2.1643 -0.8872
 2792SOL     OW19837   3.736   0.925  10.033  0.0505  0.2587 -0.0171
 2792SOL    HW119838   3.789   0.933  10.112 -0.1781  3.3067 -0.1800
 2792SOL    HW219839   3.784   0.852   9.993  2.2664  1.2925  0.7446
 2793SOL     OW19840   1.328   1.914  16.070 -0.1915  0.3661  0.5589
 2793SOL    HW119841   1.361   1.883  16.155  0.6573 -1.1025 -0.3090
 2793SOL    HW219842   1.387   1.988  16.059 -3.0636  2.6334  0.4362
 2794SOL     OW19843   1.877   0.510   6.972 -0.6379 -0.7789 -0.0620
 2794SOL    HW119844   1.896   0.432   6.920  1.9385  0.8471 -1.5650
 2794SOL    HW219845   1.949   0.503   7.035  1.0861 -0.0461 -1.9530
 2795SOL     OW19846   3.482   3.094   1.613  0.1768  0.1050 -0.7722
 2795SOL    HW119847   3.486   3.002   1.586 -0.2375 -0.3812  0.8325
 2795SOL    HW219848   3.473   3.070   1.705  0.4361  1.2086 -0.4606
 2796SOL     OW19849   2.840   1.209   5.663 -0.7679  0.3031 -0.0669
 2796SOL    HW119850   2.766   1.264   5.635 -0.7442  1.0227  1.2793
 2796SOL    HW219851   2.913   1.270   5.667  0.3955 -1.1887  1.1869
 2797SOL     OW19852   2.091   1.926  13.635 -0.5847 -0.0856 -0.2015
 2797SOL    HW119853   1.998   1.938  13.614 -0.7177  1.9399  1.5774
 2797SOL    HW219854   2.118   1.931  13.543 -3.1117 -1.8100 -1.0505
 2798SOL     OW19855   2.332   2.241  10.832 -0.5369 -0.5221  0.8910
 2798SOL    HW119856   2.267   2.297  10.790 -2.3021 -2.8780  0.4831
 2798SOL    HW219857   2.396   2.309  10.852  0.2115 -1.4599  1.7013
 2799SOL     OW19858   3.347   4.501   2.237  0.0501  0.2221 -0.8036
 2799SOL    HW119859   3.379   4.424   2.285  2.0392  0.3340 -1.9588
 2799SOL    HW219860   3.407   4.569   2.268  0.1741 -0.2138 -0.0758
 2800SOL     OW19861   0.527   0.003  14.216 -0.1298 -0.2553  0.9060
 2800SOL    HW119862   0.612   4.712  14.172 -0.0512 -0.1340  1.0389
 2800SOL    HW219863   0.493   4.646  14.164 -1.4782  0.3811  0.8954
 2801SOL     OW19864   2.462   3.700   3.610 -0.1083  0.0081 -0.0515
 2801SOL    HW119865   2.545   3.696   3.563 -1.0309 -0.0650 -1.6998
 2801SOL    HW219866   2.394   3.667   3.551 -0.4378 -0.5886  0.6497
 2802SOL     OW19867   0.577   4.246   6.274 -1.0362 -0.3179  0.3678
 2802SOL    HW119868   0.649   4.210   6.223 -0.8771  0.5407 -0.0136
 2802SOL    HW219869   0.502   4.253   6.216 -0.6606 -2.0501 -0.3106
 2803SOL     OW19870   1.700   2.815   8.678 -0.4303 -0.1308  0.3604
 2803SOL    HW119871   1.630   2.838   8.617 -1.0621 -1.5594  0.5489
 2803SOL    HW219872   1.646   2.803   8.756 -0.9050  1.5658  0.2861
 2804SOL     OW19873   0.885   2.185   5.362 -0.7430 -0.0114  0.5551
 2804SOL    HW119874   0.943   2.125   5.408  1.4747  0.5260 -1.5804
 2804SOL    HW219875   0.882   2.145   5.275  1.5137  0.5288  0.2403
 2805SOL     OW19876   2.764   3.419   2.412 -0.1732 -0.5148 -0.3776
 2805SOL    HW119877   2.778   3.504   2.372  0.4058  0.1715  1.2565
 2805SOL    HW219878   2.689   3.396   2.357  0.1739  1.1097 -1.5089
 2806SOL     OW19879   1.490   4.478   8.142 -0.5824 -0.2551  0.5472
 2806SOL    HW119880   1.563   4.508   8.196  0.1159 -1.1427  0.1011
 2806SOL    HW219881   1.474   4.558   8.092 -1.3493 -0.9411 -0.3044
 2807SOL     OW19882   2.737   0.162   6.883 -0.8139  0.0568  0.1701
 2807SOL    HW119883   2.670   0.200   6.826 -0.1665  0.2218 -0.4923
 2807SOL    HW219884   2.793   0.238   6.898 -0.0673 -0.3201 -0.7480
 2808SOL     OW19885   2.071   0.495   2.869 -0.6347 -0.0974  0.8476
 2808SOL    HW119886   2.165   0.510   2.865 -0.7901  0.4165 -1.2548
 2808SOL    HW219887   2.057   0.410   2.828  0.3467  0.9671 -1.7114
 2809SOL     OW19888   3.873   3.563  16.081  0.1174 -0.2416  0.4162
 2809SOL    HW119889   3.962   3.585  16.107  0.5851  1.3100 -2.4518
 2809SOL    HW219890   3.895   3.505  16.007 -0.3367  0.9884 -0.6940
 2810SOL     OW19891   0.475   2.495   7.109  0.2743  0.1827  0.2578
 2810SOL    HW119892   0.500   2.430   7.175 -0.6324  0.3591  0.7715
 2810SOL    HW219893   0.388   2.519   7.140 -0.3575  0.9280 -2.1073
 2811SOL     OW19894   4.053   0.154   5.818 -0.0904 -0.1484  0.3954
 2811SOL    HW119895   3.977   0.130   5.871 -0.2443 -0.4289  0.0499
 2811SOL    HW219896   4.032   0.236   5.774 -0.5213 -0.1823  0.5376
 2812SOL     OW19897   4.002   4.152  12.939 -0.3765 -0.4525 -0.2846
 2812SOL    HW119898   4.098   4.150  12.942 -0.3254  2.5278  0.6326
 2812SOL    HW219899   3.985   4.132  13.031  2.0773 -0.6686  0.1398
 2813SOL     OW19900   3.918   1.330   6.689  0.1042  0.0408  0.0539
 2813SOL    HW119901   4.009   1.313   6.665  0.3978  0.0048  1.1898
 2813SOL    HW219902   3.913   1.425   6.678  2.4485  0.3065  1.4183
 2814SOL     OW19903   2.880   2.982   3.043  0.0244 -0.2668 -0.2733
 2814SOL    HW119904   2.912   3.065   3.078  1.8253 -1.1882  0.2284
 2814SOL    HW219905   2.800   2.972   3.094  0.8149 -0.4366  0.9230
 2815SOL     OW19906   2.999   1.567   8.390  0.1419 -0.3010 -0.2928
 2815SOL    HW119907   3.023   1.660   8.392  0.0864 -0.3016  0.5348
 2815SOL    HW219908   3.016   1.556   8.483 -0.9188 -1.2286 -0.2063
 2816SOL     OW19909   2.665   4.100  11.459 -0.6631  0.6919  0.0897
 2816SOL    HW119910   2.717   4.100  11.378 -2.1234  2.1594 -0.8500
 2816SOL    HW219911   2.646   4.194  11.459 -1.4789  0.5154  1.8702
 2817SOL     OW19912   2.044   4.430   8.450 -0.1454  0.6241 -0.3912
 2817SOL    HW119913   2.133   4.396   8.442  0.2765  1.0221  2.5984
 2817SOL    HW219914   2.019   4.459   8.362  2.2342  2.8174 -0.3178
 2818SOL     OW19915   4.203   1.953   3.578  0.1831  0.4579 -0.2617
 2818SOL    HW119916   4.242   1.950   3.665  0.3581 -0.9148 -0.3860
 2818SOL    HW219917   4.131   2.014   3.593 -1.9905 -1.3048 -3.6167
 2819SOL     OW19918   1.489   3.793  16.452 -0.1578 -0.0634  0.0282
 2819SOL    HW119919   1.528   3.707  16.468 -0.7117 -0.0869  1.2194
 2819SOL    HW219920   1.439   3.780  16.372  0.4292  2.1436 -0.7207
 2820SOL     OW19921   0.802   4.330   9.784 -0.3375  0.1949 -0.7370
 2820SOL    HW119922   0.895   4.329   9.761 -0.8332  2.7680 -2.7990
 2820SOL    HW219923   0.799   4.371   9.870  0.9238 -0.8797 -0.1672
 2821SOL     OW19924   1.463   2.893   8.579  0.3158 -0.5242 -0.4681
 2821SOL    HW119925   1.425   2.943   8.651 -1.8473 -1.3340 -1.0441
 2821SOL    HW219926   1.391   2.894   8.516 -0.1290  2.6963  0.0796
 2822SOL     OW19927   3.922   4.584  16.025  0.6361  0.1752  0.5133
 2822SOL    HW119928   3.964   4.670  16.028  0.8291  0.0538  1.2320
 2822SOL    HW219929   3.960   4.547  16.104  0.1328 -0.1941  0.5815
 2823SOL     OW19930   0.653   0.812   5.631  0.0283 -0.3205 -0.2437
 2823SOL    HW119931   0.670   0.800   5.724 -3.3255  1.5481  0.5711
 2823SOL    HW219932   0.720   0.879   5.617 -0.1600  0.1400  1.1678
 2824SOL     OW19933   2.475   2.363   7.750 -0.1318  0.1734  0.1781
 2824SOL    HW119934   2.383   2.384   7.767  0.2784  0.9206  1.4901
 2824SOL    HW219935   2.479   2.300   7.822  1.4461 -0.8563 -0.8085
 2825SOL     OW19936   3.144   3.014  10.625  0.5886  0.2420  0.2578
 2825SOL    HW119937   3.206   3.087  10.617  0.1836  0.6474  0.7954
 2825SOL    HW219938   3.070   3.058  10.583  1.1233  1.2960  0.4149
 2826SOL     OW19939   1.541   3.272   7.818  0.2775  0.1359  0.1003
 2826SOL    HW119940   1.563   3.287   7.910  1.7516 -1.7760  0.0720
 2826SOL    HW219941   1.628   3.290   7.783  0.6426 -1.7371  0.0060
 2827SOL     OW19942   3.948   1.104  10.487  0.3856 -0.2200 -0.2261
 2827SOL    HW119943   4.015   1.150  10.537 -0.6391 -0.5534  1.4604
 2827SOL    HW219944   3.967   1.013  10.511  0.8918 -0.4990 -1.6988
 2828SOL     OW19945   3.680   0.093   3.896 -0.1234 -0.0266 -0.4000
 2828SOL    HW119946   3.711   0.048   3.818 -0.0586  0.6171 -0.7442
 2828SOL    HW219947   3.588   0.097   3.871 -1.1704 -1.8803  3.0295
 2829SOL     OW19948   3.305   4.514   7.271  0.4062  0.8267  0.0417
 2829SOL    HW119949   3.228   4.457   7.267  1.3515 -0.4177 -0.6239
 2829SOL    HW219950   3.305   4.541   7.363 -0.3047  1.7456 -0.2327
 2830SOL     OW19951   4.212   2.019   1.934 -0.1761  0.6571 -0.0205
 2830SOL    HW119952   4.221   2.089   1.869 -2.1946  1.0678  0.1148
 2830SOL    HW219953   4.283   2.042   1.993  0.1642  0.3663 -0.3219
 2831SOL     OW19954   2.815   3.338   6.441 -0.3141  0.3582  0.4455
 2831SOL    HW119955   2.903   3.320   6.475  1.1656  2.2555 -2.3600
 2831SOL    HW219956   2.790   3.409   6.500 -3.2114  0.0841 -0.4283
 2832SOL     OW19957   1.072   4.134  11.045 -0.1381  0.0310 -0.3290
 2832SOL    HW119958   1.072   4.225  11.017  0.6902  0.4137  0.8897
 2832SOL    HW219959   1.038   4.136  11.135 -0.1153  1.9594 -0.3614
 2833SOL     OW19960   4.032   3.123   9.388  0.1924  0.1870 -0.4759
 2833SOL    HW119961   3.965   3.090   9.447  1.8134 -0.5602  0.9593
 2833SOL    HW219962   4.017   3.059   9.319 -0.4440 -1.4507  1.1570
 2834SOL     OW19963   4.684   3.165   1.555  0.4803 -0.6915  0.2089
 2834SOL    HW119964   4.706   3.106   1.483  2.1172 -1.0721  1.0041
 2834SOL    HW219965   4.591   3.178   1.536  0.1927 -1.3164  1.1810
 2835SOL     OW19966   4.561   2.369   3.660  0.0281  0.4311  0.3652
 2835SOL    HW119967   4.555   2.410   3.574  1.2318  0.5708  0.3527
 2835SOL    HW219968   4.606   2.434   3.713 -0.1613  0.4507  0.4994
 2836SOL     OW19969   3.028   1.049   3.463 -0.0856 -0.2100  0.2004
 2836SOL    HW119970   2.998   1.112   3.398 -1.4210 -1.0537  0.0142
 2836SOL    HW219971   2.972   0.975   3.439  1.1644 -1.9056  2.4812
 2837SOL     OW19972   3.937   1.509  12.426  0.0100 -0.1679  0.2721
 2837SOL    HW119973   3.977   1.459  12.497  4.8147 -0.0724 -2.3027
 2837SOL    HW219974   4.002   1.496  12.357  0.5415  1.3462  0.4850
 2838SOL     OW19975   1.054   1.989   5.386 -0.3356  0.3929  0.0880
 2838SOL    HW119976   1.126   1.938   5.350  0.5690 -0.3555  2.9943
 2838SOL    HW219977   1.040   1.935   5.463  1.9227  0.4934  0.5635
 2839SOL     OW19978   2.591   2.663   2.859 -0.4059 -0.7881 -0.1983
 2839SOL    HW119979   2.642   2.652   2.939 -0.5805  1.8158  0.2783
 2839SOL    HW219980   2.570   2.573   2.838  1.8907 -1.7600  1.6469
 2840SOL     OW19981   2.063   1.262  13.459 -0.4364 -0.1030  0.4202
 2840SOL    HW119982   2.049   1.350  13.493  0.6971  0.8167 -1.4339
 2840SOL    HW219983   1.983   1.224  13.495  0.8214  0.5579  3.8725
 2841SOL     OW19984   1.443   2.267  15.886 -0.0457 -0.1388  0.7095
 2841SOL    HW119985   1.516   2.289  15.828 -0.0884 -3.0128 -0.4119
 2841SOL    HW219986   1.381   2.263  15.813 -0.4707 -0.4977  1.0907
 2842SOL     OW19987   2.074   3.017  15.387 -0.4444 -0.0241  0.6999
 2842SOL    HW119988   2.066   2.922  15.386 -2.3727  0.1373 -0.0171
 2842SOL    HW219989   1.990   3.046  15.350  1.6752  2.0391 -2.5166
 2843SOL     OW19990   3.032   2.116   1.063 -0.0211  0.3558  0.9196
 2843SOL    HW119991   2.979   2.180   1.017  2.2722  0.6888 -1.2785
 2843SOL    HW219992   2.983   2.117   1.145  0.1297 -1.9119  1.0549
 2844SOL     OW19993   0.791   4.519   4.849 -0.0595  0.2698  0.2239
 2844SOL    HW119994   0.792   4.433   4.890 -0.3307  0.4822  0.6767
 2844SOL    HW219995   0.703   4.547   4.875  0.1032 -3.1431  4.5013
 2845SOL     OW19996   2.298   3.188  12.407  0.3552 -0.5560  0.0644
 2845SOL    HW119997   2.313   3.159  12.497  0.3156  1.3450  0.6913
 2845SOL    HW219998   2.386   3.197  12.370 -0.1803 -0.8721 -1.3013
 2846SOL     OW19999   4.300   2.139   6.812 -0.5557 -0.3313  0.3118
 2846SOL    HW120000   4.205   2.132   6.823 -0.8027  1.7246 -0.6028
 2846SOL    HW220001   4.317   2.128   6.905  0.0143 -0.1569  0.2280
 2847SOL     OW20002   1.553   2.522   8.019 -0.0562 -0.0839  0.0148
 2847SOL    HW120003   1.472   2.487   8.057  0.7872  0.8493  2.6511
 2847SOL    HW220004   1.618   2.456   8.042  2.7421  1.2311 -4.1314
 2848SOL     OW20005   2.331   0.529   7.682 -0.6604 -0.3318  0.3105
 2848SOL    HW120006   2.315   0.607   7.735 -0.1594 -1.2576  1.8157
 2848SOL    HW220007   2.409   0.558   7.634  0.2499 -3.1518  0.1158
 2849SOL     OW20008   0.672   4.363   2.893  0.0022  0.4143 -0.1525
 2849SOL    HW120009   0.642   4.431   2.833 -2.3849 -0.8961 -0.4494
 2849SOL    HW220010   0.705   4.416   2.965 -0.7973  2.4392 -1.2819
 2850SOL     OW20011   0.920   3.189   6.767  0.2490 -0.0436 -0.0174
 2850SOL    HW120012   0.937   3.276   6.731 -1.3187  1.1473  2.1195
 2850SOL    HW220013   0.833   3.206   6.804  0.4271  0.2869  0.2431
 2851SOL     OW20014   1.964   0.979   2.897 -0.5718 -0.2193  0.0938
 2851SOL    HW120015   1.907   0.961   2.822  1.9380 -2.2870 -1.3234
 2851SOL    HW220016   2.044   0.943   2.860 -1.3735 -1.7950 -0.1019
 2852SOL     OW20017   2.406   3.335  17.040 -0.9918  0.0273 -0.3094
 2852SOL    HW120018   2.325   3.328  17.091 -0.8794  3.7860  0.3926
 2852SOL    HW220019   2.464   3.262  17.061 -1.2561 -1.0152 -3.3349
 2853SOL     OW20020   4.366   3.288   5.944  0.2684 -0.0878  0.1870
 2853SOL    HW120021   4.373   3.269   5.850  1.3373  3.8858 -0.5367
 2853SOL    HW220022   4.423   3.224   5.987  0.4477 -1.1730 -1.6106
 2854SOL     OW20023   1.902   2.495   6.138 -0.0015  0.3256  0.4089
 2854SOL    HW120024   1.815   2.510   6.102 -0.9436 -0.7564  2.2374
 2854SOL    HW220025   1.944   2.565   6.088 -1.1624  1.2535  0.7257
 2855SOL     OW20026   4.372   1.425   7.161  0.1231  0.4663 -0.1928
 2855SOL    HW120027   4.286   1.414   7.120  0.6262 -0.6636 -0.9518
 2855SOL    HW220028   4.440   1.412   7.095  0.6318  1.1443  0.1975
 2856SOL     OW20029   1.557   0.899  15.768  0.1056 -0.2378 -0.3092
 2856SOL    HW120030   1.560   0.892  15.673 -0.9648 -1.4954 -0.2489
 2856SOL    HW220031   1.503   0.824  15.794 -0.8356  1.0679  1.4669
 2857SOL     OW20032   2.411   2.426   5.507  0.1521  0.2727  0.1157
 2857SOL    HW120033   2.476   2.364   5.540 -1.5212 -0.9458  1.1302
 2857SOL    HW220034   2.445   2.507   5.546  2.9729 -1.6418  1.7140
 2858SOL     OW20035   3.238   3.922  12.172 -0.0967  0.0145 -0.5825
 2858SOL    HW120036   3.296   3.868  12.119 -0.1149  0.1272 -0.7171
 2858SOL    HW220037   3.200   3.983  12.109  1.9653 -0.6170 -2.4125
 2859SOL     OW20038   4.573   1.678   9.143 -0.3432  0.2213 -0.0200
 2859SOL    HW120039   4.571   1.582   9.137  1.7793  0.1661 -0.1970
 2859SOL    HW220040   4.482   1.686   9.170 -0.6044 -1.0638 -0.5052
 2860SOL     OW20041   0.147   0.459   0.544  0.2707 -0.3114  0.0083
 2860SOL    HW120042   0.138   0.553   0.527 -2.0328 -0.5370 -0.0067
 2860SOL    HW220043   0.152   0.449   0.639 -1.5372  0.3207  0.1732
 2861SOL     OW20044   3.825   1.758   7.578  0.3026 -0.3143 -0.0254
 2861SOL    HW120045   3.817   1.835   7.522 -1.2678 -1.7565 -1.8022
 2861SOL    HW220046   3.814   1.682   7.520  2.6239 -0.2152 -0.5962
 2862SOL     OW20047   1.745   1.220   7.044 -0.0421  0.9420  0.0713
 2862SOL    HW120048   1.713   1.184   7.127 -0.3757  1.6778  0.2582
 2862SOL    HW220049   1.808   1.155   7.015  0.5258  1.5704 -0.0841
 2863SOL     OW20050   2.971   2.119   6.158 -0.0244 -0.0206  0.1254
 2863SOL    HW120051   3.043   2.140   6.098 -1.1690 -2.0106 -1.9416
 2863SOL    HW220052   2.921   2.201   6.153  1.1138  0.6006 -1.3405
 2864SOL     OW20053   0.765   3.387   5.554  0.0171 -0.2468 -0.3593
 2864SOL    HW120054   0.848   3.366   5.511  1.1353 -0.2340  1.8076
 2864SOL    HW220055   0.706   3.395   5.479 -1.4610 -1.1019  0.7215
 2865SOL     OW20056   1.220   3.497  15.864  0.2378  0.3860 -0.4435
 2865SOL    HW120057   1.232   3.402  15.866  1.7193  0.6205  1.7190
 2865SOL    HW220058   1.162   3.512  15.938  0.8915 -0.7726  0.3107
 2866SOL     OW20059   0.466   4.355   4.130 -0.1767 -0.0861 -0.0620
 2866SOL    HW120060   0.496   4.270   4.160  0.5678  0.7589  1.5313
 2866SOL    HW220061   0.385   4.328   4.086  0.2345  0.4621 -1.1518
 2867SOL     OW20062   0.027   0.513   2.933 -0.2316 -0.7870 -0.3217
 2867SOL    HW120063   0.046   0.498   3.026 -0.5321 -0.0548 -0.1418
 2867SOL    HW220064   4.663   0.565   2.935 -0.1244 -0.6595  0.5971
 2868SOL     OW20065   1.518   3.665   7.488  0.0816 -0.3934 -0.6066
 2868SOL    HW120066   1.526   3.709   7.404  3.1866 -0.7455 -0.4725
 2868SOL    HW220067   1.481   3.581   7.462  0.0046 -0.5393 -0.0375
 2869SOL     OW20068   2.300   0.283   4.846  0.9251  0.2585  0.0718
 2869SOL    HW120069   2.327   0.373   4.829  0.7876  0.1576 -0.6902
 2869SOL    HW220070   2.325   0.258   4.935 -0.6294 -0.9439  0.1784
 2870SOL     OW20071   3.786   4.518   4.472  0.1074 -0.1184 -0.2436
 2870SOL    HW120072   3.871   4.560   4.458 -0.9868  1.6493 -1.4999
 2870SOL    HW220073   3.725   4.591   4.473  1.5570  1.0645  1.3285
 2871SOL     OW20074   1.417   3.524   6.237 -0.4926 -0.1888  0.1133
 2871SOL    HW120075   1.365   3.573   6.300 -1.5759  0.1233 -1.0274
 2871SOL    HW220076   1.445   3.451   6.292  2.1156  0.0985 -0.8191
 2872SOL     OW20077   1.896   4.493   5.918  0.5155 -0.7265  0.4609
 2872SOL    HW120078   1.989   4.472   5.915  0.5847 -0.5527  1.5215
 2872SOL    HW220079   1.871   4.440   5.843  1.3793 -2.2557  1.2475
 2873SOL     OW20080   3.699   0.638   5.753  0.1741 -0.5319 -0.6309
 2873SOL    HW120081   3.706   0.616   5.660  0.6454 -1.7258 -0.3134
 2873SOL    HW220082   3.621   0.692   5.753 -0.6066 -1.6227  2.3579
 2874SOL     OW20083   1.461   3.146   1.900  0.6230  0.2143 -0.9565
 2874SOL    HW120084   1.381   3.180   1.859 -1.2465 -1.5719  1.2706
 2874SOL    HW220085   1.477   3.209   1.969  0.4103 -1.5770  0.7177
 2875SOL     OW20086   2.358   4.004  12.157 -1.1376  0.8710 -0.0629
 2875SOL    HW120087   2.264   3.988  12.163 -1.1740  0.0713 -2.9493
 2875SOL    HW220088   2.372   3.966  12.070  2.9158  1.2317  0.3994
 2876SOL     OW20089   1.624   1.376  16.249 -0.0653  0.4857 -0.0836
 2876SOL    HW120090   1.685   1.311  16.284 -0.5961  0.4320  0.7345
 2876SOL    HW220091   1.546   1.349  16.296  0.4254 -0.0835  0.3981
 2877SOL     OW20092   3.342   0.946   3.737 -0.1780 -0.2616  0.2608
 2877SOL    HW120093   3.389   1.027   3.720  0.4894 -1.0980 -1.9341
 2877SOL    HW220094   3.332   0.908   3.649  0.0572 -2.8735  1.3490
 2878SOL     OW20095   2.301   4.708  14.297 -0.1613  0.2239  0.1227
 2878SOL    HW120096   2.307   4.624  14.251  0.9993  1.5654 -2.2045
 2878SOL    HW220097   2.225   0.028  14.252  1.0694  2.2806 -0.3044
 2879SOL     OW20098   3.016   2.209  16.519  0.1742 -0.5976  0.5182
 2879SOL    HW120099   3.011   2.120  16.553 -1.3670  0.0641  2.0408
 2879SOL    HW220100   2.965   2.246  16.591 -1.1810 -2.7256  0.6523
 2880SOL     OW20101   0.877   1.101  16.129 -0.2830 -0.1407  0.1258
 2880SOL    HW120102   0.930   1.180  16.118 -1.5546  0.8339  1.0576
 2880SOL    HW220103   0.794   1.135  16.095 -0.2066 -0.3929 -0.3160
 2881SOL     OW20104   2.467   2.647   4.703 -0.2760 -0.6959  0.4897
 2881SOL    HW120105   2.396   2.623   4.643  1.1066 -2.8627 -0.2785
 2881SOL    HW220106   2.504   2.560   4.717  1.3252  0.1325  1.3186
 2882SOL     OW20107   2.222   4.599   7.980  0.3506  0.0989 -0.0077
 2882SOL    HW120108   2.242   4.691   7.997 -0.8147  0.4805 -0.7033
 2882SOL    HW220109   2.283   4.584   7.909  0.9348 -2.5793  1.0667
 2883SOL     OW20110   3.810   0.059   7.434  0.1093  0.1785 -0.0972
 2883SOL    HW120111   3.795   0.012   7.516 -0.1211  2.8460  1.3685
 2883SOL    HW220112   3.733   0.116   7.438  1.6893  2.1916  1.8848
 2884SOL     OW20113   1.405   1.393   2.188 -0.0108  0.8482  0.5724
 2884SOL    HW120114   1.386   1.431   2.274  0.8238  1.9371  0.2611
 2884SOL    HW220115   1.318   1.399   2.149  0.6956  0.0748 -1.1393
 2885SOL     OW20116   3.892   2.947   8.132  0.6743  0.0832 -0.2790
 2885SOL    HW120117   3.826   2.926   8.198 -1.7690  2.1892 -2.0459
 2885SOL    HW220118   3.934   2.865   8.104  0.8090  0.2747 -0.6432
 2886SOL     OW20119   1.916   1.931  11.812  0.3630 -0.0988 -0.0624
 2886SOL    HW120120   1.842   1.930  11.873  1.5552 -0.4170  1.3827
 2886SOL    HW220121   1.873   1.899  11.733  1.0190  1.1451 -0.9161
 2887SOL     OW20122   2.687   1.601   3.106 -0.1261 -0.0922  0.1803
 2887SOL    HW120123   2.782   1.599   3.111 -0.0700 -0.4449 -0.9871
 2887SOL    HW220124   2.670   1.602   3.011  0.7059  1.3137  0.0421
 2888SOL     OW20125   1.594   2.834   9.513 -0.1480 -0.2979 -0.9338
 2888SOL    HW120126   1.547   2.861   9.434  0.2406 -1.0224 -1.4188
 2888SOL    HW220127   1.684   2.854   9.486  0.1169  0.9483  0.8624
 2889SOL     OW20128   3.220   3.748   1.229  0.6269 -0.1859 -0.4872
 2889SOL    HW120129   3.262   3.751   1.315 -0.4228  1.4452 -0.0370
 2889SOL    HW220130   3.180   3.661   1.224  0.3377 -0.0472 -0.5704
 2890SOL     OW20131   1.402   2.582   4.995  0.2344  0.3960  0.1073
 2890SOL    HW120132   1.473   2.521   4.977 -0.4740 -0.9943  1.9679
 2890SOL    HW220133   1.388   2.619   4.908 -0.2803 -1.0547 -0.4325
 2891SOL     OW20134   2.105   0.532   8.929  0.2917  0.5442 -0.9184
 2891SOL    HW120135   2.060   0.488   9.001 -0.0309  0.4007 -1.2051
 2891SOL    HW220136   2.180   0.565   8.979  1.5063 -2.1968 -0.9302
 2892SOL     OW20137   0.662   3.422   2.751 -0.0352 -0.0271 -0.6700
 2892SOL    HW120138   0.582   3.402   2.702  1.0461 -0.9304 -2.0631
 2892SOL    HW220139   0.704   3.337   2.750  0.1848  0.0696  0.1172
 2893SOL     OW20140   4.023   4.307  10.037  0.0360 -0.4063  0.4229
 2893SOL    HW120141   4.007   4.334   9.947 -0.0223  2.2512  1.2467
 2893SOL    HW220142   3.940   4.264  10.059 -1.0502  0.0351 -2.8059
 2894SOL     OW20143   1.468   0.168   7.986 -0.0499 -0.4797 -0.3173
 2894SOL    HW120144   1.524   0.090   7.989  0.9234  0.2476  0.6082
 2894SOL    HW220145   1.382   0.128   7.976 -1.0326  1.8594 -1.1848
 2895SOL     OW20146   2.825   0.760  12.406 -0.0863  0.3699  0.4618
 2895SOL    HW120147   2.888   0.758  12.333 -0.7297  2.3730 -0.1421
 2895SOL    HW220148   2.882   0.715  12.468  2.2013  1.8547 -0.5669
 2896SOL     OW20149   1.415   0.246   3.045  0.3044  0.6773 -0.1587
 2896SOL    HW120150   1.492   0.215   2.996  0.7117  1.3258  0.0716
 2896SOL    HW220151   1.451   0.320   3.093  1.5557  0.0246 -0.0719
 2897SOL     OW20152   1.987   3.120  11.376 -0.3585  0.7656  0.2398
 2897SOL    HW120153   1.963   3.171  11.299 -0.6897  1.2053  0.6367
 2897SOL    HW220154   2.081   3.131  11.384 -0.1564 -0.3131 -0.6591
 2898SOL     OW20155   2.054   2.777   6.716 -0.4487 -0.0034  0.3197
 2898SOL    HW120156   2.100   2.698   6.744 -1.4965 -0.4778  0.6951
 2898SOL    HW220157   1.962   2.753   6.725 -1.0056  1.9064 -0.3107
 2899SOL     OW20158   2.280   0.517  12.037 -0.1144  0.3158 -0.2884
 2899SOL    HW120159   2.239   0.480  11.959 -0.0860 -1.3332  0.4648
 2899SOL    HW220160   2.299   0.601  11.995 -0.1305  0.0359 -0.8499
 2900SOL     OW20161   0.073   4.374   3.504 -0.5148 -0.6940  0.4588
 2900SOL    HW120162   0.064   4.339   3.415  1.6379  0.7339 -0.3133
 2900SOL    HW220163   0.167   4.371   3.521 -0.3443 -1.1739 -0.5518
 2901SOL     OW20164   2.520   0.300   6.058  0.0283  0.0920 -0.3565
 2901SOL    HW120165   2.503   0.367   6.124 -1.8153  0.6826 -1.4379
 2901SOL    HW220166   2.450   0.237   6.078 -1.3667  1.7938  0.1084
 2902SOL     OW20167   2.005   0.040   5.740  0.5145 -0.6455 -0.2493
 2902SOL    HW120168   1.933   0.094   5.770 -0.3976 -0.7858 -2.1470
 2902SOL    HW220169   2.076   0.044   5.803  0.6474  1.6528 -0.5395
 2903SOL     OW20170   2.145   3.741   4.477 -0.5559 -0.7023  0.8621
 2903SOL    HW120171   2.221   3.683   4.474 -0.4048 -0.3162 -2.5121
 2903SOL    HW220172   2.188   3.823   4.501  2.3389 -1.8415 -0.4199
 2904SOL     OW20173   3.277   0.242   6.545  0.1081  0.4088 -0.7718
 2904SOL    HW120174   3.320   0.250   6.460 -0.4838 -0.1934 -1.1241
 2904SOL    HW220175   3.245   0.332   6.556 -0.1938  0.4948 -2.4321
 2905SOL     OW20176   3.382   1.872   4.712 -0.6946 -0.2785  0.3891
 2905SOL    HW120177   3.445   1.860   4.641  0.9586  2.0181  1.4644
 2905SOL    HW220178   3.444   1.880   4.785  0.5087 -0.1077 -0.6721
 2906SOL     OW20179   3.320   0.010   3.258  0.0608 -0.1422 -0.0297
 2906SOL    HW120180   3.377   4.649   3.262 -0.7374 -0.7507 -0.5198
 2906SOL    HW220181   3.292   4.712   3.349 -1.2069 -1.1237 -0.5729
 2907SOL     OW20182   0.675   1.139   2.743  0.3219 -0.2920  0.2542
 2907SOL    HW120183   0.613   1.210   2.753  3.0116  1.9490  1.0424
 2907SOL    HW220184   0.616   1.076   2.702 -0.6037  0.8313 -0.1316
 2908SOL     OW20185   3.240   3.827   8.050  0.0301  0.0116  0.2656
 2908SOL    HW120186   3.287   3.749   8.080 -1.0928 -0.6024  0.4273
 2908SOL    HW220187   3.197   3.793   7.972 -2.1649  0.8458  1.1146
 2909SOL     OW20188   0.442   3.123   6.491 -0.3819 -0.5414 -0.2524
 2909SOL    HW120189   0.472   3.034   6.475 -0.2855 -0.9520  2.2059
 2909SOL    HW220190   0.504   3.165   6.431 -0.0748 -1.8842 -0.8656
 2910SOL     OW20191   4.333   1.552   5.578 -0.8547 -0.2667  0.2826
 2910SOL    HW120192   4.305   1.557   5.487 -1.4237 -2.9991  0.3134
 2910SOL    HW220193   4.421   1.514   5.574 -1.0802 -0.8796  1.0182
 2911SOL     OW20194   4.679   0.419   4.240  0.7632  0.5683  0.4761
 2911SOL    HW120195   4.606   0.406   4.301  1.3248 -1.2047  0.7476
 2911SOL    HW220196   4.671   0.513   4.221 -0.1200 -0.3008 -3.6134
 2912SOL     OW20197   0.456   3.604   2.700 -0.0380 -0.0627  0.1691
 2912SOL    HW120198   0.493   3.671   2.643  3.7228 -1.8597  0.4716
 2912SOL    HW220199   0.456   3.534   2.635 -2.4780  1.4365 -1.4701
 2913SOL     OW20200   1.329   3.697  11.520 -0.7220  0.3166  0.2781
 2913SOL    HW120201   1.388   3.765  11.551  0.1779 -0.4756  0.3084
 2913SOL    HW220202   1.380   3.635  11.467  1.8454  0.4630  2.5415
 2914SOL     OW20203   1.332   4.262   5.565 -0.5080 -0.1966 -0.4725
 2914SOL    HW120204   1.293   4.294   5.647 -1.9232  0.6542 -1.4733
 2914SOL    HW220205   1.401   4.204   5.597 -0.0290 -0.4475 -1.9680
 2915SOL     OW20206   0.821   3.558   8.034  0.1874 -0.0199  0.3132
 2915SOL    HW120207   0.853   3.468   8.040 -0.9750 -0.2993  2.1555
 2915SOL    HW220208   0.806   3.565   7.939  1.1664 -0.7780  0.0999
 2916SOL     OW20209   3.973   0.624   6.588  0.6257  0.6876  0.0314
 2916SOL    HW120210   4.052   0.616   6.641  0.0276 -0.7893  0.7151
 2916SOL    HW220211   3.904   0.625   6.655  1.6954  1.9720  1.0918
 2917SOL     OW20212   2.471   1.700  17.559  0.1693 -0.2051  0.0283
 2917SOL    HW120213   2.527   1.665  17.490 -0.2149  0.9689 -0.8747
 2917SOL    HW220214   2.445   1.613  17.591  2.3074 -0.7923  0.1574
 2918SOL     OW20215   1.199   3.021   7.971  0.3412 -0.2987  0.3549
 2918SOL    HW120216   1.113   2.987   7.998  0.5086 -1.0579 -0.0663
 2918SOL    HW220217   1.220   3.083   8.041 -0.2353  0.5017 -0.1713
 2919SOL     OW20218   1.861   3.950   9.200  0.4175 -0.2573  0.2268
 2919SOL    HW120219   1.797   3.883   9.174  1.1050 -1.9541  2.9559
 2919SOL    HW220220   1.867   4.015   9.130 -2.3852 -2.8728 -2.4385
 2920SOL     OW20221   3.598   0.600   7.908 -0.5970  0.6728  0.0679
 2920SOL    HW120222   3.594   0.634   7.997  1.1827  1.6077 -0.2020
 2920SOL    HW220223   3.564   0.512   7.921  1.1227  0.1508  1.0449
 2921SOL     OW20224   2.893   1.356   4.561  0.5467  0.1739 -0.1393
 2921SOL    HW120225   2.927   1.443   4.582  0.4239  0.4637 -1.1686
 2921SOL    HW220226   2.818   1.366   4.620  1.5761  1.1524  1.0214
 2922SOL     OW20227   1.689   2.286  15.187 -0.3878 -0.0002 -0.3248
 2922SOL    HW120228   1.648   2.227  15.251  2.2129 -0.8904  0.4918
 2922SOL    HW220229   1.652   2.247  15.108 -2.8751  3.5020 -0.8880
 2923SOL     OW20230   0.329   4.446   3.824 -0.1749 -0.1287 -0.0610
 2923SOL    HW120231   0.300   4.411   3.909  0.2972  0.2985  0.2789
 2923SOL    HW220232   0.269   4.521   3.819  0.6789  0.6655  1.6632
 2924SOL     OW20233   4.524   0.220   3.433  0.0774  0.0438  0.2361
 2924SOL    HW120234   4.619   0.207   3.433  0.1957  0.8765  1.3273
 2924SOL    HW220235   4.514   0.312   3.407 -0.0275 -0.1040 -0.2410
 2925SOL     OW20236   2.758   0.141  17.369 -0.3434  0.0459  0.3941
 2925SOL    HW120237   2.755   0.222  17.318  0.7277 -0.3736 -0.3562
 2925SOL    HW220238   2.674   0.152  17.414 -0.6963 -0.6567 -0.0880
 2926SOL     OW20239   4.569   1.521   2.482 -0.0410  0.2615  0.7134
 2926SOL    HW120240   4.655   1.506   2.444 -0.5401 -4.0872  1.2779
 2926SOL    HW220241   4.538   1.431   2.473 -0.6985  0.4168  1.3314
 2927SOL     OW20242   0.345   1.954   5.489  0.3440 -0.0110  0.4390
 2927SOL    HW120243   0.398   2.020   5.534  2.0796 -0.8188 -0.4403
 2927SOL    HW220244   0.256   1.988   5.484  0.6405  0.9481  1.6930
 2928SOL     OW20245   3.669   4.475  10.363 -0.5397  0.2740  0.0254
 2928SOL    HW120246   3.675   4.519  10.447 -1.5344  2.3661 -1.0083
 2928SOL    HW220247   3.756   4.501  10.330 -0.3071 -1.5127 -0.8283
 2929SOL     OW20248   3.505   2.281   0.030 -0.4476  0.1827  0.3357
 2929SOL    HW120249   3.488   2.246   0.117  1.9426  1.9833  1.5443
 2929SOL    HW220250   3.559   2.358   0.048  2.0491 -1.5410  0.1635
 2930SOL     OW20251   4.128   4.533  15.175 -0.1565 -0.8778 -0.8219
 2930SOL    HW120252   4.129   4.477  15.253 -1.2828 -2.0554 -1.6599
 2930SOL    HW220253   4.218   4.562  15.182 -0.4075 -0.7393  2.0426
 2931SOL     OW20254   3.380   1.287   3.892 -0.1722  0.4236 -0.6574
 2931SOL    HW120255   3.306   1.228   3.905 -2.1071  2.5396 -2.0500
 2931SOL    HW220256   3.421   1.256   3.812 -1.1866  0.8017 -1.3257
 2932SOL     OW20257   0.719   2.870  16.212  0.1707  0.7558 -0.2720
 2932SOL    HW120258   0.655   2.829  16.152  1.4792 -1.8891  0.1212
 2932SOL    HW220259   0.688   2.850  16.300  0.1666 -0.0428 -0.4545
 2933SOL     OW20260   1.110   4.449  11.741  0.7093 -0.6167  0.1549
 2933SOL    HW120261   1.112   4.443  11.645  3.0637 -0.6159  0.2037
 2933SOL    HW220262   1.019   4.424  11.757 -0.0413  1.3593 -1.0391
 2934SOL     OW20263   0.533   3.507  13.089 -0.0036 -0.4921  0.0715
 2934SOL    HW120264   0.547   3.496  13.183 -0.1705  2.6258  0.4290
 2934SOL    HW220265   0.440   3.529  13.081 -0.0128 -1.0777 -1.4657
 2935SOL     OW20266   2.687   0.482   5.317  0.7233  0.0485  0.5168
 2935SOL    HW120267   2.728   0.522   5.394 -0.9747 -1.7991  2.4121
 2935SOL    HW220268   2.633   0.555   5.287  2.3359  0.6436 -0.9046
 2936SOL     OW20269   1.728   3.296   9.533  0.3010  0.0640  0.0662
 2936SOL    HW120270   1.710   3.232   9.602 -0.0063  1.8911  1.6922
 2936SOL    HW220271   1.749   3.377   9.580 -0.2726 -1.4571  2.9610
 2937SOL     OW20272   2.888   1.981  10.905  0.3939  0.6889 -0.1355
 2937SOL    HW120273   2.952   1.945  10.844  1.5982  0.3616  1.3323
 2937SOL    HW220274   2.932   1.969  10.989 -0.1041  0.0266  0.0269
 2938SOL     OW20275   1.896   3.852   1.647  0.0225 -0.1874 -0.2580
 2938SOL    HW120276   1.809   3.838   1.609 -0.2774  1.2310 -0.0984
 2938SOL    HW220277   1.883   3.823   1.737  1.3082 -0.9166 -0.3064
 2939SOL     OW20278   2.503   0.395   0.059 -0.2498  0.6754 -0.4823
 2939SOL    HW120279   2.433   0.458   0.043 -0.4812  0.2863 -0.9854
 2939SOL    HW220280   2.569   0.457   0.090 -0.0181  0.1346  0.1109
 2940SOL     OW20281   4.269   4.214   8.057 -0.0315  0.4428  0.2536
 2940SOL    HW120282   4.231   4.148   7.999  2.2378 -0.4643 -0.2047
 2940SOL    HW220283   4.360   4.198   8.029 -0.3466  0.7449 -0.9519
 2941SOL     OW20284   1.071   2.814   7.398 -0.8117 -0.1685  0.2574
 2941SOL    HW120285   1.017   2.861   7.462  1.1317  0.4560  1.4376
 2941SOL    HW220286   1.144   2.795   7.457 -2.2870  0.0242  2.1403
 2942SOL     OW20287   3.915   0.541  11.172  0.7764  0.1954  0.2675
 2942SOL    HW120288   3.858   0.588  11.232 -0.6333 -0.8291 -0.2835
 2942SOL    HW220289   3.933   0.460  11.220  0.0140 -2.3699 -3.7652
 2943SOL     OW20290   3.463   1.128  11.910  1.0432  0.0950  0.3691
 2943SOL    HW120291   3.430   1.121  12.000  1.2905 -0.9504  0.3768
 2943SOL    HW220292   3.499   1.216  11.900 -1.1234  0.5572 -3.0667
 2944SOL     OW20293   0.729   3.379  11.332 -0.3148  0.6320  0.0976
 2944SOL    HW120294   0.785   3.396  11.407  0.1573  0.9966 -0.3349
 2944SOL    HW220295   0.664   3.320  11.370 -0.2893 -0.2338 -1.1974
 2945SOL     OW20296   1.238   2.943   4.003  0.0122 -0.0949 -0.5263
 2945SOL    HW120297   1.231   2.881   4.076 -0.4227  0.2213 -0.2964
 2945SOL    HW220298   1.150   2.980   4.012  0.4354  0.6104  0.8707
 2946SOL     OW20299   3.821   1.490  11.696  0.5553 -0.3886  0.0470
 2946SOL    HW120300   3.883   1.417  11.698  1.0961  0.0702  0.0195
 2946SOL    HW220301   3.887   1.559  11.686  0.1948 -0.2163 -1.1316
 2947SOL     OW20302   0.130   2.009  15.604 -0.1883 -0.0523 -0.0191
 2947SOL    HW120303   0.146   1.952  15.529  1.4211  0.1607  0.1778
 2947SOL    HW220304   0.134   1.954  15.683 -0.4030 -1.4902 -1.0083
 2948SOL     OW20305   1.597   1.822   7.082  0.3152 -0.5456 -0.4620
 2948SOL    HW120306   1.535   1.765   7.127 -0.5891 -0.7385 -1.9448
 2948SOL    HW220307   1.536   1.880   7.037  0.5646  0.1926  0.1597
 2949SOL     OW20308   1.423   1.938   6.354 -0.0507  0.4761 -0.5874
 2949SOL    HW120309   1.397   2.000   6.422 -2.5212 -1.6942  0.4453
 2949SOL    HW220310   1.423   1.986   6.271  0.3185  2.2956  0.4540
 2950SOL     OW20311   4.595   1.741  10.583 -0.0309 -0.4388 -0.2748
 2950SOL    HW120312   4.635   1.736  10.669  0.3444 -0.5962 -0.4594
 2950SOL    HW220313   4.507   1.710  10.604 -0.8842  1.3936 -1.0744
 2951SOL     OW20314   2.727   4.209   6.139  0.4642  0.6776 -0.3102
 2951SOL    HW120315   2.670   4.275   6.101 -0.0687  0.3057 -0.1510
 2951SOL    HW220316   2.676   4.145   6.189  2.9014 -0.8001  0.2837
 2952SOL     OW20317   4.236   3.375  16.046 -0.2728  0.5493  0.3917
 2952SOL    HW120318   4.308   3.366  15.984 -1.3062 -1.9333 -0.4623
 2952SOL    HW220319   4.212   3.283  16.054 -1.1665  0.8367  1.0969
 2953SOL     OW20320   1.119   3.358   9.906 -0.4349  0.2514  0.3289
 2953SOL    HW120321   1.185   3.295   9.933 -0.4151  0.3165  0.4290
 2953SOL    HW220322   1.101   3.403   9.988  1.4843 -0.4894  1.1453
 2954SOL     OW20323   1.594   1.867   2.188  0.6478  0.3903  0.2666
 2954SOL    HW120324   1.540   1.841   2.263  1.2150  2.6159  1.4663
 2954SOL    HW220325   1.675   1.820   2.209  0.7065  0.5306  0.3610
 2955SOL     OW20326   1.739   0.782   4.374  0.0851 -0.4916  0.2906
 2955SOL    HW120327   1.795   0.816   4.444  0.1266  1.8698 -0.8857
 2955SOL    HW220328   1.689   0.721   4.428  2.2941 -0.8459  1.9351
 2956SOL     OW20329   1.200   3.229   1.842  0.1983  0.4701  0.2754
 2956SOL    HW120330   1.151   3.246   1.923  0.0401 -0.0128  0.2791
 2956SOL    HW220331   1.146   3.160   1.804  1.5148 -1.0983  1.2327
 2957SOL     OW20332   2.465   3.685  11.601 -0.1467  0.3743  0.7207
 2957SOL    HW120333   2.469   3.780  11.610 -0.8134  0.3497  1.2584
 2957SOL    HW220334   2.519   3.671  11.523 -1.5090  1.1023 -0.3435
 2958SOL     OW20335   1.888   0.928   6.034  0.0236  0.4790  0.0124
 2958SOL    HW120336   1.967   0.955   6.081  0.2956 -0.3532  0.0401
 2958SOL    HW220337   1.817   0.967   6.086 -1.5696  0.3971 -2.0853
 2959SOL     OW20338   3.911   2.102  10.471  0.3067 -0.2395  0.0431
 2959SOL    HW120339   3.854   2.056  10.409 -1.3194  0.9822  0.6052
 2959SOL    HW220340   3.932   2.183  10.425  0.2444 -0.8961 -1.1341
 2960SOL     OW20341   4.615   0.226   2.482  0.2937 -0.2173  0.1610
 2960SOL    HW120342   4.577   0.197   2.565 -0.5269  1.3499  0.3249
 2960SOL    HW220343   4.708   0.233   2.506  0.3957  0.6007 -0.5170
 2961SOL     OW20344   3.878   3.165   7.169 -0.3954 -0.4288  0.0757
 2961SOL    HW120345   3.821   3.106   7.120 -1.6339 -0.0614  1.0815
 2961SOL    HW220346   3.830   3.247   7.159 -0.3010 -0.7304 -2.8129
 2962SOL     OW20347   2.072   2.032  13.373  0.3926  0.4827 -0.1456
 2962SOL    HW120348   1.986   2.052  13.337  1.0603 -2.5751 -3.4346
 2962SOL    HW220349   2.074   2.095  13.444 -1.0960 -0.4014  0.6943
 2963SOL     OW20350   4.341   1.115   7.132  0.5458 -0.3669 -0.0596
 2963SOL    HW120351   4.368   1.187   7.189  1.1440  0.6059 -1.5803
 2963SOL    HW220352   4.422   1.065   7.118  0.1507 -1.3541  1.2431
 2964SOL     OW20353   1.592   2.752  13.242 -0.2829  0.0447 -0.2386
 2964SOL    HW120354   1.570   2.834  13.198 -1.2598  0.5389  1.1658
 2964SOL    HW220355   1.598   2.698  13.163  3.5835  0.6326 -0.3750
 2965SOL     OW20356   3.552   2.837   5.419  0.8067  0.3062 -0.4096
 2965SOL    HW120357   3.550   2.931   5.407 -1.8766  0.3089  0.1229
 2965SOL    HW220358   3.572   2.827   5.513 -1.0160  2.7296  0.2120
 2966SOL     OW20359   2.969   2.688  16.207  0.0597 -0.5045 -0.8380
 2966SOL    HW120360   3.021   2.769  16.206 -0.0195 -0.4512 -0.3911
 2966SOL    HW220361   2.979   2.682  16.302 -0.3874 -2.9282 -0.9406
 2967SOL     OW20362   2.507   2.933   1.896 -0.1061 -0.3132 -0.4077
 2967SOL    HW120363   2.482   2.992   1.825 -0.0670  1.0447  0.6996
 2967SOL    HW220364   2.493   2.848   1.855 -0.0629 -1.5832  2.2013
 2968SOL     OW20365   3.650   1.389   9.361  0.2147  0.1154 -0.5220
 2968SOL    HW120366   3.706   1.439   9.302 -1.6077  0.0661 -2.2767
 2968SOL    HW220367   3.666   1.435   9.444  0.5467 -0.0947 -0.4685
 2969SOL     OW20368   3.214   0.227  12.731 -0.3675 -0.2164  0.3295
 2969SOL    HW120369   3.308   0.218  12.720 -0.2465  0.6459  0.6174
 2969SOL    HW220370   3.180   0.142  12.702 -0.8081 -0.3346  1.1824
 2970SOL     OW20371   2.832   4.146   2.891 -0.2014 -0.3993  0.1138
 2970SOL    HW120372   2.780   4.203   2.947  1.0965  0.6286  0.2653
 2970SOL    HW220373   2.759   4.113   2.838  0.6891 -1.6589 -0.3477
 2971SOL     OW20374   1.368   1.267   4.984  0.7422 -0.4895 -0.2045
 2971SOL    HW120375   1.341   1.184   5.024  2.2114 -1.0061 -0.2655
 2971SOL    HW220376   1.416   1.302   5.059  1.1175 -0.8180 -0.2908
 2972SOL     OW20377   3.505   0.119   2.600 -0.4841  0.6327  0.0376
 2972SOL    HW120378   3.431   0.147   2.653  0.5516 -1.0917  2.4116
 2972SOL    HW220379   3.502   0.165   2.516  1.0830 -1.9262 -1.4202
 2973SOL     OW20380   3.347   3.156  14.178 -0.0476  0.5908  0.5431
 2973SOL    HW120381   3.347   3.169  14.273 -2.7197 -0.0816  0.6225
 2973SOL    HW220382   3.301   3.072  14.180  0.1790  0.4517  0.0425
 2974SOL     OW20383   1.639   3.809   1.474 -0.0617  0.5463 -0.2651
 2974SOL    HW120384   1.698   3.747   1.430 -0.9414 -0.1737 -0.4334
 2974SOL    HW220385   1.653   3.891   1.427 -1.0306 -1.2715 -3.6962
 2975SOL     OW20386   2.216   1.330   4.517 -0.4585 -0.0789 -0.7488
 2975SOL    HW120387   2.220   1.271   4.593  0.9421  1.7526  0.6128
 2975SOL    HW220388   2.195   1.411   4.563  2.0245 -0.8144  1.7096
 2976SOL     OW20389   2.569   1.994  14.590 -0.4786 -0.2559  0.3183
 2976SOL    HW120390   2.527   2.079  14.586  1.5854  0.7642  0.3233
 2976SOL    HW220391   2.601   1.988  14.681 -0.1321 -1.0057  0.1529
 2977SOL     OW20392   4.536   4.518   7.763 -0.2449 -0.0073 -0.3372
 2977SOL    HW120393   4.489   4.434   7.756 -1.1338  0.4258  0.4087
 2977SOL    HW220394   4.560   4.529   7.671 -1.3833  2.0177 -0.3908
 2978SOL     OW20395   1.305   0.998   1.885  0.3269  0.7762 -0.2964
 2978SOL    HW120396   1.211   0.984   1.889  0.5545 -0.8957 -0.5673
 2978SOL    HW220397   1.308   1.082   1.930 -3.0070 -0.0105  1.3502
 2979SOL     OW20398   0.298   1.467  12.746 -0.0503 -0.3676  0.0103
 2979SOL    HW120399   0.272   1.554  12.775 -1.9792 -1.0173  0.2125
 2979SOL    HW220400   0.235   1.410  12.790 -2.0199  3.2995  1.8805
 2980SOL     OW20401   0.292   1.427  15.438  0.6461 -0.2003  0.0285
 2980SOL    HW120402   0.299   1.344  15.485  0.0939  0.4333  1.2292
 2980SOL    HW220403   0.252   1.489  15.500  0.9038  1.7361 -1.7516
 2981SOL     OW20404   2.574   0.316   6.726 -0.1838 -0.1098  0.5630
 2981SOL    HW120405   2.534   0.394   6.763 -1.0621  0.0697 -0.7757
 2981SOL    HW220406   2.494   0.272   6.697  0.3635 -0.5714 -0.2494
 2982SOL     OW20407   4.028   0.103   8.058  0.0722  0.2138  0.1480
 2982SOL    HW120408   4.001   0.031   8.115  0.0338  0.2608  0.1886
 2982SOL    HW220409   4.120   0.088   8.034  0.5880  0.9642  1.6352
 2983SOL     OW20410   0.403   2.524  11.258 -0.7147 -0.0204 -0.6661
 2983SOL    HW120411   0.452   2.517  11.340 -1.6993 -1.0639 -0.1744
 2983SOL    HW220412   0.456   2.466  11.203  1.5969  0.6873  0.7965
 2984SOL     OW20413   1.833   1.825  13.531 -0.4940 -0.4140 -0.5258
 2984SOL    HW120414   1.797   1.888  13.593  0.6568  0.1839 -0.4764
 2984SOL    HW220415   1.810   1.739  13.568  0.1816  0.1343  1.1321
 2985SOL     OW20416   0.725   4.536   3.425  0.0237 -0.0453 -0.5282
 2985SOL    HW120417   0.781   4.614   3.417  0.3431 -0.2181  0.0049
 2985SOL    HW220418   0.747   4.477   3.354  0.3709 -1.7078  0.9696
 2986SOL     OW20419   0.869   2.111  10.829 -0.2944 -0.2167  0.2137
 2986SOL    HW120420   0.842   2.203  10.829  0.2748 -0.0541  2.0486
 2986SOL    HW220421   0.819   2.081  10.904 -1.2180  2.7330  0.7739
 2987SOL     OW20422   4.297   0.035  17.164  0.2886 -0.8493 -0.1213
 2987SOL    HW120423   4.364   4.711  17.220  0.9155 -0.1600 -0.3721
 2987SOL    HW220424   4.246   0.087  17.226  0.5960 -2.2433  1.3076
 2988SOL     OW20425   2.782   2.469   1.177  0.3536 -0.2324 -0.0043
 2988SOL    HW120426   2.839   2.546   1.174  1.5295 -1.0231  2.0265
 2988SOL    HW220427   2.698   2.515   1.182  1.8846  2.8946 -2.6330
 2989SOL     OW20428   1.107   1.439   4.124 -0.2190  0.0779 -0.2606
 2989SOL    HW120429   1.200   1.453   4.138  0.1149 -1.4330 -1.0133
 2989SOL    HW220430   1.109   1.362   4.068 -0.2429 -0.2997  0.2527
 2990SOL     OW20431   4.638   3.737  10.846  0.8095 -0.2578 -0.4539
 2990SOL    HW120432   4.560   3.792  10.857  0.4905 -0.6316 -0.8362
 2990SOL    HW220433   4.705   3.794  10.808  1.7287 -0.2212  1.2120
 2991SOL     OW20434   4.665   1.180   5.273  0.2956  0.2187  0.2699
 2991SOL    HW120435   4.577   1.156   5.242 -0.1009  1.2541  0.6140
 2991SOL    HW220436   0.001   1.101   5.264  1.1799  1.0682 -1.9993
 2992SOL     OW20437   0.470   0.413   3.946 -0.5191  0.0448 -0.6438
 2992SOL    HW120438   0.474   0.327   3.987 -0.5179  0.9710  1.2716
 2992SOL    HW220439   0.384   0.407   3.904 -0.9788  2.3435 -0.0433
 2993SOL     OW20440   1.144   2.699   3.758 -0.1718 -0.2667 -0.2304
 2993SOL    HW120441   1.190   2.783   3.768  2.2219 -1.3928 -1.7437
 2993SOL    HW220442   1.119   2.691   3.850  0.5570 -1.7994 -0.1580
 2994SOL     OW20443   3.263   2.600   5.942  0.5437 -0.2467  0.4168
 2994SOL    HW120444   3.304   2.685   5.957  1.0506 -0.2141 -1.1301
 2994SOL    HW220445   3.271   2.557   6.027 -0.6096  1.1709  1.2456
 2995SOL     OW20446   2.819   2.685  12.418  0.2366  0.0943  0.4605
 2995SOL    HW120447   2.883   2.634  12.369  1.8273 -0.0536  2.7327
 2995SOL    HW220448   2.756   2.704  12.348  0.7787  2.5910  0.6575
 2996SOL     OW20449   2.649   2.328   6.671  0.1479  0.6173  0.0751
 2996SOL    HW120450   2.705   2.280   6.733 -1.5265  0.5459  1.5474
 2996SOL    HW220451   2.574   2.269   6.670  1.2704 -0.8583  2.0803
 2997SOL     OW20452   4.408   3.881   4.672  0.3026 -0.5519  0.2391
 2997SOL    HW120453   4.414   3.896   4.578 -2.6341  0.0282  0.1344
 2997SOL    HW220454   4.417   3.972   4.699  1.8355 -1.5673  3.0927
 2998SOL     OW20455   0.349   0.297   7.029 -0.3996 -0.0371  0.7393
 2998SOL    HW120456   0.416   0.360   7.054 -1.0267  0.5401  0.9466
 2998SOL    HW220457   0.344   0.241   7.107 -0.6763 -0.3602  0.4879
 2999SOL     OW20458   4.110   3.390   0.902 -0.2887 -0.5631 -0.2120
 2999SOL    HW120459   4.065   3.351   0.976  1.6880 -1.2578  0.6322
 2999SOL    HW220460   4.174   3.443   0.950  0.9536  0.4408 -2.9276
 3000SOL     OW20461   4.333   4.595   1.480 -0.3397  0.4490  0.1504
 3000SOL    HW120462   4.304   4.591   1.389  0.6664  0.5545 -0.1745
 3000SOL    HW220463   4.354   4.504   1.501  0.7884  0.1228 -2.3553
 3001SOL     OW20464   4.353   0.185   8.127 -0.0591 -0.0981  0.5448
 3001SOL    HW120465   4.404   0.111   8.159  0.1358  0.2560  1.0536
 3001SOL    HW220466   4.325   0.231   8.206 -0.3728 -0.5607  0.7046
 3002SOL     OW20467   0.162   2.292  13.914  0.2708 -0.2691 -0.1064
 3002SOL    HW120468   0.238   2.277  13.970  0.6778 -1.2156 -0.9106
 3002SOL    HW220469   0.167   2.227  13.845  0.7893  0.1850 -0.4910
 3003SOL     OW20470   1.632   3.320   2.206 -0.1752 -0.3694  0.2344
 3003SOL    HW120471   1.645   3.233   2.170  0.0507  0.8509 -2.6329
 3003SOL    HW220472   1.570   3.296   2.275 -0.6057  1.3056  0.4394
 3004SOL     OW20473   4.270   3.736   6.476  0.0761  0.0179 -0.0417
 3004SOL    HW120474   4.354   3.773   6.504  0.7410 -3.4800  2.6086
 3004SOL    HW220475   4.250   3.805   6.412  1.0834  0.1743 -0.1893
 3005SOL     OW20476   0.893   0.670   7.737  0.3062  0.1994 -0.1324
 3005SOL    HW120477   0.865   0.740   7.796 -0.5443 -1.4134  1.3658
 3005SOL    HW220478   0.917   0.724   7.661  1.4369  0.2314  0.2449
 3006SOL     OW20479   1.645   2.326  11.938 -0.1599  0.3839 -0.0432
 3006SOL    HW120480   1.633   2.386  12.011 -1.9902 -0.8141  0.6313
 3006SOL    HW220481   1.648   2.390  11.867  0.5796 -1.2961 -1.5323
 3007SOL     OW20482   2.294   3.029  12.964 -0.4768  0.0312  0.3002
 3007SOL    HW120483   2.262   3.008  13.052 -0.3410 -3.1405 -0.4030
 3007SOL    HW220484   2.277   3.122  12.952  4.3534  1.1112  1.8499
 3008SOL     OW20485   4.626   1.233  13.025 -0.3303  0.0873 -0.2000
 3008SOL    HW120486   4.632   1.151  13.074 -0.7048  0.1743 -0.0116
 3008SOL    HW220487   4.536   1.232  12.993 -0.7786  3.1423  0.9701
 3009SOL     OW20488   0.194   4.468  14.357 -0.2198  0.5004  0.6046
 3009SOL    HW120489   0.220   4.549  14.314  0.8245 -0.2055 -0.0971
 3009SOL    HW220490   0.191   4.513  14.442  1.6315  1.6147  0.0824
 3010SOL     OW20491   2.892   4.673   9.912  0.5935 -0.5163  0.0749
 3010SOL    HW120492   2.922   0.013   9.984 -1.1173  1.7868 -1.0167
 3010SOL    HW220493   2.976   4.634   9.886 -0.0818 -0.4510 -2.1719
 3011SOL     OW20494   2.365   0.915   4.562  0.4190  0.6459 -0.0870
 3011SOL    HW120495   2.389   0.883   4.475  0.3168 -1.7060  0.7655
 3011SOL    HW220496   2.416   0.861   4.622  0.7733 -0.6787 -1.5661
 3012SOL     OW20497   3.705   3.263   2.211 -0.1052 -0.5216 -0.3152
 3012SOL    HW120498   3.675   3.349   2.182 -1.1157 -0.3734  1.1921
 3012SOL    HW220499   3.766   3.276   2.283 -0.2230 -1.8604  0.0234
 3013SOL     OW20500   3.889   2.130   8.818 -0.0502  0.2527  0.5684
 3013SOL    HW120501   3.865   2.040   8.799 -0.8687  0.9548 -1.6583
 3013SOL    HW220502   3.951   2.114   8.889 -0.0362 -1.8344  0.0681
 3014SOL     OW20503   1.970   4.484  10.412 -0.2396  0.0243  0.6238
 3014SOL    HW120504   1.933   4.556  10.463 -0.6660 -0.6594  1.2907
 3014SOL    HW220505   1.908   4.413  10.431 -0.1891 -0.3016 -0.4398
 3015SOL     OW20506   1.033   2.754  12.225  0.8877  0.4650  0.0322
 3015SOL    HW120507   1.097   2.683  12.229  1.2224  0.7611 -0.0535
 3015SOL    HW220508   0.956   2.712  12.264 -0.0611 -0.7925 -3.1544
 3016SOL     OW20509   3.649   4.036   0.666 -0.6856  0.1995  0.0610
 3016SOL    HW120510   3.616   4.061   0.753  0.9220 -0.9990  1.0201
 3016SOL    HW220511   3.587   3.971   0.632 -1.6600  0.7511  0.7696
 3017SOL     OW20512   1.724   0.246   3.970 -0.6052 -0.0846  0.2308
 3017SOL    HW120513   1.703   0.337   3.989 -0.0341  0.3035 -0.9751
 3017SOL    HW220514   1.777   0.215   4.044 -0.3149 -1.3419 -0.5056
 3018SOL     OW20515   1.191   2.375   6.889 -0.4331 -0.5602 -0.6070
 3018SOL    HW120516   1.153   2.336   6.968  1.4524 -1.5812 -0.2096
 3018SOL    HW220517   1.113   2.384   6.834 -0.8395  1.7837  0.3346
 3019SOL     OW20518   3.537   2.070   1.572 -0.0107  0.3857 -0.3457
 3019SOL    HW120519   3.538   2.143   1.633 -0.9382 -0.1084  0.2771
 3019SOL    HW220520   3.487   2.107   1.499 -1.2463  0.7054  0.6712
 3020SOL     OW20521   1.984   4.434   6.557 -0.5015  0.3724 -0.0215
 3020SOL    HW120522   2.025   4.495   6.496  0.6831  0.2703  0.6857
 3020SOL    HW220523   1.947   4.370   6.495 -2.1831 -0.1061  1.4716
 3021SOL     OW20524   3.329   3.105   3.466 -0.1778 -0.3593  0.5247
 3021SOL    HW120525   3.236   3.090   3.448 -0.2178 -2.4948  2.4834
 3021SOL    HW220526   3.338   3.079   3.558  1.8268  1.6952  0.9086
 3022SOL     OW20527   3.229   1.932  16.439  0.5484 -0.3709  0.0163
 3022SOL    HW120528   3.139   1.950  16.411 -0.1431 -0.9045  1.9040
 3022SOL    HW220529   3.282   2.011  16.434  0.2901 -0.2691 -1.0491
 3023SOL     OW20530   1.398   1.080   7.513  0.3401  0.0909 -1.0075
 3023SOL    HW120531   1.326   1.069   7.574  0.1077  2.6591 -0.8277
 3023SOL    HW220532   1.440   0.995   7.532  2.7669  1.9721  2.0747
 3024SOL     OW20533   0.360   0.619  11.553 -1.0410 -0.2868 -0.1074
 3024SOL    HW120534   0.441   0.572  11.572 -1.8829 -0.6692  2.4261
 3024SOL    HW220535   0.320   0.558  11.491 -2.7250 -1.3443  2.0207
 3025SOL     OW20536   2.251   0.262  14.890 -0.0218  0.2477  0.8230
 3025SOL    HW120537   2.198   0.255  14.969 -1.4833  0.4393 -0.1410
 3025SOL    HW220538   2.184   0.294  14.830 -0.2339 -0.1824  0.8325
 3026SOL     OW20539   3.723   1.998   7.093 -0.3164 -0.1414  0.7725
 3026SOL    HW120540   3.709   2.017   7.000  0.8277 -0.4673  0.5307
 3026SOL    HW220541   3.805   1.949   7.088 -0.3519  0.0565 -1.5072
 3027SOL     OW20542   3.510   3.946   7.889  0.1241 -0.3774  0.4531
 3027SOL    HW120543   3.556   3.960   7.806 -0.1571 -1.7122  0.0713
 3027SOL    HW220544   3.533   3.854   7.903 -1.0008 -0.4041  2.1021
 3028SOL     OW20545   0.598   0.795   3.069  0.1312  0.0962 -0.9738
 3028SOL    HW120546   0.672   0.856   3.072  2.8062 -3.2290  0.4196
 3028SOL    HW220547   0.618   0.767   2.980  1.6484 -0.8424 -0.3264
 3029SOL     OW20548   2.495   4.397   9.150  0.5005  0.2505 -0.2458
 3029SOL    HW120549   2.485   4.491   9.165  0.9521  0.3210 -0.3939
 3029SOL    HW220550   2.544   4.371   9.228  2.9327 -0.7035 -2.1126
 3030SOL     OW20551   4.387   0.109  12.840  0.2203  0.2961 -0.5228
 3030SOL    HW120552   4.469   0.064  12.822 -0.3994  0.1084 -2.8753
 3030SOL    HW220553   4.411   0.201  12.848  4.0785 -0.8016  0.6691
 3031SOL     OW20554   2.031   2.381  15.679  0.5257  0.4229 -0.1266
 3031SOL    HW120555   2.057   2.419  15.594  1.6980  0.7025  0.3554
 3031SOL    HW220556   1.972   2.311  15.652  1.6149 -0.4271 -0.3226
 3032SOL     OW20557   2.449   1.088   5.733 -0.1306 -0.0573  0.1195
 3032SOL    HW120558   2.415   1.099   5.644 -0.7842 -1.6651  0.1716
 3032SOL    HW220559   2.485   1.172   5.761 -0.9473 -0.1391  1.4079
 3033SOL     OW20560   1.236   2.454   3.656 -0.5099  0.2358  0.2950
 3033SOL    HW120561   1.199   2.532   3.698 -1.1675 -0.0361  0.2265
 3033SOL    HW220562   1.317   2.490   3.621 -0.3172  0.3188  0.8367
 3034SOL     OW20563   4.088   3.933   5.924 -0.4679  1.0377 -0.2075
 3034SOL    HW120564   4.050   4.004   5.872 -0.5294  1.1570  0.0009
 3034SOL    HW220565   4.041   3.860   5.883  1.1767 -0.3375  0.3253
 3035SOL     OW20566   2.481   3.828  12.332 -0.9030 -0.0328  0.0650
 3035SOL    HW120567   2.458   3.863  12.246  0.8876 -0.0685 -0.4268
 3035SOL    HW220568   2.396   3.840  12.375  0.2882  2.4235  1.7203
 3036SOL     OW20569   3.449   1.164   3.631  0.0481 -0.5173 -0.3320
 3036SOL    HW120570   3.387   1.148   3.560 -0.0246 -0.1110 -0.3617
 3036SOL    HW220571   3.531   1.148   3.584 -0.6574  0.5217 -1.9240
 3037SOL     OW20572   0.430   1.919   2.462  0.3362 -0.2326  0.5408
 3037SOL    HW120573   0.500   1.975   2.429  2.0971 -1.4088  2.2238
 3037SOL    HW220574   0.356   1.974   2.439 -0.9698 -2.8256 -1.4226
 3038SOL     OW20575   3.368   0.614  16.029  0.4425  0.3917  0.0321
 3038SOL    HW120576   3.408   0.544  15.977  3.6123  0.3924  2.5265
 3038SOL    HW220577   3.429   0.682  16.002  0.5971 -1.0549 -3.2884
 3039SOL     OW20578   4.076   0.690   1.708  0.2241  0.6994  0.2406
 3039SOL    HW120579   4.043   0.733   1.630 -0.1546 -0.5143 -0.2518
 3039SOL    HW220580   3.996   0.645   1.736  0.8118 -2.0631 -2.5826
 3040SOL     OW20581   4.287   4.101   3.768  0.4718 -0.0225 -0.3531
 3040SOL    HW120582   4.329   4.027   3.723  0.4918 -0.2944  0.1117
 3040SOL    HW220583   4.231   4.058   3.831  0.7554  0.2166  0.0630
 3041SOL     OW20584   0.181   3.495  15.123 -0.2546 -0.0860  0.1488
 3041SOL    HW120585   0.234   3.558  15.073  0.7345 -0.1109  1.1551
 3041SOL    HW220586   0.183   3.422  15.062 -0.8899 -1.1378  1.3914
 3042SOL     OW20587   0.343   1.015   5.855 -0.8909  0.2253  0.1366
 3042SOL    HW120588   0.314   1.103   5.876 -0.4542  0.2779  0.5286
 3042SOL    HW220589   0.383   0.993   5.939  1.3284 -0.2671 -1.0202
 3043SOL     OW20590   2.265   0.390  12.470 -0.8037  0.0705  0.2451
 3043SOL    HW120591   2.200   0.392  12.400  1.2719 -0.8238 -1.6836
 3043SOL    HW220592   2.306   0.304  12.462  0.5377  0.2453  5.0244
 3044SOL     OW20593   0.161   0.201   8.179  0.1553 -0.6942 -0.0043
 3044SOL    HW120594   0.239   0.153   8.149 -0.7797 -1.4533 -1.1890
 3044SOL    HW220595   0.122   0.128   8.226  1.7878 -1.6453 -0.1204
 3045SOL     OW20596   2.873   2.233   6.815 -0.0238  0.4462  0.0574
 3045SOL    HW120597   2.865   2.169   6.886 -1.8727  0.6445  0.0152
 3045SOL    HW220598   2.955   2.207   6.772  1.6332  1.1200  2.7883
 3046SOL     OW20599   0.903   4.138   8.438 -0.1096  0.1410  0.0058
 3046SOL    HW120600   0.989   4.108   8.409 -0.0228  0.8632 -0.4949
 3046SOL    HW220601   0.858   4.154   8.355  1.6614 -2.1932 -1.3984
 3047SOL     OW20602   0.851   3.073  14.882 -0.5035 -1.0231 -0.1339
 3047SOL    HW120603   0.784   3.081  14.949 -0.1050 -0.6345  0.2158
 3047SOL    HW220604   0.929   3.076  14.937 -2.0327 -0.3058  1.9957
 3048SOL     OW20605   0.518   0.952   5.455  0.1532 -0.3795 -0.2200
 3048SOL    HW120606   0.429   0.922   5.471 -0.6761  1.6743 -1.0783
 3048SOL    HW220607   0.562   0.910   5.530  0.2146  0.0986  0.0089
 3049SOL     OW20608   3.209   1.641   5.643  0.9394  0.2910  0.4266
 3049SOL    HW120609   3.172   1.728   5.651  1.3499  0.7747 -2.9768
 3049SOL    HW220610   3.169   1.605   5.722  1.3562 -0.1430  0.4443
 3050SOL     OW20611   1.469   3.043   5.312 -0.1938  0.1482 -0.4620
 3050SOL    HW120612   1.399   3.107   5.327 -0.0544 -0.1828  1.6461
 3050SOL    HW220613   1.472   3.037   5.217  0.2773 -0.5788 -0.3966
 3051SOL     OW20614   0.161   3.975  10.892 -0.4362  0.2285 -0.2345
 3051SOL    HW120615   0.244   4.011  10.861 -1.5032  1.0901 -2.0772
 3051SOL    HW220616   0.179   3.905  10.956  0.5918  1.3482  0.6956
 3052SOL     OW20617   4.668   2.977  14.602  0.4090  0.3398  0.0327
 3052SOL    HW120618   4.712   2.988  14.686  2.3000 -0.0514 -0.8837
 3052SOL    HW220619   4.631   2.893  14.627  0.0713  1.0164  1.8194
 3053SOL     OW20620   2.665   3.568  12.871  0.0792 -0.0561  0.3925
 3053SOL    HW120621   2.743   3.604  12.831  0.9044 -1.2210  0.9405
 3053SOL    HW220622   2.648   3.497  12.809  2.3057 -2.0322  2.0295
 3054SOL     OW20623   3.862   4.003  11.896  0.0483 -0.5575  0.7875
 3054SOL    HW120624   3.806   4.004  11.818  1.7532  1.8716 -0.4154
 3054SOL    HW220625   3.944   4.005  11.848 -0.4855 -0.0907 -0.1066
 3055SOL     OW20626   2.722   1.288   7.390  0.4924 -0.1330 -0.0402
 3055SOL    HW120627   2.791   1.350   7.414  0.6469 -0.4215  0.2501
 3055SOL    HW220628   2.688   1.332   7.312 -1.5378  0.3310  1.0926
 3056SOL     OW20629   2.046   4.446   8.169 -0.3862  0.5747 -0.5308
 3056SOL    HW120630   1.957   4.445   8.134 -0.5542  2.0009 -0.1583
 3056SOL    HW220631   2.096   4.497   8.105 -0.8079 -1.7794 -2.7342
 3057SOL     OW20632   3.926   1.049   7.666  0.0006 -0.3504  0.2512
 3057SOL    HW120633   3.849   1.095   7.699  1.5117  1.8974  0.5879
 3057SOL    HW220634   3.873   0.987   7.614 -0.0594  0.9173 -1.1953
 3058SOL     OW20635   1.852   3.744   7.127 -0.5117 -0.1802 -0.0317
 3058SOL    HW120636   1.910   3.727   7.052 -0.0658  3.2176 -0.4705
 3058SOL    HW220637   1.838   3.654   7.155 -1.8801 -0.2271 -0.8697
 3059SOL     OW20638   2.274   1.756   5.674  0.2068  0.0901 -0.5329
 3059SOL    HW120639   2.357   1.786   5.709 -1.7598  0.7366  3.5859
 3059SOL    HW220640   2.306   1.667   5.661  1.3547  0.2468  1.2819
 3060SOL     OW20641   4.316   0.890  12.505 -0.6861  0.2180 -0.1866
 3060SOL    HW120642   4.406   0.884  12.472 -1.1584  1.2487 -1.6856
 3060SOL    HW220643   4.314   0.985  12.514 -1.8424  0.1451  0.2735
 3061SOL     OW20644   0.362   3.687   0.604 -0.0241 -0.0955 -0.6670
 3061SOL    HW120645   0.457   3.673   0.615 -0.1253 -0.4967 -0.2856
 3061SOL    HW220646   0.357   3.669   0.510  0.4640 -1.7097 -0.3859
 3062SOL     OW20647   2.967   0.791   6.964  0.0808  0.0074 -0.0538
 3062SOL    HW120648   3.007   0.858   7.020  0.2530  0.2410 -0.4607
 3062SOL    HW220649   2.980   0.816   6.873 -1.0988  0.5687 -0.0698
 3063SOL     OW20650   3.966   0.410  17.408 -0.2157  0.3181 -0.6576
 3063SOL    HW120651   3.969   0.457  17.325 -1.4643  0.7483 -0.4539
 3063SOL    HW220652   3.982   0.486  17.463  0.9005  0.2644 -0.8996
 3064SOL     OW20653   4.295   0.615   4.248 -0.3386 -0.3112 -0.7503
 3064SOL    HW120654   4.283   0.623   4.342 -0.5214 -0.1855 -0.7841
 3064SOL    HW220655   4.355   0.689   4.234 -1.4811  0.3490 -2.2464
 3065SOL     OW20656   3.666   0.627  12.546  0.6361 -0.5530 -0.0657
 3065SOL    HW120657   3.671   0.717  12.514 -2.0596 -1.1732 -2.2043
 3065SOL    HW220658   3.747   0.597  12.588  0.0212 -0.1960  1.3468
 3066SOL     OW20659   3.152   2.017   8.764  0.2247 -0.0980  0.2331
 3066SOL    HW120660   3.154   1.952   8.834  2.2507 -0.3267 -0.0567
 3066SOL    HW220661   3.081   1.979   8.711 -0.6679  1.1357  0.5539
 3067SOL     OW20662   4.058   1.625  10.044  0.4612  0.0400  0.3821
 3067SOL    HW120663   4.111   1.627  10.124  0.2387 -0.7547  0.5506
 3067SOL    HW220664   3.971   1.613  10.084  0.6772  1.5405  1.3049
 3068SOL     OW20665   0.444   0.142   6.581 -0.2785 -0.2293 -0.1107
 3068SOL    HW120666   0.508   0.211   6.564 -0.8318  0.1756 -0.5535
 3068SOL    HW220667   0.443   0.143   6.676 -0.2682 -0.8831 -0.0987
 3069SOL     OW20668   4.011   4.343   6.460  0.1638  0.3325  0.1443
 3069SOL    HW120669   3.952   4.285   6.413 -0.7061  0.8238  0.6267
 3069SOL    HW220670   4.080   4.282   6.486 -1.3190 -2.2051 -1.8825
 3070SOL     OW20671   2.973   2.437  16.101 -0.2870  0.3559  0.0237
 3070SOL    HW120672   2.912   2.459  16.032 -0.5101 -1.5468 -0.3927
 3070SOL    HW220673   3.002   2.522  16.134 -0.2937 -0.4223  2.0795
 3071SOL     OW20674   2.505   2.063  15.584  0.0792 -0.4075 -0.1155
 3071SOL    HW120675   2.553   2.046  15.665  1.4274  0.5598 -0.7023
 3071SOL    HW220676   2.414   2.055  15.612 -0.4255 -0.1094 -1.6738
 3072SOL     OW20677   3.717   3.170   4.572  0.1173 -0.0889 -0.2279
 3072SOL    HW120678   3.735   3.102   4.636  0.2745 -0.2125 -0.4030
 3072SOL    HW220679   3.648   3.136   4.516 -1.4878  0.9164  1.1508
 3073SOL     OW20680   2.714   4.232   6.950 -0.2177 -0.2047  0.9216
 3073SOL    HW120681   2.650   4.174   6.991 -1.3644  0.7864  0.5525
 3073SOL    HW220682   2.738   4.175   6.877 -0.4706 -2.1318  2.3641
 3074SOL     OW20683   1.061   2.068   6.925 -0.2854 -0.0662  0.2107
 3074SOL    HW120684   1.099   2.127   6.990 -0.2505  0.7246 -0.5403
 3074SOL    HW220685   1.071   1.984   6.969 -0.6782 -0.6932 -0.9010
 3075SOL     OW20686   0.638   4.436   6.748 -0.2928 -0.0436 -0.0657
 3075SOL    HW120687   0.673   4.370   6.688  0.7034  0.4199  0.0064
 3075SOL    HW220688   0.570   4.482   6.698 -1.2492 -0.9125  0.4422
 3076SOL     OW20689   3.481   4.160   7.211 -0.2888 -0.0854 -0.0019
 3076SOL    HW120690   3.480   4.145   7.116  2.8937  0.5904 -0.1531
 3076SOL    HW220691   3.549   4.099   7.238  1.5596  3.0341  2.4230
 3077SOL     OW20692   1.936   2.092   2.566  0.4626  0.1868 -1.2091
 3077SOL    HW120693   1.982   2.015   2.601 -0.8471 -0.2939 -0.5389
 3077SOL    HW220694   1.925   2.150   2.641  0.6913 -0.9184 -0.3068
 3078SOL     OW20695   3.656   4.654   3.095  1.1184  0.1618 -0.0094
 3078SOL    HW120696   3.631   4.618   3.010  1.5838 -2.0407  0.7648
 3078SOL    HW220697   3.686   4.571   3.134 -0.3967 -0.9005 -1.1161
 3079SOL     OW20698   1.789   3.611   0.346 -0.3876  0.2240  0.1277
 3079SOL    HW120699   1.751   3.698   0.340  2.2000  1.5799  3.7122
 3079SOL    HW220700   1.809   3.603   0.439 -2.8133  1.2103  0.7354
 3080SOL     OW20701   4.198   3.698  14.535  0.5298  0.1507  0.1035
 3080SOL    HW120702   4.198   3.658  14.448 -0.1210 -2.2065  1.1930
 3080SOL    HW220703   4.192   3.624  14.595 -0.0018 -0.3715 -0.5930
 3081SOL     OW20704   3.346   0.395   8.688  0.1126  0.3829  0.6855
 3081SOL    HW120705   3.292   0.469   8.717  1.3333  1.6895 -0.3860
 3081SOL    HW220706   3.422   0.393   8.745  0.6851 -0.7679 -0.1268
 3082SOL     OW20707   3.734   4.324  13.970 -0.4068 -0.0957  0.0879
 3082SOL    HW120708   3.789   4.246  13.972  0.0329  0.1793 -1.3542
 3082SOL    HW220709   3.795   4.385  14.011 -2.5887  1.0403  1.6435
 3083SOL     OW20710   3.681   1.304   3.992 -0.0551 -0.2663  0.1712
 3083SOL    HW120711   3.589   1.323   3.975  0.0182 -0.4349 -0.4221
 3083SOL    HW220712   3.701   1.323   4.083  0.6020 -0.2222  0.0210
 3084SOL     OW20713   3.446   3.166   5.900  0.4977  0.1936  0.1677
 3084SOL    HW120714   3.519   3.164   5.963  1.5763 -0.0220 -1.0775
 3084SOL    HW220715   3.495   3.218   5.836 -0.8543  2.1087  0.7063
 3085SOL     OW20716   0.809   3.935   1.596 -0.7753 -0.1908 -0.5107
 3085SOL    HW120717   0.788   3.900   1.510 -0.7119 -2.7372  0.5144
 3085SOL    HW220718   0.886   3.991   1.590 -0.4486 -0.6975 -1.0106
 3086SOL     OW20719   4.507   3.232   4.252 -0.1207  0.6432  0.0134
 3086SOL    HW120720   4.429   3.266   4.208 -0.7377 -0.4257  0.3018
 3086SOL    HW220721   4.557   3.206   4.175 -0.1158  1.4734 -0.2615
 3087SOL     OW20722   1.000   0.308   7.608 -0.4736 -0.1376 -0.0796
 3087SOL    HW120723   1.050   0.329   7.687 -1.6151  0.7119  0.4133
 3087SOL    HW220724   0.973   0.217   7.622 -0.9619  0.7654  5.0613
 3088SOL     OW20725   0.325   2.107   8.144 -0.0152 -0.3501  0.0836
 3088SOL    HW120726   0.277   2.025   8.136 -1.2319  0.3709  0.0337
 3088SOL    HW220727   0.346   2.106   8.238 -0.7968 -1.1390  0.2357
 3089SOL     OW20728   3.575   0.344   8.807  0.2192  0.3327 -0.0909
 3089SOL    HW120729   3.634   0.269   8.800 -2.1286 -1.5180  0.2574
 3089SOL    HW220730   3.516   0.316   8.876  0.2270 -0.4646 -0.4104
 3090SOL     OW20731   3.940   0.676  13.372 -0.4138 -0.2387 -0.4397
 3090SOL    HW120732   4.036   0.683  13.371 -0.5261  1.6595  2.7844
 3090SOL    HW220733   3.940   0.585  13.342  0.7315  0.4373 -2.4468
 3091SOL     OW20734   3.629   3.853   7.115 -0.3535  0.2090  0.1803
 3091SOL    HW120735   3.541   3.840   7.080 -0.0262 -0.6503 -0.3130
 3091SOL    HW220736   3.656   3.765   7.141 -0.7724  0.2235  0.6667
 3092SOL     OW20737   2.659   2.602  13.081 -0.5322  0.5957 -0.8231
 3092SOL    HW120738   2.619   2.640  13.160 -2.5837 -1.7401 -0.7645
 3092SOL    HW220739   2.588   2.551  13.044 -1.2525  0.7454  0.3550
 3093SOL     OW20740   3.299   3.810   1.484 -0.0498  0.2176  0.0451
 3093SOL    HW120741   3.288   3.905   1.481  0.6335  0.2620 -1.2055
 3093SOL    HW220742   3.304   3.794   1.578  1.3242  1.3803  0.1729
 3094SOL     OW20743   4.551   0.380   4.855  0.3785  0.3835 -1.0929
 3094SOL    HW120744   4.476   0.409   4.803  1.0509  1.4986 -1.4475
 3094SOL    HW220745   4.520   0.289   4.855  0.6062  0.3009 -2.4304
 3095SOL     OW20746   2.218   3.796   5.061  0.3562 -0.0900 -0.6191
 3095SOL    HW120747   2.198   3.710   5.099  0.5030  0.9308  1.7445
 3095SOL    HW220748   2.196   3.851   5.136 -4.4496  0.3861 -2.3774
 3096SOL     OW20749   1.756   3.870  14.795  0.3075  0.7360 -0.3424
 3096SOL    HW120750   1.756   3.863  14.700  1.8215 -1.1129 -0.1903
 3096SOL    HW220751   1.662   3.885  14.809 -0.1232 -2.1084 -0.2023
 3097SOL     OW20752   1.885   0.477   6.222 -0.1663 -0.5344  0.4781
 3097SOL    HW120753   1.929   0.497   6.139 -0.6565  0.2940  0.4191
 3097SOL    HW220754   1.925   0.536   6.286  1.1364  1.0225 -1.7689
 3098SOL     OW20755   0.220   3.144   1.973  0.2033  0.1368 -0.1591
 3098SOL    HW120756   0.168   3.120   1.897  0.8157 -0.3751 -0.4105
 3098SOL    HW220757   0.175   3.227   1.990 -0.1821 -0.0600 -0.2456
 3099SOL     OW20758   2.807   2.292   4.365 -1.1449 -0.6847 -0.4906
 3099SOL    HW120759   2.793   2.330   4.278  1.0387  1.6241  0.1891
 3099SOL    HW220760   2.879   2.230   4.356  1.7574  2.8134 -1.2004
 3100SOL     OW20761   3.563   0.694   6.308  0.0579 -0.6577 -0.4085
 3100SOL    HW120762   3.548   0.662   6.219 -1.2683  1.3639 -0.9185
 3100SOL    HW220763   3.546   0.611   6.352  1.5586 -1.7490 -1.9357
 3101SOL     OW20764   3.078   1.921  16.072  0.0996 -0.1468 -0.4263
 3101SOL    HW120765   3.047   1.945  15.984  0.1227  0.7290 -0.1925
 3101SOL    HW220766   3.151   1.862  16.054  0.0165 -1.0096  2.1262
 3102SOL     OW20767   3.242   2.305   6.355  0.1404 -0.2703  0.6251
 3102SOL    HW120768   3.192   2.224   6.369 -0.9732  0.8581  3.0108
 3102SOL    HW220769   3.326   2.273   6.388  0.5704  0.3349  0.1166
 3103SOL     OW20770   3.495   2.412   6.938  0.0819  0.0956  0.5774
 3103SOL    HW120771   3.511   2.438   6.847 -2.7672 -3.4468 -0.9540
 3103SOL    HW220772   3.585   2.426   6.964  0.1872 -2.6659  1.6213
 3104SOL     OW20773   4.422   4.074   5.137  0.1634 -0.3707 -0.0203
 3104SOL    HW120774   4.480   4.011   5.094 -1.6687 -1.7968 -0.4175
 3104SOL    HW220775   4.360   4.090   5.066  0.8557  0.9438 -0.3274
 3105SOL     OW20776   1.195   4.466   0.938 -0.4919  0.1005 -0.2999
 3105SOL    HW120777   1.208   4.546   0.888 -3.6633  0.8201  0.0698
 3105SOL    HW220778   1.149   4.504   1.013  0.6011  2.7484 -0.9853
 3106SOL     OW20779   2.614   1.553   2.816 -0.4042  0.1937 -0.0099
 3106SOL    HW120780   2.611   1.627   2.756 -3.4925 -1.3172 -1.7081
 3106SOL    HW220781   2.664   1.500   2.755  0.4457 -1.3985  2.0920
 3107SOL     OW20782   0.031   3.565   1.665 -0.3093  0.1285 -0.1583
 3107SOL    HW120783   0.124   3.584   1.656 -0.2893  0.7060  1.3251
 3107SOL    HW220784   0.003   3.553   1.574  0.6841 -1.0600 -0.2982
 3108SOL     OW20785   3.929   0.590   8.607  0.1844 -0.2706  0.3390
 3108SOL    HW120786   3.839   0.607   8.632  0.3358  1.8676 -0.6166
 3108SOL    HW220787   3.977   0.591   8.690  1.6465  2.3673 -0.5322
 3109SOL     OW20788   2.416   3.434   7.273  0.3101 -0.5309 -0.5698
 3109SOL    HW120789   2.392   3.446   7.365 -2.7971  1.9974 -1.6914
 3109SOL    HW220790   2.508   3.446   7.297 -0.1013  0.7909  0.3506
 3110SOL     OW20791   1.209   0.982   2.822  0.0658 -0.3071  0.3164
 3110SOL    HW120792   1.139   1.006   2.761 -0.4895  2.0380  1.8865
 3110SOL    HW220793   1.161   0.946   2.896  0.6524  0.2998  0.9969
 3111SOL     OW20794   1.304   0.704   9.762 -0.1847  0.1678  0.6231
 3111SOL    HW120795   1.225   0.666   9.725  0.0920 -0.3346  0.5499
 3111SOL    HW220796   1.314   0.637   9.829 -1.2442  1.2320  1.8483
 3112SOL     OW20797   3.511   0.465  13.817  0.4673 -0.3347 -0.6020
 3112SOL    HW120798   3.434   0.486  13.764 -1.1474 -4.0414  0.2561
 3112SOL    HW220799   3.557   0.549  13.807  0.0491 -0.1954 -1.3697
 3113SOL     OW20800   2.539   3.939   2.572  0.4832 -0.2745  0.6025
 3113SOL    HW120801   2.481   3.890   2.514 -0.6382 -0.2217  1.6966
 3113SOL    HW220802   2.487   3.987   2.636 -0.6880  1.3767 -1.5668
 3114SOL     OW20803   0.628   2.726  12.581  0.0906  0.0049  0.2148
 3114SOL    HW120804   0.618   2.780  12.503 -0.5198 -1.0618 -0.4448
 3114SOL    HW220805   0.671   2.791  12.637 -3.4655  0.9191  1.9004
 3115SOL     OW20806   2.650   0.127   6.436  0.0672  0.4465 -0.1304
 3115SOL    HW120807   2.697   0.062   6.383 -1.1895 -0.8815  0.3723
 3115SOL    HW220808   2.683   0.089   6.518  0.2040 -2.2675 -1.4213
 3116SOL     OW20809   4.381   1.529   6.623 -0.0244  0.4876 -0.2137
 3116SOL    HW120810   4.374   1.506   6.530 -1.5727  0.7321 -0.1684
 3116SOL    HW220811   4.319   1.467   6.661 -1.0278  1.5950 -0.0375
 3117SOL     OW20812   2.185   3.830   7.540 -0.0269  0.5638 -0.6913
 3117SOL    HW120813   2.091   3.817   7.553 -0.4747  3.1780 -1.3724
 3117SOL    HW220814   2.219   3.749   7.577  0.1890  0.7825 -0.4048
 3118SOL     OW20815   1.664   2.693   2.685 -0.4796  0.0112  0.5361
 3118SOL    HW120816   1.744   2.685   2.634 -0.9675 -1.0630 -0.0569
 3118SOL    HW220817   1.697   2.678   2.773  1.0072 -1.8063 -0.3209
 3119SOL     OW20818   2.272   3.553  12.490 -0.2887  0.9152  0.2967
 3119SOL    HW120819   2.285   3.595  12.575  0.9666  1.1616 -0.0111
 3119SOL    HW220820   2.360   3.520  12.475  0.2087  2.0375  0.7039
 3120SOL     OW20821   3.922   0.292   1.366  0.4797 -0.1916 -0.0198
 3120SOL    HW120822   3.965   0.207   1.360  0.7624 -0.0072 -0.6003
 3120SOL    HW220823   3.841   0.278   1.318 -0.1952  1.1328  0.7049
 3121SOL     OW20824   4.699   2.423   2.771  0.2412 -0.2364 -0.6226
 3121SOL    HW120825   4.687   2.402   2.679  0.1664  0.0589 -0.6809
 3121SOL    HW220826   4.625   2.481   2.787 -0.0621 -0.8644  0.3000
 3122SOL     OW20827   1.324   0.554   6.170 -0.3822  0.3143  0.0304
 3122SOL    HW120828   1.335   0.565   6.265  0.9000 -0.9133  0.0231
 3122SOL    HW220829   1.292   0.465   6.158  0.1296  0.1529 -0.1163
 3123SOL     OW20830   1.678   1.265  14.968  0.6096 -0.2974  0.3598
 3123SOL    HW120831   1.741   1.298  14.905 -0.4362  2.4825  0.7913
 3123SOL    HW220832   1.599   1.285  14.917  1.2025  1.7619  0.2726
 3124SOL     OW20833   3.248   1.096   4.315  0.1834  0.6431  0.1312
 3124SOL    HW120834   3.294   1.081   4.397  0.0279 -0.7259 -0.0422
 3124SOL    HW220835   3.273   1.021   4.261  2.3234  0.4659  1.3950
 3125SOL     OW20836   1.878   4.451   1.471  0.3997 -0.3547  0.2303
 3125SOL    HW120837   1.811   4.413   1.414  0.9189 -1.2601  0.2202
 3125SOL    HW220838   1.840   4.433   1.556 -0.8023  0.3793 -0.1431
 3126SOL     OW20839   3.617   3.219   9.487 -0.2523 -0.1171  0.3158
 3126SOL    HW120840   3.618   3.242   9.580  1.9511 -1.3997  0.6105
 3126SOL    HW220841   3.622   3.304   9.442 -1.4961 -0.5325 -0.6042
 3127SOL     OW20842   3.679   2.859   7.252 -0.3188  0.2796 -0.1349
 3127SOL    HW120843   3.676   2.787   7.190  0.2498 -1.1445  1.4749
 3127SOL    HW220844   3.677   2.928   7.186  0.3109  1.2636  0.8735
 3128SOL     OW20845   4.698   0.030   7.989  0.1024 -0.8421 -0.7348
 3128SOL    HW120846   0.039   4.671   7.982  2.6691  1.2473 -2.2112
 3128SOL    HW220847   4.616   4.697   7.994 -0.8492  1.0652  2.1378
 3129SOL     OW20848   1.268   3.918   5.486 -0.3246  0.1929 -0.1905
 3129SOL    HW120849   1.200   3.945   5.424 -1.3816 -3.2007 -0.4604
 3129SOL    HW220850   1.303   3.997   5.527  1.3363 -0.6618  0.0312
 3130SOL     OW20851   4.265   1.641   7.298  0.6021 -0.1584 -0.2750
 3130SOL    HW120852   4.291   1.553   7.269  1.7183 -0.7939  2.6703
 3130SOL    HW220853   4.336   1.698   7.269 -0.9246  1.1957 -1.3953
 3131SOL     OW20854   0.875   0.228   8.060  0.0498  0.0129 -0.5825
 3131SOL    HW120855   0.793   0.261   8.096  2.2393  2.8315  1.8531
 3131SOL    HW220856   0.876   0.289   7.987  2.6948  2.2648  1.3241
 3132SOL     OW20857   3.066   1.230  16.487  0.0141 -0.2049 -0.0627
 3132SOL    HW120858   3.068   1.278  16.570  1.5340  4.6346 -2.8441
 3132SOL    HW220859   3.076   1.145  16.530  0.3101 -0.1397  0.0042
 3133SOL     OW20860   3.705   0.882   2.103  0.1591 -0.0812  0.0153
 3133SOL    HW120861   3.666   0.797   2.085 -0.4849  0.3886 -0.8166
 3133SOL    HW220862   3.725   0.916   2.015  2.2666 -3.1662 -0.6917
 3134SOL     OW20863   2.123   1.639   6.805 -0.3276 -0.3567 -0.0363
 3134SOL    HW120864   2.029   1.651   6.787 -0.7638 -0.8694  1.9278
 3134SOL    HW220865   2.163   1.711   6.757  0.5533 -1.0884 -0.3987
 3135SOL     OW20866   2.294   1.231   2.208 -0.0471 -0.7201  0.7286
 3135SOL    HW120867   2.337   1.246   2.293  0.4190 -1.0171  0.5413
 3135SOL    HW220868   2.303   1.314   2.162 -0.9032  0.8211  3.3204
 3136SOL     OW20869   4.100   4.042   3.144 -0.1191 -0.1694 -0.1789
 3136SOL    HW120870   4.152   3.964   3.126 -1.7720 -0.6451 -2.9022
 3136SOL    HW220871   4.029   3.990   3.183  0.7869 -1.8315 -0.7289
 3137SOL     OW20872   3.069   4.177   4.351 -0.0256 -0.1788  0.4200
 3137SOL    HW120873   3.046   4.268   4.334 -3.6380 -1.0557  0.6485
 3137SOL    HW220874   3.131   4.160   4.280  0.3618 -0.1570  0.7520
 3138SOL     OW20875   2.482   4.067  16.008  0.2028 -0.3227  0.3377
 3138SOL    HW120876   2.485   4.040  15.917 -0.8838 -1.8800  0.7603
 3138SOL    HW220877   2.479   3.980  16.047  0.3602 -0.0056  1.0651
 3139SOL     OW20878   0.083   1.180  10.371 -0.6149  0.0479 -0.4526
 3139SOL    HW120879   0.155   1.204  10.312  0.4619 -1.4677  0.2600
 3139SOL    HW220880   0.140   1.145  10.439  0.8763  1.1958 -1.1005
 3140SOL     OW20881   3.328   0.861   4.167  0.1947  0.3576 -0.0916
 3140SOL    HW120882   3.376   0.780   4.182  1.5307  1.1844  0.1564
 3140SOL    HW220883   3.243   0.847   4.208  0.2646 -0.1312 -0.1130
 3141SOL     OW20884   0.962   3.346  15.752  0.0123 -0.4600 -0.4046
 3141SOL    HW120885   0.877   3.314  15.721 -1.6987  2.1363  1.6400
 3141SOL    HW220886   0.952   3.439  15.734  5.9699  0.3093  0.5007
 3142SOL     OW20887   0.611   3.846   9.036  0.4590 -0.5942 -0.1115
 3142SOL    HW120888   0.520   3.847   9.064  0.0750  1.8271 -1.4248
 3142SOL    HW220889   0.602   3.770   8.979  0.9460 -0.4610 -0.3702
 3143SOL     OW20890   4.602   4.480   6.974 -0.0837  0.1296  0.9321
 3143SOL    HW120891   4.669   4.418   6.945 -0.6736 -0.1665  0.2164
 3143SOL    HW220892   4.540   4.426   7.023  1.2874 -1.2651  1.1183
 3144SOL     OW20893   4.305   1.534   7.825  0.8169  0.1219  0.1689
 3144SOL    HW120894   4.317   1.591   7.749  2.3630 -0.9436 -0.3700
 3144SOL    HW220895   4.255   1.458   7.795 -0.3839  0.7096  0.6697
 3145SOL     OW20896   1.770   1.968   0.589 -0.1415 -0.1649 -0.2504
 3145SOL    HW120897   1.754   1.971   0.494  1.3312  1.1430 -0.4551
 3145SOL    HW220898   1.753   2.057   0.619 -0.2073 -0.0605 -0.6033
 3146SOL     OW20899   1.110   2.922   5.256 -0.2851 -0.2024 -0.3369
 3146SOL    HW120900   1.075   2.834   5.239 -0.9272 -0.1885  0.9151
 3146SOL    HW220901   1.189   2.910   5.308  2.1315  2.9930 -3.2569
 3147SOL     OW20902   4.302   3.330   8.859  0.3489 -0.3139 -0.0923
 3147SOL    HW120903   4.295   3.420   8.891  0.1063 -0.0178 -0.9986
 3147SOL    HW220904   4.252   3.283   8.926 -0.6362  0.1499 -0.5037
 3148SOL     OW20905   1.490   1.823   5.984 -0.3802 -0.5143  0.5580
 3148SOL    HW120906   1.501   1.916   5.967 -0.7993 -0.5479  0.0760
 3148SOL    HW220907   1.573   1.792   6.019  0.4378  0.4652 -0.5012
 3149SOL     OW20908   0.730   2.194  16.115 -0.1054 -0.2554  0.5806
 3149SOL    HW120909   0.812   2.212  16.161 -0.5987  0.1041  1.3155
 3149SOL    HW220910   0.677   2.265  16.150  0.4891  0.6000 -0.2418
 3150SOL     OW20911   3.038   2.673   6.341 -0.2163 -0.1996  0.2668
 3150SOL    HW120912   3.050   2.578   6.335  1.4927  0.0424 -0.1451
 3150SOL    HW220913   3.090   2.713   6.272 -0.9522  1.3043  0.5966
 3151SOL     OW20914   1.065   2.519   9.677 -0.1171 -0.6486  0.4003
 3151SOL    HW120915   1.011   2.497   9.753 -1.3573 -0.9676 -0.5694
 3151SOL    HW220916   0.995   2.539   9.614  0.4825 -1.9191 -0.6702
 3152SOL     OW20917   3.400   1.213   8.008 -0.2070  0.3583 -0.3635
 3152SOL    HW120918   3.416   1.192   8.100 -4.3446  0.6534  0.3914
 3152SOL    HW220919   3.319   1.164   8.002  1.0239 -1.6781 -0.3417
 3153SOL     OW20920   3.985   0.717   0.196  0.1400  0.3523  0.1211
 3153SOL    HW120921   4.054   0.666   0.154 -0.6730 -1.3306  0.8211
 3153SOL    HW220922   3.951   0.771   0.125  0.9227  1.0619  0.2777
 3154SOL     OW20923   2.629   2.088   3.829  0.0134  0.5907 -0.4653
 3154SOL    HW120924   2.652   2.060   3.741  0.9325 -1.7649  0.5215
 3154SOL    HW220925   2.696   2.152   3.854 -0.7346  1.3723 -0.4578
 3155SOL     OW20926   4.244   1.288  12.832 -0.3941 -0.7119 -0.2695
 3155SOL    HW120927   4.224   1.205  12.790 -1.8308 -0.1025 -0.7772
 3155SOL    HW220928   4.252   1.258  12.922  0.6457 -1.1228 -0.5053
 3156SOL     OW20929   4.265   2.540   8.503 -0.3913 -0.2503  0.5079
 3156SOL    HW120930   4.218   2.506   8.427  0.9266 -2.1103  0.5374
 3156SOL    HW220931   4.261   2.468   8.566  0.2763 -0.9004 -0.1938
 3157SOL     OW20932   2.340   4.072   7.912 -0.2265  0.5865 -0.1417
 3157SOL    HW120933   2.262   4.102   7.959 -1.1911  0.9736 -1.9699
 3157SOL    HW220934   2.315   3.981   7.896  4.1665 -0.5088 -0.7284
 3158SOL     OW20935   3.705   1.180   4.738  0.8090  0.7226 -0.0289
 3158SOL    HW120936   3.771   1.146   4.677  1.0634 -0.8689  1.1409
 3158SOL    HW220937   3.754   1.258   4.764 -0.2497  0.8544  1.5029
 3159SOL     OW20938   0.442   1.202   2.575  0.4684 -0.0187  0.5139
 3159SOL    HW120939   0.476   1.244   2.496  4.2046 -0.6139  1.8025
 3159SOL    HW220940   0.372   1.145   2.545  0.3248 -0.2977  1.3848
 3160SOL     OW20941   1.420   1.313  16.417  0.0955 -0.3245  0.1290
 3160SOL    HW120942   1.414   1.240  16.479  2.3600  0.3313  1.1049
 3160SOL    HW220943   1.331   1.306  16.382  0.2918  1.5353 -0.7708
 3161SOL     OW20944   3.605   0.339   1.468 -0.5310 -0.3155  0.2889
 3161SOL    HW120945   3.529   0.387   1.433  1.4601  3.9994  1.8726
 3161SOL    HW220946   3.624   0.281   1.395  0.1663  1.6578 -1.1120
 3162SOL     OW20947   4.206   2.288  11.406 -0.3640 -0.4440 -1.0170
 3162SOL    HW120948   4.187   2.351  11.474 -1.1580 -0.9940 -0.7233
 3162SOL    HW220949   4.168   2.330  11.329 -1.7992 -0.6364 -0.3993
 3163SOL     OW20950   0.832   4.689  10.074 -0.1883 -0.0337  0.2614
 3163SOL    HW120951   0.926   4.681  10.087 -0.3109 -0.3681  0.9475
 3163SOL    HW220952   0.811   0.034  10.144 -1.5279 -0.8129  0.5397
 3164SOL     OW20953   4.526   1.987   6.541  0.3644  0.5110  0.2034
 3164SOL    HW120954   4.500   2.014   6.630  0.3668  0.4602  0.2192
 3164SOL    HW220955   4.606   1.940   6.564  0.1354  0.7283  1.4773
 3165SOL     OW20956   0.879   0.630   6.665 -0.6417 -0.0436  0.0282
 3165SOL    HW120957   0.902   0.605   6.755 -0.0637 -1.5624 -0.5226
 3165SOL    HW220958   0.923   0.565   6.609  1.5176  1.5932 -0.1730
 3166SOL     OW20959   0.574   4.020   8.167 -0.4003 -0.3467 -0.1063
 3166SOL    HW120960   0.544   4.029   8.257  1.2452 -0.4611  0.4375
 3166SOL    HW220961   0.659   4.062   8.168 -0.1159 -0.9069 -0.7618
 3167SOL     OW20962   1.373   1.643   0.671 -0.2190 -0.0590 -0.2984
 3167SOL    HW120963   1.444   1.657   0.734 -0.3489  3.0387 -0.8352
 3167SOL    HW220964   1.389   1.724   0.624  1.0716 -0.1060  0.0361
 3168SOL     OW20965   2.380   4.378   8.140  0.6201 -0.5929 -0.1288
 3168SOL    HW120966   2.293   4.418   8.143  0.7133 -0.4222  0.5065
 3168SOL    HW220967   2.426   4.458   8.165 -0.4744 -0.0850  0.2476
 3169SOL     OW20968   1.914   3.339   4.871 -0.3531 -0.0445  0.2269
 3169SOL    HW120969   2.009   3.345   4.877 -0.3506 -1.3313  1.3798
 3169SOL    HW220970   1.899   3.294   4.788 -0.4614  0.1194  0.1579
 3170SOL     OW20971   3.994   3.919   7.979 -0.0306  0.2774 -0.2357
 3170SOL    HW120972   3.966   3.892   8.067 -2.2735  0.0250 -1.0255
 3170SOL    HW220973   3.945   3.999   7.961  2.0084  1.7048  0.5292
 3171SOL     OW20974   4.039   0.721   3.941  0.2216  0.3901  0.0268
 3171SOL    HW120975   4.066   0.719   3.849 -0.6702  2.2129 -0.2583
 3171SOL    HW220976   4.107   0.785   3.960  1.1476 -0.1835 -1.3615
 3172SOL     OW20977   4.295   2.069   6.395  0.2347  0.2931  0.4461
 3172SOL    HW120978   4.317   1.997   6.454  1.4980  0.5445  0.2671
 3172SOL    HW220979   4.244   2.128   6.452  0.3843 -1.5854  2.5380
 3173SOL     OW20980   3.476   2.720  10.024 -0.2374  0.0606  0.0464
 3173SOL    HW120981   3.453   2.627  10.020 -0.7674  0.2358 -1.0979
 3173SOL    HW220982   3.561   2.722   9.981  0.8966 -0.4922  2.3083
 3174SOL     OW20983   3.105   0.645   2.075 -0.5181  0.1409  0.2974
 3174SOL    HW120984   3.011   0.661   2.069 -0.6582 -0.7294  0.1091
 3174SOL    HW220985   3.107   0.578   2.144  0.0183 -0.4164 -0.2649
 3175SOL     OW20986   0.087   4.281   5.234  0.5112 -0.4832 -0.2991
 3175SOL    HW120987   0.065   4.349   5.297  2.4746  1.3057 -1.5520
 3175SOL    HW220988   0.176   4.265   5.264  0.4917  1.6090  0.9218
 3176SOL     OW20989   1.490   2.507   6.385 -0.4505  0.8337 -0.1169
 3176SOL    HW120990   1.457   2.459   6.309  0.0683 -2.0325  1.4825
 3176SOL    HW220991   1.545   2.436   6.416 -3.5394 -1.9236 -0.9588
 3177SOL     OW20992   4.393   2.140   5.829  0.4407  0.3385  0.5250
 3177SOL    HW120993   4.384   2.230   5.862 -0.2158  0.1048  0.9720
 3177SOL    HW220994   4.441   2.156   5.748  1.7244 -1.0583  1.0240
 3178SOL     OW20995   1.135   4.680   9.021 -0.1531 -0.3617  0.1167
 3178SOL    HW120996   1.132   4.606   8.961 -0.1264 -2.2468  2.4500
 3178SOL    HW220997   1.181   4.635   9.092 -1.2958 -2.2304 -0.3461
 3179SOL     OW20998   4.651   1.418   4.812 -0.0076 -0.0512 -0.2279
 3179SOL    HW120999   4.716   1.351   4.831 -0.7083 -0.3541  1.0809
 3179SOL    HW221000   4.660   1.425   4.717  0.9023 -0.5043 -0.1726
 3180SOL     OW21001   1.763   1.211   9.917  0.0733 -0.3650  0.5587
 3180SOL    HW121002   1.829   1.236   9.852  0.0862 -1.9510 -0.0264
 3180SOL    HW221003   1.790   1.244  10.002  1.7747 -0.7302  0.1571
 3181SOL     OW21004   4.136   3.384   4.999  0.1524 -0.0300  0.6307
 3181SOL    HW121005   4.049   3.359   4.968  0.4297 -0.0157 -0.1696
 3181SOL    HW221006   4.167   3.309   5.049  0.9461 -1.0114 -1.3131
 3182SOL     OW21007   2.938   3.120   9.712 -0.4541 -0.1950 -0.2600
 3182SOL    HW121008   3.007   3.184   9.696 -0.6195 -0.2901 -1.4161
 3182SOL    HW221009   2.923   3.095   9.620  0.5053  0.6666 -0.6492
 3183SOL     OW21010   4.320   0.004   2.553 -0.1296 -0.2113  0.1192
 3183SOL    HW121011   4.410   4.690   2.549 -0.0204  0.1872 -0.4602
 3183SOL    HW221012   4.285   4.687   2.636 -0.2144 -1.2529 -0.3334
 3184SOL     OW21013   1.061   3.356   6.154 -0.1212  0.0478  0.1342
 3184SOL    HW121014   1.003   3.431   6.146 -0.5162 -0.0939  1.6449
 3184SOL    HW221015   1.097   3.357   6.065  0.3946 -2.2329  0.3230
 3185SOL     OW21016   4.078   4.688   1.544 -0.0200 -0.1510  0.4703
 3185SOL    HW121017   4.085   0.029   1.467 -0.9472 -0.0885  0.4408
 3185SOL    HW221018   4.168   4.655   1.544  0.6367  1.6182 -1.1658
 3186SOL     OW21019   0.488   4.507  14.022 -0.7033 -0.1994 -0.2210
 3186SOL    HW121020   0.492   4.414  13.997 -1.4772 -0.7724  1.8155
 3186SOL    HW221021   0.527   4.554  13.948  1.3266 -0.0345  0.9638
 3187SOL     OW21022   3.108   1.273   7.566  0.1888 -0.1417 -0.5344
 3187SOL    HW121023   3.071   1.300   7.650 -1.2848 -0.8169 -0.9598
 3187SOL    HW221024   3.173   1.343   7.555 -0.5003  0.8590  1.7466
 3188SOL     OW21025   3.528   0.257   3.365  0.0280  0.6687 -0.2817
 3188SOL    HW121026   3.479   0.312   3.303 -0.4070 -0.3398 -0.8397
 3188SOL    HW221027   3.488   0.292   3.445 -0.2881  0.3154 -0.2847
 3189SOL     OW21028   2.305   0.467   5.695  0.4771 -0.1535  0.0503
 3189SOL    HW121029   2.265   0.392   5.740  0.4574  0.5358  1.1958
 3189SOL    HW221030   2.389   0.424   5.703  0.6998  0.4038  0.7311
 3190SOL     OW21031   2.086   2.863   0.408 -0.0361 -0.6804 -0.3925
 3190SOL    HW121032   2.090   2.946   0.361  0.5248  0.4631  1.6812
 3190SOL    HW221033   2.097   2.809   0.329  0.8786 -0.6052 -0.3162
 3191SOL     OW21034   1.592   0.468   7.081 -0.1415 -0.4632  0.0627
 3191SOL    HW121035   1.676   0.485   7.038  0.5081  1.9281  2.2965
 3191SOL    HW221036   1.600   0.373   7.092 -2.4533 -0.9433 -2.3129
 3192SOL     OW21037   1.099   3.438  17.257  0.3892 -0.8158  0.2697
 3192SOL    HW121038   1.135   3.350  17.273  0.7474 -0.7185 -0.0118
 3192SOL    HW221039   1.183   3.481  17.252 -1.0542  1.9659  0.2370
 3193SOL     OW21040   1.626   0.672   6.727 -0.5070  0.4744 -0.0529
 3193SOL    HW121041   1.664   0.613   6.661 -0.5436 -0.3733  0.6820
 3193SOL    HW221042   1.704   0.694   6.778  1.0684 -0.8618 -1.8754
 3194SOL     OW21043   2.607   3.185   5.795 -0.4138  0.3912  0.1333
 3194SOL    HW121044   2.673   3.158   5.859  1.6275  4.1538 -0.3849
 3194SOL    HW221045   2.657   3.176   5.714  2.1056  1.4057  1.5764
 3195SOL     OW21046   1.646   1.904   8.009  0.4248  0.1076  0.2737
 3195SOL    HW121047   1.586   1.976   8.030 -1.1736 -0.8423 -1.0392
 3195SOL    HW221048   1.716   1.965   7.987 -1.0934  1.8744  0.2664
 3196SOL     OW21049   2.812   0.065   1.817  0.0490  0.4609 -0.5735
 3196SOL    HW121050   2.878   0.079   1.886 -0.5633 -0.4853  0.2140
 3196SOL    HW221051   2.827   0.134   1.753 -1.0832  1.7116  0.4798
 3197SOL     OW21052   2.884   4.085   4.761 -0.6624 -0.7028  0.4234
 3197SOL    HW121053   2.812   4.139   4.729  0.3245  0.7265  0.5858
 3197SOL    HW221054   2.853   4.057   4.847 -0.6551 -3.1025 -0.3460
 3198SOL     OW21055   4.566   0.898   0.020 -0.2590 -0.1656  0.0846
 3198SOL    HW121056   4.523   0.837  17.630  2.1930 -1.0636 -0.7610
 3198SOL    HW221057   4.623   0.954  17.638 -0.9614  0.1122 -0.4006
 3199SOL     OW21058   3.498   1.914   2.508  0.5347  0.5905 -0.3396
 3199SOL    HW121059   3.575   1.865   2.539 -0.5071 -0.5007  0.5027
 3199SOL    HW221060   3.534   2.003   2.501 -1.6910  1.4182 -1.0489
 3200SOL     OW21061   1.757   2.545   6.542  0.0132  0.1922 -0.3050
 3200SOL    HW121062   1.707   2.621   6.514 -0.6482 -0.5386 -1.1070
 3200SOL    HW221063   1.745   2.494   6.463 -2.2091  0.0102  0.1687
 3201SOL     OW21064   2.271   4.096  15.674 -0.4160 -0.2519 -0.2344
 3201SOL    HW121065   2.363   4.094  15.649 -0.6751 -0.1182 -1.1931
 3201SOL    HW221066   2.251   4.007  15.647 -0.6354 -1.0967  2.7009
 3202SOL     OW21067   4.602   2.611  11.935 -0.0861 -0.4017 -0.2723
 3202SOL    HW121068   4.687   2.635  11.897 -0.1890 -1.0094 -0.8849
 3202SOL    HW221069   4.552   2.634  11.857 -1.8164 -1.6276  0.4645
 3203SOL     OW21070   2.887   4.281  12.096 -0.1867  0.7438  0.1708
 3203SOL    HW121071   2.867   4.287  12.002 -0.8122  0.8004  0.3096
 3203SOL    HW221072   2.815   4.332  12.133 -0.6677  0.8920 -0.9566
 3204SOL     OW21073   4.450   0.308  11.677 -0.0102  0.2341  0.5756
 3204SOL    HW121074   4.357   0.286  11.672  0.1412  0.0456 -1.3607
 3204SOL    HW221075   4.448   0.385  11.735 -1.2554 -1.0518  2.2256
 3205SOL     OW21076   3.261   1.246  15.903 -0.2436 -0.4044 -0.0581
 3205SOL    HW121077   3.272   1.341  15.894 -0.6029 -0.3458  0.1287
 3205SOL    HW221078   3.305   1.229  15.986  0.5169  2.0738  0.0311
 3206SOL     OW21079   2.797   2.659   4.715  0.1399 -0.0252  0.3737
 3206SOL    HW121080   2.802   2.621   4.627  3.3603  0.3477  0.3690
 3206SOL    HW221081   2.744   2.738   4.709  0.2138  0.2008  2.7015
 3207SOL     OW21082   2.144   2.906  13.192  0.1280  0.2928 -0.1156
 3207SOL    HW121083   2.078   2.952  13.243  0.5527  2.0504 -1.1508
 3207SOL    HW221084   2.103   2.821  13.209  0.9519 -0.0309  0.2786
 3208SOL     OW21085   0.135   2.516   5.036 -0.1921 -0.5629  0.6724
 3208SOL    HW121086   0.097   2.443   4.987 -0.4183  2.2597 -3.2873
 3208SOL    HW221087   0.077   2.493   5.108 -1.5461  1.1913  0.1330
 3209SOL     OW21088   4.630   4.531   5.346  0.1292  0.5707 -0.3141
 3209SOL    HW121089   4.682   4.598   5.391  0.0728  1.0988 -1.0336
 3209SOL    HW221090   4.541   4.565   5.341 -0.4491 -0.8816  0.1071
 3210SOL     OW21091   1.315   2.243   2.341  0.6434  0.7498  0.3149
 3210SOL    HW121092   1.292   2.150   2.333  3.9690 -0.2756  2.6922
 3210SOL    HW221093   1.397   2.245   2.293 -0.0710  1.0786 -0.8851
 3211SOL     OW21094   3.387   4.348   3.959  0.1398  0.3145 -0.0729
 3211SOL    HW121095   3.384   4.356   3.864  0.7424  0.5397 -0.0695
 3211SOL    HW221096   3.478   4.359   3.987 -0.0550  2.1203 -0.1748
 3212SOL     OW21097   0.103   3.286   4.779  0.3401 -0.2266 -0.7017
 3212SOL    HW121098   0.171   3.309   4.843  0.3337  0.5442 -0.9641
 3212SOL    HW221099   0.041   3.355   4.804 -1.5000 -1.9275 -0.6158
 3213SOL     OW21100   3.132   0.348   0.334  0.0298 -0.1062 -0.0715
 3213SOL    HW121101   3.066   0.321   0.398 -1.6311  2.8537 -0.5122
 3213SOL    HW221102   3.135   0.442   0.353 -0.1015  0.3532 -2.3717
 3214SOL     OW21103   1.301   3.617   3.701  0.0761 -0.6034  0.1948
 3214SOL    HW121104   1.211   3.623   3.733 -0.2094  1.2283 -0.9837
 3214SOL    HW221105   1.354   3.615   3.781  0.3199 -4.4291 -0.0751
 3215SOL     OW21106   0.496   3.996   5.964 -0.0158  0.0725 -0.2326
 3215SOL    HW121107   0.499   3.921   6.023 -1.4464 -0.7637 -1.2267
 3215SOL    HW221108   0.404   4.019   5.951 -0.9265 -1.6151  3.3847
 3216SOL     OW21109   1.640   2.732   5.586 -0.4426  0.0767  0.1900
 3216SOL    HW121110   1.706   2.719   5.518 -1.6907  0.7907 -1.1741
 3216SOL    HW221111   1.618   2.825   5.589  2.2686  0.8498 -3.4295
 3217SOL     OW21112   0.180   1.207   8.044  0.3886  0.9657  0.0436
 3217SOL    HW121113   0.224   1.141   7.990  0.4543 -0.5146  1.9022
 3217SOL    HW221114   0.253   1.240   8.096 -0.8031  1.7202  1.2420
 3218SOL     OW21115   2.038   0.289  12.922  0.4534 -0.4074  0.0397
 3218SOL    HW121116   2.113   0.233  12.942  0.9704  0.5727  0.8906
 3218SOL    HW221117   2.037   0.290  12.827 -1.0627 -0.3089  0.0610
 3219SOL     OW21118   4.358   3.313   2.123  0.0195 -0.5389  0.1628
 3219SOL    HW121119   4.285   3.282   2.176  1.0408 -1.7234  0.8843
 3219SOL    HW221120   4.360   3.407   2.140 -0.4636 -0.2444 -1.3523
 3220SOL     OW21121   1.575   2.095   2.476  0.4744 -0.5476  0.2719
 3220SOL    HW121122   1.577   2.188   2.501  0.1437 -0.2153 -0.9390
 3220SOL    HW221123   1.664   2.069   2.453 -0.0133  0.0774 -2.2608
 3221SOL     OW21124   2.767   0.009   9.194  0.4942  0.6841  0.2604
 3221SOL    HW121125   2.776   0.102   9.175  1.7739  0.0834 -2.0686
 3221SOL    HW221126   2.676   0.017   9.222  1.4342  1.5478  3.1277
 3222SOL     OW21127   0.818   2.266   8.106  0.4811  0.7462  0.4212
 3222SOL    HW121128   0.781   2.353   8.124  1.7892  1.5473 -0.6915
 3222SOL    HW221129   0.855   2.241   8.191  0.9840 -2.1610 -0.6666
 3223SOL     OW21130   2.459   2.390  10.594  0.2732 -0.2649 -0.0144
 3223SOL    HW121131   2.380   2.348  10.627  1.6125 -1.6316  1.4981
 3223SOL    HW221132   2.431   2.481  10.585 -1.6211 -0.7968  0.5862
 3224SOL     OW21133   4.003   1.861   1.617 -0.4888 -0.4963  0.4273
 3224SOL    HW121134   3.914   1.887   1.591 -0.0382 -0.0850 -0.6952
 3224SOL    HW221135   3.994   1.767   1.630 -2.4972 -0.4766 -0.7402
 3225SOL     OW21136   0.982   4.201   4.713  0.6485  0.0872  0.5670
 3225SOL    HW121137   1.045   4.209   4.642 -0.4538  0.7989 -0.3200
 3225SOL    HW221138   1.003   4.283   4.759 -0.0358  1.1026 -0.9119
 3226SOL     OW21139   2.795   4.678  13.889  0.0337  0.3090 -0.2033
 3226SOL    HW121140   2.872   0.002  13.847  0.6262 -0.2563  0.3367
 3226SOL    HW221141   2.795   0.004  13.974  1.3106 -1.6498  0.7762
 3227SOL     OW21142   4.619   0.042   4.162  0.6866  0.4583  0.4819
 3227SOL    HW121143   4.648   0.117   4.214 -0.3113  1.0959  0.1163
 3227SOL    HW221144   4.545   0.011   4.215 -0.7295 -0.0357 -1.7921
 3228SOL     OW21145   4.434   0.312   1.360 -0.6003 -0.6281  0.1237
 3228SOL    HW121146   4.349   0.351   1.337 -0.3213 -0.1944 -0.1867
 3228SOL    HW221147   4.413   0.246   1.426 -0.3689  0.2743  1.0977
 3229SOL     OW21148   1.877   3.403   5.151  0.3339  0.2524 -0.4844
 3229SOL    HW121149   1.827   3.476   5.114 -1.3832 -0.8090 -0.2837
 3229SOL    HW221150   1.920   3.359   5.079 -1.9740 -1.7383 -0.6290
 3230SOL     OW21151   3.178   3.204   7.498  0.2548  0.2365 -0.4768
 3230SOL    HW121152   3.166   3.164   7.412 -0.1542 -0.2565 -0.1868
 3230SOL    HW221153   3.098   3.173   7.540  0.0380 -0.2044 -1.2280
 3231SOL     OW21154   4.584   4.453   2.820  0.2852 -0.0973  0.2122
 3231SOL    HW121155   4.522   4.418   2.884 -1.3322 -1.7644 -2.2424
 3231SOL    HW221156   4.600   4.539   2.858  2.6049  0.9125 -3.0368
 3232SOL     OW21157   1.369   2.670   4.679  0.2604 -0.2564 -0.3321
 3232SOL    HW121158   1.327   2.651   4.595 -1.3726 -0.4181  0.5288
 3232SOL    HW221159   1.457   2.651   4.645  1.7303 -0.4426  3.5124
 3233SOL     OW21160   2.226   4.136  11.349  0.0335 -0.1453 -0.4748
 3233SOL    HW121161   2.242   4.206  11.412 -0.0085  1.5402 -2.3438
 3233SOL    HW221162   2.248   4.062  11.405 -0.2324 -1.3400 -1.9519
 3234SOL     OW21163   1.717   3.063   2.143 -0.3376  0.1412  0.2971
 3234SOL    HW121164   1.773   2.996   2.182  0.4110  0.3319 -0.4581
 3234SOL    HW221165   1.684   3.014   2.069  1.8203 -3.0575  1.4473
 3235SOL     OW21166   0.275   3.249   5.488 -0.3254 -0.1097 -0.3601
 3235SOL    HW121167   0.236   3.165   5.465 -0.1572 -0.0866 -0.7302
 3235SOL    HW221168   0.343   3.256   5.421 -1.2905  2.9448 -1.0596
 3236SOL     OW21169   2.500   1.771   4.045 -0.3366 -0.2758  0.0063
 3236SOL    HW121170   2.541   1.711   3.982  0.7057  0.7800 -0.3127
 3236SOL    HW221171   2.517   1.728   4.129 -1.6047  1.9755  1.4159
 3237SOL     OW21172   4.644   0.489   6.732  0.9448 -0.0977 -0.5458
 3237SOL    HW121173   4.666   0.413   6.786  3.0803  0.7748 -0.2151
 3237SOL    HW221174   4.637   0.558   6.798  1.3413  0.6694 -1.3084
 3238SOL     OW21175   2.566   0.161   7.957  0.6970  0.1247 -0.3153
 3238SOL    HW121176   2.587   0.246   7.919  1.0777  0.5575  0.8593
 3238SOL    HW221177   2.557   0.180   8.050 -1.8180  0.1838 -0.5794
 3239SOL     OW21178   2.966   4.396   4.225  0.2486 -0.3417 -0.2211
 3239SOL    HW121179   3.017   4.425   4.150 -0.5574  1.3439 -0.1022
 3239SOL    HW221180   2.921   4.474   4.257 -0.5787 -0.1797 -1.8184
 3240SOL     OW21181   3.549   4.195  13.291  0.4626 -0.2851  0.1043
 3240SOL    HW121182   3.542   4.151  13.207  0.0006 -0.5238  0.2679
 3240SOL    HW221183   3.547   4.286  13.262  0.6927 -0.3792 -0.2059
 3241SOL     OW21184   1.187   1.941   2.996 -0.2779  0.1171  0.2089
 3241SOL    HW121185   1.172   1.848   3.014 -1.0976  0.2237  0.0796
 3241SOL    HW221186   1.095   1.968   3.002 -1.1748 -2.6896 -0.8808
 3242SOL     OW21187   3.824   2.711  13.218  0.3822  0.4087  0.6613
 3242SOL    HW121188   3.909   2.677  13.190  0.6009  0.8032  0.8424
 3242SOL    HW221189   3.839   2.769  13.293  4.7956  2.2056 -1.5819
 3243SOL     OW21190   1.818   3.416   7.753 -0.0365  0.0157 -0.0671
 3243SOL    HW121191   1.794   3.493   7.703  0.3918  1.8672  2.5832
 3243SOL    HW221192   1.902   3.400   7.709 -0.4300  0.0828 -0.8334
 3244SOL     OW21193   0.476   1.451   4.954  0.3929  0.0531 -0.0593
 3244SOL    HW121194   0.414   1.521   4.935  1.1017  0.8023  0.4133
 3244SOL    HW221195   0.564   1.487   4.944  0.9411 -0.9259  1.3137
 3245SOL     OW21196   4.527   3.203   3.061 -0.0505 -0.1301 -0.5682
 3245SOL    HW121197   4.617   3.210   3.093 -0.6743  1.5811  0.8141
 3245SOL    HW221198   4.527   3.236   2.971 -0.0713 -0.5456 -0.7207
 3246SOL     OW21199   3.453   1.931  13.558 -0.6433 -0.5644 -0.0103
 3246SOL    HW121200   3.548   1.939  13.553 -0.6612 -0.0637  0.5198
 3246SOL    HW221201   3.445   1.860  13.622 -0.5364  0.8333  1.5277
 3247SOL     OW21202   2.515   2.873   4.104 -0.1835 -0.3813 -0.4393
 3247SOL    HW121203   2.522   2.892   4.010 -0.5441 -0.2469 -0.4363
 3247SOL    HW221204   2.587   2.930   4.130 -0.7309 -0.0077  0.2460
 3248SOL     OW21205   2.326   1.347  13.305 -0.9644 -0.4294 -0.3980
 3248SOL    HW121206   2.275   1.427  13.306  1.0421  0.8464 -0.7690
 3248SOL    HW221207   2.270   1.297  13.245 -2.7779  0.0474  0.9114
 3249SOL     OW21208   3.746   3.902   4.659 -0.3448 -0.1756 -0.4824
 3249SOL    HW121209   3.653   3.888   4.642 -0.4558  0.2168 -0.2020
 3249SOL    HW221210   3.769   3.831   4.719  1.1730 -0.5401 -1.4992
 3250SOL     OW21211   3.101   0.503  16.378 -0.0127 -0.2535  0.2516
 3250SOL    HW121212   3.121   0.440  16.447 -0.3053 -0.7255 -0.0963
 3250SOL    HW221213   3.037   0.556  16.427  1.1810  1.5665 -0.1681
 3251SOL     OW21214   0.363   0.368   0.696  0.4413 -0.0808  0.3999
 3251SOL    HW121215   0.336   0.392   0.607  0.5478  1.0287  0.6678
 3251SOL    HW221216   0.298   0.301   0.715  2.9095 -2.0419  1.9644
 3252SOL     OW21217   1.161   1.289   6.455  0.8895 -0.3768 -1.0714
 3252SOL    HW121218   1.155   1.340   6.536 -0.0080 -1.9835 -0.1129
 3252SOL    HW221219   1.242   1.325   6.420  1.5515 -1.0969 -0.2547
 3253SOL     OW21220   2.937   1.941   4.172  0.4337 -0.2603 -0.1913
 3253SOL    HW121221   2.973   2.025   4.203  0.4687 -0.5614  0.5762
 3253SOL    HW221222   2.842   1.953   4.165  0.2370 -0.5533  1.9058
 3254SOL     OW21223   1.773   3.131   3.057 -0.5981  0.0697 -0.1610
 3254SOL    HW121224   1.804   3.098   2.973 -0.7776  0.9754 -0.5858
 3254SOL    HW221225   1.828   3.076   3.113  0.2320  1.5324  0.4730
 3255SOL     OW21226   1.038   2.902   2.929 -0.5314 -0.1972  0.2056
 3255SOL    HW121227   1.028   2.814   2.966  1.1163  0.8043  3.0218
 3255SOL    HW221228   0.999   2.951   3.001 -0.1462 -0.9770  0.9448
 3256SOL     OW21229   1.716   1.351  14.325 -0.5516 -0.2304  0.1643
 3256SOL    HW121230   1.783   1.345  14.393 -1.3410 -1.5724  0.8374
 3256SOL    HW221231   1.771   1.367  14.249 -0.0507  1.9071  0.9810
 3257SOL     OW21232   4.030   2.052   7.572 -0.2354 -0.6453 -0.0724
 3257SOL    HW121233   3.960   2.097   7.619 -0.3119 -0.6652 -0.1657
 3257SOL    HW221234   3.969   2.008   7.512  0.3708  0.4395 -1.4774
 3258SOL     OW21235   2.292   2.156  12.105  0.1051 -0.3189  0.5073
 3258SOL    HW121236   2.203   2.135  12.077  0.5081  0.5157 -1.3942
 3258SOL    HW221237   2.327   2.146  12.016 -0.7078  2.2578 -0.1171
 3259SOL     OW21238   2.274   4.514  15.600  0.2852 -0.1533  0.1068
 3259SOL    HW121239   2.281   4.597  15.647 -1.7473  0.3342 -0.4687
 3259SOL    HW221240   2.287   4.552  15.513  0.6666  2.3035  1.2239
 3260SOL     OW21241   0.338   0.587   8.043 -0.0744  0.3522  0.2952
 3260SOL    HW121242   0.252   0.560   8.074 -1.3198  1.6729 -2.0098
 3260SOL    HW221243   0.328   0.552   7.954 -0.6178  1.9285 -0.2729
 3261SOL     OW21244   3.492   4.336   6.136  0.0197 -0.0447  0.5566
 3261SOL    HW121245   3.557   4.267   6.120  1.0643  1.5417 -2.0730
 3261SOL    HW221246   3.418   4.292   6.176 -0.5643 -0.6001 -1.1207
 3262SOL     OW21247   3.436   0.825   1.816 -0.2490 -0.0272 -0.1925
 3262SOL    HW121248   3.385   0.854   1.892 -1.8551 -2.6126 -0.2980
 3262SOL    HW221249   3.490   0.757   1.857 -0.8176  0.4899  1.4287
 3263SOL     OW21250   2.667   1.125   6.936 -0.0345  0.5022 -0.0180
 3263SOL    HW121251   2.705   1.043   6.968  0.3094 -0.0777 -1.9122
 3263SOL    HW221252   2.725   1.145   6.862  0.6977 -2.8241 -0.3227
 3264SOL     OW21253   0.594   0.321   2.224 -0.0427 -0.6749  0.0491
 3264SOL    HW121254   0.540   0.304   2.301  0.5810  1.4114  0.9490
 3264SOL    HW221255   0.558   0.265   2.156 -1.5458  1.3732 -0.8072
 3265SOL     OW21256   4.307   4.051  11.825  0.4895 -0.4954 -0.3352
 3265SOL    HW121257   4.330   4.051  11.918  0.7644  0.0978 -0.4014
 3265SOL    HW221258   4.376   4.000  11.783 -1.4905 -1.7738 -2.0169
 3266SOL     OW21259   2.545   0.379   5.773  0.3392  0.1444  0.6630
 3266SOL    HW121260   2.604   0.317   5.732  0.2166 -0.5331  1.5130
 3266SOL    HW221261   2.557   0.365   5.866  2.3168  3.9514  0.9803
 3267SOL     OW21262   2.802   2.037   9.292  0.0486  0.6435  0.2659
 3267SOL    HW121263   2.786   1.982   9.369 -0.2963 -1.9462 -1.6964
 3267SOL    HW221264   2.859   2.108   9.323 -0.7130  1.3470  0.0452
 3268SOL     OW21265   1.503   0.423   9.640 -0.4846 -0.0850  0.3516
 3268SOL    HW121266   1.567   0.371   9.592  0.1109  2.4235 -1.5856
 3268SOL    HW221267   1.533   0.510   9.614  3.1102 -1.5056 -0.2468
 3269SOL     OW21268   4.328   3.847   6.012 -0.7690 -0.7548 -0.2074
 3269SOL    HW121269   4.315   3.756   5.988 -0.0020 -0.6701 -0.9515
 3269SOL    HW221270   4.254   3.896   5.977 -0.4028  0.1902  0.3241
 3270SOL     OW21271   2.150   3.691  15.138  0.1047 -0.0588  0.2509
 3270SOL    HW121272   2.147   3.596  15.129  1.1804 -0.1671  1.0282
 3270SOL    HW221273   2.242   3.703  15.117  0.5270 -1.8373  1.1226
 3271SOL     OW21274   3.442   2.693  10.298  0.0105  0.4066 -0.1148
 3271SOL    HW121275   3.450   2.756  10.226 -0.5473  1.4499  0.7256
 3271SOL    HW221276   3.500   2.625  10.265 -0.5441  0.1195 -0.5038
 3272SOL     OW21277   1.778   1.385  14.706 -0.3632 -0.4478 -0.1073
 3272SOL    HW121278   1.817   1.404  14.620 -0.7492  1.6845  0.1965
 3272SOL    HW221279   1.770   1.476  14.734  2.1585  0.5850 -2.6430
 3273SOL     OW21280   0.358   4.119  13.524 -0.1483  0.4756 -0.0548
 3273SOL    HW121281   0.372   4.030  13.555 -1.2959  0.2586 -0.1922
 3273SOL    HW221282   0.332   4.164  13.605  0.0010 -1.0296  0.8346
 3274SOL     OW21283   3.390   2.520   8.162 -0.4565  0.1397 -0.4526
 3274SOL    HW121284   3.452   2.447   8.165 -1.7191 -0.9892 -1.6516
 3274SOL    HW221285   3.355   2.527   8.251  1.0187 -2.6387  0.3370
 3275SOL     OW21286   0.120   2.497  10.134 -0.5060  0.2176 -0.0023
 3275SOL    HW121287   0.190   2.457  10.083 -0.8503 -0.2451 -0.1144
 3275SOL    HW221288   0.166   2.531  10.210  0.0308 -1.3162  0.3684
 3276SOL     OW21289   2.255   3.388  14.540  0.1462  0.1590  0.0996
 3276SOL    HW121290   2.334   3.417  14.493 -0.7619 -0.6014 -1.8905
 3276SOL    HW221291   2.187   3.407  14.476 -0.9924 -0.6786  1.0576
 3277SOL     OW21292   0.206   1.867   7.982  0.3127 -0.2652  0.6124
 3277SOL    HW121293   0.262   1.839   7.910 -1.6672 -1.1381 -0.5908
 3277SOL    HW221294   0.121   1.880   7.940  1.5452  0.2190 -1.7075
 3278SOL     OW21295   1.216   2.826  12.483 -0.0809  0.5065 -0.3973
 3278SOL    HW121296   1.247   2.753  12.536  1.4596  1.0274 -0.5695
 3278SOL    HW221297   1.126   2.802  12.505 -0.3136  2.0729  0.3403
 3279SOL     OW21298   0.611   2.207   5.447  0.1272 -0.3008  0.4131
 3279SOL    HW121299   0.704   2.195   5.427  0.0128 -1.4591  0.5849
 3279SOL    HW221300   0.586   2.213   5.355  0.8699 -0.4264  0.1968
 3280SOL     OW21301   2.986   1.922  11.145  0.3842  0.0724 -0.5225
 3280SOL    HW121302   3.049   1.888  11.209  1.8614  0.1689 -1.9081
 3280SOL    HW221303   2.911   1.932  11.204  0.0355 -0.5544 -0.8621
 3281SOL     OW21304   2.114   3.435  15.071  0.1262 -0.0165  0.3908
 3281SOL    HW121305   2.164   3.415  14.992 -0.8762  0.7228 -0.4304
 3281SOL    HW221306   2.058   3.359  15.063 -1.3946  1.2751 -1.1663
 3282SOL     OW21307   3.414   2.358  13.786  0.1221 -0.2156 -0.2911
 3282SOL    HW121308   3.376   2.376  13.872 -1.9308 -2.6218 -0.6803
 3282SOL    HW221309   3.386   2.272  13.755 -2.9301  0.7788 -0.2815
 3283SOL     OW21310   1.852   4.326   3.964 -0.3466 -0.4256 -0.1549
 3283SOL    HW121311   1.914   4.387   3.925  2.0128 -2.6005  0.1476
 3283SOL    HW221312   1.900   4.285   4.036 -0.5997 -2.0785 -0.9261
 3284SOL     OW21313   1.405   4.090   6.432 -0.4543  0.1343  0.4462
 3284SOL    HW121314   1.394   3.996   6.418 -1.3005  0.6439 -2.1816
 3284SOL    HW221315   1.324   4.103   6.481  0.1221 -1.0267  1.7226
 3285SOL     OW21316   2.211   4.037  17.351 -0.6874  0.1495 -0.4500
 3285SOL    HW121317   2.151   3.984  17.403  0.4382 -1.7099 -1.0564
 3285SOL    HW221318   2.196   4.128  17.379  0.5412  0.1829  0.1350
 3286SOL     OW21319   3.093   0.967   5.812 -0.5222  0.1440 -0.0572
 3286SOL    HW121320   3.027   1.004   5.755  2.2353  3.1324 -1.2861
 3286SOL    HW221321   3.090   0.880   5.772  1.2645  0.4419 -0.8150
 3287SOL     OW21322   0.794   1.603   9.505  0.4406  0.0945 -0.5943
 3287SOL    HW121323   0.746   1.587   9.586  1.0619 -1.9188 -0.6206
 3287SOL    HW221324   0.731   1.573   9.440 -0.8372 -1.2393  1.2430
 3288SOL     OW21325   2.786   1.716  16.405  0.1369  0.0716  0.0510
 3288SOL    HW121326   2.744   1.650  16.351  1.5248 -0.4060 -0.4397
 3288SOL    HW221327   2.854   1.668  16.452  0.4422 -0.2890 -0.7634
 3289SOL     OW21328   2.096   1.085   2.061 -0.6526  0.5616 -0.3873
 3289SOL    HW121329   2.167   1.142   2.091 -1.3464  0.7593  0.8965
 3289SOL    HW221330   2.065   1.055   2.147 -2.0742  0.7092 -0.8558
 3290SOL     OW21331   2.432   2.827   3.000  0.4104 -0.4923 -0.5406
 3290SOL    HW121332   2.489   2.757   2.968  1.7827  1.0310 -1.4648
 3290SOL    HW221333   2.343   2.790   3.000 -0.0516  0.6077 -1.7009
 3291SOL     OW21334   1.257   2.747   9.625  0.0821 -0.3344  0.4593
 3291SOL    HW121335   1.324   2.703   9.677 -0.0711  0.5034  1.3738
 3291SOL    HW221336   1.182   2.697   9.657  0.3964 -1.0785  0.0060
 3292SOL     OW21337   4.585   3.922  15.132 -0.0462  0.4282  0.4160
 3292SOL    HW121338   4.507   3.881  15.095 -0.1845  1.5530 -0.5095
 3292SOL    HW221339   4.644   3.931  15.057 -2.2503 -0.2334 -1.3976
 3293SOL     OW21340   2.095   2.380   3.784  0.3377  0.2312  0.3614
 3293SOL    HW121341   2.181   2.340   3.772  0.6920  1.4563 -1.2090
 3293SOL    HW221342   2.074   2.386   3.877  1.4932 -0.1922  0.6437
 3294SOL     OW21343   4.263   3.596   0.674  0.3860 -0.6377 -0.6692
 3294SOL    HW121344   4.245   3.627   0.585 -2.0036  1.1274  0.4053
 3294SOL    HW221345   4.178   3.622   0.712  0.4473 -1.8325  0.3004
 3295SOL     OW21346   2.280   1.622   7.017 -0.1815 -0.0059  0.3618
 3295SOL    HW121347   2.217   1.613   6.945  1.3498  0.5318 -1.0470
 3295SOL    HW221348   2.305   1.532   7.036 -1.0714 -0.2068  0.5629
 3296SOL     OW21349   2.322   2.753   8.050  0.3890 -0.3098 -0.0015
 3296SOL    HW121350   2.303   2.834   8.096 -2.4426 -1.7851  1.3872
 3296SOL    HW221351   2.293   2.687   8.112 -1.5879 -1.4797 -2.1795
 3297SOL     OW21352   3.326   3.384   3.889  0.0940 -0.2364 -0.1225
 3297SOL    HW121353   3.280   3.309   3.926 -1.4013  0.9681  0.4620
 3297SOL    HW221354   3.375   3.343   3.818 -1.5452 -2.1908 -0.1048
 3298SOL     OW21355   0.172   2.454   2.255 -0.0558 -0.7831 -0.0720
 3298SOL    HW121356   0.088   2.485   2.290  0.0020 -1.2576  0.4637
 3298SOL    HW221357   0.203   2.414   2.335  0.4756 -0.4366 -0.1030
 3299SOL     OW21358   4.376   0.934   7.493  0.5961 -0.6993  0.5147
 3299SOL    HW121359   4.333   0.997   7.550 -0.7737  1.4488 -2.9123
 3299SOL    HW221360   4.462   0.975   7.499  1.6145 -2.7930  0.5182
 3300SOL     OW21361   4.217   4.606   9.887 -0.5576  1.0842 -0.4164
 3300SOL    HW121362   4.259   4.664   9.950  0.4330 -2.1753  1.9241
 3300SOL    HW221363   4.234   4.647   9.802  1.1259  2.5595  0.6429
 3301SOL     OW21364   2.574   3.296   6.706 -0.0070  0.0436 -0.0372
 3301SOL    HW121365   2.516   3.267   6.636  1.2199 -0.2582 -0.9345
 3301SOL    HW221366   2.536   3.382   6.723 -2.1947 -1.1588  1.0307
 3302SOL     OW21367   4.501   1.774  12.858 -0.4854  0.1794  0.0436
 3302SOL    HW121368   4.496   1.716  12.782  0.2116  0.9966 -0.6348
 3302SOL    HW221369   4.506   1.712  12.930  0.0149 -0.6976 -0.7597
 3303SOL     OW21370   3.271   2.403   4.070 -0.1813 -0.1431  0.2450
 3303SOL    HW121371   3.206   2.445   4.014 -2.2292 -2.2964  1.0300
 3303SOL    HW221372   3.349   2.414   4.016 -0.0208  0.5795  0.6134
 3304SOL     OW21373   2.683   3.607   3.460 -0.1185  0.6309 -0.2701
 3304SOL    HW121374   2.748   3.579   3.396  0.4298 -0.0685  0.6084
 3304SOL    HW221375   2.665   3.525   3.505 -0.3094  0.2950 -0.9617
 3305SOL     OW21376   3.118   4.064   8.115 -0.4249  0.4177 -0.2853
 3305SOL    HW121377   3.080   4.073   8.028 -2.0412  0.8172  0.4597
 3305SOL    HW221378   3.160   3.978   8.111 -2.1574 -0.4441  0.2677
 3306SOL     OW21379   3.670   4.001   8.477  0.0090  0.1564  0.0074
 3306SOL    HW121380   3.585   4.020   8.516  0.0385 -0.6873  0.4813
 3306SOL    HW221381   3.708   4.085   8.503  0.8051  0.2574 -1.5110
 3307SOL     OW21382   2.408   1.332   6.757  0.3086 -0.5779 -0.5017
 3307SOL    HW121383   2.315   1.332   6.781  0.1602  0.8371 -1.0409
 3307SOL    HW221384   2.450   1.303   6.837  0.7168  0.6271 -0.2688
 3308SOL     OW21385   3.653   3.203   9.810  0.2156  0.1071  0.1803
 3308SOL    HW121386   3.659   3.191   9.904  0.3202 -3.0622 -0.1981
 3308SOL    HW221387   3.664   3.297   9.815  1.7510  0.0477 -2.2374
 3309SOL     OW21388   1.092   1.881  10.116  0.4136  0.1571  0.0779
 3309SOL    HW121389   1.126   1.962  10.078 -0.7702  1.1117  1.0465
 3309SOL    HW221390   1.120   1.815  10.053  0.9860 -1.0307  1.5649
 3310SOL     OW21391   3.002   2.587   6.005 -0.1226 -0.3078 -0.4910
 3310SOL    HW121392   2.964   2.659   5.955 -0.8916  0.4286  1.1607
 3310SOL    HW221393   3.085   2.570   5.960  0.4757  3.3283 -0.7529
 3311SOL     OW21394   4.214   0.294   1.987 -0.3997  0.4406  0.0651
 3311SOL    HW121395   4.255   0.379   2.002  2.5234 -0.9649 -0.0696
 3311SOL    HW221396   4.131   0.306   2.034 -0.4345 -1.1443  0.4250
 3312SOL     OW21397   0.151   2.869   4.193  0.6459  0.3975  0.2282
 3312SOL    HW121398   0.142   2.774   4.190 -2.0425  0.7386 -1.3467
 3312SOL    HW221399   0.149   2.891   4.286  0.8008  1.1267  0.0583
 3313SOL     OW21400   4.166   0.776   1.041  0.5255 -0.2814  0.3699
 3313SOL    HW121401   4.217   0.699   1.018  0.9153  0.2390 -0.4880
 3313SOL    HW221402   4.110   0.777   0.963 -0.9190 -0.1655  1.3942
 3314SOL     OW21403   0.890   2.640  10.781  0.0988 -0.1531  0.3695
 3314SOL    HW121404   0.970   2.627  10.831 -0.9276 -2.8445  1.3261
 3314SOL    HW221405   0.923   2.634  10.691  0.7553  2.1561  0.4693
 3315SOL     OW21406   1.520   1.705   2.998 -0.3758 -0.4470 -0.0730
 3315SOL    HW121407   1.437   1.749   3.013  0.8675  1.8045  0.1038
 3315SOL    HW221408   1.490   1.642   2.933  1.0480 -3.3977  2.0787
 3316SOL     OW21409   1.994   0.050   6.513 -0.2262  0.2858  0.2639
 3316SOL    HW121410   1.922   0.022   6.456 -0.4432 -0.1523  0.7557
 3316SOL    HW221411   2.072   0.061   6.458 -0.5284 -1.2361 -0.4718
 3317SOL     OW21412   1.512   3.452   4.354  0.2299  0.2872  0.1101
 3317SOL    HW121413   1.607   3.445   4.357  0.2359  0.2333 -0.2851
 3317SOL    HW221414   1.498   3.546   4.341 -0.7425 -0.3634 -3.4072
 3318SOL     OW21415   4.150   2.404  14.239 -0.0300  0.2463 -0.0518
 3318SOL    HW121416   4.208   2.407  14.315 -0.4171 -0.6094  0.2740
 3318SOL    HW221417   4.070   2.387  14.288 -0.7017  1.2718 -0.8088
 3319SOL     OW21418   2.654   1.691   8.345 -0.6132  0.2134  0.3252
 3319SOL    HW121419   2.565   1.670   8.370 -1.1621  1.1515 -0.8455
 3319SOL    HW221420   2.701   1.637   8.409 -0.0352 -0.2339 -0.4740
 3320SOL     OW21421   0.435   2.543   4.522  0.2034  0.5454 -0.0862
 3320SOL    HW121422   0.347   2.572   4.547 -0.1478 -0.9293  0.3775
 3320SOL    HW221423   0.419   2.551   4.428 -0.4283 -0.6850 -0.0883
 3321SOL     OW21424   2.686   0.986   8.749  0.7669  0.6812  0.1691
 3321SOL    HW121425   2.673   0.893   8.732 -0.5548  0.7082  0.9875
 3321SOL    HW221426   2.623   1.028   8.690  0.5851 -0.0182 -0.1285
 3322SOL     OW21427   2.095   4.546   8.953  0.5435  0.3859  0.5084
 3322SOL    HW121428   2.069   4.515   8.866  2.5831 -1.3082  0.4872
 3322SOL    HW221429   2.160   4.483   8.986 -0.4384 -0.1078  1.4924
 3323SOL     OW21430   2.121   3.486   7.449  0.1153 -0.1450  0.3348
 3323SOL    HW121431   2.104   3.426   7.521 -1.6008  0.4023  0.3717
 3323SOL    HW221432   2.151   3.561   7.500 -1.5420 -0.0086  1.1155
 3324SOL     OW21433   1.033   0.930   4.187 -0.0392 -0.1746 -0.1793
 3324SOL    HW121434   1.072   0.883   4.113 -2.3867 -0.3150 -1.3440
 3324SOL    HW221435   1.096   0.998   4.209 -0.0785 -0.0984 -0.3012
 3325SOL     OW21436   4.474   4.212   9.809  0.4723  0.0688 -0.5690
 3325SOL    HW121437   4.395   4.176   9.848 -0.5741  2.5592 -0.3995
 3325SOL    HW221438   4.484   4.287   9.867  0.5716 -0.7681  0.5023
 3326SOL     OW21439   0.223   3.171   5.110 -0.3357 -0.0479  0.6092
 3326SOL    HW121440   0.269   3.215   5.038 -0.9739 -3.6937 -2.0368
 3326SOL    HW221441   0.187   3.106   5.050 -2.8815 -0.6448  2.7985
 3327SOL     OW21442   1.143   0.984   1.114 -0.4794 -0.6767  0.7598
 3327SOL    HW121443   1.124   0.890   1.115  0.5342 -0.8844  0.4645
 3327SOL    HW221444   1.078   1.021   1.173  1.0040  0.2378  1.8096
 3328SOL     OW21445   2.922   3.047   6.663 -0.6715  0.0090 -0.2490
 3328SOL    HW121446   2.901   3.001   6.582  0.9597 -1.8939  0.3910
 3328SOL    HW221447   2.894   2.983   6.729 -0.8897 -0.7850 -1.1194
 3329SOL     OW21448   0.581   1.738   4.043 -0.1366 -0.0361 -0.5871
 3329SOL    HW121449   0.594   1.724   3.949  1.5569  0.4875 -0.4354
 3329SOL    HW221450   0.490   1.711   4.052  0.4047 -0.7377  2.6292
 3330SOL     OW21451   0.136   1.824   4.037 -0.1082 -0.3429 -0.3737
 3330SOL    HW121452   0.048   1.826   4.001 -0.2716  1.4695  0.1589
 3330SOL    HW221453   0.173   1.905   4.003 -0.5041  1.3367  3.0998
 3331SOL     OW21454   2.769   4.697   3.754 -0.1950 -0.3905 -0.0249
 3331SOL    HW121455   2.679   4.689   3.786  0.2198 -2.9012  0.5298
 3331SOL    HW221456   2.809   0.039   3.819  1.5558 -2.7142  1.0014
 3332SOL     OW21457   3.204   0.000   3.514 -0.3731  0.6779 -0.2118
 3332SOL    HW121458   3.183   0.082   3.558 -1.0164 -0.4171  1.5315
 3332SOL    HW221459   3.126   4.669   3.541  0.3314 -0.3590  0.0242
 3333SOL     OW21460   1.927   0.056   2.351 -0.0141 -0.1890  0.1522
 3333SOL    HW121461   1.875   0.128   2.318  1.2140  0.6237 -0.0187
 3333SOL    HW221462   1.975   0.109   2.415  0.0796  1.2086 -1.1006
 3334SOL     OW21463   2.091   4.223  15.909 -0.1939  0.2861  0.3642
 3334SOL    HW121464   2.124   4.184  15.828  3.5080 -0.3789  2.2075
 3334SOL    HW221465   2.131   4.161  15.970 -1.3479 -0.4262  0.4034
 3335SOL     OW21466   3.948   4.642   1.877 -0.2082 -0.2323  0.4660
 3335SOL    HW121467   4.027   4.653   1.930  0.5324 -1.8651 -0.2845
 3335SOL    HW221468   3.971   4.553   1.850 -0.4158 -0.5998  1.5217
 3336SOL     OW21469   3.030   0.159  15.571 -0.5941 -0.6385  0.3971
 3336SOL    HW121470   3.117   0.145  15.533 -0.7035 -2.2769  0.7595
 3336SOL    HW221471   3.032   0.254  15.580  1.4178 -0.6257 -0.0178
 3337SOL     OW21472   1.107   3.545   7.904  0.3307 -0.2354 -0.2926
 3337SOL    HW121473   1.087   3.531   7.811  3.1293 -4.3903 -0.2960
 3337SOL    HW221474   1.068   3.467   7.944 -0.6776  0.3973 -0.0645
 3338SOL     OW21475   2.775   1.782  17.466 -0.1949 -0.1352 -0.2481
 3338SOL    HW121476   2.856   1.758  17.423 -1.3873 -2.4355 -1.2094
 3338SOL    HW221477   2.709   1.732  17.419  1.0861  0.3286 -2.5367
 3339SOL     OW21478   0.627   1.296   2.352  0.7968  0.0227 -0.0576
 3339SOL    HW121479   0.624   1.363   2.283 -0.0485 -0.1608 -0.2001
 3339SOL    HW221480   0.700   1.239   2.328  1.2140  1.0160 -1.1120
 3340SOL     OW21481   4.221   2.012   3.008 -0.6448 -0.6385  0.0745
 3340SOL    HW121482   4.283   2.064   2.958 -0.7685 -1.5401 -1.0149
 3340SOL    HW221483   4.213   2.069   3.085 -1.0153 -0.6465  0.0431
 3341SOL     OW21484   3.358   1.958   3.546 -0.5057 -0.0902  0.5116
 3341SOL    HW121485   3.395   2.025   3.604 -1.0824 -0.1826  0.9931
 3341SOL    HW221486   3.415   1.947   3.470 -0.0701 -2.0476  1.1209
 3342SOL     OW21487   0.296   0.850   5.590  0.3949  0.0572  0.2092
 3342SOL    HW121488   0.310   0.894   5.674  1.9554 -0.8855  0.4442
 3342SOL    HW221489   0.205   0.875   5.574 -0.0159 -0.1870  2.1079
 3343SOL     OW21490   3.730   3.160   1.919 -0.5088  0.3105  0.0245
 3343SOL    HW121491   3.789   3.169   1.844 -0.8983  3.7394  0.1235
 3343SOL    HW221492   3.787   3.171   1.994 -1.2652 -0.9571  0.7844
 3344SOL     OW21493   2.962   0.615  16.138 -0.2846  0.0088  0.1810
 3344SOL    HW121494   2.995   0.626  16.227 -2.1721  1.2637  0.7348
 3344SOL    HW221495   2.877   0.571  16.147 -0.0198 -0.7049 -0.7984
 3345SOL     OW21496   2.879   2.997  11.582 -0.0456  0.1164  0.6347
 3345SOL    HW121497   2.843   2.916  11.545  0.5992  0.8075 -1.4683
 3345SOL    HW221498   2.942   3.013  11.512 -1.3395 -0.7677 -0.7414
 3346SOL     OW21499   1.151   2.629  13.552  0.0294  0.4538 -0.3502
 3346SOL    HW121500   1.209   2.670  13.488  1.8019  0.6813  1.3919
 3346SOL    HW221501   1.171   2.539  13.528  3.9174  0.1629  3.9512
 3347SOL     OW21502   2.293   2.417  12.216 -0.1760  0.3108  0.7242
 3347SOL    HW121503   2.324   2.460  12.136 -0.2032 -0.7132  0.1718
 3347SOL    HW221504   2.289   2.326  12.188  1.8291  0.3364  0.3318
 3348SOL     OW21505   0.469   4.088   4.285 -0.0174  0.8310 -0.1608
 3348SOL    HW121506   0.534   4.026   4.318 -0.6827  0.0493 -0.3008
 3348SOL    HW221507   0.448   4.051   4.199  1.2843  2.4625 -1.1742
 3349SOL     OW21508   2.276   3.382   2.142  0.3713  0.3528 -0.4059
 3349SOL    HW121509   2.263   3.441   2.068 -1.1338 -0.6226 -0.9190
 3349SOL    HW221510   2.308   3.304   2.097  0.1621 -0.4709  0.8684
 3350SOL     OW21511   2.903   0.860   2.385 -0.1627  0.2971 -0.3288
 3350SOL    HW121512   2.988   0.899   2.365  0.3144 -0.1950  0.7114
 3350SOL    HW221513   2.859   0.864   2.301  0.0366 -0.9509 -0.4849
 3351SOL     OW21514   1.490   1.641   5.208  0.3867  0.1755  0.0080
 3351SOL    HW121515   1.520   1.551   5.213  0.9917  0.4747  1.9436
 3351SOL    HW221516   1.477   1.654   5.302  2.5057  1.0861  0.1722
 3352SOL     OW21517   1.379   3.329   3.877  0.4815 -0.7584  0.0576
 3352SOL    HW121518   1.432   3.408   3.876 -3.1038  1.6711  1.2894
 3352SOL    HW221519   1.362   3.323   3.971 -3.5292 -0.8462 -0.6755
 3353SOL     OW21520   1.619   0.702  16.788 -0.1772 -0.1606 -0.6512
 3353SOL    HW121521   1.647   0.613  16.811 -2.8127 -0.3979  1.5859
 3353SOL    HW221522   1.530   0.692  16.753  0.5008  0.6540 -2.5953
 3354SOL     OW21523   3.791   0.833   7.910  0.0972  0.1126 -0.3585
 3354SOL    HW121524   3.821   0.767   7.848 -0.8720 -0.4620 -0.2256
 3354SOL    HW221525   3.830   0.800   7.990  0.4604 -1.9620 -1.3862
 3355SOL     OW21526   1.008   1.715   5.180 -0.7781 -0.2101  0.1794
 3355SOL    HW121527   0.921   1.755   5.185 -0.9406 -0.5523  0.0329
 3355SOL    HW221528   1.041   1.771   5.110 -1.1966  1.8344  1.6174
 3356SOL     OW21529   3.133   0.258   3.644 -0.0139  0.1015  0.5365
 3356SOL    HW121530   3.101   0.285   3.730 -0.2258  2.4720 -0.2994
 3356SOL    HW221531   3.189   0.327   3.610  0.7835 -0.6508  0.3052
 3357SOL     OW21532   4.361   3.112   7.440  0.3828  0.3236 -0.3385
 3357SOL    HW121533   4.373   3.152   7.526 -0.6157 -1.8288  0.8085
 3357SOL    HW221534   4.278   3.155   7.420  0.6869  2.2723  2.5147
 3358SOL     OW21535   1.731   2.077  11.955  0.1405  0.0089 -0.4519
 3358SOL    HW121536   1.661   2.046  12.012  0.9775  1.0382  1.1425
 3358SOL    HW221537   1.712   2.171  11.963 -1.9818 -0.4621  0.0914
 3359SOL     OW21538   2.342   3.975  17.124  0.2668  0.3642  0.7030
 3359SOL    HW121539   2.281   3.981  17.198 -0.5862 -0.7636  0.0981
 3359SOL    HW221540   2.372   4.066  17.116 -1.1229  1.0009  2.5721
 3360SOL     OW21541   1.035   2.177  11.596  0.3613 -0.3085  0.3324
 3360SOL    HW121542   0.950   2.218  11.579  0.6588  0.3976  0.5947
 3360SOL    HW221543   1.013   2.090  11.563 -1.9184  0.4894 -0.2550
 3361SOL     OW21544   0.614   4.617  10.546  0.2033 -0.9155  0.4934
 3361SOL    HW121545   0.679   4.563  10.592  0.7737  0.1539  0.9383
 3361SOL    HW221546   0.655   4.702  10.534 -1.1618 -0.5269 -1.3923
 3362SOL     OW21547   2.015   0.462  16.323  0.0514 -0.3715 -0.4751
 3362SOL    HW121548   2.108   0.445  16.308 -0.4813 -2.1507 -1.7828
 3362SOL    HW221549   1.976   0.374  16.328 -2.5521  0.8178  0.1452
 3363SOL     OW21550   2.678   2.982   9.300  0.0371 -0.1518  0.0348
 3363SOL    HW121551   2.600   2.943   9.260 -0.3707 -0.1702  0.8631
 3363SOL    HW221552   2.643   3.068   9.321  0.6772  0.0328  0.3259
 3364SOL     OW21553   1.773   4.436   8.049 -0.0325  0.4180  0.4513
 3364SOL    HW121554   1.824   4.496   7.994  0.6256 -0.7114 -0.1851
 3364SOL    HW221555   1.688   4.479   8.051 -0.6418 -0.8341  1.5661
 3365SOL     OW21556   0.404   1.753   7.804  0.2170  0.0897 -0.5928
 3365SOL    HW121557   0.360   1.675   7.771 -2.3833  1.8495 -1.3863
 3365SOL    HW221558   0.393   1.802   7.722  0.5765  0.9702 -0.1192
 3366SOL     OW21559   3.715   1.549  16.744  0.1470  0.5576 -0.2735
 3366SOL    HW121560   3.807   1.545  16.771 -0.7095 -0.5735  2.4684
 3366SOL    HW221561   3.725   1.605  16.667  2.1664  2.4696  1.3665
 3367SOL     OW21562   0.035   0.438  10.921 -0.2475 -0.1418 -0.4575
 3367SOL    HW121563   0.043   0.523  10.876  2.9402  0.6268  1.5605
 3367SOL    HW221564   0.031   0.468  11.012 -0.0566 -0.0211 -0.4901
 3368SOL     OW21565   3.451   1.675   3.620 -0.5329 -0.3101 -0.1289
 3368SOL    HW121566   3.437   1.770   3.620  2.9075  0.1760 -0.8211
 3368SOL    HW221567   3.382   1.648   3.681 -0.7490  0.2774 -0.1121
 3369SOL     OW21568   1.257   0.945   6.110  0.3694 -0.0177 -0.4379
 3369SOL    HW121569   1.293   1.028   6.078 -0.3474  1.6890  3.1502
 3369SOL    HW221570   1.197   0.935   6.036 -1.4811  1.5902  0.8425
 3370SOL     OW21571   1.613   4.075   6.189  0.3968  0.4909  0.4013
 3370SOL    HW121572   1.648   4.042   6.272  0.5479 -1.3695 -0.4081
 3370SOL    HW221573   1.542   4.132   6.218  1.3390  1.2549  1.2026
 3371SOL     OW21574   0.961   4.191  10.049 -0.3080 -0.0888  0.6013
 3371SOL    HW121575   0.899   4.256  10.018  1.1616  0.3801 -1.3498
 3371SOL    HW221576   0.965   4.128   9.977 -0.8008  1.6518 -0.9475
 3372SOL     OW21577   4.624   3.370   4.480 -0.1403  0.1295 -0.7100
 3372SOL    HW121578   4.594   3.324   4.402  2.0966 -2.7239  0.1264
 3372SOL    HW221579   0.003   3.370   4.478 -0.1440 -0.3348 -0.7703
 3373SOL     OW21580   3.935   2.558   7.284  0.4698 -0.7139  0.1847
 3373SOL    HW121581   3.843   2.532   7.283  0.5305 -0.8534 -2.2604
 3373SOL    HW221582   3.972   2.492   7.224  0.0130 -1.0764  0.2990
 3374SOL     OW21583   1.697   1.925   6.771 -0.5694 -0.0396 -0.6416
 3374SOL    HW121584   1.709   2.003   6.825  1.7327  1.4265 -3.2805
 3374SOL    HW221585   1.602   1.921   6.774 -0.3945 -1.7883  2.9729
 3375SOL     OW21586   3.155   1.810   8.940 -0.2736  0.1561 -0.6683
 3375SOL    HW121587   3.173   1.735   8.997  0.3936  1.6824  1.1024
 3375SOL    HW221588   3.071   1.837   8.975  0.3493 -1.3725  1.9944
 3376SOL     OW21589   1.641   3.021  11.036 -0.4535  0.5832  0.0319
 3376SOL    HW121590   1.686   2.939  11.056 -0.1038  0.5495 -0.9038
 3376SOL    HW221591   1.725   3.067  11.043 -1.0037  1.6335 -0.2402
 3377SOL     OW21592   4.221   2.758   9.674 -0.5161  0.2113  0.0416
 3377SOL    HW121593   4.227   2.854   9.670  1.9077  0.1792  2.3026
 3377SOL    HW221594   4.134   2.745   9.637 -0.2529  1.3750 -0.9832
 3378SOL     OW21595   0.754   2.022   2.624 -0.1906  0.1199 -0.6732
 3378SOL    HW121596   0.799   2.010   2.541  1.0086 -1.3162  0.1868
 3378SOL    HW221597   0.716   2.109   2.609  0.1328  0.6034  1.2861
 3379SOL     OW21598   3.847   3.892  11.337  0.2903  0.6983  0.6108
 3379SOL    HW121599   3.798   3.854  11.410 -0.2896 -1.7512 -1.0643
 3379SOL    HW221600   3.918   3.828  11.341  0.5990  0.8679 -2.5909
 3380SOL     OW21601   1.753   2.866   5.862  0.3596 -0.0625 -0.6004
 3380SOL    HW121602   1.687   2.798   5.850  1.2925 -1.2160  0.7730
 3380SOL    HW221603   1.776   2.898   5.774 -1.4469  0.1528 -0.9890
 3381SOL     OW21604   3.016   0.664   2.704  0.3992  0.8568 -0.4291
 3381SOL    HW121605   3.076   0.738   2.699  0.5513  0.6724 -1.4487
 3381SOL    HW221606   3.079   0.595   2.684  0.4035  0.3360  1.3447
 3382SOL     OW21607   3.285   0.328   2.197 -0.8885  0.0091  0.2615
 3382SOL    HW121608   3.207   0.379   2.219 -0.1268  1.6649 -0.9273
 3382SOL    HW221609   3.284   0.316   2.102 -1.3304 -2.3286  0.5538
 3383SOL     OW21610   1.371   3.357  17.287 -0.0484  0.3695 -0.3544
 3383SOL    HW121611   1.449   3.412  17.277  1.3928 -1.5468  0.4012
 3383SOL    HW221612   1.367   3.302  17.209  0.7629 -0.5866  0.2684
 3384SOL     OW21613   3.638   1.218   1.207  0.1080 -0.2666 -0.0431
 3384SOL    HW121614   3.575   1.261   1.149 -0.0033 -0.2629  0.0798
 3384SOL    HW221615   3.582   1.157   1.254  0.0277 -0.3689 -0.2694
 3385SOL     OW21616   1.124   3.600   2.479 -0.2028 -0.3460  0.4586
 3385SOL    HW121617   1.214   3.581   2.507 -0.2456  0.9534  1.4539
 3385SOL    HW221618   1.108   3.686   2.517  1.2955  0.0125  0.2933
 3386SOL     OW21619   1.235   4.647  15.192 -0.6779 -0.2080  0.3742
 3386SOL    HW121620   1.250   4.699  15.271 -0.5593  2.9705 -1.7388
 3386SOL    HW221621   1.165   4.588  15.220  0.3203 -1.5918 -0.0409
 3387SOL     OW21622   0.165   2.080  16.608 -0.0511 -0.3603 -0.3676
 3387SOL    HW121623   0.072   2.092  16.592 -0.5694 -1.2325  2.0259
 3387SOL    HW221624   0.196   2.154  16.659 -2.7299 -0.0046  0.7287
 3388SOL     OW21625   1.095   0.556   3.963  0.6053  0.2759  0.1179
 3388SOL    HW121626   1.102   0.520   4.052  1.4140  0.3134  0.0738
 3388SOL    HW221627   1.064   0.478   3.917  0.9407  0.6388 -0.7273
 3389SOL     OW21628   0.106   2.849   6.356  0.1021  0.0707 -0.5271
 3389SOL    HW121629   0.146   2.839   6.442  0.8906 -1.8895 -1.1107
 3389SOL    HW221630   0.160   2.787   6.307 -0.9170  0.8200 -2.6284
 3390SOL     OW21631   0.460   4.426   5.887 -0.0573  0.4075  0.5610
 3390SOL    HW121632   0.422   4.431   5.799 -0.8324  1.4725  0.9642
 3390SOL    HW221633   0.420   4.507   5.918  0.2356  0.5112  0.6747
 3391SOL     OW21634   2.556   1.902  11.125 -0.5219  0.2914 -0.1823
 3391SOL    HW121635   2.639   1.933  11.161  0.9196 -1.9287 -1.6496
 3391SOL    HW221636   2.592   1.846  11.057  0.3631  0.9460 -0.2500
 3392SOL     OW21637   2.333   3.018  10.675  0.7173  0.3146 -0.5066
 3392SOL    HW121638   2.340   3.008  10.580  0.9772 -2.1909 -0.2269
 3392SOL    HW221639   2.278   2.943  10.695  0.6043  0.8491  1.2021
 3393SOL     OW21640   2.976   0.234   4.990  0.1816  0.0373  0.0099
 3393SOL    HW121641   3.016   0.155   4.952  0.4807  0.4188 -0.4630
 3393SOL    HW221642   3.020   0.236   5.076 -2.4986  2.2559  1.3066
 3394SOL     OW21643   3.103   1.182   6.701  0.4282  0.5643  0.6034
 3394SOL    HW121644   3.121   1.165   6.608  0.9261 -0.3703  0.8649
 3394SOL    HW221645   3.133   1.273   6.701  1.1451  0.3275 -0.3541
 3395SOL     OW21646   0.808   4.600  16.399  0.4376 -0.7273  1.0400
 3395SOL    HW121647   0.789   4.685  16.358  3.6811 -0.5757 -0.1242
 3395SOL    HW221648   0.716   4.575  16.410 -0.0329 -0.1260 -1.3549
 3396SOL     OW21649   4.510   2.057   5.021 -0.5684 -0.0171  0.2341
 3396SOL    HW121650   4.420   2.031   5.043 -0.7120  1.8511  1.8432
 3396SOL    HW221651   4.520   2.006   4.940 -0.0602  1.5963 -0.7175
 3397SOL     OW21652   2.185   2.780   8.664 -0.1101  0.6410 -0.7002
 3397SOL    HW121653   2.253   2.734   8.615 -0.5082  1.5565 -2.1158
 3397SOL    HW221654   2.118   2.713   8.677 -0.3568  0.9779 -0.2437
 3398SOL     OW21655   0.538   0.846  15.503 -0.3290  0.3629 -0.1571
 3398SOL    HW121656   0.556   0.917  15.564  1.2254 -1.9618  2.1393
 3398SOL    HW221657   0.478   0.887  15.441  1.1045 -0.2679 -1.9987
 3399SOL     OW21658   3.798   3.431   7.105  0.3029  0.4717 -0.1863
 3399SOL    HW121659   3.785   3.499   7.171  0.9239  0.7864 -0.3931
 3399SOL    HW221660   3.860   3.467   7.042  1.4742  0.4461  0.9466
 3400SOL     OW21661   2.190   2.431   7.815  1.0612 -0.4428  0.3132
 3400SOL    HW121662   2.203   2.502   7.753 -0.1873 -0.1636  0.3707
 3400SOL    HW221663   2.132   2.476   7.877  1.2568 -2.1196  1.7420
 3401SOL     OW21664   2.900   1.869   3.703  0.0682 -0.1753  0.5744
 3401SOL    HW121665   2.872   1.805   3.768  0.2165  1.5558  2.3154
 3401SOL    HW221666   2.935   1.935   3.763  1.1884 -1.4547  1.3241
 3402SOL     OW21667   0.093   0.649   3.732  0.5642 -0.8683 -0.1757
 3402SOL    HW121668   0.188   0.658   3.734  0.9924 -4.9935 -0.6168
 3402SOL    HW221669   0.060   0.683   3.815  2.0131 -0.3594  0.1837
 3403SOL     OW21670   3.609   0.533   3.932  0.1195  0.3218 -0.1841
 3403SOL    HW121671   3.558   0.600   3.887  0.2916 -0.1420 -1.0613
 3403SOL    HW221672   3.668   0.590   3.982 -0.5713  1.8059 -1.0458
 3404SOL     OW21673   4.108   2.518   4.093  0.4590 -0.1379 -0.3845
 3404SOL    HW121674   4.043   2.483   4.154  0.0542 -0.1250 -0.8057
 3404SOL    HW221675   4.155   2.572   4.157 -0.0001  0.6183 -0.6856
 3405SOL     OW21676   1.037   0.321  17.456  0.5933 -0.6368 -0.4292
 3405SOL    HW121677   1.090   0.317  17.535  1.3082  0.9419 -0.8366
 3405SOL    HW221678   0.952   0.300  17.495  1.3081 -0.9373  0.9515
 3406SOL     OW21679   0.130   0.234   8.432  0.2640 -0.3461 -0.0388
 3406SOL    HW121680   0.171   0.245   8.346  0.2938 -0.7781 -0.0772
 3406SOL    HW221681   0.189   0.286   8.487  0.4588 -0.8879  0.2622
 3407SOL     OW21682   3.736   1.749   5.838 -0.0594  0.1457  0.4931
 3407SOL    HW121683   3.751   1.766   5.931  1.7982  1.6234 -0.0590
 3407SOL    HW221684   3.641   1.739   5.836  0.0555 -0.6811 -0.9024
 3408SOL     OW21685   2.621   2.353  15.798  0.4232  0.1692  0.1823
 3408SOL    HW121686   2.539   2.363  15.749 -0.0667  2.4913  1.4705
 3408SOL    HW221687   2.592   2.395  15.879 -0.4944 -0.8058  0.3613
 3409SOL     OW21688   3.711   4.025  12.150  0.0276 -0.1823 -0.2885
 3409SOL    HW121689   3.775   4.028  12.079  1.2420 -1.8292  0.7248
 3409SOL    HW221690   3.679   4.115  12.144 -1.9550 -0.8339  0.5411
 3410SOL     OW21691   4.035   3.478  10.272  0.1829 -0.1795  0.5340
 3410SOL    HW121692   4.045   3.420  10.196  1.7769 -0.1864  0.7547
 3410SOL    HW221693   4.013   3.551  10.215  1.4211  0.6761  1.1516
 3411SOL     OW21694   1.074   1.295   5.439  0.4594  0.5327  0.2601
 3411SOL    HW121695   1.036   1.247   5.366  1.6025  3.4795 -2.2608
 3411SOL    HW221696   1.023   1.376   5.439 -0.2420  0.0909  0.3788
 3412SOL     OW21697   0.963   1.033  16.392  0.5971  0.0982 -0.0948
 3412SOL    HW121698   0.925   1.053  16.306 -2.8058 -1.8999  0.9797
 3412SOL    HW221699   0.993   0.943  16.382  0.3414  0.1123 -0.9488
 3413SOL     OW21700   2.134   1.421  12.248 -0.1645 -0.2341  0.2962
 3413SOL    HW121701   2.053   1.375  12.228 -0.9641  1.4090 -0.1725
 3413SOL    HW221702   2.168   1.415  12.159 -0.1127 -0.5620  0.3362
 3414SOL     OW21703   4.000   1.683   8.001 -0.5106 -0.2933 -0.1102
 3414SOL    HW121704   4.055   1.757   8.027 -0.9068 -0.2704  0.6784
 3414SOL    HW221705   4.008   1.684   7.906  0.6008 -1.8901 -0.0284
 3415SOL     OW21706   4.711   2.300   2.057  0.0658 -0.2863 -0.1451
 3415SOL    HW121707   0.009   2.369   1.992 -0.6052 -1.7398 -1.8332
 3415SOL    HW221708   0.018   2.344   2.138 -0.3597 -1.4104  0.5868
 3416SOL     OW21709   2.233   1.777  15.378  0.2518 -0.2593 -0.3012
 3416SOL    HW121710   2.259   1.736  15.460 -2.2848  0.1816  0.7081
 3416SOL    HW221711   2.229   1.867  15.409 -0.8087 -0.8480  1.2821
 3417SOL     OW21712   3.461   4.112   8.628 -0.3831  0.6396  0.0760
 3417SOL    HW121713   3.372   4.135   8.654 -0.4634 -0.2588  0.6046
 3417SOL    HW221714   3.507   4.101   8.712  1.7156 -0.9025 -1.2575
 3418SOL     OW21715   2.505   0.747   3.388 -0.3116  0.2071 -0.4674
 3418SOL    HW121716   2.529   0.657   3.367  1.1793  0.3990  0.4338
 3418SOL    HW221717   2.413   0.748   3.361 -0.9165  2.1613  1.6274
 3419SOL     OW21718   0.899   4.551   6.750 -0.2992  0.5112 -0.2375
 3419SOL    HW121719   0.916   4.599   6.831  1.2193  0.6971 -0.6773
 3419SOL    HW221720   0.807   4.523   6.754 -0.2617  0.3331 -0.6018
 3420SOL     OW21721   2.089   3.942   6.045 -0.3357  0.0302 -0.3126
 3420SOL    HW121722   2.131   3.992   6.115  0.1935  0.6468 -1.0660
 3420SOL    HW221723   2.007   3.989   6.033  0.8804  1.1041 -4.3456
 3421SOL     OW21724   0.912   3.077   1.240  0.0100 -0.1143 -0.0125
 3421SOL    HW121725   0.871   3.162   1.223  0.2324  0.2033  1.0103
 3421SOL    HW221726   0.963   3.095   1.319  1.4315  1.8220 -1.3936
 3422SOL     OW21727   0.765   3.744   8.462  0.1810 -0.3066 -0.0814
 3422SOL    HW121728   0.770   3.783   8.374 -2.1134  0.7996  0.2849
 3422SOL    HW221729   0.794   3.817   8.517 -0.5212  0.1732 -0.3481
 3423SOL     OW21730   1.907   0.286   3.753  0.5295 -0.5214  0.1435
 3423SOL    HW121731   1.824   0.277   3.800 -0.1725 -0.4284 -1.0921
 3423SOL    HW221732   1.914   0.200   3.712  0.3785  0.0141 -1.0004
 3424SOL     OW21733   0.062   0.978   7.361  0.2866  0.0799  0.4199
 3424SOL    HW121734   0.004   1.012   7.429  1.0758 -1.5012  1.8752
 3424SOL    HW221735   0.021   0.891   7.362 -0.0825  0.2693  1.2863
 3425SOL     OW21736   2.568   1.900  15.206 -0.1345  0.1249  0.3746
 3425SOL    HW121737   2.517   1.844  15.265  0.9894 -2.3642 -0.9835
 3425SOL    HW221738   2.632   1.834  15.177  0.0904  1.4757 -2.2488
 3426SOL     OW21739   3.234   3.119   9.379  0.0393 -0.9121 -0.2129
 3426SOL    HW121740   3.250   3.169   9.298 -3.5077  0.9941  0.2583
 3426SOL    HW221741   3.178   3.052   9.340  0.7424  0.7998 -4.2679
 3427SOL     OW21742   1.932   2.425  17.046  0.1315 -0.6701  0.1478
 3427SOL    HW121743   1.958   2.388  16.961  1.3984 -1.2909  0.8063
 3427SOL    HW221744   1.906   2.513  17.018 -1.5954 -1.7970 -1.8143
 3428SOL     OW21745   4.056   4.016  14.640 -0.3285 -0.6053  0.4070
 3428SOL    HW121746   3.975   4.007  14.690  0.4799 -1.9258  1.4847
 3428SOL    HW221747   4.121   4.062  14.693  0.0945  2.4027 -2.7505
 3429SOL     OW21748   3.744   2.570   8.206 -0.1365  0.1143 -0.4557
 3429SOL    HW121749   3.730   2.476   8.221 -0.1374  0.4018  1.3850
 3429SOL    HW221750   3.760   2.574   8.112  1.0337  0.9727 -0.2225
 3430SOL     OW21751   2.601   0.927   3.043  0.2022 -0.4294  0.3235
 3430SOL    HW121752   2.600   1.016   3.006 -1.6356  0.1086  1.6727
 3430SOL    HW221753   2.593   0.942   3.137 -1.7231  0.4674  0.0271
 3431SOL     OW21754   0.240   0.064   1.554 -0.4515 -0.1676  0.3320
 3431SOL    HW121755   0.242   4.701   1.500  2.8963 -0.0767  0.3163
 3431SOL    HW221756   0.148   0.088   1.553 -0.3245  0.2498 -1.3433
 3432SOL     OW21757   1.623   3.834   3.846 -0.0467 -0.5742  0.3572
 3432SOL    HW121758   1.714   3.804   3.844  0.0003 -0.2596 -2.1172
 3432SOL    HW221759   1.626   3.902   3.779  1.2236 -0.0223  0.9724
 3433SOL     OW21760   3.721   3.972  12.658  0.4583  0.4100 -0.1283
 3433SOL    HW121761   3.734   3.887  12.700 -0.0019  0.5200  0.2457
 3433SOL    HW221762   3.648   3.949  12.600  1.7080  0.4450 -1.7036
 3434SOL     OW21763   2.074   1.883   3.649 -0.4235  0.4457  0.0353
 3434SOL    HW121764   2.080   1.953   3.584 -3.1878 -1.1369 -1.9649
 3434SOL    HW221765   2.107   1.808   3.599 -0.5911  0.6992 -0.4491
 3435SOL     OW21766   0.070   4.033   8.620 -0.6007 -0.3336  0.4744
 3435SOL    HW121767   0.103   4.002   8.704 -0.0900  0.6227  0.6343
 3435SOL    HW221768   0.029   3.955   8.584 -0.2495 -0.8980  1.3078
 3436SOL     OW21769   2.096   0.110   4.893  0.4590  0.5140  0.4292
 3436SOL    HW121770   2.009   0.147   4.877  0.4490 -0.1659 -1.1053
 3436SOL    HW221771   2.145   0.190   4.874 -0.7582  1.1973  0.1295
 3437SOL     OW21772   3.371   0.654   9.047 -0.6337 -0.5105  0.1550
 3437SOL    HW121773   3.389   0.737   9.091  1.3326 -0.6742 -0.2964
 3437SOL    HW221774   3.318   0.678   8.971  0.1648  2.3274  0.4955
 3438SOL     OW21775   0.504   0.455   1.202  0.2867 -0.4013  0.1710
 3438SOL    HW121776   0.563   0.393   1.244 -0.2188 -0.7384  0.3751
 3438SOL    HW221777   0.486   0.522   1.268  1.4341  0.2272 -0.1368
 3439SOL     OW21778   4.439   2.680   7.191 -0.1262 -0.2858  0.5281
 3439SOL    HW121779   4.369   2.738   7.161 -0.3747 -0.6807  0.3537
 3439SOL    HW221780   4.399   2.637   7.266  0.5540  0.9008  1.5724
 3440SOL     OW21781   0.006   4.676  16.142  0.1366  0.2991 -0.2392
 3440SOL    HW121782   0.083   4.696  16.195 -0.4774  0.0873  0.7328
 3440SOL    HW221783   4.653   4.664  16.207  0.9215 -1.7848  0.2264
 3441SOL     OW21784   3.703   3.327   6.814 -0.4424 -0.1754 -0.2033
 3441SOL    HW121785   3.790   3.320   6.774 -2.0201 -0.1736 -3.6365
 3441SOL    HW221786   3.722   3.308   6.906 -0.2130 -0.1512 -0.2440
 3442SOL     OW21787   2.123   3.953   0.282 -0.1459 -0.6541  0.2296
 3442SOL    HW121788   2.203   3.901   0.271 -0.7367 -2.1289  3.0627
 3442SOL    HW221789   2.167   4.037   0.296  0.4126 -0.6500 -1.5616
 3443SOL     OW21790   0.605   2.933   2.033 -0.6397 -0.5043  0.0901
 3443SOL    HW121791   0.516   2.941   2.067 -1.0697  2.4673 -1.7038
 3443SOL    HW221792   0.587   2.974   1.948 -0.0078 -1.6254 -0.5869
 3444SOL     OW21793   0.264   3.566  13.056  0.0370 -0.2096 -0.0095
 3444SOL    HW121794   0.179   3.600  13.030  0.5008  0.2278 -0.9408
 3444SOL    HW221795   0.245   3.511  13.132  0.8391  0.4260  0.6550
 3445SOL     OW21796   1.142   4.139  17.227  0.1361  0.6832  0.1105
 3445SOL    HW121797   1.058   4.183  17.242 -0.2408  0.1300 -0.4004
 3445SOL    HW221798   1.205   4.210  17.241  1.2694 -0.3393  0.1884
 3446SOL     OW21799   0.613   1.737   2.283 -0.4879 -0.2803  0.2154
 3446SOL    HW121800   0.556   1.746   2.360 -1.8663  1.9629 -1.0694
 3446SOL    HW221801   0.592   1.820   2.240 -2.3884 -1.0398 -0.3027
 3447SOL     OW21802   1.277   3.555  11.795 -0.7244  0.0012  0.5182
 3447SOL    HW121803   1.283   3.585  11.704  1.1669 -1.9173  0.0079
 3447SOL    HW221804   1.371   3.568  11.808 -0.6444  0.6311 -0.6941
 3448SOL     OW21805   3.448   0.625   4.196  0.3708 -0.5728  0.1993
 3448SOL    HW121806   3.469   0.567   4.123 -0.1252 -2.5959  1.6801
 3448SOL    HW221807   3.480   0.567   4.265 -0.3388  2.0730  2.7741
 3449SOL     OW21808   3.185   2.931  13.070  0.0932 -0.4361  0.0296
 3449SOL    HW121809   3.219   3.000  13.013 -1.8343  0.8668  0.4606
 3449SOL    HW221810   3.114   2.898  13.015 -0.7566  1.0544  0.2470
 3450SOL     OW21811   4.111   4.294   2.002 -0.1062  0.2091 -0.1159
 3450SOL    HW121812   4.200   4.262   1.991  0.2220  0.6830  1.1712
 3450SOL    HW221813   4.072   4.262   1.920  2.7221 -0.4648 -1.1809
 3451SOL     OW21814   4.659   3.448   2.819 -0.4565  0.0395 -0.7275
 3451SOL    HW121815   4.699   3.484   2.741 -1.9402  0.8443 -1.1238
 3451SOL    HW221816   4.654   3.357   2.790 -0.4776  0.3819 -1.7885
 3452SOL     OW21817   2.736   4.349  11.343  0.4165 -0.6918  0.4754
 3452SOL    HW121818   2.739   4.276  11.281  0.5765  0.5519 -0.9899
 3452SOL    HW221819   2.728   4.421  11.281  2.7057 -1.3153 -0.5505
 3453SOL     OW21820   4.675   0.567   3.467 -0.1727 -0.1405  0.2783
 3453SOL    HW121821   4.599   0.542   3.520 -0.5214  1.6817  0.6138
 3453SOL    HW221822   0.009   0.620   3.529 -0.6108 -1.0029  1.3684
 3454SOL     OW21823   3.811   4.509   7.142  0.6168 -0.0584 -0.1523
 3454SOL    HW121824   3.821   4.423   7.181  1.0700  0.0376 -0.0570
 3454SOL    HW221825   3.716   4.524   7.145  0.6580  0.1376  0.2731
 3455SOL     OW21826   4.691   0.933   6.425  0.2375  0.2911  0.4589
 3455SOL    HW121827   4.697   0.843   6.456  0.2215  0.7256  1.7158
 3455SOL    HW221828   4.702   0.908   6.333  0.3660 -0.0565  0.5717
 3456SOL     OW21829   0.065   4.365   7.953 -0.4019  0.4692  0.0007
 3456SOL    HW121830   0.114   4.325   8.025  1.0208 -2.1415 -2.4336
 3456SOL    HW221831   4.701   4.396   7.996 -0.2256 -1.0018  1.3942
 3457SOL     OW21832   0.062   1.184   8.373 -0.2652 -0.2442  0.0257
 3457SOL    HW121833   0.035   1.178   8.281  0.6827  0.6730 -0.3079
 3457SOL    HW221834   4.688   1.197   8.402 -0.4501 -1.0851 -0.1568
 3458SOL     OW21835   0.601   3.160   0.352  0.4492  0.6857 -0.2963
 3458SOL    HW121836   0.663   3.115   0.410  1.4577 -0.7941 -2.5321
 3458SOL    HW221837   0.591   3.245   0.396 -0.5415  1.4759 -2.0522
 3459SOL     OW21838   1.654   4.233   1.074 -0.3435 -0.1963 -0.6216
 3459SOL    HW121839   1.670   4.237   1.168 -0.9888 -2.3438 -0.4321
 3459SOL    HW221840   1.674   4.144   1.046 -0.8430  0.2721 -2.4600
 3460SOL     OW21841   2.461   1.984   5.153  0.4665  0.1920  0.0615
 3460SOL    HW121842   2.444   2.071   5.117  2.2852  0.3002 -0.5064
 3460SOL    HW221843   2.541   1.963   5.106 -0.1256  0.0466 -0.8839
 3461SOL     OW21844   4.582   0.814   9.056 -0.3810  0.4089  0.8945
 3461SOL    HW121845   4.669   0.823   9.095  0.1438  0.3969 -0.2925
 3461SOL    HW221846   4.539   0.760   9.123 -1.9884  2.4125  1.4753
 3462SOL     OW21847   3.693   1.486  11.451  0.3961 -0.0762 -0.2245
 3462SOL    HW121848   3.741   1.507  11.530 -1.0325  0.5601  0.4884
 3462SOL    HW221849   3.607   1.520  11.477  0.9742  0.3492  1.1441
 3463SOL     OW21850   2.873   4.565  16.298  0.2867  0.9170 -0.8333
 3463SOL    HW121851   2.919   4.579  16.380  0.9884 -1.2631 -0.8454
 3463SOL    HW221852   2.844   4.653  16.275 -0.7057  0.8628  0.1711
 3464SOL     OW21853   2.018   4.518  17.290 -0.1325 -0.3205  0.2208
 3464SOL    HW121854   1.942   4.575  17.288 -0.0965 -0.3204 -0.7811
 3464SOL    HW221855   2.066   4.567  17.358 -0.2208 -0.1795  0.1816
 3465SOL     OW21856   1.727   2.173   1.226 -0.0783 -0.2708  0.3380
 3465SOL    HW121857   1.650   2.157   1.281  0.2514 -2.6556  0.1120
 3465SOL    HW221858   1.792   2.108   1.252 -0.2865  0.2563  2.1566
 3466SOL     OW21859   0.439   3.299   5.262  0.0294  0.5816  0.2529
 3466SOL    HW121860   0.512   3.272   5.207 -0.1388  2.1296 -0.7103
 3466SOL    HW221861   0.371   3.310   5.195 -2.2755  0.8552  2.6218
 3467SOL     OW21862   1.175   2.804   2.514 -0.0073  0.1642  0.4038
 3467SOL    HW121863   1.246   2.859   2.546 -0.1598  1.3453 -1.2786
 3467SOL    HW221864   1.233   2.731   2.492  0.1394  1.1923 -2.7062
 3468SOL     OW21865   0.723   3.158   7.904 -0.3086  0.5357 -0.2532
 3468SOL    HW121866   0.684   3.244   7.924 -0.9011  0.2636 -0.2420
 3468SOL    HW221867   0.655   3.096   7.931 -1.6633  1.8530 -0.5680
 3469SOL     OW21868   0.461   0.152   7.622  0.0796  0.2026  0.2846
 3469SOL    HW121869   0.469   0.193   7.536 -1.8655 -0.5181 -0.2327
 3469SOL    HW221870   0.517   0.208   7.676  0.2241 -0.4722  0.8346
 3470SOL     OW21871   3.445   2.305   5.132  0.0083  0.1301  0.1227
 3470SOL    HW121872   3.377   2.342   5.189 -0.1842 -1.6694  1.0715
 3470SOL    HW221873   3.521   2.354   5.163  0.1121 -0.7243  1.2380
 3471SOL     OW21874   4.667   0.594   6.021  0.0080 -0.2569  0.3279
 3471SOL    HW121875   4.596   0.535   6.045 -0.7132 -0.2055 -1.6878
 3471SOL    HW221876   4.708   0.542   5.952 -0.1098 -0.7415  0.6293
 3472SOL     OW21877   4.324   0.454   4.751 -0.9236  0.6239 -0.0956
 3472SOL    HW121878   4.259   0.485   4.687 -1.6753 -1.0640 -0.1619
 3472SOL    HW221879   4.314   0.362   4.728  1.5350  1.0373 -2.7327
 3473SOL     OW21880   3.683   2.448   5.224 -0.5365 -0.2472  0.1807
 3473SOL    HW121881   3.716   2.432   5.136 -0.1504  4.1648 -0.4640
 3473SOL    HW221882   3.755   2.397   5.264  0.7891  1.8415  0.4598
 3474SOL     OW21883   3.700   2.908   4.398 -0.7517 -0.1594 -0.8508
 3474SOL    HW121884   3.745   2.886   4.480  0.4732 -2.6134 -2.1993
 3474SOL    HW221885   3.616   2.947   4.422 -0.2093  0.3672  0.2544
 3475SOL     OW21886   2.032   2.086  16.054 -0.1317 -0.4404  0.3291
 3475SOL    HW121887   2.024   2.170  16.008  0.2099 -1.8717 -2.3773
 3475SOL    HW221888   1.942   2.054  16.048 -0.3157 -0.2834  2.3566
 3476SOL     OW21889   4.507   4.171   8.264  0.5064  0.1483 -0.1897
 3476SOL    HW121890   4.513   4.255   8.219  0.0093  1.3048  1.9396
 3476SOL    HW221891   4.474   4.201   8.349 -5.2030 -3.3240 -1.1665
 3477SOL     OW21892   0.251   3.126   9.377 -0.2264  0.8144  0.2532
 3477SOL    HW121893   0.165   3.151   9.412 -0.5320 -1.6072  1.2657
 3477SOL    HW221894   0.243   3.180   9.299 -3.6850  0.5953  0.4722
 3478SOL     OW21895   3.597   4.659   6.240  0.2323  0.0148 -0.5676
 3478SOL    HW121896   3.671   4.616   6.284  0.3051 -1.0828 -1.7331
 3478SOL    HW221897   3.596   0.027   6.283 -0.0175 -0.0126 -0.5215
 3479SOL     OW21898   0.332   3.325   8.199  0.8513 -0.4724  0.3645
 3479SOL    HW121899   0.416   3.369   8.188 -0.9890  2.7811 -0.6427
 3479SOL    HW221900   0.279   3.405   8.205  1.9813  0.1937  1.4680
 3480SOL     OW21901   0.878   3.807   5.221  0.1287 -0.2045 -0.2667
 3480SOL    HW121902   0.807   3.801   5.285  0.0772  0.0750 -0.2951
 3480SOL    HW221903   0.900   3.716   5.205  0.7958  0.1052 -1.1290
 3481SOL     OW21904   1.942   3.700   7.441  0.2232 -0.3760  0.2577
 3481SOL    HW121905   1.990   3.618   7.435 -0.4068 -0.8056  0.9378
 3481SOL    HW221906   1.881   3.701   7.367  0.9899 -1.3677 -0.3793
 3482SOL     OW21907   4.058   2.861   6.229  0.2135  0.4850  0.7002
 3482SOL    HW121908   4.060   2.940   6.174  0.3500 -1.0156 -1.4628
 3482SOL    HW221909   4.143   2.863   6.274  1.0109  0.7454 -0.8134
 3483SOL     OW21910   0.327   0.011   6.337  0.2038 -0.4685  0.0810
 3483SOL    HW121911   0.297   0.101   6.321  2.6152  0.1960 -0.6833
 3483SOL    HW221912   0.405   0.035   6.387 -0.8863  0.2766  1.4575
 3484SOL     OW21913   1.363   2.056   5.082  0.5471 -0.4702  0.2242
 3484SOL    HW121914   1.414   1.976   5.067 -1.2362 -1.5709  0.1098
 3484SOL    HW221915   1.328   2.064   4.993  0.5237  0.3600  0.3099
 3485SOL     OW21916   4.551   2.599   1.501 -0.2679 -0.1607 -0.0454
 3485SOL    HW121917   4.635   2.645   1.492  0.1064 -0.8242  0.0102
 3485SOL    HW221918   4.580   2.508   1.495 -1.1620 -0.5462  1.4723
 3486SOL     OW21919   4.361   2.481   7.342  0.6623 -0.2736  0.4448
 3486SOL    HW121920   4.296   2.420   7.380  0.8832  0.0727  1.3773
 3486SOL    HW221921   4.434   2.471   7.403  0.7962  1.8661  0.6267
 3487SOL     OW21922   2.299   3.076  14.417 -0.4281  0.1359 -0.1579
 3487SOL    HW121923   2.258   3.144  14.471 -0.7149 -1.3202  1.4551
 3487SOL    HW221924   2.241   3.059  14.343  0.4667  0.4766 -0.9454
 3488SOL     OW21925   2.282   2.616   4.522 -0.4987 -0.1777 -0.0692
 3488SOL    HW121926   2.321   2.635   4.437  1.9524 -1.4687  0.7818
 3488SOL    HW221927   2.191   2.634   4.498 -0.4982 -0.8369 -0.5475
 3489SOL     OW21928   3.488   0.776   7.738 -0.3430 -0.3464  0.4760
 3489SOL    HW121929   3.542   0.854   7.744 -0.7638  0.0485 -0.8004
 3489SOL    HW221930   3.523   0.713   7.801  1.0993  0.5085  0.5005
 3490SOL     OW21931   4.705   0.913  17.004  0.1467  0.3497  0.0037
 3490SOL    HW121932   4.662   0.921  16.919  0.2821  0.3224 -0.0681
 3490SOL    HW221933   0.055   0.848  16.982 -0.6977 -1.3910  2.5318
 3491SOL     OW21934   2.630   1.707   2.155 -0.9493 -0.1635  0.5293
 3491SOL    HW121935   2.634   1.689   2.249 -2.9878 -1.5940  0.3435
 3491SOL    HW221936   2.542   1.673   2.140 -0.3959 -1.4274  0.1548
 3492SOL     OW21937   1.446   1.615   5.470  0.0477 -0.1504  0.3055
 3492SOL    HW121938   1.361   1.630   5.510  1.1305  0.3623  2.4019
 3492SOL    HW221939   1.472   1.544   5.529 -2.4130 -2.1864 -1.0713
 3493SOL     OW21940   2.612   0.556   6.331 -0.0550  0.0187  0.0363
 3493SOL    HW121941   2.531   0.552   6.383  1.4068 -0.4605  2.2630
 3493SOL    HW221942   2.664   0.485   6.369 -0.2355  1.0593  2.1881
 3494SOL     OW21943   0.076   2.990  16.921 -0.1150  0.2445  0.2098
 3494SOL    HW121944   0.115   2.904  16.933  0.9196  0.5205 -1.1711
 3494SOL    HW221945   0.150   3.048  16.943  0.1160  0.7103 -1.8391
 3495SOL     OW21946   1.556   3.288   5.510  0.4021 -0.3533 -0.1514
 3495SOL    HW121947   1.496   3.336   5.568  3.2516 -0.1242  2.6174
 3495SOL    HW221948   1.634   3.342   5.516  0.4306 -0.4181  0.0769
 3496SOL     OW21949   3.631   4.625   8.499 -0.1951 -0.1284  0.0495
 3496SOL    HW121950   3.624   0.003   8.496 -0.7378 -0.1599  0.3651
 3496SOL    HW221951   3.551   4.598   8.544  0.7947 -0.9121  1.3500
 3497SOL     OW21952   3.808   1.344   6.208  0.0709 -0.5788  0.6322
 3497SOL    HW121953   3.801   1.256   6.245  1.5125 -0.6130  0.8316
 3497SOL    HW221954   3.766   1.333   6.123  0.1953 -0.9135  0.6129
 3498SOL     OW21955   1.249   4.313   6.778  0.0454 -0.1419 -0.1938
 3498SOL    HW121956   1.172   4.297   6.723 -1.0333  1.6816  0.7818
 3498SOL    HW221957   1.305   4.361   6.716  4.0556 -0.2513  3.3384
 3499SOL     OW21958   1.212   3.734   1.052 -0.1222  0.0484 -0.1382
 3499SOL    HW121959   1.141   3.797   1.044  0.5623  0.9244  0.6870
 3499SOL    HW221960   1.221   3.728   1.148  0.9341 -0.9795 -0.3001
 3500SOL     OW21961   4.514   2.413   4.703 -0.2759 -0.2964  0.3645
 3500SOL    HW121962   4.538   2.411   4.796  1.0100 -2.5299 -0.0244
 3500SOL    HW221963   4.455   2.488   4.702 -0.4548 -0.4417  0.1583
 3501SOL     OW21964   0.934   2.512   0.506 -0.1418  0.1716  0.3304
 3501SOL    HW121965   0.907   2.450   0.574  0.6557  1.0293  1.4146
 3501SOL    HW221966   0.962   2.587   0.558  1.4192  0.4518 -0.9147
 3502SOL     OW21967   4.701   2.637  17.590 -0.0462 -0.0735  0.0208
 3502SOL    HW121968   4.689   2.589   0.003  0.1218 -0.0278  0.0723
 3502SOL    HW221969   0.032   2.715  17.620 -2.9000  1.1566  1.3838
 3503SOL     OW21970   0.385   2.170   8.410  0.7002 -0.2386 -0.5138
 3503SOL    HW121971   0.378   2.264   8.425  0.3327 -0.4516  0.6870
 3503SOL    HW221972   0.315   2.141   8.469  0.5129  0.7730 -0.2345
 3504SOL     OW21973   2.544   3.206   7.620 -0.5465 -0.6326  0.7522
 3504SOL    HW121974   2.595   3.190   7.541 -0.7402  2.8513 -0.0926
 3504SOL    HW221975   2.581   3.153   7.690 -1.1455 -0.5284  1.1502
 3505SOL     OW21976   1.033   3.044   0.952 -0.1216 -0.3288 -0.2715
 3505SOL    HW121977   0.999   2.982   1.017 -4.7323  1.8457 -0.6294
 3505SOL    HW221978   1.015   2.995   0.872 -2.1227  0.8248 -0.5174
 3506SOL     OW21979   4.547   3.609  10.134  0.2775  0.2758 -0.2604
 3506SOL    HW121980   4.586   3.551  10.069 -0.6570 -0.1951 -0.3896
 3506SOL    HW221981   4.612   3.678  10.119 -0.4221  1.0402  0.2119
 3507SOL     OW21982   0.405   0.344  15.609 -0.5570  0.4706 -0.3420
 3507SOL    HW121983   0.466   0.304  15.672 -0.9332  1.1436  0.4508
 3507SOL    HW221984   0.441   0.432  15.604  0.7234 -0.0007  0.3745
 3508SOL     OW21985   4.486   3.315   9.445  0.1378  0.0233  0.4368
 3508SOL    HW121986   4.515   3.403   9.418  2.1245 -1.0172 -0.8275
 3508SOL    HW221987   4.458   3.274   9.363  1.0008  1.3432 -0.5284
 3509SOL     OW21988   1.203   3.796   6.062  0.2016 -0.3158 -0.1160
 3509SOL    HW121989   1.115   3.818   6.031  1.0560  3.6720  0.2339
 3509SOL    HW221990   1.221   3.738   5.988  1.0345  0.0391 -0.1935
 3510SOL     OW21991   0.479   0.532  16.215 -0.2726  0.3488 -0.3861
 3510SOL    HW121992   0.463   0.461  16.153  0.9900 -0.9600  0.8007
 3510SOL    HW221993   0.541   0.567  16.151 -0.4789  0.4510 -0.5294
 3511SOL     OW21994   4.172   2.426   0.851  0.1133  0.0857 -0.0815
 3511SOL    HW121995   4.090   2.417   0.899  0.9707  3.1227  1.9152
 3511SOL    HW221996   4.229   2.446   0.925 -0.6099 -0.7297  0.6853
 3512SOL     OW21997   0.211   0.196   4.561 -0.0451  0.4560  0.3968
 3512SOL    HW121998   0.160   0.244   4.497  0.3733  0.3421 -0.0185
 3512SOL    HW221999   0.146   0.185   4.630 -0.8887 -1.6637 -0.7323
 3513SOL     OW22000   3.625   4.608  14.083  0.1247  0.1505 -0.0511
 3513SOL    HW122001   3.717   4.583  14.076 -0.2164 -0.1900 -3.5156
 3513SOL    HW222002   3.588   4.558  14.010  2.8588 -1.0131 -0.6708
 3514SOL     OW22003   1.695   3.443  13.122  0.1460 -0.2070 -0.0955
 3514SOL    HW122004   1.752   3.493  13.179  1.4098 -0.5639 -1.0578
 3514SOL    HW222005   1.743   3.360  13.117  0.8825  0.2125  0.0947
 3515SOL     OW22006   1.551   2.985   3.623 -0.3652  0.2047 -0.0116
 3515SOL    HW122007   1.562   3.051   3.692  1.1020  0.3066 -0.3304
 3515SOL    HW222008   1.620   3.010   3.561 -0.7077  0.4180 -0.3099
 3516SOL     OW22009   3.911   3.046   7.765  0.3334 -0.5594  0.1766
 3516SOL    HW122010   3.897   3.133   7.728 -2.9193 -0.6518  1.2253
 3516SOL    HW222011   3.892   2.988   7.691  0.8361  1.2940 -1.4155
 3517SOL     OW22012   0.863   2.021  10.003 -0.3577  0.4522 -0.1638
 3517SOL    HW122013   0.910   2.077   9.941 -1.2994 -0.6088 -1.8402
 3517SOL    HW222014   0.924   1.951  10.026 -0.1300  1.2580  1.7140
 3518SOL     OW22015   2.136   3.613   6.111  0.8954 -0.0945 -0.0813
 3518SOL    HW122016   2.121   3.534   6.163 -0.9622 -0.2296 -0.8034
 3518SOL    HW222017   2.152   3.581   6.023  0.2471 -0.6546  0.0057
 3519SOL     OW22018   1.459   1.862   2.425  0.2940 -0.8825  0.4760
 3519SOL    HW122019   1.479   1.955   2.418 -0.2291 -0.6700  2.0714
 3519SOL    HW222020   1.477   1.844   2.517 -0.3589 -2.7531  0.2398
 3520SOL     OW22021   2.329   4.234  16.965  0.1438 -0.2838  0.5912
 3520SOL    HW122022   2.421   4.226  16.943 -0.1720 -1.9965 -0.1173
 3520SOL    HW222023   2.300   4.291  16.894 -0.2834  0.2469  1.1839
 3521SOL     OW22024   2.552   2.531   6.322 -0.0447 -0.1841  0.0464
 3521SOL    HW122025   2.561   2.441   6.354  2.3179 -1.3217 -3.8326
 3521SOL    HW222026   2.638   2.543   6.283 -0.3242  1.1551 -0.1553
 3522SOL     OW22027   3.754   3.221   3.449  0.4718 -0.1044  0.3059
 3522SOL    HW122028   3.749   3.236   3.543  0.9127 -0.5279  0.3928
 3522SOL    HW222029   3.830   3.163   3.440 -0.1186 -0.8002 -0.1738
 3523SOL     OW22030   3.363   1.676   2.454 -0.0840 -0.2490 -0.6577
 3523SOL    HW122031   3.299   1.727   2.404  0.6363 -0.1582 -1.4810
 3523SOL    HW222032   3.427   1.747   2.463 -1.9145  1.1695  1.1563
 3524SOL     OW22033   0.966   2.880   0.743  0.0117 -0.5349  0.8012
 3524SOL    HW122034   0.925   2.923   0.668  1.0033  1.9119  1.6634
 3524SOL    HW222035   0.916   2.798   0.743 -0.1672 -0.4327 -1.9550
 3525SOL     OW22036   1.380   2.230  11.726 -0.3570  0.2019 -0.1017
 3525SOL    HW122037   1.289   2.204  11.712 -0.2657  0.8506 -1.9987
 3525SOL    HW222038   1.397   2.287  11.651  1.2430  0.9933  0.8574
 3526SOL     OW22039   2.731   2.941  13.443 -0.2243  0.2923 -0.6088
 3526SOL    HW122040   2.765   3.030  13.448  1.8404 -0.4603 -1.1950
 3526SOL    HW222041   2.645   2.953  13.402 -0.8454 -1.1649  0.2501
 3527SOL     OW22042   2.994   4.155   2.591 -0.4436 -0.0280 -0.2448
 3527SOL    HW122043   2.929   4.130   2.525 -2.1501 -0.7091  1.6907
 3527SOL    HW222044   2.950   4.215   2.650 -1.4214 -1.6223  0.6657
 3528SOL     OW22045   3.105   4.635   6.151  0.0375  0.5363  0.2626
 3528SOL    HW122046   3.190   4.598   6.130  0.3262  1.2519  0.1709
 3528SOL    HW222047   3.047   4.560   6.163 -0.3651  0.4273 -2.3301
 3529SOL     OW22048   1.140   3.083   6.122 -0.4833  0.2033  0.0032
 3529SOL    HW122049   1.165   3.036   6.202 -2.5274  0.5921  0.8737
 3529SOL    HW222050   1.133   3.176   6.145  0.0009 -0.4459  2.7644
 3530SOL     OW22051   2.346   1.723   4.595  0.2145  1.1128  0.1085
 3530SOL    HW122052   2.365   1.808   4.634 -1.0460  2.1681 -1.5752
 3530SOL    HW222053   2.426   1.700   4.547 -0.5476  0.5822 -0.9080
 3531SOL     OW22054   0.185   3.743   8.547  0.3125 -0.6086 -0.7606
 3531SOL    HW122055   0.272   3.705   8.539  1.8886  3.0999 -0.8454
 3531SOL    HW222056   0.191   3.779   8.635 -0.3236 -0.9222 -0.5881
 3532SOL     OW22057   3.930   3.827   8.239  0.4582  0.5264 -0.1924
 3532SOL    HW122058   4.002   3.824   8.302 -0.8347 -0.4026  1.2613
 3532SOL    HW222059   3.855   3.799   8.292 -0.3308 -2.3916 -2.8502
 3533SOL     OW22060   0.053   1.983   4.258  0.2135 -0.9962 -0.2224
 3533SOL    HW122061   0.123   2.030   4.302 -1.4575  1.8237 -0.5664
 3533SOL    HW222062   0.115   1.932   4.206 -0.3166 -0.3998 -1.4382
 3534SOL     OW22063   0.214   3.212   6.598 -0.2265  0.0819  0.1572
 3534SOL    HW122064   0.255   3.198   6.512 -0.7660 -0.7006  0.0267
 3534SOL    HW222065   0.252   3.145   6.655 -0.0346 -1.5712 -1.9274
 3535SOL     OW22066   2.480   2.038   5.423  0.3899  0.1716  0.4087
 3535SOL    HW122067   2.484   1.986   5.343  0.0484  1.2193 -0.2983
 3535SOL    HW222068   2.565   2.082   5.421  0.1091  0.7358  0.9266
 3536SOL     OW22069   3.903   0.337   3.261 -0.0042  0.2623 -0.9690
 3536SOL    HW122070   3.841   0.264   3.257 -1.4428  1.3794  0.6017
 3536SOL    HW222071   3.903   0.356   3.355  1.7313 -0.1540 -0.8906
 3537SOL     OW22072   2.649   2.918   3.184 -0.0414 -0.4069  0.1914
 3537SOL    HW122073   2.567   2.894   3.139 -1.1949  1.1001  1.5150
 3537SOL    HW222074   2.620   2.998   3.228  0.1353  0.4445 -1.2376
 3538SOL     OW22075   1.241   0.277   6.242  0.2779  0.1372 -0.0693
 3538SOL    HW122076   1.159   0.247   6.281 -0.1799  0.5202 -0.7307
 3538SOL    HW222077   1.284   0.192   6.234 -0.3819 -0.0442 -1.7486
 3539SOL     OW22078   2.986   3.528   0.029  0.0254  0.1009  0.2755
 3539SOL    HW122079   3.068   3.577   0.019 -0.0520 -0.2447 -2.1073
 3539SOL    HW222080   2.919   3.590  17.667 -1.5567 -0.6319  2.2269
 3540SOL     OW22081   4.076   0.130  11.657 -0.4116 -0.5519  0.4598
 3540SOL    HW122082   4.151   0.072  11.669 -0.2499 -0.0677  1.8471
 3540SOL    HW222083   4.035   0.094  11.579 -0.7163 -2.1972  1.3747
 3541SOL     OW22084   0.606   3.353  17.464 -0.2259  0.0772 -0.3128
 3541SOL    HW122085   0.532   3.319  17.513  0.0013  0.4933  0.3113
 3541SOL    HW222086   0.653   3.270  17.459  0.4468  0.5996 -3.3810
 3542SOL     OW22087   1.091   3.046  12.356  0.2582 -0.7239  0.2165
 3542SOL    HW122088   1.118   3.102  12.429 -0.3351 -0.4162  0.2037
 3542SOL    HW222089   1.131   2.971  12.400 -0.2254 -1.8327 -1.2487
 3543SOL     OW22090   0.867   3.010  11.149 -0.5529  0.0227 -0.4866
 3543SOL    HW122091   0.839   2.947  11.216  0.4964 -0.3067 -0.3486
 3543SOL    HW222092   0.848   2.971  11.064  0.4234 -1.2211 -0.1461
 3544SOL     OW22093   3.743   3.728   4.860 -0.0436  0.3813 -0.2440
 3544SOL    HW122094   3.773   3.639   4.878 -1.4206 -0.0595 -0.1167
 3544SOL    HW222095   3.773   3.784   4.932 -0.4034 -0.2882  0.4229
 3545SOL     OW22096   0.058   2.257   7.245  0.6196  0.9293 -0.0356
 3545SOL    HW122097   0.021   2.176   7.279  1.6171  1.1437  1.5591
 3545SOL    HW222098   0.103   2.296   7.320 -1.6002 -1.6903  2.6490
 3546SOL     OW22099   0.556   3.568  11.577 -0.0219  0.6821  0.0430
 3546SOL    HW122100   0.638   3.571  11.626  1.1812  1.9060 -2.0312
 3546SOL    HW222101   0.538   3.661  11.564 -0.4584  0.3044 -2.1012
 3547SOL     OW22102   4.351   3.765   7.113  0.4235  0.2382 -0.5591
 3547SOL    HW122103   4.435   3.751   7.157  0.0787 -2.7929 -0.8954
 3547SOL    HW222104   4.289   3.743   7.183  1.1713  1.5414  0.5241
 3548SOL     OW22105   0.035   4.569   9.726 -0.6140 -1.1256 -0.2542
 3548SOL    HW122106   0.008   4.641   9.783 -1.3814 -1.4896 -0.1591
 3548SOL    HW222107   4.668   4.532   9.700 -0.8404 -0.6327 -0.2293
 3549SOL     OW22108   1.279   4.242   7.287 -0.4114  0.1198 -0.1295
 3549SOL    HW122109   1.265   4.337   7.290 -1.5598  0.0023 -1.7800
 3549SOL    HW222110   1.189   4.208   7.286 -0.0511 -0.8479  0.3223
 3550SOL     OW22111   3.715   3.923  14.533 -0.4970  0.4578 -0.8071
 3550SOL    HW122112   3.645   3.977  14.497 -1.8702 -1.7740 -1.5043
 3550SOL    HW222113   3.775   3.912  14.460 -1.7179 -0.0758 -1.7334
 3551SOL     OW22114   4.696   1.230   3.721  0.7753  0.2973  0.1467
 3551SOL    HW122115   4.642   1.164   3.765  1.1636  0.2605  0.5700
 3551SOL    HW222116   4.624   1.290   3.701  1.3232  0.7136 -0.5368
 3552SOL     OW22117   1.634   1.516   8.212 -0.4302 -0.3290  0.0098
 3552SOL    HW122118   1.550   1.559   8.226 -0.0057  0.0016  1.5069
 3552SOL    HW222119   1.702   1.582   8.226  0.0775 -0.4780 -1.7291
 3553SOL     OW22120   3.590   2.379   1.399 -0.7084 -0.0598 -0.1064
 3553SOL    HW122121   3.558   2.398   1.487  1.2278  0.9299  0.3777
 3553SOL    HW222122   3.517   2.329   1.363  0.0913 -0.7713 -0.7416
 3554SOL     OW22123   4.131   1.852   5.696 -0.3377  0.6313  0.2654
 3554SOL    HW122124   4.128   1.760   5.721 -0.8553  1.4623  3.2719
 3554SOL    HW222125   4.140   1.891   5.783  4.4224 -0.5459  0.2905
 3555SOL     OW22126   3.109   0.177   8.266  0.3634  0.2208 -0.2110
 3555SOL    HW122127   3.199   0.148   8.281 -0.0191 -1.9077 -2.0292
 3555SOL    HW222128   3.053   0.103   8.290  2.3822 -1.1180  0.3166
 3556SOL     OW22129   0.906   2.367   3.205 -0.3765  0.9356 -0.3433
 3556SOL    HW122130   0.931   2.453   3.240 -3.0633  1.2166  0.8879
 3556SOL    HW222131   0.906   2.388   3.112 -0.0682  0.9995 -0.3298
 3557SOL     OW22132   0.073   0.201  11.396  0.9258  0.2384 -1.1742
 3557SOL    HW122133   0.095   0.118  11.438 -0.7734  2.2458  3.6336
 3557SOL    HW222134   0.079   0.185  11.301  0.5160  1.5667 -1.4128
 3558SOL     OW22135   4.302   4.406   0.218 -0.9848 -0.3277 -0.2564
 3558SOL    HW122136   4.375   4.464   0.237 -0.1192 -1.4526 -0.1657
 3558SOL    HW222137   4.332   4.326   0.263  0.9260 -0.4390 -1.7509
 3559SOL     OW22138   3.929   4.122  13.202  0.4279 -0.1636  0.6274
 3559SOL    HW122139   4.004   4.181  13.212  0.6225 -0.5663  1.4981
 3559SOL    HW222140   3.844   4.165  13.214  0.4754 -0.0767  0.6541
 3560SOL     OW22141   2.397   0.497   5.095  0.5636 -0.0025 -0.2065
 3560SOL    HW122142   2.302   0.495   5.084  0.5225 -0.5420  0.2484
 3560SOL    HW222143   2.411   0.555   5.170  0.7421 -0.7986  0.3744
 3561SOL     OW22144   3.443   0.405   3.596  0.2552  0.0589 -0.5823
 3561SOL    HW122145   3.384   0.458   3.649 -1.5171 -0.3124 -2.1859
 3561SOL    HW222146   3.525   0.410   3.646 -0.2491 -1.3211  0.3779
 3562SOL     OW22147   4.491   0.017  10.893 -0.0220  0.2851  0.1543
 3562SOL    HW122148   4.500   4.654  10.840 -2.4155  0.7058 -0.8625
 3562SOL    HW222149   4.572   0.062  10.869  0.4387 -1.4741 -1.5915
 3563SOL     OW22150   3.388   3.507   6.516 -0.0604  0.2700 -0.0905
 3563SOL    HW122151   3.360   3.592   6.481  0.8497 -0.0477 -1.5689
 3563SOL    HW222152   3.460   3.533   6.573 -0.3878  0.6402  0.1557
 3564SOL     OW22153   4.341   3.075   8.264 -0.1724 -0.2540 -0.4146
 3564SOL    HW122154   4.289   2.998   8.243 -0.5581 -0.5467  1.6535
 3564SOL    HW222155   4.282   3.111   8.330 -0.4158 -2.6259  0.6398
 3565SOL     OW22156   4.426   4.398   4.605 -0.1303  0.3349  0.4079
 3565SOL    HW122157   4.434   4.312   4.563  0.5121  0.5804  0.0272
 3565SOL    HW222158   4.495   4.452   4.569  1.0527 -1.5087 -0.1062
 3566SOL     OW22159   3.063   3.786  11.275  0.1897 -0.6248 -0.3485
 3566SOL    HW122160   2.967   3.788  11.272  0.1610  0.7667  1.1705
 3566SOL    HW222161   3.092   3.829  11.195  0.9829 -0.0795  0.2374
 3567SOL     OW22162   2.295   0.025   0.821  0.1174 -0.2644  0.2343
 3567SOL    HW122163   2.262   0.063   0.903 -0.3610  2.8396 -1.3957
 3567SOL    HW222164   2.232   4.673   0.799  2.2139 -1.9987 -0.3798
 3568SOL     OW22165   0.042   1.911  11.798 -0.4830  1.1086 -0.1950
 3568SOL    HW122166   4.680   1.887  11.847 -1.9058  1.8094 -2.1229
 3568SOL    HW222167   0.105   1.883  11.864  0.2517  0.7943 -1.0260
 3569SOL     OW22168   2.363   1.162   9.178  1.1099 -0.2694  0.0950
 3569SOL    HW122169   2.423   1.088   9.176  0.8985 -0.4446  0.3979
 3569SOL    HW222170   2.324   1.160   9.090 -1.0344 -2.6030  1.1261
 3570SOL     OW22171   1.931   0.423   4.844 -0.3709  0.0724 -0.1930
 3570SOL    HW122172   1.983   0.396   4.769  1.5407 -0.9457  1.5169
 3570SOL    HW222173   1.873   0.347   4.852 -0.1816 -0.0002  0.4964
 3571SOL     OW22174   2.615   2.057   3.560  0.1536  0.0437  0.1660
 3571SOL    HW122175   2.526   2.090   3.571  0.1612 -0.0615  0.5299
 3571SOL    HW222176   2.603   1.964   3.540  0.3819 -0.2550  1.4716
 3572SOL     OW22177   2.631   3.220  12.044 -0.4687 -0.4760 -0.1712
 3572SOL    HW122178   2.557   3.216  12.105 -1.2818  1.8944 -1.0211
 3572SOL    HW222179   2.705   3.244  12.098 -0.6254  0.0273 -0.1776
 3573SOL     OW22180   0.863   4.141   5.228  0.6957  0.3432  0.2981
 3573SOL    HW122181   0.947   4.123   5.269  1.5712 -0.3714 -1.7764
 3573SOL    HW222182   0.816   4.058   5.235  1.9260 -0.4126 -0.4758
 3574SOL     OW22183   0.990   4.207   7.278 -0.1584  0.5750  0.1265
 3574SOL    HW122184   0.941   4.125   7.266 -0.9833  1.1184 -0.2143
 3574SOL    HW222185   0.918   4.269   7.290  0.8620  2.1081 -1.7169
 3575SOL     OW22186   4.543   2.441   7.538 -0.0267  0.5988  0.1328
 3575SOL    HW122187   4.543   2.518   7.595 -0.8064 -0.1960  1.2046
 3575SOL    HW222188   4.630   2.401   7.541  0.1505  0.9957  0.3088
 3576SOL     OW22189   3.010   3.797   7.530  0.3000  0.7154 -0.0657
 3576SOL    HW122190   3.062   3.835   7.459  0.5440  1.2771  0.4172
 3576SOL    HW222191   3.026   3.703   7.522 -2.3102  0.2651  0.0804
 3577SOL     OW22192   2.376   0.062   2.789 -0.0969 -0.1722 -0.7982
 3577SOL    HW122193   2.298   0.044   2.842 -0.8713 -0.6237 -2.0823
 3577SOL    HW222194   2.331   0.091   2.709 -1.9131  1.1159  0.6908
 3578SOL     OW22195   4.560   3.441   1.811  0.4273 -0.2297  0.4721
 3578SOL    HW122196   4.571   3.502   1.884  1.2114  1.0507 -0.7267
 3578SOL    HW222197   4.615   3.480   1.744  0.3698 -0.2941  0.3869
 3579SOL     OW22198   3.578   1.118   9.062 -0.0196  0.1743  0.2165
 3579SOL    HW122199   3.555   1.210   9.077 -1.4406 -0.2350  0.5628
 3579SOL    HW222200   3.636   1.103   9.136 -1.3075 -0.1619  1.1702
 3580SOL     OW22201   3.474   3.720   5.785  0.1876  0.3031 -0.1990
 3580SOL    HW122202   3.437   3.633   5.797 -0.2342  0.5604  0.3783
 3580SOL    HW222203   3.559   3.705   5.825  0.4504  2.9327  0.2121
 3581SOL     OW22204   0.710   1.415   2.576 -0.3681  0.0423 -0.0183
 3581SOL    HW122205   0.794   1.400   2.532 -1.6479 -1.4851 -1.9699
 3581SOL    HW222206   0.662   1.365   2.510  1.3384  0.8044 -1.8721
 3582SOL     OW22207   3.796   0.399   7.493  0.0890  0.5394 -0.2718
 3582SOL    HW122208   3.759   0.487   7.489  0.9202  0.9037  0.0994
 3582SOL    HW222209   3.782   0.376   7.401 -0.2813 -0.9184  0.1388
 3583SOL     OW22210   3.443   3.288   2.994 -0.2821 -0.3077 -0.2861
 3583SOL    HW122211   3.532   3.320   3.012 -0.8453  0.7012  0.7263
 3583SOL    HW222212   3.459   3.204   2.950 -0.2396 -0.6602  0.3996
 3584SOL     OW22213   0.573   2.958   1.059 -0.5304  0.0797 -0.1600
 3584SOL    HW122214   0.530   3.023   1.002 -1.5672 -0.8684 -0.4445
 3584SOL    HW222215   0.539   2.977   1.146  0.7430  1.1149  0.1188
 3585SOL     OW22216   1.949   1.957   6.302  0.3485  0.2187 -0.1297
 3585SOL    HW122217   2.041   1.957   6.327  0.7074 -0.3810 -1.4647
 3585SOL    HW222218   1.929   1.866   6.278  2.3783 -0.4254  0.6012
 3586SOL     OW22219   1.608   1.111  14.235  0.4454  0.2265 -0.2804
 3586SOL    HW122220   1.681   1.071  14.188 -0.3435 -1.6075  0.0555
 3586SOL    HW222221   1.641   1.189  14.280 -0.5061  1.4119 -1.6468
 3587SOL     OW22222   0.434   1.076   4.106 -0.0800  0.0269  0.1220
 3587SOL    HW122223   0.421   1.171   4.101  0.6633  0.2514  2.2706
 3587SOL    HW222224   0.467   1.082   4.196  0.6378 -1.1508 -0.0690
 3588SOL     OW22225   2.783   0.225  15.691  0.0845  0.1592  0.8301
 3588SOL    HW122226   2.741   0.281  15.626  0.2657  0.6286  1.1263
 3588SOL    HW222227   2.875   0.223  15.664 -0.6124 -3.2857 -1.3626
 3589SOL     OW22228   3.836   1.403   4.793 -0.2400 -0.2355  0.5428
 3589SOL    HW122229   3.795   1.486   4.818  0.0554  0.2641 -0.6432
 3589SOL    HW222230   3.920   1.409   4.838 -0.0896 -0.3630  0.2800
 3590SOL     OW22231   2.773   1.957  13.945  0.3111 -0.5397  0.6483
 3590SOL    HW122232   2.797   1.909  14.025  0.3160 -1.4939  0.0771
 3590SOL    HW222233   2.678   1.952  13.954  0.4360 -1.5184  1.5436
 3591SOL     OW22234   2.847   3.287   6.793  0.2893  0.2908 -0.1152
 3591SOL    HW122235   2.875   3.211   6.742 -2.5410 -0.9914  0.2106
 3591SOL    HW222236   2.762   3.303   6.752  1.0020 -1.5703 -2.2763
 3592SOL     OW22237   2.519   0.475   4.635  0.2173  0.5733 -0.8426
 3592SOL    HW122238   2.599   0.523   4.611  0.5593  0.5122  0.1907
 3592SOL    HW222239   2.547   0.424   4.711 -0.1901 -1.4654 -2.0314
 3593SOL     OW22240   2.031   0.685   6.378  0.3035  0.1454 -0.9220
 3593SOL    HW122241   2.032   0.630   6.457 -1.5804  0.0528 -0.9631
 3593SOL    HW222242   2.030   0.769   6.422  0.6537  0.2617 -1.1360
 3594SOL     OW22243   1.854   2.997   5.663 -0.5419 -0.4799  0.3789
 3594SOL    HW122244   1.801   3.014   5.585  0.0959 -0.9965 -0.1688
 3594SOL    HW222245   1.873   3.082   5.702 -2.2935 -0.4497  1.1517
 3595SOL     OW22246   2.331   0.994   7.620 -0.0038 -0.0783  0.4347
 3595SOL    HW122247   2.257   0.934   7.628 -0.1867 -0.3491 -3.4014
 3595SOL    HW222248   2.329   1.019   7.528  1.9079  1.1330  0.7312
 3596SOL     OW22249   2.895   0.502   9.539 -0.6059  0.3441 -0.8723
 3596SOL    HW122250   2.881   0.458   9.456 -1.0897 -1.5151  0.2102
 3596SOL    HW222251   2.907   0.431   9.602  0.3371  1.0928 -0.2118
 3597SOL     OW22252   0.673   2.813   8.115 -0.2657 -0.3682 -0.0297
 3597SOL    HW122253   0.726   2.734   8.106 -0.9727 -0.6782 -1.3890
 3597SOL    HW222254   0.585   2.776   8.105 -0.6783  1.5545 -3.4112
 3598SOL     OW22255   4.231   1.126   9.300  0.4077 -0.0517  0.1903
 3598SOL    HW122256   4.207   1.098   9.212  0.0720  1.4122 -0.1878
 3598SOL    HW222257   4.324   1.107   9.297  0.3771 -0.1806  0.0572
 3599SOL     OW22258   3.141   1.372   8.263 -0.7553 -0.6429  0.6017
 3599SOL    HW122259   3.087   1.426   8.321  0.2503  2.3980 -1.3167
 3599SOL    HW222260   3.103   1.285   8.279 -0.0699 -0.7289  1.7553
 3600SOL     OW22261   4.358   1.514  10.877 -0.0412 -0.2269  0.0264
 3600SOL    HW122262   4.321   1.593  10.837 -1.1462 -0.1137  1.2400
 3600SOL    HW222263   4.279   1.460  10.889 -1.3371  1.3824 -1.1959
 3601SOL     OW22264   2.615   2.008   1.745  0.4176  0.3588 -0.8077
 3601SOL    HW122265   2.525   2.036   1.761  0.1443 -0.3110 -1.1968
 3601SOL    HW222266   2.626   1.996   1.651  1.0430  0.7861 -0.7922
 3602SOL     OW22267   1.340   0.302   8.708  1.0922  0.6128  0.1526
 3602SOL    HW122268   1.264   0.360   8.703  0.1121 -0.8003 -1.4826
 3602SOL    HW222269   1.293   0.218   8.715  0.2928  0.9653 -1.1185
 3603SOL     OW22270   2.297   2.047  16.016 -0.6758 -0.1200  0.2756
 3603SOL    HW122271   2.317   2.139  16.034 -0.1879 -0.3465  0.9075
 3603SOL    HW222272   2.202   2.043  16.022 -0.5612  0.3059  2.4254
 3604SOL     OW22273   0.029   2.296   4.936 -0.4137 -0.3288 -0.2429
 3604SOL    HW122274   4.661   2.252   4.935 -0.0425 -1.0219 -0.9969
 3604SOL    HW222275   0.061   2.255   5.016  0.1967  1.0465  0.2304
 3605SOL     OW22276   3.709   2.535  13.557 -0.2267  0.2731  0.5631
 3605SOL    HW122277   3.627   2.562  13.598 -1.2770 -0.9183 -0.7646
 3605SOL    HW222278   3.676   2.516  13.470  5.2196 -0.6311 -1.3212
 3606SOL     OW22279   3.732   3.879  10.238 -0.4212  0.4988  0.2012
 3606SOL    HW122280   3.763   3.906  10.152  1.3671 -2.1544  0.0219
 3606SOL    HW222281   3.682   3.798  10.232 -0.5229  0.5029  0.9684
 3607SOL     OW22282   3.899   2.248   9.442 -0.2631 -0.1488  0.0346
 3607SOL    HW122283   3.944   2.225   9.523 -1.0299  2.2786  1.1692
 3607SOL    HW222284   3.964   2.306   9.402 -0.0110 -0.1441  0.4484
 3608SOL     OW22285   1.392   1.755   3.377  0.2965 -0.2265  0.3379
 3608SOL    HW122286   1.413   1.848   3.365  0.2336 -0.5013 -1.9721
 3608SOL    HW222287   1.453   1.707   3.321  1.0770 -1.3910  2.1816
 3609SOL     OW22288   0.866   0.007   8.949  0.4087  0.2151 -0.0935
 3609SOL    HW122289   0.950   4.707   8.991  0.7659  2.2987  0.0189
 3609SOL    HW222290   0.889   4.703   8.858  1.5294 -0.6729  0.3958
 3610SOL     OW22291   1.338   3.325   8.604  0.3960 -0.5871  0.4766
 3610SOL    HW122292   1.345   3.420   8.618  2.1418 -0.5467 -0.6507
 3610SOL    HW222293   1.418   3.311   8.554  0.2298 -0.5913  0.2111
 3611SOL     OW22294   3.021   2.947   8.942 -0.3834  0.0905 -0.0334
 3611SOL    HW122295   2.972   3.017   8.985  0.9256 -0.3145  2.1409
 3611SOL    HW222296   2.963   2.877   8.971  1.0764  0.2305  3.2054
 3612SOL     OW22297   0.997   3.921   7.376 -0.2646 -0.6115  0.2281
 3612SOL    HW122298   1.048   3.997   7.400  1.0996 -1.2679 -0.5509
 3612SOL    HW222299   1.062   3.864   7.334 -0.4608 -1.2226  0.7440
 3613SOL     OW22300   3.928   1.560   2.603  0.2935  0.0023  0.1323
 3613SOL    HW122301   3.956   1.479   2.561 -2.6893 -0.9607 -0.0147
 3613SOL    HW222302   3.967   1.628   2.548 -0.8429  0.5701  0.0353
 3614SOL     OW22303   0.271   3.804   3.983 -0.5236  0.1151 -0.2275
 3614SOL    HW122304   0.347   3.855   4.010  0.3599 -1.3277  0.0084
 3614SOL    HW222305   0.276   3.810   3.888  0.4858 -0.7701 -0.2284
 3615SOL     OW22306   2.086   3.305   7.651  0.0464 -0.6858  0.3883
 3615SOL    HW122307   2.123   3.316   7.738  0.3293 -1.7517  0.3937
 3615SOL    HW222308   2.146   3.239   7.616 -0.5134 -1.3229  0.6287
 3616SOL     OW22309   2.439   3.898   0.880 -0.3615 -0.3249  0.0511
 3616SOL    HW122310   2.469   3.970   0.934 -1.2662  0.6025 -0.6811
 3616SOL    HW222311   2.353   3.881   0.919 -0.0643 -1.2497  0.3140
 3617SOL     OW22312   4.695   4.687   8.633  0.3884  0.5429 -0.4972
 3617SOL    HW122313   4.684   0.063   8.612 -1.4890 -0.1040 -2.3945
 3617SOL    HW222314   0.074   4.674   8.628  0.3495 -0.3221  1.2222
 3618SOL     OW22315   3.765   1.654   4.285 -0.3144 -0.3076 -0.3768
 3618SOL    HW122316   3.710   1.644   4.362  0.2688  2.3994  0.3811
 3618SOL    HW222317   3.815   1.732   4.308  1.0112 -0.7975 -1.5671
 3619SOL     OW22318   4.492   0.313   6.059 -0.0046 -0.2699 -0.0127
 3619SOL    HW122319   4.416   0.310   6.117 -1.6547 -1.4910 -2.2015
 3619SOL    HW222320   4.563   0.294   6.119  0.7155  0.8585 -0.5114
 3620SOL     OW22321   1.494   3.744   0.982 -0.1025 -0.1196  0.7023
 3620SOL    HW122322   1.408   3.724   1.018 -0.3559 -0.3598 -0.0434
 3620SOL    HW222323   1.484   3.731   0.888 -1.8369  0.4162  0.8240
 3621SOL     OW22324   4.426   1.369  14.786 -0.0422  0.2859 -0.4013
 3621SOL    HW122325   4.432   1.400  14.877 -0.2252 -1.0443  0.0683
 3621SOL    HW222326   4.331   1.380  14.781 -0.1884 -1.4437 -1.5783
 3622SOL     OW22327   0.384   2.869   0.490  0.3572  0.3776 -0.2596
 3622SOL    HW122328   0.427   2.932   0.548 -0.1060 -1.0770  1.6664
 3622SOL    HW222329   0.369   2.927   0.415 -1.4341  0.4346  0.1455
 3623SOL     OW22330   1.984   4.380   4.275 -0.9247 -0.1352  0.5770
 3623SOL    HW122331   1.908   4.332   4.310  0.2557 -1.9185  0.6988
 3623SOL    HW222332   2.009   4.331   4.197  0.5646  0.6755  0.5485
 3624SOL     OW22333   2.697   3.562   6.598  0.2969  0.2539  0.0704
 3624SOL    HW122334   2.760   3.606   6.656  1.0883 -1.3978  0.4745
 3624SOL    HW222335   2.619   3.551   6.652 -0.6995  1.8525 -1.0613
 3625SOL     OW22336   4.548   0.519   3.915 -0.7436 -0.2066 -0.1754
 3625SOL    HW122337   4.519   0.601   3.958 -0.5717 -0.4728  0.4505
 3625SOL    HW222338   4.641   0.510   3.935 -0.8281 -0.4145  0.1187
 3626SOL     OW22339   4.691   2.782   0.321  0.0069  0.1634  0.0531
 3626SOL    HW122340   0.016   2.742   0.397 -0.1559 -0.7128 -0.3190
 3626SOL    HW222341   4.599   2.796   0.343  0.2853  2.3550 -0.1892
 3627SOL     OW22342   0.878   2.057  11.243  0.2613  0.2232 -0.3691
 3627SOL    HW122343   0.799   2.009  11.218  0.9205 -0.3115 -1.4152
 3627SOL    HW222344   0.840   2.143  11.225  1.7652  0.7339 -1.0658
 3628SOL     OW22345   4.641   0.916   8.544 -0.2278  0.1330  0.2229
 3628SOL    HW122346   4.666   0.924   8.452 -0.1572  1.2818  0.3435
 3628SOL    HW222347   4.647   0.821   8.550 -0.8789  0.2270  2.3665
 3629SOL     OW22348   2.181   3.861   3.868 -0.7361  0.0275 -0.1935
 3629SOL    HW122349   2.190   3.769   3.893  2.7443 -0.0296 -1.7307
 3629SOL    HW222350   2.086   3.874   3.862 -0.6367  0.8241 -0.0378
 3630SOL     OW22351   2.296   2.300   4.760 -0.2038  0.1336 -0.0002
 3630SOL    HW122352   2.330   2.231   4.703 -0.4235  1.0826 -1.2911
 3630SOL    HW222353   2.379   2.348   4.755  0.3430 -0.7491  0.5857
 3631SOL     OW22354   1.162   3.143   2.792  0.4639 -0.4739  0.4255
 3631SOL    HW122355   1.223   3.168   2.862  1.8398  0.7723 -1.2178
 3631SOL    HW222356   1.107   3.091   2.851 -1.9407  0.7735 -0.7191
 3632SOL     OW22357   3.261   2.589   5.624 -0.2086 -0.3507 -0.0960
 3632SOL    HW122358   3.270   2.527   5.696  0.1395  1.6937  1.6410
 3632SOL    HW222359   3.346   2.571   5.585 -0.1291 -1.2684  0.4962
 3633SOL     OW22360   4.143   4.289  10.661 -0.0729  0.8002 -0.3471
 3633SOL    HW122361   4.223   4.305  10.710 -0.0712 -0.0850 -0.0630
 3633SOL    HW222362   4.155   4.334  10.577  0.6034 -0.4108 -0.9020
 3634SOL     OW22363   4.269   0.834   0.431  0.0818 -0.3966  0.3494
 3634SOL    HW122364   4.346   0.851   0.377  0.0149 -0.0525  0.3616
 3634SOL    HW222365   4.194   0.828   0.373  0.0678 -0.3116  0.3593
 3635SOL     OW22366   1.188   1.815   9.877  0.2407  0.0258 -0.0907
 3635SOL    HW122367   1.267   1.857   9.842  0.7089 -1.0353 -0.3185
 3635SOL    HW222368   1.190   1.732   9.829  0.7694  0.2508 -0.4534
 3636SOL     OW22369   2.800   2.696   8.203  0.5592 -0.6368  0.1855
 3636SOL    HW122370   2.872   2.665   8.259  0.0937 -0.2289  1.0159
 3636SOL    HW222371   2.781   2.628   8.139 -2.0841  0.6209 -0.3828
 3637SOL     OW22372   2.390   4.410  10.011  0.4069  0.0975  0.0040
 3637SOL    HW122373   2.353   4.336   9.962  0.7829 -0.7009  0.9203
 3637SOL    HW222374   2.477   4.380  10.037 -0.2487 -1.6579  0.1545
 3638SOL     OW22375   0.197   4.618   6.666  0.3082 -0.0466 -0.0337
 3638SOL    HW122376   0.264   4.675   6.628  0.3221 -0.5636 -0.7697
 3638SOL    HW222377   0.252   4.549   6.704 -0.2315  0.6559  2.0366
 3639SOL     OW22378   4.043   3.852   6.203 -0.2552 -0.1371 -0.6236
 3639SOL    HW122379   4.127   3.891   6.228 -0.3072  0.3087 -1.1246
 3639SOL    HW222380   4.046   3.887   6.114 -3.1985 -0.4278 -0.8353
 3640SOL     OW22381   4.006   0.707  14.858 -0.3783  0.1389 -0.3083
 3640SOL    HW122382   4.077   0.767  14.884 -0.9086  0.1770  1.0653
 3640SOL    HW222383   3.929   0.757  14.885  0.3919 -0.5114  3.1068
 3641SOL     OW22384   0.810   2.503   5.861  0.3225  0.8447 -0.4705
 3641SOL    HW122385   0.858   2.422   5.849 -0.2216  0.6154 -1.1375
 3641SOL    HW222386   0.827   2.549   5.779  0.0609  1.0247 -0.4255
 3642SOL     OW22387   1.410   4.422   2.027  0.4389 -0.5732 -0.4799
 3642SOL    HW122388   1.343   4.474   2.071 -0.3413 -1.1460 -0.9882
 3642SOL    HW222389   1.442   4.380   2.107  1.6522 -2.0712 -1.7594
 3643SOL     OW22390   1.998   4.332  14.842 -0.0283 -0.6477 -0.2807
 3643SOL    HW122391   1.970   4.309  14.754  4.0995 -0.6580 -1.5576
 3643SOL    HW222392   1.950   4.262  14.887 -1.1439 -2.1357 -3.7974
 3644SOL     OW22393   1.164   3.659   2.977 -0.4938 -0.2591  0.2962
 3644SOL    HW122394   1.174   3.565   2.963  1.0711 -0.2506  1.2513
 3644SOL    HW222395   1.072   3.668   3.000 -0.7815 -1.4104 -0.4451
 3645SOL     OW22396   2.938   3.552   8.730  0.0410  0.0712  0.4283
 3645SOL    HW122397   2.989   3.632   8.716 -1.9835  0.6684 -3.6128
 3645SOL    HW222398   2.962   3.502   8.652  1.7316  1.8491 -0.1889
 3646SOL     OW22399   0.943   4.074   4.000 -0.3168 -0.4552  0.0993
 3646SOL    HW122400   0.985   4.081   4.085  0.4121 -1.8166 -0.1649
 3646SOL    HW222401   1.015   4.062   3.938 -1.7688 -0.1064 -1.6575
 3647SOL     OW22402   0.328   3.343  10.891 -0.1451 -0.0619 -0.1864
 3647SOL    HW122403   0.284   3.277  10.838 -2.7464 -0.4374  2.4752
 3647SOL    HW222404   0.257   3.406  10.900 -3.3265 -3.8467  0.8094
 3648SOL     OW22405   1.979   4.545   5.552 -0.3309 -0.5116  0.1586
 3648SOL    HW122406   1.984   4.606   5.625 -3.0949 -0.7523  0.5334
 3648SOL    HW222407   1.893   4.567   5.518 -0.8373 -3.1114 -0.2687
 3649SOL     OW22408   3.885   0.420  16.934  0.0004  0.1699 -0.2507
 3649SOL    HW122409   3.840   0.476  16.870 -0.8595 -0.9403 -0.6284
 3649SOL    HW222410   3.875   0.333  16.896  0.4621 -0.5450  1.2663
 3650SOL     OW22411   3.738   3.801   3.280  0.2466 -0.3215 -0.0390
 3650SOL    HW122412   3.780   3.859   3.343  1.0832 -1.0071  0.0321
 3650SOL    HW222413   3.779   3.716   3.298 -0.9256 -0.7642  0.5637
 3651SOL     OW22414   0.445   1.750   9.503  0.3627  1.0272 -0.0780
 3651SOL    HW122415   0.433   1.797   9.420  2.0549  0.8779 -0.4133
 3651SOL    HW222416   0.429   1.814   9.572  0.9600  1.7492 -0.6087
 3652SOL     OW22417   1.432   2.584   0.271 -0.4642  0.0944 -0.1927
 3652SOL    HW122418   1.483   2.588   0.352  0.9800 -1.4885 -1.0216
 3652SOL    HW222419   1.480   2.638   0.209  0.5429 -2.0672 -1.3134
 3653SOL     OW22420   1.601   1.148   6.775 -0.2119  0.7060  0.1181
 3653SOL    HW122421   1.581   1.070   6.827 -0.2708  0.4074 -0.3515
 3653SOL    HW222422   1.697   1.140   6.779 -0.0953  2.0998 -0.1323
 3654SOL     OW22423   2.019   0.307  13.548  0.0013  0.1708 -0.0457
 3654SOL    HW122424   1.972   0.376  13.501  1.8196  1.6639  0.3236
 3654SOL    HW222425   1.977   0.224  13.523  0.4185  0.3888 -1.4757
 3655SOL     OW22426   0.003   1.508   3.854 -0.1318  0.0615 -0.6333
 3655SOL    HW122427   0.044   1.482   3.937  0.3891 -1.3652 -1.3488
 3655SOL    HW222428   4.674   1.426   3.837  3.6367 -2.2663  0.6009
 3656SOL     OW22429   3.771   0.735   3.988 -0.6708  0.6684 -0.3077
 3656SOL    HW122430   3.762   0.827   4.012  0.4733  1.3972 -2.7522
 3656SOL    HW222431   3.865   0.719   3.984 -0.5536  1.2043  0.4185
 3657SOL     OW22432   0.932   4.467   2.311  0.3098  0.1487  0.2741
 3657SOL    HW122433   1.024   4.444   2.298  0.4235  0.2438  0.8957
 3657SOL    HW222434   0.911   4.393   2.368 -3.0640  0.6839 -0.3014
 3658SOL     OW22435   4.659   0.997   9.511 -0.0887 -0.6067 -0.3608
 3658SOL    HW122436   4.643   0.951   9.594 -0.1926 -1.3373 -0.7895
 3658SOL    HW222437   0.031   0.960   9.507  1.0407  2.0515  0.1278
 3659SOL     OW22438   1.646   0.207   1.222 -0.5762  0.2927  0.0144
 3659SOL    HW122439   1.655   0.302   1.232 -0.1977  0.0881  1.6103
 3659SOL    HW222440   1.599   0.177   1.299 -0.2440 -0.3465 -0.0279
 3660SOL     OW22441   1.063   0.745  11.122  0.3802  0.3076  0.4745
 3660SOL    HW122442   1.127   0.721  11.189 -0.2235 -0.1106  0.9007
 3660SOL    HW222443   0.997   0.676  11.133 -0.5629  0.8673 -1.5592
 3661SOL     OW22444   0.321   3.360   1.200 -0.0483  0.1891 -0.4644
 3661SOL    HW122445   0.274   3.405   1.129 -1.0718  3.3088  2.1729
 3661SOL    HW222446   0.309   3.267   1.181  0.4528  0.1844 -0.7622
 3662SOL     OW22447   1.847   2.768   2.481 -0.3684 -0.1500 -0.2044
 3662SOL    HW122448   1.869   2.735   2.394 -2.5685  0.5952 -1.0557
 3662SOL    HW222449   1.911   2.839   2.490  0.2731 -0.6514 -0.7890
 3663SOL     OW22450   3.765   4.345   1.681  0.0473 -0.2082  0.4613
 3663SOL    HW122451   3.831   4.402   1.721  0.9601 -0.5751 -0.5084
 3663SOL    HW222452   3.720   4.300   1.752  0.0805  0.6625  1.0355
 3664SOL     OW22453   0.246   3.457   9.851  0.1020  0.3018 -0.2372
 3664SOL    HW122454   0.196   3.454   9.770  0.6264 -0.4752 -0.5384
 3664SOL    HW222455   0.222   3.371   9.886  0.5480  1.4139  2.8110
 3665SOL     OW22456   1.289   3.143   3.038 -0.0742  0.2665  0.4466
 3665SOL    HW122457   1.378   3.172   3.058 -0.4810  1.4661  0.4941
 3665SOL    HW222458   1.264   3.095   3.117  0.8456  4.0892  3.0695
 3666SOL     OW22459   3.028   2.653   7.531  0.8985 -0.0594 -0.5396
 3666SOL    HW122460   2.982   2.680   7.611  1.7505  0.2187 -0.1403
 3666SOL    HW222461   3.117   2.667   7.564  1.6343 -1.7384 -1.8293
 3667SOL     OW22462   2.063   3.681   3.262  0.2949 -0.3047  0.2111
 3667SOL    HW122463   1.989   3.622   3.276  0.3067 -0.4572 -0.3685
 3667SOL    HW222464   2.102   3.665   3.176 -0.1232  3.2654 -0.6831
 3668SOL     OW22465   0.667   3.340   2.200  0.0039  0.3673 -0.1568
 3668SOL    HW122466   0.712   3.346   2.285 -1.8690 -3.5912  1.1065
 3668SOL    HW222467   0.691   3.251   2.173 -0.8807 -0.5534  2.1025
 3669SOL     OW22468   4.258   3.951   7.973  0.1950 -0.1661  0.3180
 3669SOL    HW122469   4.285   3.891   8.042  2.5081 -0.1855 -0.6020
 3669SOL    HW222470   4.169   3.916   7.963  0.4550 -0.1211 -2.1178
 3670SOL     OW22471   3.243   2.050   8.160  0.2360 -0.0254 -0.0848
 3670SOL    HW122472   3.204   1.969   8.194  1.3439 -1.2513 -1.6875
 3670SOL    HW222473   3.271   2.092   8.241 -1.0667 -0.4011  0.5676
 3671SOL     OW22474   3.122   3.316  16.677  0.0446 -0.5167 -0.1067
 3671SOL    HW122475   3.216   3.306  16.691 -0.2801  0.8261  2.9624
 3671SOL    HW222476   3.115   3.401  16.635 -1.1606 -1.1124 -1.0927
 3672SOL     OW22477   2.139   4.421   5.926  0.2404 -0.0902  0.0145
 3672SOL    HW122478   2.230   4.449   5.912 -0.1114  0.7169 -0.6440
 3672SOL    HW222479   2.123   4.355   5.859 -0.1431 -0.1222  0.1400
 3673SOL     OW22480   2.777   0.989   5.324 -0.3705 -0.3226 -0.3726
 3673SOL    HW122481   2.821   0.980   5.409  0.3255  2.5871 -0.4261
 3673SOL    HW222482   2.840   1.041   5.275 -0.3732  1.4567  1.5133
 3674SOL     OW22483   3.702   2.592   7.652  0.0396  0.8089  0.5703
 3674SOL    HW122484   3.704   2.671   7.598  0.8198 -0.3750 -1.1430
 3674SOL    HW222485   3.632   2.536   7.619 -0.5355  1.2437  1.0731
 3675SOL     OW22486   3.362   4.212  11.818  0.0184 -0.1773 -0.5269
 3675SOL    HW122487   3.414   4.291  11.833  0.4016 -0.5490  0.1118
 3675SOL    HW222488   3.285   4.229  11.871  0.6814  0.6430  0.1811
 3676SOL     OW22489   0.414   1.532   2.126  0.0145  0.0467 -0.1781
 3676SOL    HW122490   0.343   1.513   2.187  0.8493 -0.2110  0.7145
 3676SOL    HW222491   0.462   1.605   2.165  0.0255 -0.7858  1.3706
 3677SOL     OW22492   0.055   2.906   0.105 -0.3688  0.2694 -0.4782
 3677SOL    HW122493   0.127   2.849   0.077  0.0534  1.8343 -2.5692
 3677SOL    HW222494   0.018   2.868   0.185  2.3123 -1.7502 -0.2215
 3678SOL     OW22495   2.774   1.313   5.375 -0.8384 -0.2787  0.0439
 3678SOL    HW122496   2.863   1.347   5.369 -1.5015  1.1049 -2.0841
 3678SOL    HW222497   2.726   1.385   5.334  0.6135  0.0424 -1.0876
 3679SOL     OW22498   4.134   2.687  13.912 -1.0297 -0.6717  0.0877
 3679SOL    HW122499   4.086   2.662  13.834 -0.0963 -1.0749 -0.3598
 3679SOL    HW222500   4.081   2.753  13.958  1.4134  1.6302 -0.3869
 3680SOL     OW22501   1.014   3.527   4.143  1.0071 -0.3639 -0.1079
 3680SOL    HW122502   1.088   3.486   4.187  0.6950 -0.7555  0.0533
 3680SOL    HW222503   1.052   3.614   4.133 -2.8244  1.2789 -0.4709
 3681SOL     OW22504   4.617   2.684  14.534 -0.0026  0.2031 -0.5351
 3681SOL    HW122505   4.712   2.678  14.548 -0.0040  0.8600 -0.2544
 3681SOL    HW222506   4.588   2.641  14.614  0.0887 -2.8798 -2.1728
 3682SOL     OW22507   1.531   3.634   5.334  0.8133  0.4385 -0.6385
 3682SOL    HW122508   1.611   3.683   5.319 -0.8837  3.1432 -0.8007
 3682SOL    HW222509   1.549   3.542   5.313 -1.9391 -0.3315  0.3772
 3683SOL     OW22510   3.675   2.679   7.048 -0.1239 -0.1515 -0.4640
 3683SOL    HW122511   3.583   2.665   7.027 -0.7712 -2.7352  3.9810
 3683SOL    HW222512   3.709   2.593   7.025 -1.8524 -0.8947 -0.2521
 3684SOL     OW22513   3.460   0.432   0.117  0.5464  0.6383  0.1864
 3684SOL    HW122514   3.488   0.373   0.186  1.4952 -1.0267 -1.6040
 3684SOL    HW222515   3.544   0.464   0.084  0.9686  0.6288  1.2491
 3685SOL     OW22516   1.278   2.331   3.232  0.0695 -0.0761 -0.1641
 3685SOL    HW122517   1.316   2.375   3.308  0.5506 -0.8463  0.0422
 3685SOL    HW222518   1.247   2.256   3.283  1.5235 -0.5269  0.0607
 3686SOL     OW22519   0.399   1.183   3.119  0.6733  0.6054  0.0121
 3686SOL    HW122520   0.467   1.155   3.181  0.4556  0.9703  0.4119
 3686SOL    HW222521   0.351   1.101   3.109  0.4798  0.6526  0.5348
 3687SOL     OW22522   3.075   1.693   5.950  0.3349  0.3834  0.0929
 3687SOL    HW122523   3.024   1.711   5.871 -0.6426  1.2174  0.9223
 3687SOL    HW222524   3.087   1.780   5.989 -0.2961  0.2234  0.6365
 3688SOL     OW22525   0.747   4.605   6.076 -0.1500 -0.3717 -0.2768
 3688SOL    HW122526   0.808   4.648   6.016 -0.0513 -0.2906 -0.1166
 3688SOL    HW222527   0.710   4.685   6.115  0.6729  0.2127 -0.7011
 3689SOL     OW22528   4.666   2.725   1.728 -0.3469  0.0516  0.5842
 3689SOL    HW122529   4.633   2.662   1.664 -0.6661 -0.0727  0.8723
 3689SOL    HW222530   4.601   2.793   1.707  0.0168 -0.5392 -2.4463
 3690SOL     OW22531   4.512   4.488   9.953 -0.3668  0.1949  0.2823
 3690SOL    HW122532   4.575   4.535  10.009 -2.4838  1.2839  1.7336
 3690SOL    HW222533   4.575   4.474   9.882 -1.3488  0.7350 -0.6895
 3691SOL     OW22534   4.007   2.943  12.915 -0.0422  0.3315 -0.4263
 3691SOL    HW122535   4.023   3.018  12.973 -0.8396 -0.2108  0.5033
 3691SOL    HW222536   3.920   2.917  12.945 -0.2283  2.2274  0.7126
 3692SOL     OW22537   2.870   1.283   2.352 -0.2084 -0.5069  0.1035
 3692SOL    HW122538   2.954   1.306   2.314 -0.1053 -0.4453  0.3634
 3692SOL    HW222539   2.884   1.198   2.393  0.0086  0.3753  1.9073
 3693SOL     OW22540   1.832   2.950   8.497 -0.4253 -0.5649 -0.5817
 3693SOL    HW122541   1.783   2.916   8.573  0.6025 -2.2605 -0.6660
 3693SOL    HW222542   1.861   2.868   8.456  1.6447 -0.8863  1.4807
 3694SOL     OW22543   2.202   0.617   0.245 -0.5575 -0.7902  0.0115
 3694SOL    HW122544   2.246   0.600   0.162 -1.4103 -0.8836 -0.4170
 3694SOL    HW222545   2.249   0.699   0.262 -1.2436 -0.5427  0.7226
 3695SOL     OW22546   0.411   1.384   0.090  0.0765  0.7738  0.5055
 3695SOL    HW122547   0.318   1.406   0.093 -0.2160 -0.2388 -1.2992
 3695SOL    HW222548   0.453   1.464   0.059 -1.6248  0.9202 -1.4506
 3696SOL     OW22549   1.185   0.803   3.995 -0.1244 -0.5019  0.0099
 3696SOL    HW122550   1.175   0.710   3.973 -0.7676 -0.3609 -0.2947
 3696SOL    HW222551   1.257   0.792   4.057  0.0893  0.0643 -0.1395
 3697SOL     OW22552   2.866   1.403   2.812 -0.3057  0.8587 -0.0863
 3697SOL    HW122553   2.867   1.390   2.907 -2.2791  0.1965 -0.1510
 3697SOL    HW222554   2.935   1.468   2.805 -0.4931  1.1035  0.2953
 3698SOL     OW22555   2.384   4.549   8.730  0.1700  0.0149  0.3325
 3698SOL    HW122556   2.333   4.629   8.742  0.2403  0.3390 -1.4693
 3698SOL    HW222557   2.450   4.549   8.799  0.1830  1.6400  0.3294
 3699SOL     OW22558   1.243   1.883   8.864  0.2475 -0.3439  0.2254
 3699SOL    HW122559   1.270   1.793   8.883  2.1366 -0.1922 -1.7611
 3699SOL    HW222560   1.154   1.875   8.898 -0.2263  1.1172 -0.6700
 3700SOL     OW22561   2.335   2.448  14.445  0.3332  0.0821  0.1892
 3700SOL    HW122562   2.373   2.473  14.360  0.0630  1.8082  0.5749
 3700SOL    HW222563   2.305   2.534  14.476  0.1647 -1.0100  3.0411
 3701SOL     OW22564   0.450   3.430  13.356 -0.8252  0.2999  0.3668
 3701SOL    HW122565   0.376   3.447  13.415 -0.2985 -1.3206  1.4971
 3701SOL    HW222566   0.406   3.373  13.293  2.1804 -0.4966 -0.9809
 3702SOL     OW22567   1.431   2.653  13.424  0.4022 -0.4640 -1.0198
 3702SOL    HW122568   1.438   2.741  13.460  1.8048 -0.4793 -1.2352
 3702SOL    HW222569   1.495   2.669  13.354 -2.0578  2.2706 -2.6226
 3703SOL     OW22570   3.829   2.678   3.991  0.1013 -0.0595 -0.0604
 3703SOL    HW122571   3.832   2.607   4.055  1.5987 -1.4860 -1.7290
 3703SOL    HW222572   3.832   2.748   4.056  1.0140  0.7617 -0.9830
 3704SOL     OW22573   2.676   3.129  12.542 -0.1143 -0.3393 -0.3577
 3704SOL    HW122574   2.749   3.117  12.482 -0.3110  0.0432 -0.6718
 3704SOL    HW222575   2.602   3.143  12.482 -1.3639 -0.2803  1.1896
 3705SOL     OW22576   2.123   3.933   3.388  0.3693 -0.1747 -0.7668
 3705SOL    HW122577   2.097   3.883   3.465  2.0817 -0.7025 -0.5202
 3705SOL    HW222578   2.047   3.919   3.332  1.0601 -1.4225 -1.3800
 3706SOL     OW22579   1.393   1.032  12.835  0.0294 -0.5110 -0.1883
 3706SOL    HW122580   1.310   0.986  12.842  1.0220 -1.6841  3.7644
 3706SOL    HW222581   1.361   1.099  12.775  1.7790 -0.3736 -0.9805
 3707SOL     OW22582   4.684   3.447   9.936 -0.5575 -0.7060 -0.0572
 3707SOL    HW122583   4.713   3.391  10.008  2.3041 -0.1985 -0.7986
 3707SOL    HW222584   4.702   3.383   9.866 -0.0660  0.6285 -1.1534
 3708SOL     OW22585   4.108   1.396   1.296 -0.5575 -0.7197 -0.2460
 3708SOL    HW122586   4.032   1.420   1.349 -0.0499  0.1539  0.0905
 3708SOL    HW222587   4.175   1.412   1.363 -1.5410  1.7840  0.1583
 3709SOL     OW22588   4.143   3.344   6.108 -0.1575 -0.2668 -0.2779
 3709SOL    HW122589   4.146   3.416   6.171  1.7612 -0.2666 -0.3581
 3709SOL    HW222590   4.229   3.340   6.066 -1.0162  1.6392 -2.2305
 3710SOL     OW22591   1.642   2.238   0.435 -0.3159 -0.3624 -0.3713
 3710SOL    HW122592   1.563   2.281   0.401  0.0321  0.9441  0.4951
 3710SOL    HW222593   1.639   2.245   0.530 -1.3738 -0.7386 -0.3812
 3711SOL     OW22594   0.754   4.346   2.580 -0.3011 -0.2898 -0.1660
 3711SOL    HW122595   0.814   4.277   2.552  0.9746  0.0423  1.8259
 3711SOL    HW222596   0.751   4.318   2.671  0.1135 -1.6671 -0.5789
 3712SOL     OW22597   1.839   1.764   0.345  0.1033  0.0264  0.2980
 3712SOL    HW122598   1.820   1.849   0.306 -0.4575 -0.0035  0.5068
 3712SOL    HW222599   1.863   1.716   0.265 -0.6523  0.3783 -0.1328
 3713SOL     OW22600   3.792   2.585   7.912 -0.4156  0.3658  0.5041
 3713SOL    HW122601   3.871   2.622   7.873  0.2830  0.0059  1.5771
 3713SOL    HW222602   3.741   2.586   7.831  0.2482  1.4250  0.0916
 3714SOL     OW22603   2.192   3.413   5.017 -0.2011 -0.4056  0.2753
 3714SOL    HW122604   2.221   3.327   5.049  0.7384  0.1270  0.8749
 3714SOL    HW222605   2.183   3.470   5.094 -0.4191  2.3784 -1.8132
 3715SOL     OW22606   1.460   2.629   4.300  0.2382 -0.3501 -0.2308
 3715SOL    HW122607   1.474   2.561   4.234  1.1546 -0.0850 -0.3031
 3715SOL    HW222608   1.547   2.636   4.339  1.0784 -0.8732 -1.9880
 3716SOL     OW22609   4.685   3.931   5.332 -0.4382 -0.2447  0.2197
 3716SOL    HW122610   4.642   4.010   5.364 -0.7255 -0.6323  0.8087
 3716SOL    HW222611   4.653   3.872   5.401  1.2385 -0.8091  0.5282
 3717SOL     OW22612   0.363   3.436   0.355 -0.2618 -0.2578  0.4951
 3717SOL    HW122613   0.406   3.408   0.436 -0.8612  1.0402  1.2694
 3717SOL    HW222614   0.280   3.390   0.366  0.8664 -2.4216 -0.0277
 3718SOL     OW22615   0.298   1.376   5.527  0.0526 -0.0589  0.9420
 3718SOL    HW122616   0.386   1.384   5.491 -0.4713 -1.2825 -0.6111
 3718SOL    HW222617   0.302   1.437   5.601 -0.2801 -1.0393  1.7570
 3719SOL     OW22618   0.765   3.472   8.462 -0.0742 -0.3350  0.4717
 3719SOL    HW122619   0.703   3.496   8.394  0.6137 -0.3334 -0.1511
 3719SOL    HW222620   0.800   3.559   8.483  0.8042 -0.2960 -1.1451
 3720SOL     OW22621   0.909   3.073   0.152  0.1113 -0.3777 -0.0538
 3720SOL    HW122622   0.996   3.103   0.125  1.2026 -0.3071  3.6047
 3720SOL    HW222623   0.870   3.160   0.148 -0.5858 -0.5737  2.5665
 3721SOL     OW22624   0.489   4.290   3.648  0.0132 -0.0415 -0.3709
 3721SOL    HW122625   0.437   4.351   3.699  0.8906  0.4371 -0.0450
 3721SOL    HW222626   0.425   4.280   3.577  0.9538 -0.9732 -1.1028
 3722SOL     OW22627   3.029   0.896   6.713 -0.2579  0.4665 -0.0213
 3722SOL    HW122628   3.057   0.984   6.739 -1.1607 -0.0072  2.5619
 3722SOL    HW222629   2.968   0.914   6.641 -0.6327 -2.7187 -0.5043
 3723SOL     OW22630   1.715   3.445   8.555  0.2872 -0.2633 -0.2890
 3723SOL    HW122631   1.664   3.364   8.565  0.7309 -0.5377 -0.2231
 3723SOL    HW222632   1.795   3.429   8.606  0.4915  0.6107 -0.3432
 3724SOL     OW22633   4.076   1.729   7.725  0.1231 -1.2122  0.0507
 3724SOL    HW122634   4.023   1.796   7.681  3.0362  0.3524 -1.0888
 3724SOL    HW222635   4.165   1.742   7.693 -0.1748 -1.3658 -0.8293
 3725SOL     OW22636   4.443   3.133   4.499  0.4784  0.9343  0.3502
 3725SOL    HW122637   4.457   3.163   4.409 -2.4458 -2.6440 -1.2965
 3725SOL    HW222638   4.492   3.202   4.544 -0.1415  1.3479  0.3929
 3726SOL     OW22639   3.354   3.796   7.005  0.0239 -0.1553  0.0704
 3726SOL    HW122640   3.321   3.877   6.966  0.9695  0.9368  1.5405
 3726SOL    HW222641   3.323   3.733   6.940 -3.0513  0.1797  1.1902
 3727SOL     OW22642   0.001   1.581   5.068 -0.2478 -0.2279 -0.2723
 3727SOL    HW122643   0.049   1.549   5.145  0.1217  1.4662  0.1943
 3727SOL    HW222644   4.716   1.513   5.000 -0.7649 -1.1515  0.6602
 3728SOL     OW22645   0.153   3.311   7.699  0.0192  0.3936  0.0933
 3728SOL    HW122646   0.080   3.286   7.757  2.2971 -2.2550  1.8012
 3728SOL    HW222647   0.228   3.299   7.757 -0.9111  0.2633  1.2832
 3729SOL     OW22648   4.096   2.735   8.731  0.1876  0.5006  0.0566
 3729SOL    HW122649   4.136   2.745   8.644 -1.5279 -4.2579 -1.3054
 3729SOL    HW222650   4.129   2.811   8.779  1.1205  0.5046 -0.5903
 3730SOL     OW22651   0.970   4.645   3.809  0.0807  0.0051  0.2448
 3730SOL    HW122652   1.030   4.632   3.736 -1.8093 -1.9112 -0.9776
 3730SOL    HW222653   0.960   4.554   3.838 -2.7210  0.5569  1.0551
 3731SOL     OW22654   0.895   2.962   7.597  0.0658  0.4692 -0.1711
 3731SOL    HW122655   0.943   2.929   7.673  0.3665  2.0944  0.3571
 3731SOL    HW222656   0.803   2.935   7.605  0.4437 -0.8535 -0.4392
 3732SOL     OW22657   2.325   1.922  14.178  0.5281  0.0389  0.3102
 3732SOL    HW122658   2.341   1.987  14.247 -0.9664  0.3089  0.3982
 3732SOL    HW222659   2.232   1.900  14.181  1.0033 -1.6055  2.5690
 3733SOL     OW22660   4.557   0.750   2.901  0.0482  0.8909 -0.0812
 3733SOL    HW122661   4.527   0.777   2.815 -0.6121  2.0986  0.5205
 3733SOL    HW222662   4.600   0.832   2.927  1.4834  0.2034 -0.2776
 3734SOL     OW22663   2.080   4.594  14.078  0.2296  0.2270 -1.3500
 3734SOL    HW122664   2.095   4.522  14.140 -0.7346 -0.0923 -1.4816
 3734SOL    HW222665   2.114   4.556  13.997 -0.5294 -1.7336 -0.7584
 3735SOL     OW22666   4.330   2.487   5.963 -0.1064  0.7870 -0.5845
 3735SOL    HW122667   4.378   2.449   6.037 -0.4704  0.0298 -0.7314
 3735SOL    HW222668   4.405   2.502   5.906  1.1497  0.2323  0.9064
 3736SOL     OW22669   1.980   1.726   3.102 -0.0995  0.1125 -0.1022
 3736SOL    HW122670   1.989   1.797   3.039  1.2366 -0.0512 -0.1094
 3736SOL    HW222671   2.010   1.665   3.034 -2.9390 -0.6498 -0.6621
 3737SOL     OW22672   2.936   4.464   8.905 -0.2099  0.0731 -0.2355
 3737SOL    HW122673   3.024   4.467   8.865 -0.7931 -0.6686 -1.5658
 3737SOL    HW222674   2.940   4.377   8.945  0.9628 -0.4095 -1.3979
 3738SOL     OW22675   4.548   4.621   2.442 -0.0124  0.3276  0.1279
 3738SOL    HW122676   4.606   4.569   2.497 -1.2329 -0.6249  0.5250
 3738SOL    HW222677   4.601   4.654   2.370  0.2427 -1.7548 -0.6488
 3739SOL     OW22678   0.906   3.992   0.798 -0.4255  1.1122  0.3325
 3739SOL    HW122679   0.825   4.031   0.832 -0.9403 -0.4657  0.9401
 3739SOL    HW222680   0.867   3.944   0.725  0.8972 -2.8090  2.2372
 3740SOL     OW22681   2.226   3.682   8.667  0.5206 -0.7996 -0.2189
 3740SOL    HW122682   2.277   3.698   8.588 -0.0549 -1.7022 -0.7684
 3740SOL    HW222683   2.293   3.629   8.710  0.2093 -0.8139  0.2569
 3741SOL     OW22684   3.091   0.472   5.887  0.2522 -0.0683 -0.3717
 3741SOL    HW122685   3.171   0.419   5.894  0.0453 -0.3729 -0.3217
 3741SOL    HW222686   3.103   0.532   5.961 -2.8705 -0.5980  0.5847
 3742SOL     OW22687   1.668   4.677  14.773  0.4702 -0.0533 -0.2119
 3742SOL    HW122688   1.740   4.644  14.827  1.8629  0.1648 -1.9457
 3742SOL    HW222689   1.604   4.609  14.791  1.0566 -0.8378 -1.1068
 3743SOL     OW22690   3.217   2.446  16.339 -0.3463 -0.3702 -0.0059
 3743SOL    HW122691   3.191   2.531  16.376 -1.2367 -1.1599  1.1986
 3743SOL    HW222692   3.309   2.465  16.321  0.2330 -0.9114  2.3420
 3744SOL     OW22693   0.793   4.028   9.128  0.5828  0.1449  0.0856
 3744SOL    HW122694   0.732   4.094   9.159  0.0190  1.0490 -2.9124
 3744SOL    HW222695   0.747   3.948   9.102  1.7655 -0.1221 -1.1985
 3745SOL     OW22696   3.173   3.696   6.792  0.2478  0.0092 -0.4387
 3745SOL    HW122697   3.254   3.654   6.765 -0.3135 -0.7661 -0.9266
 3745SOL    HW222698   3.189   3.779   6.748  0.2791  1.8865  3.1556
 3746SOL     OW22699   4.577   3.213   0.463 -0.0804 -0.1840 -0.1193
 3746SOL    HW122700   4.593   3.306   0.473 -1.5865 -0.0911  1.5410
 3746SOL    HW222701   4.561   3.200   0.369  0.6426  0.0102 -0.2702
 3747SOL     OW22702   1.893   2.277   2.765  0.3383 -0.5539  0.1568
 3747SOL    HW122703   1.802   2.302   2.782  0.9561  0.0507  2.5971
 3747SOL    HW222704   1.930   2.271   2.854 -0.8746 -0.6618  0.6579
 3748SOL     OW22705   3.016   0.554  17.240 -0.2393  0.2362  0.2317
 3748SOL    HW122706   3.102   0.542  17.280  0.3540 -1.2131 -1.4638
 3748SOL    HW222707   3.022   0.498  17.163  1.4077  0.2301  0.3643
 3749SOL     OW22708   4.460   0.072   8.728 -0.2272 -0.1498 -0.6679
 3749SOL    HW122709   4.474   0.137   8.659 -0.8910 -0.6154 -1.2391
 3749SOL    HW222710   4.517   0.001   8.701 -0.5716  0.1041 -2.0351
 3750SOL     OW22711   3.737   0.427   9.278  0.3940 -0.5397  0.7103
 3750SOL    HW122712   3.707   0.514   9.253  0.0874  0.0922  3.2701
 3750SOL    HW222713   3.716   0.381   9.197 -2.3483  1.6278  0.2002
 3751SOL     OW22714   4.167   1.947   1.324  0.2553 -0.2564  0.0990
 3751SOL    HW122715   4.202   1.904   1.402  3.3847  3.2861  0.6396
 3751SOL    HW222716   4.082   1.903   1.318  1.8998 -3.3414 -0.1127
 3752SOL     OW22717   3.152   1.082   7.964  0.4428  0.1276  0.3074
 3752SOL    HW122718   3.151   1.076   7.868  1.6925  1.2090  0.2155
 3752SOL    HW222719   3.062   1.112   7.973  0.1823 -0.3561 -0.6763
 3753SOL     OW22720   4.423   3.993   2.613 -0.3356 -0.2533 -0.8850
 3753SOL    HW122721   4.477   4.013   2.537 -1.0515  2.8558 -0.5758
 3753SOL    HW222722   4.494   3.967   2.672  1.4080  1.8286 -2.0223
 3754SOL     OW22723   1.506   1.408   3.841  0.4793  0.2379 -0.0199
 3754SOL    HW122724   1.556   1.487   3.863  0.3546  0.1761  0.5034
 3754SOL    HW222725   1.453   1.448   3.773  1.0606 -1.9247 -1.7498
 3755SOL     OW22726   0.898   2.124   2.868  0.5682 -0.0292 -0.1143
 3755SOL    HW122727   0.879   2.064   2.796  1.1709 -3.1640  2.3034
 3755SOL    HW222728   0.895   2.056   2.935  0.1056 -0.0482 -0.1520
 3756SOL     OW22729   0.360   0.671   6.059  0.2644  0.4820  0.0157
 3756SOL    HW122730   0.408   0.723   5.994  3.4274  0.0695  2.0326
 3756SOL    HW222731   0.320   0.609   5.998  0.0641  0.8191 -0.1967
 3757SOL     OW22732   1.239   4.706   2.369 -0.0318  0.0155 -0.2778
 3757SOL    HW122733   1.245   4.610   2.361 -2.1478 -0.1415  0.0529
 3757SOL    HW222734   1.330   0.008   2.345  0.2506  0.4351  1.1054
 3758SOL     OW22735   3.962   3.531  10.596 -0.4500 -0.3110  0.3623
 3758SOL    HW122736   4.052   3.520  10.565 -1.4299 -1.1728 -2.2033
 3758SOL    HW222737   3.928   3.600  10.538 -1.7157 -1.1049  0.1399
 3759SOL     OW22738   4.333   0.472   6.628 -0.3460 -0.2583  0.3375
 3759SOL    HW122739   4.347   0.391   6.677  0.4886  0.4636  1.2670
 3759SOL    HW222740   4.323   0.444   6.536  1.7094  2.6900 -0.7701
 3760SOL     OW22741   2.119   2.337  15.924 -0.3146  0.2629  0.1495
 3760SOL    HW122742   2.087   2.402  15.861  0.4840  0.1469 -0.3836
 3760SOL    HW222743   2.131   2.394  16.000  1.1651  1.3046 -0.8488
 3761SOL     OW22744   1.156   0.785   8.478  0.4467  0.1283  0.1532
 3761SOL    HW122745   1.099   0.728   8.428 -0.2473  1.9236 -1.1139
 3761SOL    HW222746   1.243   0.766   8.443  0.2469 -1.7749  0.7234
 3762SOL     OW22747   0.839   3.020   7.146  0.1030 -0.4177 -0.4283
 3762SOL    HW122748   0.902   3.086   7.117 -2.2924  1.6481 -0.8902
 3762SOL    HW222749   0.788   3.012   7.065 -0.9844  2.5815 -0.0382
 3763SOL     OW22750   1.658   2.180   3.452  0.1084  0.8053  0.7364
 3763SOL    HW122751   1.704   2.177   3.368 -2.2984  3.7862 -0.6646
 3763SOL    HW222752   1.713   2.243   3.500  1.7155  0.1532 -0.2439
 3764SOL     OW22753   3.896   2.949   3.656  0.0982  0.1000 -0.2590
 3764SOL    HW122754   3.846   2.903   3.588  1.8146 -0.3529 -1.2340
 3764SOL    HW222755   3.924   2.866   3.694  2.4512  0.9509 -0.1569
 3765SOL     OW22756   2.833   2.407  14.892  0.2489  0.7791 -0.0552
 3765SOL    HW122757   2.828   2.496  14.926 -0.0032  0.5009  0.6445
 3765SOL    HW222758   2.768   2.407  14.821 -0.6483  0.3841  0.7567
 3766SOL     OW22759   2.966   2.408   4.651 -0.5451  0.2617  0.0129
 3766SOL    HW122760   2.991   2.416   4.743  0.7442 -0.4274 -0.2744
 3766SOL    HW222761   3.028   2.473   4.619 -2.0862  1.8027  0.1248
 3767SOL     OW22762   4.229   1.876   6.648  0.2604 -0.0028  0.0789
 3767SOL    HW122763   4.236   1.781   6.650  0.5296 -0.0113 -1.2731
 3767SOL    HW222764   4.299   1.884   6.713 -1.2273  0.6354  1.6037
 3768SOL     OW22765   0.546   1.491  16.336 -0.2374  0.5271  0.0280
 3768SOL    HW122766   0.540   1.578  16.297  0.9982 -0.6416 -2.7434
 3768SOL    HW222767   0.452   1.489  16.354 -0.3361 -1.5517 -0.7798
 3769SOL     OW22768   2.537   4.042   9.220 -1.2177  0.2421 -0.4880
 3769SOL    HW122769   2.571   4.094   9.147  1.2606 -0.0010  0.4943
 3769SOL    HW222770   2.533   3.954   9.182  3.5580 -0.4888  0.7790
 3770SOL     OW22771   4.526   2.317   6.824  0.3599 -0.5193  0.9882
 3770SOL    HW122772   4.460   2.248   6.823 -0.7526  0.5350  1.5370
 3770SOL    HW222773   4.545   2.324   6.917  0.4804 -1.9357  1.0628
 3771SOL     OW22774   3.286   3.372  14.044  0.3981  0.5077 -0.4107
 3771SOL    HW122775   3.229   3.365  13.967  0.2347  2.3154 -0.4426
 3771SOL    HW222776   3.295   3.280  14.068 -1.4031  0.4586  0.0934
 3772SOL     OW22777   0.557   4.522   2.447 -0.2550  0.0436  0.7713
 3772SOL    HW122778   0.599   4.535   2.362  0.7674 -1.5844  1.0450
 3772SOL    HW222779   0.627   4.474   2.490  0.9545  0.9669 -0.1838
 3773SOL     OW22780   0.773   4.355   4.252  0.2164  0.0431 -0.0700
 3773SOL    HW122781   0.775   4.284   4.188 -0.2318  0.8951 -1.0197
 3773SOL    HW222782   0.694   4.399   4.219 -0.3000 -1.3555 -0.6936
 3774SOL     OW22783   1.010   2.421   5.496  0.0210  0.0255  0.1066
 3774SOL    HW122784   0.957   2.500   5.486  0.0360  0.2251  1.6633
 3774SOL    HW222785   0.954   2.360   5.446  0.2413  1.5773 -2.0458
 3775SOL     OW22786   0.412   0.987  12.059  0.0803 -0.6283 -0.0706
 3775SOL    HW122787   0.347   0.969  11.991  0.0945 -0.8372 -0.0297
 3775SOL    HW222788   0.427   1.081  12.055 -0.1213 -0.5655  0.7714
 3776SOL     OW22789   2.676   4.699   5.916  0.3763 -0.1388  0.3949
 3776SOL    HW122790   2.728   0.002   5.994 -0.4379 -0.3849  0.9960
 3776SOL    HW222791   2.598   4.657   5.953  1.4776 -0.8662  1.8618
 3777SOL     OW22792   0.093   3.845   1.372 -0.0835  0.1464  0.3501
 3777SOL    HW122793   0.140   3.771   1.334 -2.1214 -0.0576 -1.7728
 3777SOL    HW222794   0.006   3.816   1.345 -0.3560  2.2013 -0.9300
 3778SOL     OW22795   2.850   3.126  15.827 -0.5458  0.2681 -0.0282
 3778SOL    HW122796   2.825   3.213  15.858  0.8236  0.2073  1.2774
 3778SOL    HW222797   2.939   3.119  15.861 -0.3457 -0.3485 -0.6749
 3779SOL     OW22798   1.746   4.016  13.162 -0.1894  0.3538  0.3889
 3779SOL    HW122799   1.688   4.008  13.238  0.6525 -0.7463  0.9115
 3779SOL    HW222800   1.826   3.973  13.193 -1.3963 -0.5176  2.2962
 3780SOL     OW22801   3.833   0.594   1.758  0.1657 -0.3350  0.1058
 3780SOL    HW122802   3.759   0.627   1.708  1.3225  0.3255 -1.1675
 3780SOL    HW222803   3.857   0.518   1.705 -1.2597 -0.5801 -0.1658
 3781SOL     OW22804   4.372   4.031   9.091 -0.5198  0.1596 -0.4570
 3781SOL    HW122805   4.382   3.936   9.094 -0.6291  0.0976 -2.2845
 3781SOL    HW222806   4.307   4.058   9.156 -1.1663 -0.2498 -0.9424
 3782SOL     OW22807   0.796   2.795   4.493 -0.8145 -0.1044  0.3738
 3782SOL    HW122808   0.721   2.815   4.437 -0.3201 -0.0416 -0.2705
 3782SOL    HW222809   0.755   2.738   4.558 -1.4835 -1.6006 -1.3501
 3783SOL     OW22810   0.080   2.868   0.732  0.0528 -0.4233  0.0609
 3783SOL    HW122811   0.032   2.787   0.714 -1.6839  1.1143 -2.2611
 3783SOL    HW222812   0.118   2.902   0.651 -1.6021 -1.9406 -1.3581
 3784SOL     OW22813   0.627   0.314   8.155 -0.7302  0.4629  0.0364
 3784SOL    HW122814   0.603   0.344   8.242  1.5631  1.7179  0.2211
 3784SOL    HW222815   0.557   0.251   8.138 -0.2134 -0.2773  0.6752
 3785SOL     OW22816   1.253   0.397   6.912  0.1484  0.0120  0.2540
 3785SOL    HW122817   1.312   0.429   6.844  0.7198  0.2759  0.8838
 3785SOL    HW222818   1.301   0.420   6.991 -0.3649  1.2967  0.1971
 3786SOL     OW22819   1.623   0.014   3.244 -0.2320 -0.4362 -0.2928
 3786SOL    HW122820   1.624   0.061   3.327  0.4435 -1.2747  0.1685
 3786SOL    HW222821   1.641   4.638   3.264 -1.9044 -0.6441  0.2470
 3787SOL     OW22822   3.306   4.468   2.607  0.5137  0.1831 -0.0005
 3787SOL    HW122823   3.293   4.419   2.688 -0.5655 -0.5488 -0.6135
 3787SOL    HW222824   3.285   4.558   2.633 -1.5233 -0.5441  0.8843
 3788SOL     OW22825   1.833   0.816  11.315  0.5927  0.0965  0.1996
 3788SOL    HW122826   1.863   0.726  11.330 -0.5515 -0.2068  0.6215
 3788SOL    HW222827   1.866   0.875  11.383  0.1459 -1.5395  1.8398
 3789SOL     OW22828   1.175   2.105   0.478  0.2181 -0.3826  0.1749
 3789SOL    HW122829   1.172   2.199   0.461 -2.2031 -0.2463  1.2849
 3789SOL    HW222830   1.160   2.073   0.389 -0.5130 -0.2099  0.2376
 3790SOL     OW22831   1.267   3.720   7.647 -0.0468  0.2445 -0.1172
 3790SOL    HW122832   1.336   3.653   7.652 -1.0576 -0.7690  0.4699
 3790SOL    HW222833   1.216   3.682   7.576  1.5044  3.4013 -2.8876
 3791SOL     OW22834   4.605   0.129   5.211 -0.1743 -0.5640 -0.5683
 3791SOL    HW122835   4.524   0.178   5.195  0.6218  0.4182 -1.6440
 3791SOL    HW222836   4.614   0.130   5.306  0.7793  2.3218 -0.7013
 3792SOL     OW22837   0.338   2.859   5.605  0.0072  0.7266 -0.0623
 3792SOL    HW122838   0.307   2.921   5.539 -1.9839  1.1215  1.2522
 3792SOL    HW222839   0.362   2.788   5.546 -0.6748 -0.1486  0.7118
 3793SOL     OW22840   1.305   4.224   0.378  0.1350 -0.2333  0.0225
 3793SOL    HW122841   1.245   4.274   0.432  2.0302 -0.8627  2.7145
 3793SOL    HW222842   1.238   4.166   0.342 -0.9110  0.7248  0.4692
 3794SOL     OW22843   2.960   0.382  17.036  0.1894  0.2044  0.1789
 3794SOL    HW122844   2.963   0.329  16.957  2.7264  0.1111  0.3526
 3794SOL    HW222845   2.876   0.355  17.073  0.1809  0.0508  0.0458
 3795SOL     OW22846   2.531   2.601   7.600 -0.3890 -0.3574 -0.1990
 3795SOL    HW122847   2.577   2.527   7.640 -0.5368 -0.1598  0.3266
 3795SOL    HW222848   2.448   2.556   7.587  0.3849 -2.2363  1.4239
 3796SOL     OW22849   3.552   1.666   6.956  0.5429 -0.4035  0.1499
 3796SOL    HW122850   3.587   1.700   6.873  0.3402 -0.5637 -0.0007
 3796SOL    HW222851   3.557   1.572   6.938  1.1286 -0.3068 -0.2177
 3797SOL     OW22852   2.430   2.364   1.184 -0.1716  0.2487 -0.1890
 3797SOL    HW122853   2.430   2.459   1.197  0.1861  0.4569 -1.7748
 3797SOL    HW222854   2.368   2.347   1.113 -2.0220  2.8136  0.8026
 3798SOL     OW22855   1.551   2.802   2.456 -0.3667  0.3074  0.1363
 3798SOL    HW122856   1.505   2.873   2.502 -0.2652  0.1815  0.4326
 3798SOL    HW222857   1.629   2.801   2.512 -1.6799  0.9942  1.9809
 3799SOL     OW22858   1.747   2.059   5.723 -0.5386  0.1141  0.4040
 3799SOL    HW122859   1.749   2.137   5.667  0.0983 -0.9702 -1.0866
 3799SOL    HW222860   1.770   1.997   5.654  2.1332  0.4616  0.9806
 3800SOL     OW22861   4.557   0.988   4.795 -0.3461 -0.0794  0.0403
 3800SOL    HW122862   4.592   1.039   4.722  3.1989 -0.5508  1.3895
 3800SOL    HW222863   4.634   0.950   4.838  0.5313  1.6087 -0.0338
 3801SOL     OW22864   3.119   2.101   3.550 -0.4173  0.1274  0.0677
 3801SOL    HW122865   3.186   2.034   3.569 -0.4845  0.0645  0.0841
 3801SOL    HW222866   3.089   2.079   3.462 -0.1840 -1.0318  0.2776
 3802SOL     OW22867   2.326   1.415   8.901 -0.1338 -0.3980  0.2356
 3802SOL    HW122868   2.290   1.336   8.940 -1.0249 -0.8785 -1.5922
 3802SOL    HW222869   2.309   1.471   8.977 -0.5293 -0.4725  0.2026
 3803SOL     OW22870   0.944   2.348   4.341 -0.1693  0.5896  0.0280
 3803SOL    HW122871   0.855   2.315   4.351  1.3626 -2.9016  1.9201
 3803SOL    HW222872   0.932   2.436   4.305  0.4552  0.9217  0.6364
 3804SOL     OW22873   1.345   2.007   7.396  0.4942  0.0249 -0.4500
 3804SOL    HW122874   1.298   1.925   7.411 -0.5549  0.6442 -0.3656
 3804SOL    HW222875   1.437   1.981   7.391  0.6788  0.4111  1.0083
 3805SOL     OW22876   4.597   1.424   8.391  0.2259  0.1272 -0.0345
 3805SOL    HW122877   4.506   1.422   8.362  0.4768  0.7424 -0.8703
 3805SOL    HW222878   4.606   1.365   8.465  2.2275  0.9282  0.3649
 3806SOL     OW22879   3.070   2.999   3.449  0.2203 -0.5300  0.1626
 3806SOL    HW122880   2.987   2.967   3.412  1.1272 -1.2302 -1.2570
 3806SOL    HW222881   3.039   3.007   3.540  1.0499  1.2406  0.2892
 3807SOL     OW22882   1.747   3.668   2.687  0.1442  0.0287 -0.4406
 3807SOL    HW122883   1.714   3.628   2.607  1.9333 -0.9655 -0.6777
 3807SOL    HW222884   1.798   3.742   2.653 -1.0555 -0.0035 -2.3025
 3808SOL     OW22885   0.947   2.396   6.629  0.1595 -0.0305  0.6337
 3808SOL    HW122886   1.013   2.417   6.563  0.3068 -2.1535  0.0926
 3808SOL    HW222887   0.867   2.386   6.577  0.7672  0.6800 -0.4163
 3809SOL     OW22888   2.432   4.097  17.533  0.5779  0.0307 -0.3171
 3809SOL    HW122889   2.378   4.152  17.589 -1.1621  0.6406 -2.5904
 3809SOL    HW222890   2.371   4.079  17.461  0.5931  0.0424 -0.3328
 3810SOL     OW22891   2.923   1.635  11.544 -0.0449  0.9536  0.4333
 3810SOL    HW122892   2.887   1.641  11.455  1.1679 -0.0648 -0.1221
 3810SOL    HW222893   2.928   1.540  11.555 -1.9049  0.5572 -2.0404
 3811SOL     OW22894   0.187   2.505   2.905  0.4947  0.3016 -0.0729
 3811SOL    HW122895   0.106   2.472   2.865 -0.2651  2.2556 -0.1391
 3811SOL    HW222896   0.258   2.476   2.847 -2.1928 -1.2112 -2.6252
 3812SOL     OW22897   3.304   1.251   6.404 -0.0232 -0.2005  0.1004
 3812SOL    HW122898   3.383   1.264   6.458  0.1268 -1.7672  0.2499
 3812SOL    HW222899   3.295   1.156   6.409  1.1524 -0.2466  1.5588
 3813SOL     OW22900   2.883   0.957   3.081 -0.3580 -0.3607  0.7368
 3813SOL    HW122901   2.790   0.958   3.062  0.0866 -2.1011 -1.5397
 3813SOL    HW222902   2.883   0.918   3.169 -1.4725 -2.1503 -0.0528
 3814SOL     OW22903   1.617   1.515   2.532 -0.4596  0.1613  0.4770
 3814SOL    HW122904   1.684   1.581   2.548  0.4683 -0.7136  0.1749
 3814SOL    HW222905   1.673   1.448   2.494 -0.4024  0.0282  0.7912
 3815SOL     OW22906   0.806   4.380  17.473 -0.2383 -0.2346 -0.2341
 3815SOL    HW122907   0.869   4.391  17.402 -0.3615 -0.3050 -0.3555
 3815SOL    HW222908   0.865   4.377  17.548  1.3926  0.5852 -1.4939
 3816SOL     OW22909   3.241   3.964   3.212  0.6342  0.2858 -0.0686
 3816SOL    HW122910   3.263   3.974   3.305  1.8320 -2.0714 -0.0989
 3816SOL    HW222911   3.305   3.901   3.179  0.0716  1.7046 -3.7719
 3817SOL     OW22912   3.864   3.155  16.223  0.3967  0.1332  0.0372
 3817SOL    HW122913   3.874   3.239  16.268  1.7499 -0.3267  0.5938
 3817SOL    HW222914   3.952   3.148  16.186  0.0661  0.2441 -0.7721
 3818SOL     OW22915   0.034   0.963   3.101  0.5224  0.0685  0.3028
 3818SOL    HW122916   0.116   0.921   3.074  1.4575  0.8803  1.8883
 3818SOL    HW222917   0.009   0.903   3.172  1.3130 -1.1825 -0.4640
 3819SOL     OW22918   2.577   2.632   6.803 -0.1931 -0.1737  0.1788
 3819SOL    HW122919   2.600   2.543   6.830  2.3921  0.4174 -0.0464
 3819SOL    HW222920   2.523   2.610   6.728  2.5224 -1.3475 -1.4289
 3820SOL     OW22921   1.814   4.654  13.837  0.2930 -0.0132  0.1533
 3820SOL    HW122922   1.902   4.650  13.800  0.1453  0.4046 -0.2475
 3820SOL    HW222923   1.843   4.684  13.923 -0.0381  1.3632 -0.2095
 3821SOL     OW22924   2.476   3.288   4.921 -0.3140  0.4484 -0.3159
 3821SOL    HW122925   2.522   3.205   4.933 -0.8054  0.3327  0.8184
 3821SOL    HW222926   2.412   3.295   4.992  0.5413 -0.4477  0.5537
 3822SOL     OW22927   3.590   1.031   4.239 -0.0242  0.2424 -0.5915
 3822SOL    HW122928   3.537   0.972   4.186  1.3374 -2.4465  0.9995
 3822SOL    HW222929   3.643   1.074   4.173  0.1231  0.0447 -0.6040
 3823SOL     OW22930   2.779   1.730   6.973  0.1566 -0.0564 -0.0464
 3823SOL    HW122931   2.854   1.771   7.016  1.2911 -1.0488 -1.0822
 3823SOL    HW222932   2.708   1.721   7.036 -0.7663  2.2217 -0.7716
 3824SOL     OW22933   4.579   3.678   5.765  0.1180 -0.0393  0.0660
 3824SOL    HW122934   4.602   3.643   5.851  1.8728  2.0211  0.4377
 3824SOL    HW222935   4.578   3.772   5.780  1.6346 -0.0328  0.1055
 3825SOL     OW22936   4.136   0.666   0.581  0.1544 -0.3561 -0.8229
 3825SOL    HW122937   4.173   0.580   0.559 -0.2303 -0.6923 -0.1428
 3825SOL    HW222938   4.212   0.717   0.553  1.1230 -1.9716 -1.1914
 3826SOL     OW22939   3.000   2.018   3.902  0.6152  0.7447  0.4527
 3826SOL    HW122940   3.084   2.053   3.932  0.6609 -0.0435  1.2760
 3826SOL    HW222941   2.977   1.975   3.985  0.5153  1.1074  0.6126
 3827SOL     OW22942   3.952   2.070   0.806 -0.5145 -0.3605  0.4293
 3827SOL    HW122943   3.870   2.036   0.842  0.8834 -3.0090  1.0495
 3827SOL    HW222944   4.008   2.081   0.882  0.3788  0.2280 -0.3122
 3828SOL     OW22945   3.311   3.681   4.875  0.7480  0.4034  0.3141
 3828SOL    HW122946   3.256   3.705   4.949  2.3627  1.8858  1.0407
 3828SOL    HW222947   3.365   3.759   4.865  1.6602 -0.2326  0.2366
 3829SOL     OW22948   1.838   1.683  14.418 -0.3905 -0.2810  0.2020
 3829SOL    HW122949   1.911   1.621  14.428 -1.5083 -1.7994 -0.9303
 3829SOL    HW222950   1.871   1.751  14.358  0.8418 -1.5362 -0.5574
 3830SOL     OW22951   3.536   0.608   4.634  0.3857 -0.0652  0.4606
 3830SOL    HW122952   3.604   0.658   4.589  0.3198 -1.1569 -0.8394
 3830SOL    HW222953   3.486   0.577   4.558  0.4550 -0.7184  0.6858
 3831SOL     OW22954   4.628   3.383   5.812  0.4677 -0.2745  0.3436
 3831SOL    HW122955   4.558   3.365   5.749  2.5561 -1.6034 -1.5847
 3831SOL    HW222956   4.691   3.428   5.756 -1.8167 -0.3721 -2.3044
 3832SOL     OW22957   1.444   4.613   5.371 -0.5764  0.2908 -0.3982
 3832SOL    HW122958   1.391   4.575   5.301 -2.7879  0.5759  1.1227
 3832SOL    HW222959   1.528   4.622   5.325 -0.0091 -1.1671  0.3666
 3833SOL     OW22960   4.326   0.549   0.975  0.4492 -0.5321 -0.1996
 3833SOL    HW122961   4.320   0.461   0.938  0.5188 -0.4111 -0.4996
 3833SOL    HW222962   4.405   0.544   1.029  0.5468  1.6316 -0.1428
 3834SOL     OW22963   1.024   1.967  11.436  0.0215  0.2216 -0.3735
 3834SOL    HW122964   1.025   1.872  11.425 -0.3526 -0.1023  2.4163
 3834SOL    HW222965   0.985   1.998  11.355 -1.8671 -1.4443 -0.1054
 3835SOL     OW22966   1.027   2.714   4.017  0.5768  0.2522 -0.6305
 3835SOL    HW122967   0.960   2.758   4.070  0.6668  0.5666 -0.7761
 3835SOL    HW222968   0.974   2.637   3.997 -0.1547  0.0771  1.9762
 3836SOL     OW22969   0.238   2.738  11.313  0.1422  0.0366  0.5817
 3836SOL    HW122970   0.186   2.676  11.364  0.0082 -0.7581 -0.5371
 3836SOL    HW222971   0.308   2.674  11.296  0.6587  1.0165 -0.9729
 3837SOL     OW22972   0.734   4.269  16.436 -0.1894 -0.2429  0.5576
 3837SOL    HW122973   0.680   4.339  16.472 -1.4185 -0.4822 -0.8150
 3837SOL    HW222974   0.728   4.299  16.345  1.0749 -1.2449  0.1459
 3838SOL     OW22975   4.489   0.408  10.862  0.5069  0.3418 -0.0372
 3838SOL    HW122976   4.582   0.428  10.878  0.4734  0.2658  0.2474
 3838SOL    HW222977   4.494   0.364  10.777 -2.2591  2.1794 -1.1410
 3839SOL     OW22978   1.408   4.257   6.131  0.4295 -0.0276 -0.4287
 3839SOL    HW122979   1.474   4.260   6.061  0.5213 -1.2952 -0.3924
 3839SOL    HW222980   1.332   4.235   6.077 -0.6607  2.3874  0.1068
 3840SOL     OW22981   1.539   0.935   2.629  0.3643  0.1329  0.1149
 3840SOL    HW122982   1.514   0.978   2.711  1.2950 -1.3952  1.1881
 3840SOL    HW222983   1.498   0.849   2.634 -0.7735  0.6341 -0.6629
 3841SOL     OW22984   1.905   2.869   7.162 -0.1691  0.1285 -0.3719
 3841SOL    HW122985   1.950   2.922   7.228 -1.7752  0.9335  0.0847
 3841SOL    HW222986   1.933   2.919   7.085 -1.7140 -1.1656 -1.7629
 3842SOL     OW22987   0.942   3.686   3.148 -0.9971  0.0223 -0.1181
 3842SOL    HW122988   0.973   3.655   3.233  0.2236  0.3068 -0.4503
 3842SOL    HW222989   0.931   3.777   3.177 -3.3939  0.7455 -3.3849
 3843SOL     OW22990   1.798   0.200   6.221  0.0846  0.3169  0.1529
 3843SOL    HW122991   1.853   0.276   6.236  0.4394  0.2289 -0.7264
 3843SOL    HW222992   1.738   0.227   6.151  1.3763 -0.8673 -1.4129
 3844SOL     OW22993   1.590   4.664   7.961  0.4468  0.4877 -0.3693
 3844SOL    HW122994   1.586   4.603   7.887 -0.2225 -0.7779  0.7030
 3844SOL    HW222995   1.655   0.006   7.922 -0.1194  2.0201  0.9812
 3845SOL     OW22996   4.137   3.126  12.658 -0.2907 -0.0086 -0.0637
 3845SOL    HW122997   4.173   3.186  12.724 -0.2027  0.7661 -0.8308
 3845SOL    HW222998   4.061   3.091  12.705 -1.1543  0.3319 -1.2037
 3846SOL     OW22999   1.331   0.423   4.346 -0.2601 -0.2222 -0.3130
 3846SOL    HW123000   1.331   0.517   4.361 -0.2523 -0.0278 -1.5283
 3846SOL    HW223001   1.347   0.396   4.436  0.0908 -0.7958 -0.5515
 3847SOL     OW23002   4.516   0.072   4.915  0.2029  0.8050 -0.0523
 3847SOL    HW123003   4.519   0.030   5.001  1.0550  2.8533  0.9019
 3847SOL    HW223004   4.425   0.102   4.923 -0.5293 -1.4489  0.0810
 3848SOL     OW23005   2.546   3.448   7.761 -0.1063  0.8137  0.0303
 3848SOL    HW123006   2.531   3.366   7.715  0.2235  0.1899  1.0399
 3848SOL    HW223007   2.555   3.502   7.682 -0.0497  0.7490 -0.0063
 3849SOL     OW23008   2.095   3.008   9.894  0.4120  0.4370  0.4252
 3849SOL    HW123009   2.039   3.066   9.843 -0.3629  0.1619  0.9688
 3849SOL    HW223010   2.141   3.077   9.941  2.3866 -1.4033  1.1926
 3850SOL     OW23011   1.761   4.238   5.252  0.0026  0.3051  0.5189
 3850SOL    HW123012   1.681   4.217   5.300  0.0032 -0.1595  0.3211
 3850SOL    HW223013   1.737   4.326   5.224  2.8892  0.3394 -1.8875
 3851SOL     OW23014   3.541   2.916   5.696 -0.3061 -0.5690  0.5956
 3851SOL    HW123015   3.465   2.958   5.655  0.0663 -0.7921 -0.3273
 3851SOL    HW223016   3.512   2.904   5.786 -1.4045  0.2673  0.3494
 3852SOL     OW23017   2.808   4.541   3.104  0.4662  0.1364 -0.1630
 3852SOL    HW123018   2.885   4.591   3.131 -0.8125  0.6872  2.4779
 3852SOL    HW223019   2.780   4.595   3.030  1.4338  0.1400 -0.5268
 3853SOL     OW23020   2.599   1.407   3.305  0.2826 -0.2051  0.1002
 3853SOL    HW123021   2.673   1.422   3.364 -0.9667 -1.5192  2.0062
 3853SOL    HW223022   2.610   1.471   3.235  3.0129 -0.6282  0.1612
 3854SOL     OW23023   3.450   2.840   6.418 -0.3064  1.1970  0.4156
 3854SOL    HW123024   3.402   2.922   6.405  0.0716  1.4600  0.6895
 3854SOL    HW223025   3.410   2.798   6.494 -2.4647  1.2112 -0.7248
 3855SOL     OW23026   1.306   2.826   4.223  0.1008  0.3959  0.1500
 3855SOL    HW123027   1.372   2.761   4.248  1.9952  2.5325  0.7139
 3855SOL    HW223028   1.233   2.794   4.276 -0.0123  0.6236  0.1318
 3856SOL     OW23029   2.198   1.068   6.556 -0.3296  0.4985 -0.3559
 3856SOL    HW123030   2.257   1.015   6.611 -2.2711 -1.0855  0.2064
 3856SOL    HW223031   2.256   1.119   6.500  0.8039  0.4745  0.7844
 3857SOL     OW23032   1.273   1.080   7.993  0.1206 -0.1174  0.7342
 3857SOL    HW123033   1.362   1.086   7.958  0.2475 -1.5978  0.8056
 3857SOL    HW223034   1.262   0.985   7.990 -0.3123 -0.0549  0.2688
 3858SOL     OW23035   0.641   1.277   6.687  0.7914  0.3023 -0.1623
 3858SOL    HW123036   0.580   1.330   6.636  1.4174 -0.3355 -1.5880
 3858SOL    HW223037   0.722   1.322   6.660  0.9254  0.3086  0.2547
 3859SOL     OW23038   3.469   4.088  16.841  0.3891 -0.4194  0.9497
 3859SOL    HW123039   3.442   4.146  16.913  1.7479 -0.1440  1.2506
 3859SOL    HW223040   3.450   4.001  16.876  1.4367 -1.0443 -0.0594
 3860SOL     OW23041   1.801   3.278   6.868 -0.7415 -0.3280 -0.4171
 3860SOL    HW123042   1.853   3.199   6.886 -1.8614 -1.2884 -1.4452
 3860SOL    HW223043   1.753   3.286   6.950  2.3003  0.5675  1.2650
 3861SOL     OW23044   1.603   3.230   8.770 -0.7182 -0.1560 -0.0928
 3861SOL    HW123045   1.549   3.211   8.693  1.2277  0.2062 -1.5658
 3861SOL    HW223046   1.629   3.142   8.796  0.9002  0.1492 -0.6426
 3862SOL     OW23047   1.623   0.145   3.478  0.0947  0.0105  0.1402
 3862SOL    HW123048   1.687   0.213   3.461  0.2471 -0.7460 -2.3545
 3862SOL    HW223049   1.569   0.194   3.540 -1.2892 -1.8743  0.4537
 3863SOL     OW23050   4.048   4.429   5.887 -0.1008 -0.6529  0.2784
 3863SOL    HW123051   4.032   4.496   5.953 -1.2178 -1.2541  0.6104
 3863SOL    HW223052   4.103   4.488   5.835 -0.5801 -0.6606 -0.2404
 3864SOL     OW23053   3.630   3.068  10.051  0.2642 -0.1087  0.4235
 3864SOL    HW123054   3.616   2.977  10.025 -2.1267  0.6052 -0.7144
 3864SOL    HW223055   3.542   3.084  10.085  0.0084  1.0001 -0.7904
 3865SOL     OW23056   0.489   4.620  15.263  0.3212  0.3204  0.2177
 3865SOL    HW123057   0.445   4.546  15.222  1.7050 -0.8882  0.9219
 3865SOL    HW223058   0.534   4.659  15.188 -0.7798  0.5517 -0.3279
 3866SOL     OW23059   1.030   3.236  11.252 -0.4762  0.1062 -0.3615
 3866SOL    HW123060   1.063   3.190  11.329 -0.6980 -0.7272 -0.7660
 3866SOL    HW223061   0.971   3.166  11.224 -2.1822  0.0068  3.5866
 3867SOL     OW23062   1.683   1.723  14.125 -0.3817  0.2057 -0.4436
 3867SOL    HW123063   1.671   1.697  14.216  0.7312  0.1245 -0.3171
 3867SOL    HW223064   1.767   1.768  14.124 -1.4289  2.1625 -0.5617
 3868SOL     OW23065   1.805   1.636  17.325  0.0146  0.1010 -0.2162
 3868SOL    HW123066   1.810   1.601  17.236 -0.5597 -0.5722  0.0198
 3868SOL    HW223067   1.712   1.646  17.346  0.2788  3.0295 -0.3832
 3869SOL     OW23068   0.625   0.616   7.496 -0.1368  0.3733  0.1875
 3869SOL    HW123069   0.689   0.554   7.459 -1.9893 -0.7738 -1.0691
 3869SOL    HW223070   0.687   0.665   7.550 -1.2516  1.3233  0.5972
 3870SOL     OW23071   2.225   0.762   8.179 -0.2153  0.2580 -0.0699
 3870SOL    HW123072   2.156   0.763   8.113  1.8594 -0.5730 -2.2481
 3870SOL    HW223073   2.172   0.765   8.258 -0.7502 -2.4525 -0.3254
 3871SOL     OW23074   1.639   2.799   1.726  0.1339 -0.2783 -0.0062
 3871SOL    HW123075   1.580   2.724   1.736 -2.0429  1.4384 -0.1718
 3871SOL    HW223076   1.724   2.756   1.720 -0.2602 -1.2140  1.0839
 3872SOL     OW23077   1.042   1.453   3.049  0.3985 -0.2087 -0.7996
 3872SOL    HW123078   0.973   1.455   2.983  0.8730 -0.6545 -1.3091
 3872SOL    HW223079   0.986   1.437   3.125  1.9113  1.4848  0.6822
 3873SOL     OW23080   2.540   4.255   5.816 -0.0532  0.6732 -0.3392
 3873SOL    HW123081   2.466   4.205   5.851  1.0242  0.0248  0.9995
 3873SOL    HW223082   2.607   4.190   5.838 -1.0448 -0.4472 -0.6739
 3874SOL     OW23083   2.676   4.431  12.204 -0.8725  0.2818  0.4375
 3874SOL    HW123084   2.584   4.442  12.179 -0.5756 -2.2840 -1.7744
 3874SOL    HW223085   2.701   4.524  12.202  0.2761 -0.0228  0.5452
 3875SOL     OW23086   1.498   0.866   7.647 -0.3312 -0.1803  0.2594
 3875SOL    HW123087   1.500   0.771   7.652 -1.2089 -0.1031  1.9202
 3875SOL    HW223088   1.488   0.892   7.738  0.4648 -3.4211  1.2869
 3876SOL     OW23089   1.089   2.545   0.867  0.0005 -0.0803 -0.4615
 3876SOL    HW123090   1.170   2.497   0.884  1.0862  1.3382 -1.6950
 3876SOL    HW223091   1.095   2.620   0.926  0.3523 -0.5838  0.1483
 3877SOL     OW23092   1.192   4.515  11.209  0.1468  0.3047  0.2020
 3877SOL    HW123093   1.130   4.585  11.230  0.6373  1.3805 -1.8721
 3877SOL    HW223094   1.136   4.464  11.151  2.7612  0.5880 -2.5873
 3878SOL     OW23095   2.445   3.979  11.738  0.2778 -0.5902  0.2254
 3878SOL    HW123096   2.476   4.062  11.774  2.0274 -1.2509  0.2548
 3878SOL    HW223097   2.398   3.940  11.811  2.0076  0.9178  2.1268
 3879SOL     OW23098   2.775   0.253   5.430  0.7736 -0.5124  0.0644
 3879SOL    HW123099   2.777   0.206   5.347 -1.4701 -2.2680  1.0033
 3879SOL    HW223100   2.732   0.335   5.403  3.1774  0.2013 -1.5974
 3880SOL     OW23101   0.421   3.612   7.871  0.1074  0.4646 -0.1516
 3880SOL    HW123102   0.477   3.682   7.839  0.5799  0.6957  1.1874
 3880SOL    HW223103   0.351   3.608   7.805 -0.5757  1.3149  0.5192
 3881SOL     OW23104   4.653   0.366   7.285 -0.2995  0.5682  0.1540
 3881SOL    HW123105   4.683   0.367   7.194  5.6709 -0.0695  2.0891
 3881SOL    HW223106   4.682   0.455   7.307 -0.5824  0.3815  1.2811
 3882SOL     OW23107   0.204   1.620  10.422 -0.2162  0.6816 -0.3951
 3882SOL    HW123108   0.142   1.571  10.476 -0.3765  1.0907 -0.2121
 3882SOL    HW223109   0.247   1.546  10.379  1.1168  0.4487  1.3179
 3883SOL     OW23110   2.288   4.128   4.245  0.3091  0.6177 -0.0075
 3883SOL    HW123111   2.356   4.125   4.312 -1.1416 -0.4568  1.4388
 3883SOL    HW223112   2.339   4.092   4.173 -1.1686  0.4998 -0.9971
 3884SOL     OW23113   4.509   1.052   1.421 -0.2166 -0.3808 -0.2695
 3884SOL    HW123114   4.598   1.043   1.388  0.2161 -0.5492  0.9473
 3884SOL    HW223115   4.457   1.035   1.342 -2.3000  0.6652  0.8656
 3885SOL     OW23116   1.626   4.160   4.043 -0.4040  0.2239  0.5461
 3885SOL    HW123117   1.694   4.212   3.998  0.9485 -1.2989  0.8494
 3885SOL    HW223118   1.575   4.236   4.072  0.5023  0.8494  0.5275
 3886SOL     OW23119   2.651   1.769  10.904  0.3222  0.5781  0.4362
 3886SOL    HW123120   2.714   1.840  10.891  0.8442  0.0837  0.2700
 3886SOL    HW223121   2.575   1.812  10.866 -0.5106 -1.1961  0.1290
 3887SOL     OW23122   0.768   4.550   7.623  0.6509  0.3069 -0.4352
 3887SOL    HW123123   0.806   4.463   7.638  3.2008  1.3327 -0.9538
 3887SOL    HW223124   0.676   4.524   7.626  0.6649  0.0442 -2.2047
 3888SOL     OW23125   3.703   3.640   4.412 -0.2920  0.0687  0.4584
 3888SOL    HW123126   3.790   3.681   4.412  0.4674 -1.5208  0.7585
 3888SOL    HW223127   3.724   3.565   4.468  1.2544 -0.7746 -1.2322
 3889SOL     OW23128   0.391   1.323   8.182 -0.3086 -0.1462  0.2093
 3889SOL    HW123129   0.460   1.330   8.115  0.5088  0.5229  1.1207
 3889SOL    HW223130   0.420   1.392   8.242 -2.7087 -0.8562  2.1485
 3890SOL     OW23131   2.624   2.992  11.247  0.1628  0.0659  0.2589
 3890SOL    HW123132   2.711   2.953  11.257  0.1456 -0.4735 -1.7927
 3890SOL    HW223133   2.577   2.919  11.287  0.6893 -0.1171  0.5401
 3891SOL     OW23134   4.128   0.736   3.698  0.0186  0.4795  0.0209
 3891SOL    HW123135   4.161   0.649   3.676  0.1051  0.6573 -0.5704
 3891SOL    HW223136   4.129   0.789   3.617 -1.7977  0.3082 -0.1026
 3892SOL     OW23137   3.640   3.342  17.402 -0.2575 -0.6252  0.0885
 3892SOL    HW123138   3.641   3.419  17.345  0.0837  0.4411  1.5290
 3892SOL    HW223139   3.734   3.341  17.419 -0.1157 -1.2934 -0.7580
 3893SOL     OW23140   3.982   0.090   4.999  0.3231  0.0392 -0.3261
 3893SOL    HW123141   3.900   0.065   5.042 -0.4488 -0.0399 -1.8483
 3893SOL    HW223142   3.961   0.183   5.012 -1.6007 -0.8244  2.9251
 3894SOL     OW23143   3.059   0.659   8.292  0.1244 -0.4422  0.9812
 3894SOL    HW123144   3.101   0.595   8.235 -0.6558  0.0870 -0.1922
 3894SOL    HW223145   3.018   0.604   8.359  1.5386 -1.5826  0.9061
 3895SOL     OW23146   4.003   0.880   6.495 -0.0355 -0.0369 -0.6628
 3895SOL    HW123147   4.013   0.902   6.588 -0.1609 -0.3662 -0.5738
 3895SOL    HW223148   3.989   0.788   6.513 -5.3600  0.9059  0.0854
 3896SOL     OW23149   1.513   2.905   1.510 -0.3378  0.6181 -0.1542
 3896SOL    HW123150   1.577   2.971   1.483 -1.2451  1.5214 -0.1147
 3896SOL    HW223151   1.544   2.882   1.597 -2.7297 -1.1573  0.2402
 3897SOL     OW23152   1.692   0.564  14.038  0.1854 -0.2616 -0.9954
 3897SOL    HW123153   1.646   0.549  13.956 -0.5587 -0.3472 -0.5685
 3897SOL    HW223154   1.758   0.625  14.006 -1.2772  1.6936 -0.2736
 3898SOL     OW23155   4.163   2.969   2.442 -0.2786  0.2572 -0.0734
 3898SOL    HW123156   4.247   3.011   2.422  0.6321 -1.8133 -0.6256
 3898SOL    HW223157   4.191   2.903   2.506  1.0188  0.7301 -0.1525
 3899SOL     OW23158   3.963   0.714   9.487 -0.6753 -0.0358 -0.2516
 3899SOL    HW123159   3.871   0.733   9.469 -0.4650 -0.4102 -1.6887
 3899SOL    HW223160   3.985   0.625   9.459 -0.4503 -0.2336  0.5564
 3900SOL     OW23161   1.844   1.191  12.999  0.0709  0.1406  0.5921
 3900SOL    HW123162   1.766   1.203  13.053  0.8648  0.7373  1.6070
 3900SOL    HW223163   1.870   1.281  13.016  1.1313 -0.3381  1.4824
 3901SOL     OW23164   3.614   0.203   9.318  0.2070 -0.0946 -0.5971
 3901SOL    HW123165   3.652   0.290   9.328  0.2862 -0.3668  1.4228
 3901SOL    HW223166   3.529   0.230   9.283  0.6432 -0.1528 -1.7080
 3902SOL     OW23167   0.480   4.164  12.078  0.0855  0.4095 -0.2758
 3902SOL    HW123168   0.514   4.096  12.020 -0.8453  1.1343 -1.6915
 3902SOL    HW223169   0.414   4.216  12.031  0.0116 -0.4598 -1.1356
 3903SOL     OW23170   2.663   3.780   4.382  0.2430  0.2814 -0.1134
 3903SOL    HW123171   2.617   3.800   4.300  2.8544  0.5817 -1.5095
 3903SOL    HW223172   2.740   3.836   4.370 -0.5041  1.1378 -0.8865
 3904SOL     OW23173   1.134   2.053   2.015 -0.0915 -0.1235 -0.6517
 3904SOL    HW123174   1.165   2.143   2.012 -1.1828  0.3139  1.6674
 3904SOL    HW223175   1.134   2.026   1.923 -1.9382  1.4081 -1.0945
 3905SOL     OW23176   0.271   3.883   6.793  0.1055  0.2939  0.0022
 3905SOL    HW123177   0.236   3.931   6.869  0.4349  1.1313 -0.3781
 3905SOL    HW223178   0.294   3.956   6.736  1.7978  1.0507  1.6701
 3906SOL     OW23179   2.035   0.502   2.464  0.4271 -0.0504  0.5433
 3906SOL    HW123180   1.987   0.468   2.388  3.4481 -1.2757 -0.7848
 3906SOL    HW223181   2.073   0.420   2.494  1.5376  0.2815  0.0332
 3907SOL     OW23182   4.186   0.780   8.096  0.3038  0.0111 -0.1494
 3907SOL    HW123183   4.140   0.811   8.174  0.7431 -1.1117  0.5527
 3907SOL    HW223184   4.108   0.747   8.051  0.9039  0.3407 -1.4147
 3908SOL     OW23185   1.187   0.062   7.330 -0.1269 -0.4564  0.0993
 3908SOL    HW123186   1.098   0.096   7.341  0.3416 -0.3379  3.6731
 3908SOL    HW223187   1.208   0.066   7.424  0.7144  3.8887 -0.2327
 3909SOL     OW23188   2.368   2.862   8.393 -0.2549 -0.0968 -0.0376
 3909SOL    HW123189   2.312   2.787   8.374 -2.1411  1.1768  0.4791
 3909SOL    HW223190   2.302   2.928   8.414 -0.0410 -0.3344  1.4023
 3910SOL     OW23191   3.024   3.200   4.498  0.0951  0.7954 -0.2282
 3910SOL    HW123192   3.073   3.216   4.418 -0.1604  2.2524 -0.1003
 3910SOL    HW223193   2.954   3.265   4.487 -0.0826  0.9157  1.5464
 3911SOL     OW23194   3.277   2.394   5.342 -0.0047 -0.6860 -0.2201
 3911SOL    HW123195   3.309   2.444   5.417 -1.5380 -0.4696  0.2967
 3911SOL    HW223196   3.300   2.306   5.372  0.2892 -0.4137  0.3309
 3912SOL     OW23197   0.098   3.155   4.534 -0.0669 -0.5909 -0.5648
 3912SOL    HW123198   0.013   3.177   4.572  0.7786  1.3300  0.2414
 3912SOL    HW223199   0.156   3.165   4.610  1.0357 -3.3119 -1.0345
 3913SOL     OW23200   0.369   3.354   4.912 -0.3491  0.4038 -0.9288
 3913SOL    HW123201   0.428   3.419   4.949  0.3861  0.1075 -1.5709
 3913SOL    HW223202   0.418   3.327   4.834  1.0874  1.6498 -0.4719
 3914SOL     OW23203   4.253   1.208   1.631 -0.1805 -0.9299 -0.1537
 3914SOL    HW123204   4.320   1.275   1.641 -0.6140 -0.3624 -1.1792
 3914SOL    HW223205   4.186   1.226   1.697 -0.6677 -1.3867 -0.5249
 3915SOL     OW23206   2.564   2.390   4.724 -0.0860  0.0555  0.0297
 3915SOL    HW123207   2.611   2.410   4.805 -1.2002 -2.8136  1.4059
 3915SOL    HW223208   2.628   2.356   4.663 -0.4783 -0.9788  0.1951
 3916SOL     OW23209   1.855   2.988   2.849  0.0387  0.3429  0.1004
 3916SOL    HW123210   1.893   2.901   2.857 -0.7712  0.1239  1.4546
 3916SOL    HW223211   1.843   2.993   2.754 -1.4265 -2.4882  0.1491
 3917SOL     OW23212   2.362   2.235  15.134  0.3267 -0.6773 -0.4874
 3917SOL    HW123213   2.450   2.202  15.116  0.8465  1.4650 -1.8215
 3917SOL    HW223214   2.348   2.289  15.056 -0.6445 -1.3700 -0.7942
 3918SOL     OW23215   1.242   3.743  13.372 -0.0047 -0.0544  0.3632
 3918SOL    HW123216   1.202   3.767  13.288 -2.7125 -0.3325  1.5660
 3918SOL    HW223217   1.176   3.684  13.409 -3.0025  0.5735 -4.0214
 3919SOL     OW23218   4.045   4.478   5.362  0.5760  0.0188  0.3445
 3919SOL    HW123219   4.120   4.424   5.338  0.5269 -0.7345  1.8828
 3919SOL    HW223220   4.050   4.543   5.292  1.9195  0.0713  0.4852
 3920SOL     OW23221   3.616   0.052   5.641 -0.3820  0.2927  0.1590
 3920SOL    HW123222   3.710   0.047   5.658 -0.0520  0.5014 -1.6021
 3920SOL    HW223223   3.587   4.678   5.628 -0.3762  0.3339 -0.1412
 3921SOL     OW23224   0.173   0.142   0.890 -0.0653 -0.7124  0.3847
 3921SOL    HW123225   0.194   0.209   0.954  1.1826  1.0729 -1.8863
 3921SOL    HW223226   0.227   0.069   0.917 -1.3458 -1.7129  0.2340
 3922SOL     OW23227   3.158   1.459   6.700 -0.3988  0.3774 -0.3766
 3922SOL    HW123228   3.135   1.447   6.608  1.8743  1.5701 -1.1013
 3922SOL    HW223229   3.087   1.501   6.748  0.1813  1.0217 -0.0737
 3923SOL     OW23230   1.001   3.470   2.270 -0.2713  0.5386 -0.5127
 3923SOL    HW123231   0.928   3.454   2.330  0.5417  3.0216  1.1704
 3923SOL    HW223232   1.048   3.525   2.334  3.0312 -2.5632 -0.2887
 3924SOL     OW23233   4.081   1.410  12.652 -0.4025  0.1598  0.6661
 3924SOL    HW123234   4.092   1.505  12.653 -2.1674  0.4062 -3.3249
 3924SOL    HW223235   4.128   1.385  12.732 -0.6773  0.4105  0.9059
 3925SOL     OW23236   1.903   2.710   2.862 -0.1718  0.5363 -0.0042
 3925SOL    HW123237   1.884   2.671   2.947 -1.4466  1.1383 -0.0099
 3925SOL    HW223238   1.945   2.649   2.801  1.0184  0.1358  1.2184
 3926SOL     OW23239   0.864   1.833   6.317 -0.3039  0.6313  0.3255
 3926SOL    HW123240   0.782   1.854   6.363  0.8982  0.5230  2.4978
 3926SOL    HW223241   0.928   1.890   6.361 -0.5461  0.0949  1.3848
 3927SOL     OW23242   2.295   3.966   2.946 -0.3323  0.5047 -0.6689
 3927SOL    HW123243   2.311   3.918   3.028  1.1112 -1.2901 -2.0115
 3927SOL    HW223244   2.327   3.894   2.891  0.2266  0.7772 -0.6999
 3928SOL     OW23245   2.878   0.849   3.329  0.6754  0.1788  0.2001
 3928SOL    HW123246   2.784   0.864   3.335  0.8894  2.1427 -1.5796
 3928SOL    HW223247   2.889   0.778   3.392 -2.5352 -0.2304  0.2919
 3929SOL     OW23248   2.190   0.367  11.830  0.1609  0.7164  0.0475
 3929SOL    HW123249   2.246   0.417  11.770 -1.2537 -0.6875 -2.4651
 3929SOL    HW223250   2.260   0.326  11.880  2.6554  0.5745 -3.5667
 3930SOL     OW23251   0.916   1.615  13.132 -0.1140 -0.5754  0.5632
 3930SOL    HW123252   0.922   1.631  13.226 -0.5115 -0.3745  0.5512
 3930SOL    HW223253   0.891   1.702  13.103  0.8431 -0.0322  1.3613
 3931SOL     OW23254   4.521   0.862   2.145  0.1884 -0.5556  0.6826
 3931SOL    HW123255   4.534   0.775   2.182 -2.2113 -1.5541 -0.8069
 3931SOL    HW223256   4.601   0.904   2.176 -0.5180  0.1125  1.6161
 3932SOL     OW23257   3.170   0.913   6.077 -0.4830  0.7273  0.3758
 3932SOL    HW123258   3.112   0.966   6.132 -1.2373  0.1471  0.1491
 3932SOL    HW223259   3.157   0.938   5.985 -0.4272 -0.5743  0.0187
 3933SOL     OW23260   0.936   3.952   7.780  0.9594 -0.4715  0.4910
 3933SOL    HW123261   0.992   3.906   7.842 -0.1774  0.0701  1.9184
 3933SOL    HW223262   0.997   3.953   7.706  0.6155 -2.1819  0.1907
 3934SOL     OW23263   3.729   3.608   7.302 -0.2766 -0.2372 -0.4495
 3934SOL    HW123264   3.757   3.538   7.361 -0.0699 -0.3797 -0.7174
 3934SOL    HW223265   3.732   3.686   7.358  0.4873 -0.9489  0.5080
 3935SOL     OW23266   3.711   4.263   4.377  0.0831 -0.9045 -0.9069
 3935SOL    HW123267   3.780   4.216   4.423 -2.7444 -0.6515  3.6259
 3935SOL    HW223268   3.714   4.349   4.420 -0.5282 -0.7982 -1.0669
 3936SOL     OW23269   2.917   3.437  12.711 -0.1539 -0.6695  0.0019
 3936SOL    HW123270   2.964   3.521  12.713  2.2493 -1.9996 -1.1806
 3936SOL    HW223271   2.838   3.451  12.659  0.7910 -0.2976 -1.3437
 3937SOL     OW23272   3.400   3.446   0.533  0.1480  0.0699  0.0639
 3937SOL    HW123273   3.455   3.374   0.504  0.1749 -0.2688  0.9598
 3937SOL    HW223274   3.344   3.467   0.459 -0.3506 -1.8532 -0.0950
 3938SOL     OW23275   0.507   0.580  15.579  0.2832 -0.0080  0.4613
 3938SOL    HW123276   0.449   0.654  15.599  0.2258  0.4382 -1.3323
 3938SOL    HW223277   0.590   0.625  15.595  0.6591  0.0909 -1.7180
 3939SOL     OW23278   1.883   2.896   0.056 -0.3203 -0.2897  0.6185
 3939SOL    HW123279   1.800   2.942   0.043  0.5560  0.6365 -1.7460
 3939SOL    HW223280   1.910   2.873  17.637 -1.9962 -1.1659  0.3213
 3940SOL     OW23281   4.225   2.712   2.650  0.1663  0.5412 -0.0427
 3940SOL    HW123282   4.204   2.670   2.567 -1.0178  2.4734 -0.7109
 3940SOL    HW223283   4.252   2.638   2.706  0.6279  0.4546 -0.3846
 3941SOL     OW23284   0.130   3.177   0.115  0.1534  0.1564  0.5235
 3941SOL    HW123285   0.039   3.205   0.117  0.2215  0.6263 -2.0099
 3941SOL    HW223286   0.118   3.085   0.091  0.2279  0.6694 -1.4981
 3942SOL     OW23287   1.228   1.514   2.635  0.1189  0.4233 -0.8117
 3942SOL    HW123288   1.187   1.536   2.551 -1.8460 -2.3014 -0.5526
 3942SOL    HW223289   1.199   1.583   2.694 -0.4263  0.1668 -0.7856
 3943SOL     OW23290   2.858   0.347   7.720 -0.0531 -0.0693  0.1081
 3943SOL    HW123291   2.897   0.311   7.640 -0.8181 -1.4819  0.3824
 3943SOL    HW223292   2.939   0.372   7.765 -1.8821 -0.1752  3.4101
 3944SOL     OW23293   0.343   4.636   6.015  0.7588 -0.3901 -0.0798
 3944SOL    HW123294   0.293   4.604   6.089 -0.0688  1.4534  0.1443
 3944SOL    HW223295   0.361   0.004   6.056  1.9099 -0.5563 -0.2253
 3945SOL     OW23296   2.738   2.611   3.062 -0.4957 -0.2035 -0.2111
 3945SOL    HW123297   2.739   2.682   3.126 -0.7633  1.7219 -2.3504
 3945SOL    HW223298   2.724   2.540   3.124  0.8924  0.8041  1.2326
 3946SOL     OW23299   3.138   4.090   8.840  0.0833  0.0501  0.3515
 3946SOL    HW123300   3.061   4.112   8.894 -0.0866 -0.7911  0.4419
 3946SOL    HW223301   3.120   3.997   8.829 -0.7577  0.2839 -0.3150
 3947SOL     OW23302   3.082   0.595   4.332 -0.0658  0.7060 -0.1309
 3947SOL    HW123303   3.050   0.541   4.260  0.9532 -1.2706  0.8905
 3947SOL    HW223304   3.124   0.525   4.383 -1.3027  0.4643  0.5436
 3948SOL     OW23305   0.373   0.050   5.650  0.1419 -0.0271  0.1803
 3948SOL    HW123306   0.298   0.108   5.637  0.3535 -0.3760 -2.6661
 3948SOL    HW223307   0.426   0.112   5.699 -0.3810 -0.6134  1.5018
 3949SOL     OW23308   0.466   1.814   4.595 -0.1472  0.2252 -0.0531
 3949SOL    HW123309   0.531   1.815   4.665  0.4759  1.0199 -0.6454
 3949SOL    HW223310   0.515   1.865   4.531  0.8598  0.7715  1.1525
 3950SOL     OW23311   0.682   1.230   3.625 -0.1329 -1.0015  0.4442
 3950SOL    HW123312   0.667   1.256   3.716 -1.2595 -0.0235 -0.0070
 3950SOL    HW223313   0.610   1.266   3.572  0.5879  2.0026  1.4742
 3951SOL     OW23314   2.221   2.358   4.261  0.4292  0.4600 -0.0017
 3951SOL    HW123315   2.288   2.327   4.323  0.0646  2.1512  1.2379
 3951SOL    HW223316   2.219   2.454   4.258 -2.5051  0.4037 -0.2080
 3952SOL     OW23317   1.349   2.748  12.122 -0.0085 -0.0897 -0.2762
 3952SOL    HW123318   1.443   2.731  12.109 -0.3816  1.1621 -4.6760
 3952SOL    HW223319   1.323   2.708  12.205 -0.7586  0.1378 -0.4075
 3953SOL     OW23320   1.710   1.353   4.441 -0.9030  0.2842 -0.3539
 3953SOL    HW123321   1.734   1.413   4.511  0.4485 -2.0603  1.2175
 3953SOL    HW223322   1.793   1.306   4.430 -0.7065  0.8256 -1.1439
 3954SOL     OW23323   0.733   2.643   8.467  0.6042 -0.0375 -0.3055
 3954SOL    HW123324   0.657   2.700   8.456  1.6982  1.3960 -0.3887
 3954SOL    HW223325   0.746   2.631   8.561  2.6912 -0.0656 -0.6010
 3955SOL     OW23326   3.171   0.348  13.730  0.2080  0.1366  0.0248
 3955SOL    HW123327   3.180   0.337  13.635 -1.4540 -1.3732  0.0358
 3955SOL    HW223328   3.225   0.424  13.753 -1.1017  0.7940  0.9396
 3956SOL     OW23329   3.728   0.575  16.076 -0.1157 -0.2021  0.1809
 3956SOL    HW123330   3.696   0.562  16.165  0.2077 -1.7593  0.0655
 3956SOL    HW223331   3.798   0.510  16.076  0.5031  0.4555 -0.1149
 3957SOL     OW23332   2.052   0.214   5.261 -0.0144 -1.2152  0.0817
 3957SOL    HW123333   2.030   0.126   5.232  1.0450 -1.6608  0.6678
 3957SOL    HW223334   1.977   0.263   5.225 -1.0444 -1.1809  2.2460
 3958SOL     OW23335   2.773   2.592   6.601  0.4602 -0.3487  0.3784
 3958SOL    HW123336   2.708   2.647   6.645  1.6806  2.7278 -1.6207
 3958SOL    HW223337   2.725   2.510   6.610 -0.9028  0.3446 -0.5217
 3959SOL     OW23338   3.895   1.576   9.822  0.2434  0.2860  0.1870
 3959SOL    HW123339   3.962   1.589   9.890 -0.9495  1.9142  1.0410
 3959SOL    HW223340   3.958   1.520   9.776 -1.6649 -0.6927 -1.2136
 3960SOL     OW23341   4.471   2.377   4.235  0.6227 -0.0053  0.1179
 3960SOL    HW123342   4.386   2.346   4.264  0.1604  0.4665 -0.7147
 3960SOL    HW223343   4.519   2.361   4.316  2.3977  0.0137 -0.9169
 3961SOL     OW23344   1.599   0.091   7.618  0.0905  0.3125  0.6889
 3961SOL    HW123345   1.534   0.161   7.630  0.0179  0.6247 -1.4596
 3961SOL    HW223346   1.670   0.126   7.671  0.9856  0.0589 -0.3578
 3962SOL     OW23347   1.411   2.768  10.878  0.0484 -0.4854  0.3304
 3962SOL    HW123348   1.481   2.738  10.935  0.5180  1.0355  0.5636
 3962SOL    HW223349   1.457   2.789  10.797 -0.1796  0.0655  0.3430
 3963SOL     OW23350   4.098   1.659   3.003  0.5687  0.2412  0.2334
 3963SOL    HW123351   4.060   1.581   2.963 -0.1780  0.3926  0.6390
 3963SOL    HW223352   4.155   1.683   2.930 -1.6612  2.2941 -0.8508
 3964SOL     OW23353   3.677   0.404   5.891 -0.1304 -0.4372 -0.7540
 3964SOL    HW123354   3.649   0.354   5.814  0.1730  0.9186 -1.7457
 3964SOL    HW223355   3.726   0.480   5.861 -1.4048  0.4822 -0.5058
 3965SOL     OW23356   1.013   1.925   8.334  0.1035 -0.5162  0.1865
 3965SOL    HW123357   1.086   1.903   8.393  0.5120  0.4965  0.0529
 3965SOL    HW223358   1.042   1.899   8.247 -2.6831 -1.6127 -0.3932
 3966SOL     OW23359   3.869   0.110  11.061 -0.3415 -0.5931  0.1610
 3966SOL    HW123360   3.831   0.183  11.011 -0.2919 -0.4994  0.2603
 3966SOL    HW223361   3.959   0.136  11.079  0.2710 -1.8028 -1.1050
 3967SOL     OW23362   1.798   1.511   7.567  0.1153 -0.2409 -0.4115
 3967SOL    HW123363   1.783   1.528   7.660  0.6307  1.4337 -0.6392
 3967SOL    HW223364   1.735   1.577   7.537 -0.0879 -0.2231  0.0469
 3968SOL     OW23365   1.110   4.424   7.496  0.2395 -0.0100  0.6779
 3968SOL    HW123366   1.128   4.443   7.404  2.1392 -2.1324  0.6179
 3968SOL    HW223367   1.176   4.482   7.534  0.4801  0.7014 -0.8405
 3969SOL     OW23368   0.243   2.085   4.033 -0.3275 -0.6233 -0.3191
 3969SOL    HW123369   0.243   2.111   3.941 -1.0282  0.9042  0.1124
 3969SOL    HW223370   0.249   2.171   4.076  1.4318 -2.2070  2.5577
 3970SOL     OW23371   4.141   3.305   4.646  0.0172 -0.3586  0.4275
 3970SOL    HW123372   4.210   3.350   4.695 -0.9496  1.6644 -0.1036
 3970SOL    HW223373   4.084   3.379   4.628  0.1436 -0.7029 -1.4817
 3971SOL     OW23374   3.723   0.237   0.712  0.4950 -0.3187 -0.5232
 3971SOL    HW123375   3.798   0.189   0.676 -0.0897 -0.1223 -2.0155
 3971SOL    HW223376   3.738   0.322   0.671  0.9064  0.1435  0.5876
 3972SOL     OW23377   4.248   0.210   4.622  0.0315 -0.0605  0.1433
 3972SOL    HW123378   4.263   0.171   4.536  0.6226  0.4058  0.0369
 3972SOL    HW223379   4.153   0.200   4.631 -0.0258  1.5249  1.1612
 3973SOL     OW23380   2.326   1.481  16.981  0.3485 -0.1133 -0.5753
 3973SOL    HW123381   2.333   1.400  16.930 -2.0703 -0.8758  0.3107
 3973SOL    HW223382   2.338   1.548  16.914 -0.1216  0.3855 -0.1526
 3974SOL     OW23383   3.369   0.864  13.789 -0.5840  0.1522 -0.1337
 3974SOL    HW123384   3.328   0.948  13.770 -1.1991  0.1259  1.0839
 3974SOL    HW223385   3.459   0.890  13.766 -0.8645 -0.4660 -1.8963
 3975SOL     OW23386   2.714   1.087  15.664 -0.4509  0.3344  0.2607
 3975SOL    HW123387   2.796   1.038  15.665 -0.7700 -0.2723 -1.9900
 3975SOL    HW223388   2.688   1.083  15.571 -1.1025  1.0825  0.4128
 3976SOL     OW23389   2.181   0.640   7.422 -0.0082  0.2708  0.3630
 3976SOL    HW123390   2.106   0.582   7.435  1.0159 -0.5628  2.6453
 3976SOL    HW223391   2.160   0.706   7.488  2.0939  1.6043 -0.2920
 3977SOL     OW23392   3.029   1.426   5.449 -0.3189  0.2675  0.4190
 3977SOL    HW123393   3.045   1.335   5.474 -1.0391  0.2234  0.7427
 3977SOL    HW223394   3.075   1.471   5.520  4.2266 -0.8889 -1.7911
 3978SOL     OW23395   3.141   1.504   4.842  0.3254 -0.5569  0.1375
 3978SOL    HW123396   3.105   1.578   4.793 -1.6006  0.1379  2.6186
 3978SOL    HW223397   3.209   1.536   4.901  1.5209 -0.6969 -1.1598
 3979SOL     OW23398   4.208   3.250   9.544  0.4950  0.3474  0.4122
 3979SOL    HW123399   4.281   3.210   9.496  1.1095  1.7869  0.1342
 3979SOL    HW223400   4.130   3.205   9.512  0.9082 -0.2446  0.2138
 3980SOL     OW23401   1.072   2.019   7.708 -0.1228  0.1513  0.6622
 3980SOL    HW123402   1.097   2.037   7.799 -2.0480  1.4385  0.9377
 3980SOL    HW223403   1.010   2.088   7.685  1.8562  1.6671 -0.0446
 3981SOL     OW23404   2.028   1.244   7.272  0.1309 -0.7368  0.6393
 3981SOL    HW123405   2.108   1.229   7.222 -1.1635 -1.2993 -1.2469
 3981SOL    HW223406   2.041   1.328   7.316 -1.5865  0.8810 -1.9626
 3982SOL     OW23407   2.673   3.688   3.157 -0.2290 -0.0830  0.4482
 3982SOL    HW123408   2.666   3.640   3.240 -1.1516  0.3479  0.6225
 3982SOL    HW223409   2.587   3.668   3.120  0.0136 -0.3960  0.0605
 3983SOL     OW23410   2.690   3.571   3.929 -0.2244 -0.2419 -0.0212
 3983SOL    HW123411   2.729   3.493   3.967 -2.2535 -1.5616 -0.6194
 3983SOL    HW223412   2.733   3.577   3.844  0.0100 -1.5894  0.0001
 3984SOL     OW23413   2.717   1.460   4.747 -0.0632 -0.5647  0.3223
 3984SOL    HW123414   2.623   1.467   4.731  0.2173  0.9962 -0.6189
 3984SOL    HW223415   2.724   1.430   4.838 -0.3575  0.5496  0.7156
 3985SOL     OW23416   3.806   4.675   5.308 -0.1380 -0.0890  0.3039
 3985SOL    HW123417   3.792   4.589   5.347  1.3736 -0.0202  1.0110
 3985SOL    HW223418   3.782   4.655   5.218  0.2534 -2.0576  0.6494
 3986SOL     OW23419   0.618   3.512  11.018 -0.1209  0.2541  0.1594
 3986SOL    HW123420   0.637   3.556  11.101  1.0754  2.4122 -1.2601
 3986SOL    HW223421   0.675   3.554  10.953  1.1984 -1.9803 -0.1136
 3987SOL     OW23422   3.529   0.235   6.074  0.1234 -0.0420 -0.1078
 3987SOL    HW123423   3.582   0.278   6.007  1.2321  0.2712  0.9821
 3987SOL    HW223424   3.553   0.146   6.048  5.0130  0.4931  2.6993
 3988SOL     OW23425   3.158   1.949   5.587 -0.0913 -0.0656 -0.6144
 3988SOL    HW123426   3.100   1.983   5.518 -0.8437 -0.0507  0.0225
 3988SOL    HW223427   3.219   2.019   5.611 -1.1314  0.9485 -0.9085
 3989SOL     OW23428   1.849   3.267   2.471 -0.1199  0.2313  0.1364
 3989SOL    HW123429   1.929   3.306   2.435 -0.5017  1.8432  1.0215
 3989SOL    HW223430   1.794   3.261   2.393 -1.1771  1.6816  0.7769
 3990SOL     OW23431   3.529   4.712   9.489  0.2252  0.5786  0.3937
 3990SOL    HW123432   3.555   4.633   9.443  1.5925  1.1161  0.2534
 3990SOL    HW223433   3.577   0.059   9.436  0.0865  1.0691  0.8578
 3991SOL     OW23434   0.071   1.645  10.743  0.0449 -0.9268  0.4917
 3991SOL    HW123435   0.135   1.575  10.727 -0.2062 -0.6359 -1.8990
 3991SOL    HW223436   0.075   1.649  10.838  1.1724 -1.1562  0.4602
 3992SOL     OW23437   1.451   1.698   4.716  0.7858 -0.0834  0.3252
 3992SOL    HW123438   1.385   1.629   4.720  0.6678  0.0494  0.7159
 3992SOL    HW223439   1.420   1.745   4.639 -0.6385 -0.3667  0.7154
 3993SOL     OW23440   3.184   0.663   7.315  0.0188 -0.0551  0.3803
 3993SOL    HW123441   3.271   0.622   7.318 -1.2968 -2.9272 -1.3285
 3993SOL    HW223442   3.161   0.643   7.406  1.3641 -0.2320  0.6912
 3994SOL     OW23443   4.483   3.212   6.668 -0.3350  0.4616 -0.1028
 3994SOL    HW123444   4.444   3.185   6.751  3.1479  0.9789  1.6870
 3994SOL    HW223445   4.533   3.135   6.644  0.4042  0.9638 -0.1698
 3995SOL     OW23446   2.069   1.939   2.942  0.0272 -0.0854 -0.2525
 3995SOL    HW123447   2.094   1.937   2.850  0.6722  0.8081 -0.0999
 3995SOL    HW223448   2.149   1.970   2.983 -1.0001  0.3965  1.3942
 3996SOL     OW23449   1.798   1.828  12.768  0.1180 -0.1578 -0.7755
 3996SOL    HW123450   1.752   1.886  12.829 -0.3070 -0.4468 -0.8283
 3996SOL    HW223451   1.783   1.879  12.688 -1.8888 -2.5907 -1.9514
 3997SOL     OW23452   0.614   4.353   7.909  0.6248  0.0926  0.1211
 3997SOL    HW123453   0.523   4.382   7.919  0.2642 -1.2893  0.8176
 3997SOL    HW223454   0.587   4.280   7.853  1.2163  0.9210 -1.2532
 3998SOL     OW23455   2.207   3.952   5.304 -0.2665 -0.3721  0.4816
 3998SOL    HW123456   2.125   4.000   5.314  0.1589 -0.0434  2.4902
 3998SOL    HW223457   2.199   3.875   5.361 -0.4180 -1.5444 -1.1464
 3999SOL     OW23458   1.206   0.015  17.280  0.2373 -0.1194 -0.0642
 3999SOL    HW123459   1.135   0.029  17.343  0.5320 -3.4760  1.0189
 3999SOL    HW223460   1.272   4.699  17.341  2.2397  1.0552 -1.6093
 4000SOL     OW23461   2.035   2.469   8.578 -0.2164  0.1787 -0.0057
 4000SOL    HW123462   2.049   2.394   8.636 -1.0543  0.1684  0.1755
 4000SOL    HW223463   2.119   2.474   8.531 -0.4425 -0.4544 -0.4805
 4001SOL     OW23464   1.196   1.734   2.765 -0.0751  0.2999  0.3208
 4001SOL    HW123465   1.103   1.723   2.743  0.1677 -0.2670 -0.4001
 4001SOL    HW223466   1.217   1.823   2.793  0.6079  0.0422  0.6208
 4002SOL     OW23467   1.089   3.466   6.430  0.2883  0.0771 -0.1537
 4002SOL    HW123468   1.116   3.534   6.369  1.4616 -1.5777 -1.4728
 4002SOL    HW223469   1.095   3.390   6.373  2.1501  0.8431 -0.9821
 4003SOL     OW23470   2.560   1.768   3.348 -0.1326  0.2394  0.4900
 4003SOL    HW123471   2.531   1.704   3.284  0.2831  1.5161 -0.9911
 4003SOL    HW223472   2.524   1.725   3.425 -0.1506 -2.2790 -0.9325
 4004SOL     OW23473   2.159   3.550   1.667 -0.5779 -0.3465  0.4295
 4004SOL    HW123474   2.184   3.638   1.639 -0.9827 -0.7447 -1.1527
 4004SOL    HW223475   2.190   3.554   1.758 -2.0798  3.4549  0.7834
 4005SOL     OW23476   4.640   4.175  13.786  0.1553 -0.5341 -0.2264
 4005SOL    HW123477   4.694   4.106  13.747  0.1039  0.2098 -1.6084
 4005SOL    HW223478   4.674   4.182  13.875  3.2810 -2.4355 -1.2523
 4006SOL     OW23479   2.760   1.930   6.783 -0.2828 -0.3695  0.1514
 4006SOL    HW123480   2.762   1.838   6.809  2.3978 -0.2775  0.1809
 4006SOL    HW223481   2.837   1.959   6.830 -1.3107  2.0589  0.3729
 4007SOL     OW23482   0.593   1.748   9.765 -0.0732 -0.1511  0.3138
 4007SOL    HW123483   0.628   1.659   9.764 -1.3527 -0.6230 -2.6014
 4007SOL    HW223484   0.582   1.774   9.673  0.2036 -0.8241  0.0929
 4008SOL     OW23485   2.672   0.894   5.680 -0.4389  0.2741 -0.5895
 4008SOL    HW123486   2.624   0.812   5.685  1.1694 -0.6490 -0.1664
 4008SOL    HW223487   2.608   0.954   5.643 -2.9589 -1.3972  1.0742
 4009SOL     OW23488   2.239   3.575   3.483 -0.0124  0.1101 -0.2522
 4009SOL    HW123489   2.169   3.618   3.532 -1.2264 -0.0223 -1.8678
 4009SOL    HW223490   2.230   3.608   3.394  0.8711 -1.3273 -0.8715
 4010SOL     OW23491   3.194   3.926   2.372 -0.6241  0.3521 -1.0913
 4010SOL    HW123492   3.133   3.927   2.446 -0.8243  1.7966 -1.2806
 4010SOL    HW223493   3.234   3.839   2.372  3.0457  2.0717  1.3739
 4011SOL     OW23494   4.394   2.771   6.285 -0.0630  0.0271 -0.3760
 4011SOL    HW123495   4.359   2.844   6.336 -0.9822 -0.2980 -0.5373
 4011SOL    HW223496   4.417   2.711   6.355 -0.3389 -0.7962 -0.9931
 4012SOL     OW23497   4.046   4.122   5.030 -0.4531  0.1732 -0.0260
 4012SOL    HW123498   4.116   4.114   4.966 -1.7471  0.4535 -1.4916
 4012SOL    HW223499   3.971   4.147   4.975 -0.7313  0.1239  0.3264
 4013SOL     OW23500   0.474   4.464   3.215  0.2388 -0.0347  0.5000
 4013SOL    HW123501   0.520   4.546   3.231 -0.0229 -0.0250  1.2042
 4013SOL    HW223502   0.410   4.499   3.152 -1.4614 -1.4207  1.4605
 4014SOL     OW23503   4.237   1.135  15.971  0.5167 -0.4147  0.4066
 4014SOL    HW123504   4.331   1.148  15.963  0.5392 -0.6125  0.3447
 4014SOL    HW223505   4.235   1.039  15.965  0.7766 -0.3908 -0.0535
 4015SOL     OW23506   0.466   0.929   4.972  0.2006  0.2779  0.6152
 4015SOL    HW123507   0.421   1.010   4.996 -0.5227 -0.0917  0.5131
 4015SOL    HW223508   0.534   0.921   5.039  0.9124 -2.3491 -0.3969
 4016SOL     OW23509   4.511   0.992   3.433  0.2410 -0.0014  0.0523
 4016SOL    HW123510   4.419   0.981   3.406  0.5994  0.5300 -1.3746
 4016SOL    HW223511   4.531   1.070   3.382 -0.3769  1.2914  1.8081
 4017SOL     OW23512   2.509   0.792   4.314  0.3579 -0.4962  0.0506
 4017SOL    HW123513   2.482   0.704   4.286 -0.1143 -0.0846 -0.7909
 4017SOL    HW223514   2.604   0.788   4.305  0.1731 -0.0569 -2.1176
 4018SOL     OW23515   4.381   4.582   4.221 -0.0171  0.2105 -0.5790
 4018SOL    HW123516   4.406   4.490   4.225 -1.6520 -0.2864 -1.6382
 4018SOL    HW223517   4.308   4.581   4.159 -0.5085 -0.1213  0.0081
 4019SOL     OW23518   1.523   1.828   8.352 -0.1012 -0.9050 -0.6963
 4019SOL    HW123519   1.536   1.895   8.286 -0.9401  1.2247  1.2757
 4019SOL    HW223520   1.443   1.793   8.312  0.6499 -1.6993 -1.4687
 4020SOL     OW23521   4.525   3.073   0.936 -0.5588  0.5916  0.2108
 4020SOL    HW123522   4.487   3.159   0.952 -0.9022  0.3464  0.7191
 4020SOL    HW223523   4.463   3.010   0.973  1.1662 -0.4159  1.3735
 4021SOL     OW23524   1.806   2.888   6.333 -0.0147  0.1226  0.5070
 4021SOL    HW123525   1.901   2.876   6.325 -0.2974 -0.6298 -1.5574
 4021SOL    HW223526   1.779   2.900   6.242 -0.8859 -0.5611  0.6779
 4022SOL     OW23527   0.352   4.689   2.530  0.2106  0.3247  0.2817
 4022SOL    HW123528   0.410   4.616   2.506  0.4157  1.1112 -1.5790
 4022SOL    HW223529   0.310   4.650   2.606  2.2643 -2.2597  0.1162
 4023SOL     OW23530   1.862   3.812  11.303 -0.1340 -0.2485 -0.1870
 4023SOL    HW123531   1.837   3.813  11.396  0.2702 -1.6466 -0.0616
 4023SOL    HW223532   1.909   3.893  11.281 -2.9206  1.7091  1.0719
 4024SOL     OW23533   3.201   0.056  12.441  0.3896  0.2982 -0.4290
 4024SOL    HW123534   3.234   4.684  12.424  2.0794  1.0411 -0.9819
 4024SOL    HW223535   3.164   0.029  12.525 -0.8021  2.8436 -0.1456
 4025SOL     OW23536   3.452   4.454   3.179 -0.0757  0.0238 -0.2345
 4025SOL    HW123537   3.398   4.476   3.103 -1.3068  1.7231  1.1452
 4025SOL    HW223538   3.483   4.367   3.155 -0.1117  0.7473 -2.8920
 4026SOL     OW23539   0.233   0.411   5.921 -0.2026 -0.0393  0.2322
 4026SOL    HW123540   0.296   0.456   5.864 -0.9810  0.4007 -0.2862
 4026SOL    HW223541   0.151   0.425   5.873 -0.2053 -2.8634 -0.5724
 4027SOL     OW23542   2.819   4.192   5.619 -0.0781  0.0201 -0.3719
 4027SOL    HW123543   2.797   4.251   5.546 -0.6090 -0.2664 -0.4397
 4027SOL    HW223544   2.881   4.254   5.656  0.7828 -0.0101 -1.7547
 4028SOL     OW23545   2.447   3.592   2.631  0.1782 -0.5914 -0.1519
 4028SOL    HW123546   2.393   3.526   2.587  0.9917 -1.6220  0.3691
 4028SOL    HW223547   2.521   3.535   2.651  0.4721  0.6975  2.3887
 4029SOL     OW23548   4.053   1.345   2.467  0.3207 -0.1740  0.3507
 4029SOL    HW123549   4.054   1.346   2.372 -1.4646 -1.2812  0.3244
 4029SOL    HW223550   3.979   1.287   2.489 -1.2371  0.8060 -2.4371
 4030SOL     OW23551   0.627   4.697   3.183  0.3975  0.0855  0.9886
 4030SOL    HW123552   0.556   0.033   3.220  0.4975 -0.3781  1.8372
 4030SOL    HW223553   0.671   0.044   3.127 -0.6031  1.4042  1.7093
 4031SOL     OW23554   0.544   4.675   4.892 -0.2295  0.3634 -0.2259
 4031SOL    HW123555   0.514   4.634   4.811  0.2396 -1.2570  0.4191
 4031SOL    HW223556   0.491   4.628   4.957 -0.1902 -1.3651 -1.4354
 4032SOL     OW23557   2.104   3.240   6.607 -0.4277 -0.1419 -0.2232
 4032SOL    HW123558   2.122   3.147   6.598  0.8262  0.0456  0.3294
 4032SOL    HW223559   2.143   3.253   6.693  0.2539  0.4619 -0.6092
 4033SOL     OW23560   3.177   3.625  12.281  0.0339  0.2794 -0.5096
 4033SOL    HW123561   3.120   3.682  12.229  1.2313  2.0445  0.0929
 4033SOL    HW223562   3.121   3.630  12.359  0.2341  0.2198 -0.3624
 4034SOL     OW23563   2.954   3.021   5.929  0.2265  0.1329 -0.5408
 4034SOL    HW123564   2.996   3.011   6.014 -1.9106  1.4764  0.6796
 4034SOL    HW223565   2.869   3.044   5.966  1.6914  0.7539  2.4144
 4035SOL     OW23566   1.737   1.346   3.119 -0.4270 -0.5664  0.4460
 4035SOL    HW123567   1.695   1.297   3.190 -0.9504 -0.6050  0.1082
 4035SOL    HW223568   1.817   1.294   3.106 -1.0074 -0.9674 -1.6041
 4036SOL     OW23569   4.605   3.632   1.169 -0.0751  0.0086 -0.1734
 4036SOL    HW123570   4.555   3.690   1.111  1.3016  0.1777 -1.1932
 4036SOL    HW223571   4.545   3.558   1.173 -0.6958  0.5102 -0.2458
 4037SOL     OW23572   3.359   1.053  14.998  0.2385 -0.1786  0.3420
 4037SOL    HW123573   3.363   0.967  15.040  2.0394 -0.1433  0.2232
 4037SOL    HW223574   3.266   1.070  14.982  0.0678 -1.7658 -0.2813
 4038SOL     OW23575   1.502   2.434  10.283 -0.4230  0.5628 -0.0869
 4038SOL    HW123576   1.432   2.492  10.253 -0.9181 -0.0525 -0.1025
 4038SOL    HW223577   1.487   2.421  10.377  2.7935 -0.9548  0.2201
 4039SOL     OW23578   1.392   1.605   2.388 -0.2517  0.0467 -0.0740
 4039SOL    HW123579   1.477   1.572   2.417 -1.0548 -2.6368 -0.7356
 4039SOL    HW223580   1.409   1.697   2.408  2.1213 -0.4907  0.4615
 4040SOL     OW23581   2.628   4.312   2.721  0.5822 -0.3289 -0.7205
 4040SOL    HW123582   2.571   4.380   2.757  3.2852  0.3326  2.3211
 4040SOL    HW223583   2.603   4.234   2.772 -0.8236  2.1502  2.4293
 4041SOL     OW23584   3.398   2.403   3.801  0.2266  0.6255 -0.4256
 4041SOL    HW123585   3.486   2.441   3.803  1.5664 -2.5138  1.7301
 4041SOL    HW223586   3.344   2.474   3.833 -2.2203 -1.6429  0.4821
 4042SOL     OW23587   3.385   1.588   8.810 -0.2619  0.7767 -0.0878
 4042SOL    HW123588   3.379   1.615   8.901  0.3667  2.2249 -0.4719
 4042SOL    HW223589   3.337   1.506   8.818  1.8562 -0.4577 -0.1418
 4043SOL     OW23590   4.706   2.303   4.112 -0.4790 -0.2614 -0.7099
 4043SOL    HW123591   4.634   2.358   4.141  1.1475  2.0455 -1.0384
 4043SOL    HW223592   4.647   2.242   4.068 -2.0414  0.2916  0.6654
 4044SOL     OW23593   0.560   2.342   5.821  0.3649 -0.3443 -0.2488
 4044SOL    HW123594   0.621   2.411   5.795  2.4538 -1.8645  0.5820
 4044SOL    HW223595   0.518   2.378   5.899 -2.8882  0.2469 -2.2884
 4045SOL     OW23596   3.075   0.229   8.981 -0.1610  0.0361 -0.4303
 4045SOL    HW123597   3.066   0.284   9.059  2.1663  0.2352 -0.3049
 4045SOL    HW223598   3.044   0.148   9.019  0.6973 -0.7068 -1.3107
 4046SOL     OW23599   3.324   3.494   5.870 -0.3716 -0.0034 -0.0576
 4046SOL    HW123600   3.244   3.499   5.921  0.3999  0.0909  1.1346
 4046SOL    HW223601   3.357   3.409   5.900 -2.1511 -1.0545 -1.0735
 4047SOL     OW23602   2.644   4.411   5.464 -0.5510  0.3251 -0.0386
 4047SOL    HW123603   2.675   4.440   5.550 -0.6399 -0.5858  0.3005
 4047SOL    HW223604   2.623   4.497   5.427  0.0745  0.4287 -0.1507
 4048SOL     OW23605   3.357   4.653  15.777  0.2592  0.3172 -0.0172
 4048SOL    HW123606   3.385   4.617  15.693  1.1039 -2.4266  1.4397
 4048SOL    HW223607   3.392   4.595  15.844 -2.2257 -0.1110  0.9147
 4049SOL     OW23608   4.700   2.679   7.144 -0.4239  0.0005  0.2402
 4049SOL    HW123609   4.715   2.678   7.238 -0.9825  1.3450  0.3518
 4049SOL    HW223610   4.605   2.679   7.130  0.0583 -3.9648 -3.0796
 4050SOL     OW23611   3.648   1.554   5.571  0.2366  0.4265 -0.4805
 4050SOL    HW123612   3.728   1.597   5.602 -0.1924 -0.6753  2.1802
 4050SOL    HW223613   3.685   1.484   5.519  3.9666  0.1134  2.6249
 4051SOL     OW23614   2.317   2.572   0.488  0.2047 -0.2978  0.1164
 4051SOL    HW123615   2.378   2.578   0.414 -0.4621 -0.1772 -0.4301
 4051SOL    HW223616   2.332   2.481   0.513  0.9323 -0.5728 -1.3030
 4052SOL     OW23617   0.290   3.830   5.599  0.5977  0.3107 -0.2732
 4052SOL    HW123618   0.231   3.824   5.674 -1.1158  0.8357 -1.5596
 4052SOL    HW223619   0.256   3.774   5.528 -0.5506  1.6848 -0.7951
 4053SOL     OW23620   2.200   3.306  16.090  0.4299 -0.0467  0.6594
 4053SOL    HW123621   2.204   3.220  16.132 -0.6560 -0.2876  0.2621
 4053SOL    HW223622   2.176   3.275  16.003  2.2011 -0.0650  0.1800
 4054SOL     OW23623   0.333   4.685   1.016 -0.3288  0.2352  0.6764
 4054SOL    HW123624   0.410   4.699   1.071  0.1530  2.1337 -0.4929
 4054SOL    HW223625   0.356   4.610   0.961  0.0564 -0.0211  1.1866
 4055SOL     OW23626   4.098   3.875   7.610  0.2253  0.2337  0.0884
 4055SOL    HW123627   4.181   3.838   7.640 -0.4076 -0.8603  0.5035
 4055SOL    HW223628   4.131   3.919   7.533  0.1398  0.2177  0.0421
 4056SOL     OW23629   3.880   2.731   2.919  0.3685 -0.6714 -0.2819
 4056SOL    HW123630   3.799   2.682   2.905  0.0637  0.3869 -2.1718
 4056SOL    HW223631   3.891   2.763   2.830  0.5868  3.6235  1.2761
 4057SOL     OW23632   0.799   3.789  10.093  0.1448  0.1156  0.6222
 4057SOL    HW123633   0.833   3.792  10.003  0.7796 -0.5260  0.8371
 4057SOL    HW223634   0.711   3.754  10.078  0.0975  0.4721  0.0430
 4058SOL     OW23635   1.929   2.151   9.146 -0.3753  0.6986  0.3998
 4058SOL    HW123636   1.943   2.158   9.051  2.3143  1.4246  0.8677
 4058SOL    HW223637   1.833   2.154   9.147 -0.3018  2.3563  2.1182
 4059SOL     OW23638   2.754   0.748   6.187  0.3928 -0.1395 -0.1117
 4059SOL    HW123639   2.722   0.674   6.239 -0.3820  0.1485 -0.1766
 4059SOL    HW223640   2.732   0.717   6.100 -3.5925 -1.6975  1.4722
 4060SOL     OW23641   0.458   2.745  11.867  0.2243  0.2930 -0.3585
 4060SOL    HW123642   0.474   2.760  11.774  1.6134 -1.4415 -0.3973
 4060SOL    HW223643   0.503   2.826  11.892  0.1837  0.2342 -0.0930
 4061SOL     OW23644   0.028   4.597  10.070 -0.1013 -0.1756  0.7735
 4061SOL    HW123645   0.101   4.583  10.130 -1.4688 -0.4332  2.3727
 4061SOL    HW223646   0.039   4.684  10.032 -1.5811 -0.3060  0.0455
 4062SOL     OW23647   2.707   4.032  17.529  0.4093 -0.3393 -0.1076
 4062SOL    HW123648   2.636   4.092  17.507 -0.5353 -0.3729  2.9525
 4062SOL    HW223649   2.748   4.091  17.592 -0.8503  0.3654  0.0516
 4063SOL     OW23650   4.653   1.412   9.147 -0.3435 -0.1952 -0.2030
 4063SOL    HW123651   4.704   1.331   9.143 -1.1364 -0.6873 -0.3702
 4063SOL    HW223652   4.661   1.433   9.054 -1.5613 -0.4548 -0.3741
 4064SOL     OW23653   0.077   3.133  11.071  0.4644 -0.0753 -0.2420
 4064SOL    HW123654   0.103   3.097  10.986 -2.0472  1.0475 -1.4942
 4064SOL    HW223655   4.704   3.098  11.079 -1.0337  4.1686  1.6773
 4065SOL     OW23656   4.531   3.155   3.702  0.4957 -0.1129  0.3418
 4065SOL    HW123657   4.441   3.182   3.720  1.1527  1.4886  1.1683
 4065SOL    HW223658   4.566   3.168   3.790  1.3863 -1.3007  0.1482
 4066SOL     OW23659   3.234   4.137   4.117  0.2772 -0.0629 -0.4082
 4066SOL    HW123660   3.325   4.155   4.141 -0.1713  0.5719  0.8167
 4066SOL    HW223661   3.221   4.215   4.064 -0.9395  0.5895  0.8338
 4067SOL     OW23662   2.656   2.921   6.089 -0.3985  0.7263 -0.6865
 4067SOL    HW123663   2.580   2.890   6.138  1.5196  0.7754  2.3087
 4067SOL    HW223664   2.668   3.013   6.116  2.5706 -1.1145  4.3258
 4068SOL     OW23665   4.377   3.664   4.212  0.6635  0.2390  0.0305
 4068SOL    HW123666   4.301   3.691   4.161 -0.1706 -1.8114  0.1905
 4068SOL    HW223667   4.332   3.614   4.280 -1.0601 -0.0076 -1.2956
 4069SOL     OW23668   4.496   1.921   2.445  0.1635 -0.0206 -0.8439
 4069SOL    HW123669   4.512   1.871   2.525 -2.8364 -0.3444 -0.4598
 4069SOL    HW223670   4.515   1.852   2.381  0.5801 -1.7402  1.1337
 4070SOL     OW23671   0.466   1.203   4.821  0.3184 -0.4838 -0.0070
 4070SOL    HW123672   0.548   1.158   4.804  0.0011 -0.4551 -1.6003
 4070SOL    HW223673   0.481   1.263   4.894  0.6558  1.3537 -1.5797
 4071SOL     OW23674   3.232   4.085   7.831 -0.2963  0.4786  0.1007
 4071SOL    HW123675   3.295   4.019   7.862 -0.4395  1.8603  3.2794
 4071SOL    HW223676   3.154   4.030   7.825 -1.8872  2.9845 -1.9999
 4072SOL     OW23677   4.169   0.886  17.489 -0.4001 -0.2443 -0.3788
 4072SOL    HW123678   4.184   0.806  17.439  1.5040 -0.4137  0.4529
 4072SOL    HW223679   4.259   0.919  17.486  0.5272 -2.3426  4.0798
 4073SOL     OW23680   2.399   0.279   6.410  0.0157 -0.5212 -0.3626
 4073SOL    HW123681   2.475   0.223   6.396  0.4700  0.1257 -0.4998
 4073SOL    HW223682   2.386   0.252   6.501 -0.0611  1.0984  0.1061
 4074SOL     OW23683   2.259   1.911   4.221  1.1787 -0.8442  0.1463
 4074SOL    HW123684   2.233   1.820   4.237  1.9115 -0.8819  1.1477
 4074SOL    HW223685   2.244   1.915   4.127  0.4361 -1.9563  0.2173
 4075SOL     OW23686   4.498   0.791   5.407  0.7150  0.2277  0.1627
 4075SOL    HW123687   4.582   0.825   5.438  0.0045  0.3052  2.0046
 4075SOL    HW223688   4.522   0.699   5.396 -0.8403 -0.2304  0.5595
 4076SOL     OW23689   3.760   1.671   3.434  0.4823  0.3993  0.1596
 4076SOL    HW123690   3.720   1.618   3.502 -0.9658  0.1840 -0.8505
 4076SOL    HW223691   3.734   1.757   3.468 -1.7375 -0.1635 -0.0980
 4077SOL     OW23692   3.637   2.840   1.834  0.4009 -0.5691  0.4418
 4077SOL    HW123693   3.696   2.827   1.908  0.6852 -1.6916  0.0174
 4077SOL    HW223694   3.703   2.871   1.771 -0.0681 -0.2112  0.1311
 4078SOL     OW23695   2.381   1.333   2.625 -0.0095  0.2412  0.0439
 4078SOL    HW123696   2.361   1.364   2.713 -0.6519 -0.3419  0.1095
 4078SOL    HW223697   2.401   1.241   2.645 -3.2375 -0.5127 -0.1014
 4079SOL     OW23698   0.928   2.248   5.757  0.4498 -0.3816 -0.0948
 4079SOL    HW123699   0.992   2.273   5.690 -0.5550  0.2319 -0.8355
 4079SOL    HW223700   0.979   2.184   5.807  0.1735 -1.5967 -1.3652
 4080SOL     OW23701   3.833   3.826   2.631 -0.8709 -0.2166 -0.1685
 4080SOL    HW123702   3.891   3.866   2.567  2.0774 -1.3463  1.8340
 4080SOL    HW223703   3.765   3.893   2.642 -0.8275 -0.0145 -1.0989
 4081SOL     OW23704   0.912   0.845   2.862  0.0709  0.4457  0.3971
 4081SOL    HW123705   0.830   0.798   2.871  0.4454  0.1925  2.4791
 4081SOL    HW223706   0.892   0.915   2.799 -0.2400 -0.4318 -0.4714
 4082SOL     OW23707   2.331   2.074   0.938 -0.6437  0.2850  0.0815
 4082SOL    HW123708   2.394   2.093   0.869 -0.4708  0.6706  0.3499
 4082SOL    HW223709   2.378   2.009   0.989 -2.0777 -0.2423  0.7356
 4083SOL     OW23710   1.503   0.766   3.003  0.0763 -0.0040  0.8560
 4083SOL    HW123711   1.418   0.729   2.980  1.0163 -1.8158  0.3238
 4083SOL    HW223712   1.559   0.717   2.943 -1.3829 -1.4668  0.6947
 4084SOL     OW23713   4.191   2.777  11.779 -0.1679  0.1780 -0.3700
 4084SOL    HW123714   4.119   2.737  11.730 -0.4709  0.1516  0.0925
 4084SOL    HW223715   4.264   2.734  11.735 -1.4965 -0.2517 -2.1304
 4085SOL     OW23716   4.067   3.983  11.713  0.2109  0.2995 -0.3578
 4085SOL    HW123717   4.096   4.038  11.640 -2.5101  1.7195 -0.3597
 4085SOL    HW223718   4.146   3.979  11.766 -1.9673  0.2929  2.9033
 4086SOL     OW23719   3.873   0.879   1.595  0.2382  0.3534 -0.3409
 4086SOL    HW123720   3.930   0.914   1.663  1.3790 -1.5793 -0.2834
 4086SOL    HW223721   3.910   0.907   1.512 -2.7203  0.8795 -1.5016
 4087SOL     OW23722   1.999   3.111   0.295 -0.3450  0.2756 -0.6037
 4087SOL    HW123723   2.015   3.204   0.309  2.5331 -0.2161 -0.6097
 4087SOL    HW223724   1.973   3.086   0.384  1.9606 -0.1503 -0.0491
 4088SOL     OW23725   0.459   3.269   4.059 -0.2584  0.2904 -0.5994
 4088SOL    HW123726   0.515   3.233   3.991  0.9834  0.9384  0.0794
 4088SOL    HW223727   0.433   3.353   4.022  1.9904  0.8659 -0.8256
 4089SOL     OW23728   0.084   0.004  13.832 -0.1158 -0.1435 -0.2550
 4089SOL    HW123729   0.051   4.677  13.753 -1.9502  0.6591  0.0533
 4089SOL    HW223730   0.004   0.049  13.860  0.3169  0.3928  0.1098
 4090SOL     OW23731   2.024   3.185  14.481  0.0463  0.6316 -0.4220
 4090SOL    HW123732   1.974   3.133  14.418  1.5988 -0.8370 -0.4233
 4090SOL    HW223733   2.028   3.268  14.432  0.6423  0.9820  0.2187
 4091SOL     OW23734   2.311   3.456  14.201 -0.2429 -0.3608 -0.2397
 4091SOL    HW123735   2.378   3.489  14.260  0.2585  0.0668 -1.0378
 4091SOL    HW223736   2.316   3.523  14.132 -0.1994 -1.0405 -0.8948
 4092SOL     OW23737   0.494   2.378   0.651 -0.2786 -0.3010 -0.0927
 4092SOL    HW123738   0.504   2.391   0.557 -2.0159 -1.3880 -0.4225
 4092SOL    HW223739   0.474   2.468   0.677  0.3630 -0.8640  2.4392
 4093SOL     OW23740   4.018   2.686   1.160  0.3390 -0.0231 -0.8490
 4093SOL    HW123741   3.992   2.741   1.086 -1.5249 -0.9835 -0.9167
 4093SOL    HW223742   4.009   2.598   1.122  2.1834 -0.3788 -0.4823
 4094SOL     OW23743   0.712   2.456   3.740  0.0402 -0.7220 -0.1566
 4094SOL    HW123744   0.643   2.511   3.701 -0.4004 -1.0000  0.2221
 4094SOL    HW223745   0.777   2.462   3.671  1.0865 -0.2035  0.8752
 4095SOL     OW23746   0.922   3.263   8.558 -0.2992 -0.2386 -0.0039
 4095SOL    HW123747   0.969   3.298   8.634 -2.4821  1.0205  0.7822
 4095SOL    HW223748   0.880   3.343   8.527  0.0346 -0.3678 -0.7834
 4096SOL     OW23749   2.021   2.522   5.002 -0.3051 -0.0265 -0.5176
 4096SOL    HW123750   1.961   2.592   5.030  1.4094  1.1734  0.1401
 4096SOL    HW223751   2.102   2.570   4.984 -0.9489  0.6448 -1.6791
 4097SOL     OW23752   4.270   4.164  14.756 -0.2235  0.1306 -0.0111
 4097SOL    HW123753   4.243   4.199  14.841 -0.1323 -3.1516  1.4068
 4097SOL    HW223754   4.343   4.213  14.718  0.1639  0.6300  1.3994
 4098SOL     OW23755   3.947   1.582   1.690 -0.1560 -0.5043 -0.2690
 4098SOL    HW123756   3.999   1.586   1.770 -0.6582  0.3572  0.0124
 4098SOL    HW223757   3.857   1.594   1.721 -0.2936 -0.2381 -0.7683
 4099SOL     OW23758   0.801   2.929   6.741  0.1473  0.0044  0.1323
 4099SOL    HW123759   0.834   3.015   6.718 -1.2527  0.7524  0.8990
 4099SOL    HW223760   0.735   2.951   6.807 -2.8470  1.2824 -3.2343
 4100SOL     OW23761   4.133   1.890  15.382  0.4898  0.0534  0.3353
 4100SOL    HW123762   4.156   1.804  15.417 -2.5031 -0.3934  1.2159
 4100SOL    HW223763   4.041   1.885  15.355  0.2326 -1.7134  1.5558
 4101SOL     OW23764   1.648   4.190  11.917 -0.4748  0.8648  0.3293
 4101SOL    HW123765   1.727   4.204  11.969 -0.2868 -2.3841  0.9132
 4101SOL    HW223766   1.676   4.189  11.826  0.4268 -0.9935  0.6230
 4102SOL     OW23767   2.440   1.626  13.530  0.3058  0.0753  0.8662
 4102SOL    HW123768   2.498   1.696  13.559  1.2818 -0.6598  0.7046
 4102SOL    HW223769   2.429   1.587  13.617 -0.1914  0.3438  0.9201
 4103SOL     OW23770   1.492   0.046   1.379  0.2057  0.7105 -0.5420
 4103SOL    HW123771   1.441   0.032   1.299  0.2857  0.7140 -0.5944
 4103SOL    HW223772   1.489   4.670   1.402  2.9891  0.2043 -2.1871
 4104SOL     OW23773   3.033   2.988   6.192  0.6454 -0.2679  0.2063
 4104SOL    HW123774   3.116   2.944   6.208  0.3699 -1.3075 -1.2244
 4104SOL    HW223775   2.980   2.937   6.254  1.4582  1.8430  2.6156
 4105SOL     OW23776   1.936   3.309   3.901  0.0399  0.4662  0.0984
 4105SOL    HW123777   2.025   3.345   3.892 -0.0208  0.6811  0.3626
 4105SOL    HW223778   1.885   3.353   3.834  0.5148 -1.4590 -1.5222
 4106SOL     OW23779   2.548   1.150   6.614  0.2722 -0.8373  0.1788
 4106SOL    HW123780   2.479   1.214   6.629  1.6992  0.6510  0.5000
 4106SOL    HW223781   2.619   1.200   6.656  0.2667 -1.6232  1.1226
 4107SOL     OW23782   1.406   1.320  14.879  0.0228  0.4218 -0.8367
 4107SOL    HW123783   1.313   1.304  14.866 -0.7119  3.1796  1.1509
 4107SOL    HW223784   1.449   1.282  14.803  2.1154  0.0298  0.5235
 4108SOL     OW23785   4.075   1.310   0.630  0.2066  0.4704  0.5942
 4108SOL    HW123786   4.090   1.238   0.568 -1.5246  0.4272  0.2185
 4108SOL    HW223787   3.993   1.286   0.675  0.0975 -1.1721 -0.4771
 4109SOL     OW23788   1.870   2.375   0.464 -0.0206  0.1520  0.0192
 4109SOL    HW123789   1.933   2.359   0.394  0.4465  1.6552  0.1047
 4109SOL    HW223790   1.793   2.334   0.424 -0.3648  0.9578 -0.1294
 4110SOL     OW23791   1.004   3.897   4.741  0.0985 -0.2787 -0.0584
 4110SOL    HW123792   1.066   3.932   4.805 -1.1876  0.4203  0.7788
 4110SOL    HW223793   0.980   3.981   4.702 -0.4316  0.7501  2.4966
 4111SOL     OW23794   4.174   3.655   7.346 -0.7696 -0.4511  0.1262
 4111SOL    HW123795   4.251   3.604   7.368  0.9730  1.7458 -0.8981
 4111SOL    HW223796   4.105   3.605   7.390 -1.4153  0.7167  0.4334
 4112SOL     OW23797   2.519   2.463  16.035  0.0620 -0.1547 -0.5152
 4112SOL    HW123798   2.561   2.517  16.102 -1.6634 -1.6106  1.7472
 4112SOL    HW223799   2.445   2.518  16.010 -0.9351 -1.4544 -0.4275
 4113SOL     OW23800   3.280   3.719   6.375 -0.1475 -0.4422  0.4726
 4113SOL    HW123801   3.190   3.697   6.349 -0.7785  1.6490  0.9359
 4113SOL    HW223802   3.258   3.777   6.448 -0.7275 -0.4164  0.2772
 4114SOL     OW23803   1.159   3.907  10.884 -0.6647  0.0108 -0.6300
 4114SOL    HW123804   1.125   3.983  10.932  0.5710  0.5092 -0.5558
 4114SOL    HW223805   1.240   3.887  10.932 -1.4277  2.7531  1.8080
 4115SOL     OW23806   2.786   1.751   8.948 -0.8349  0.1710 -0.1629
 4115SOL    HW123807   2.784   1.753   8.852  1.7315  1.1744 -0.2082
 4115SOL    HW223808   2.700   1.712   8.958 -1.4968  1.8445  0.6133
 4116SOL     OW23809   1.746   3.693   1.087  0.1917 -0.2951  0.3105
 4116SOL    HW123810   1.656   3.720   1.067 -0.3918 -2.7397 -0.4173
 4116SOL    HW223811   1.792   3.709   1.005  0.0590  1.8484  0.6472
 4117SOL     OW23812   0.031   1.374   3.052 -0.1168 -0.2127  0.3965
 4117SOL    HW123813   0.004   1.313   3.121 -2.4625  1.6098  1.1066
 4117SOL    HW223814   0.057   1.447   3.108 -0.1852 -2.6369  3.5260
 4118SOL     OW23815   3.644   3.019   7.926 -0.1578 -0.4665  0.5819
 4118SOL    HW123816   3.602   2.935   7.945 -1.2846 -0.6137 -2.5232
 4118SOL    HW223817   3.736   2.995   7.916 -0.4610 -1.7793  0.9411
 4119SOL     OW23818   1.905   4.109   6.800  0.4973  0.0628 -0.2832
 4119SOL    HW123819   1.991   4.152   6.793  1.6495 -2.0294  1.1424
 4119SOL    HW223820   1.861   4.173   6.856  1.3617 -0.2067  0.7109
 4120SOL     OW23821   1.234   1.979   2.275 -0.4572 -0.2083 -0.1934
 4120SOL    HW123822   1.188   2.011   2.198 -2.2145 -0.3942  0.7745
 4120SOL    HW223823   1.286   1.906   2.242 -2.4402 -1.1758 -1.1691
 4121SOL     OW23824   4.407   3.739   2.869 -0.2163  0.2746 -0.5027
 4121SOL    HW123825   4.465   3.810   2.839 -1.1562  1.5625  0.7106
 4121SOL    HW223826   4.405   3.679   2.795 -1.4105 -2.7330  2.0033
 4122SOL     OW23827   1.370   0.862   4.834 -0.3373 -0.4228  0.1517
 4122SOL    HW123828   1.425   0.818   4.769 -2.4785 -1.6428 -0.8361
 4122SOL    HW223829   1.426   0.852   4.911  1.5699  0.2757 -1.1245
 4123SOL     OW23830   1.461   0.683   5.984  0.3178 -0.0276  0.2463
 4123SOL    HW123831   1.402   0.642   6.047 -2.7489  0.2560 -2.4182
 4123SOL    HW223832   1.533   0.704   6.043 -1.1171 -1.1541  2.3944
 4124SOL     OW23833   1.818   0.914   5.081  0.1367 -0.1267  0.1593
 4124SOL    HW123834   1.873   0.850   5.127  1.2078  0.3978 -0.4013
 4124SOL    HW223835   1.821   0.886   4.989 -0.8123 -1.8600  0.6723
 4125SOL     OW23836   0.725   2.027  17.441  0.2746  0.0595 -0.1940
 4125SOL    HW123837   0.783   2.102  17.455 -1.2154  0.6281  2.9361
 4125SOL    HW223838   0.642   2.071  17.424 -0.3955 -0.7374  1.0745
 4126SOL     OW23839   2.424   2.197   6.637 -0.4411  0.1057  0.1579
 4126SOL    HW123840   2.359   2.237   6.578  1.4044 -0.1181 -2.0564
 4126SOL    HW223841   2.368   2.152   6.699 -0.2735  0.3692  0.4987
 4127SOL     OW23842   0.267   0.271   6.263  0.0804  0.0997  0.5892
 4127SOL    HW123843   0.261   0.351   6.314 -0.9120 -0.6246  1.6133
 4127SOL    HW223844   0.322   0.304   6.192 -1.7166  1.7658 -0.0066
 4128SOL     OW23845   2.732   0.354  17.183 -0.0745  0.3061  0.1753
 4128SOL    HW123846   2.686   0.421  17.234 -0.6316 -0.3055  0.4766
 4128SOL    HW223847   2.657   0.295  17.173 -1.0836  1.8920 -1.4531
 4129SOL     OW23848   1.013   2.967   4.533 -0.3555  0.1545  0.1513
 4129SOL    HW123849   1.066   2.901   4.579 -0.7119  1.1310  1.9542
 4129SOL    HW223850   0.932   2.921   4.512 -0.2808  0.0466  0.0944
 4130SOL     OW23851   4.706   2.645   7.813 -0.3751 -0.2537 -0.1027
 4130SOL    HW123852   4.624   2.690   7.793  0.3071  0.6013 -0.9700
 4130SOL    HW223853   4.704   2.635   7.909 -0.8534  0.3356 -0.0516
 4131SOL     OW23854   1.186   0.017   1.368  0.5716 -0.2938 -0.0918
 4131SOL    HW123855   1.167   0.109   1.348 -0.1489  0.1608  2.7451
 4131SOL    HW223856   1.156   4.703   1.453  2.1868  0.7133  0.8309
 4132SOL     OW23857   4.045   2.266   6.192  0.1128 -0.2623  0.1439
 4132SOL    HW123858   4.104   2.338   6.213  0.6612 -1.4409  2.6096
 4132SOL    HW223859   4.102   2.191   6.208 -3.0072 -2.9263 -1.4528
 4133SOL     OW23860   2.069   2.843  11.397 -0.4217 -0.3515 -0.1592
 4133SOL    HW123861   2.027   2.923  11.365  0.4414 -0.7927 -2.4351
 4133SOL    HW223862   2.104   2.871  11.481 -2.2201 -0.7666  0.7112
 4134SOL     OW23863   0.544   1.004   1.687  0.4510  0.3468  0.1004
 4134SOL    HW123864   0.548   1.009   1.783 -0.0070 -0.7611  0.1829
 4134SOL    HW223865   0.603   1.076   1.664 -1.4819  0.7613 -3.5629
 4135SOL     OW23866   4.019   3.701   3.724  0.3652 -0.0940  0.7429
 4135SOL    HW123867   3.925   3.696   3.739  0.3436 -0.3996  0.4738
 4135SOL    HW223868   4.019   3.663   3.637 -0.0307  0.5841  0.4446
 4136SOL     OW23869   0.253   1.022   2.717 -0.0068  0.2735 -0.1858
 4136SOL    HW123870   0.167   1.057   2.694 -0.6440 -0.9050  0.4032
 4136SOL    HW223871   0.259   1.051   2.807 -1.2274  2.3529 -0.7691
 4137SOL     OW23872   3.273   3.460   2.881  0.0449  0.0587 -0.0954
 4137SOL    HW123873   3.333   3.389   2.903 -0.0198  0.2151  0.5809
 4137SOL    HW223874   3.186   3.424   2.901  0.4263 -0.5230  0.5176
 4138SOL     OW23875   2.135   2.825  12.336  0.4462 -0.8450  0.4457
 4138SOL    HW123876   2.112   2.782  12.419 -0.6618 -0.4981  0.3211
 4138SOL    HW223877   2.218   2.779  12.325 -0.8499 -2.6710 -1.7731
 4139SOL     OW23878   4.454   0.132   9.221 -0.0525 -0.2945 -0.4171
 4139SOL    HW123879   4.446   0.100   9.131  2.5942 -2.8394  0.2620
 4139SOL    HW223880   4.538   0.177   9.228 -1.2399  2.3014 -2.5543
 4140SOL     OW23881   1.488   3.421   7.319  0.0763  0.0472  0.1538
 4140SOL    HW123882   1.423   3.362   7.359  1.5506 -1.4155  0.3690
 4140SOL    HW223883   1.443   3.456   7.242 -1.2381 -1.1773  0.3742
 4141SOL     OW23884   3.510   4.686   2.344 -0.2378  0.1405  0.0288
 4141SOL    HW123885   3.498   4.700   2.438  1.0764 -0.9031  0.3591
 4141SOL    HW223886   3.590   0.020   2.329 -0.1282 -0.0215  0.0715
 4142SOL     OW23887   4.284   4.379   6.980  0.4134 -0.3400 -0.4695
 4142SOL    HW123888   4.336   4.310   6.939  1.6838  1.4545 -1.8667
 4142SOL    HW223889   4.224   4.393   6.907 -0.8907  0.0434  0.6857
 4143SOL     OW23890   3.816   1.838  13.285 -0.0096 -0.3924 -0.0728
 4143SOL    HW123891   3.845   1.916  13.237 -0.9021  1.7810  2.8907
 4143SOL    HW223892   3.820   1.767  13.221  0.9862  0.9542 -1.5140
 4144SOL     OW23893   0.659   2.463   1.259 -0.1630 -0.0632  0.1243
 4144SOL    HW123894   0.623   2.402   1.195 -4.9569  0.8995  1.8729
 4144SOL    HW223895   0.738   2.492   1.213 -0.2089 -1.0340 -0.5620
 4145SOL     OW23896   2.108   2.912   5.923 -0.7368  0.2812 -0.2175
 4145SOL    HW123897   2.160   2.856   5.865 -1.7621  0.6424 -1.4829
 4145SOL    HW223898   2.180   2.945   5.976 -0.4523  1.5404 -1.4180
 4146SOL     OW23899   2.003   0.511   3.422  0.1198 -0.4605 -0.0676
 4146SOL    HW123900   2.049   0.512   3.339 -1.6278 -1.3317 -1.0496
 4146SOL    HW223901   2.078   0.540   3.473 -1.2728  3.9296 -0.4862
 4147SOL     OW23902   4.253   2.366   4.434 -0.3214  0.1715  0.0691
 4147SOL    HW123903   4.290   2.318   4.508  0.0479  0.0332 -0.2077
 4147SOL    HW223904   4.180   2.311   4.406  0.4402 -1.1819  0.7742
 4148SOL     OW23905   4.311   0.177  10.749  0.2215 -0.7270 -0.5588
 4148SOL    HW123906   4.378   0.142  10.806 -0.3767 -0.5810  0.2360
 4148SOL    HW223907   4.265   0.098  10.720  2.2616 -1.8713 -0.6458
 4149SOL     OW23908   2.294   2.033   6.845 -0.2533 -0.0476 -0.2487
 4149SOL    HW123909   2.268   1.975   6.916 -2.9571  2.9802  1.2442
 4149SOL    HW223910   2.229   2.103   6.849  0.6959  0.9007 -1.3603
 4150SOL     OW23911   1.631   3.599  10.699  0.4150 -0.4997 -0.4315
 4150SOL    HW123912   1.677   3.552  10.629  0.1919 -0.8835 -0.3222
 4150SOL    HW223913   1.626   3.689  10.666 -1.4672 -0.5569 -0.3397
 4151SOL     OW23914   2.006   1.076   3.258  0.3332  0.5044  0.6481
 4151SOL    HW123915   1.973   0.989   3.236  1.3765  0.8454 -2.3730
 4151SOL    HW223916   2.002   1.076   3.353 -0.2877 -2.0360  0.6263
 4152SOL     OW23917   4.259   4.264   6.299 -0.0936  0.6574 -0.0616
 4152SOL    HW123918   4.326   4.299   6.357  0.4893  0.0614 -0.3777
 4152SOL    HW223919   4.192   4.328   6.325  1.1285  1.8460  0.1640
 4153SOL     OW23920   2.640   1.744   1.827 -0.1320  0.1509  0.4199
 4153SOL    HW123921   2.565   1.730   1.884 -1.8131 -0.3429 -1.9060
 4153SOL    HW223922   2.617   1.831   1.795  1.8871  0.7436  0.5646
 4154SOL     OW23923   2.961   4.156  12.329 -0.6102 -0.6020 -0.6667
 4154SOL    HW123924   2.889   4.183  12.385 -0.1325  1.1883 -0.9324
 4154SOL    HW223925   2.929   4.195  12.248 -0.6228  1.1397  0.1951
 4155SOL     OW23926   1.615   1.524   3.490 -0.8457 -0.2422  0.0520
 4155SOL    HW123927   1.683   1.456   3.490  0.6014  1.1880  0.9080
 4155SOL    HW223928   1.599   1.536   3.396 -2.8435  0.2191  0.4542
 4156SOL     OW23929   4.610   2.993   1.345 -0.0537  0.3848  0.2439
 4156SOL    HW123930   4.660   2.919   1.381 -0.5195  0.6404  1.4391
 4156SOL    HW223931   4.552   2.941   1.289 -3.0949  4.0150  0.0726
 4157SOL     OW23932   2.013   0.140  14.409 -0.1127 -0.2874 -0.3989
 4157SOL    HW123933   1.948   0.156  14.341 -1.4873  1.4938  1.3237
 4157SOL    HW223934   1.968   0.082  14.470 -1.5446  0.6483 -0.5609
 4158SOL     OW23935   4.304   1.536  15.045  0.7045  0.2072 -0.1218
 4158SOL    HW123936   4.237   1.598  15.017  0.2976  0.5969  1.7074
 4158SOL    HW223937   4.257   1.455  15.066 -1.7559  2.0005  1.1789
 4159SOL     OW23938   3.539   1.969   8.426  0.2662  0.0851  0.4153
 4159SOL    HW123939   3.512   1.965   8.518  1.2333  1.9584  0.7931
 4159SOL    HW223940   3.484   2.044   8.404  0.3978  0.9075  2.8692
 4160SOL     OW23941   0.962   0.002   2.431  0.5265  0.8360 -0.2703
 4160SOL    HW123942   1.052   0.021   2.405  0.3707  0.4486 -1.0764
 4160SOL    HW223943   0.944   4.629   2.401 -2.4771  0.2113  3.3782
 4161SOL     OW23944   3.980   1.949   7.128 -0.0860 -0.5190 -0.1007
 4161SOL    HW123945   4.048   1.890   7.097 -1.5082 -1.1511 -1.9876
 4161SOL    HW223946   4.033   2.023   7.159 -0.2633 -0.4270 -0.0160
 4162SOL     OW23947   2.404   0.046   0.353 -0.1724 -0.4036  0.4479
 4162SOL    HW123948   2.376   0.114   0.414  1.8706  2.1544 -1.4405
 4162SOL    HW223949   2.500   0.048   0.356 -0.1700  0.4030 -0.4924
 4163SOL     OW23950   0.838   2.968   5.970  0.0642  0.4954  0.0687
 4163SOL    HW123951   0.836   2.958   6.066 -0.4823  1.2226  0.1333
 4163SOL    HW223952   0.875   2.885   5.942 -0.2566 -0.1274  1.4963
 4164SOL     OW23953   2.191   3.505  13.158  0.2301  0.3783 -0.3920
 4164SOL    HW123954   2.264   3.511  13.096  0.9955  0.6589  0.5372
 4164SOL    HW223955   2.132   3.540  13.091  0.3278  1.2032 -0.0349
 4165SOL     OW23956   1.995   1.419   6.653  0.6636  0.0630  0.5884
 4165SOL    HW123957   2.075   1.458   6.618 -0.1019  2.2582  1.3176
 4165SOL    HW223958   1.930   1.475   6.609  0.8068 -0.8551 -0.8016
 4166SOL     OW23959   1.460   4.603   3.750 -0.2084 -0.1036  0.5511
 4166SOL    HW123960   1.383   4.608   3.692  0.2013 -1.7820 -0.1571
 4166SOL    HW223961   1.415   4.612   3.834 -0.7566  0.9972  0.1427
 4167SOL     OW23962   1.564   4.589   0.949  0.0930  0.0004  0.0361
 4167SOL    HW123963   1.518   4.568   1.030  2.2400 -2.0757  0.7273
 4167SOL    HW223964   1.558   4.513   0.892  1.2267  0.3190 -0.5107
 4168SOL     OW23965   1.706   1.847  16.550  0.3798 -0.2319 -0.0590
 4168SOL    HW123966   1.687   1.790  16.475 -0.9117 -1.0773  0.9113
 4168SOL    HW223967   1.801   1.846  16.558  0.3301  2.1380  0.7311
 4169SOL     OW23968   4.624   3.574  17.369 -0.6275 -0.5156 -0.0076
 4169SOL    HW123969   4.627   3.556  17.276 -0.1444  0.5081 -0.1914
 4169SOL    HW223970   4.678   3.652  17.359 -0.6188 -0.1572  2.6288
 4170SOL     OW23971   0.899   1.569   7.172 -0.4395  0.2090 -0.3187
 4170SOL    HW123972   0.976   1.521   7.199 -1.9439 -1.4216  1.0432
 4170SOL    HW223973   0.859   1.577   7.259  2.3111  0.8625  0.8682
 4171SOL     OW23974   1.836   2.058  11.480  0.2536 -0.1908 -0.0721
 4171SOL    HW123975   1.826   1.963  11.487  1.3382 -0.4380 -1.8107
 4171SOL    HW223976   1.764   2.097  11.529  1.5895  1.1319  0.8359
 4172SOL     OW23977   3.412   3.031   4.180  0.1628 -0.1603 -0.4137
 4172SOL    HW123978   3.411   3.101   4.245 -2.7089 -0.5857 -0.0030
 4172SOL    HW223979   3.500   2.993   4.190  0.7479  1.6630  1.3968
 4173SOL     OW23980   1.040   1.214   2.206 -0.1773  0.4351  0.2301
 4173SOL    HW123981   1.000   1.151   2.145 -1.5561  0.7088  0.8579
 4173SOL    HW223982   1.106   1.253   2.149 -0.3269 -1.4740 -1.2783
 4174SOL     OW23983   0.569   1.875   2.735  0.0240 -0.0052 -0.4596
 4174SOL    HW123984   0.489   1.906   2.693 -0.3806  0.3444  0.5686
 4174SOL    HW223985   0.639   1.928   2.696  0.4816  0.8475  1.4992
 4175SOL     OW23986   1.615   0.526   6.325 -0.0967  0.0159 -0.4800
 4175SOL    HW123987   1.677   0.483   6.265  0.4766  0.4084 -0.1692
 4175SOL    HW223988   1.594   0.611   6.287  0.7030 -0.1457 -1.2938
 4176SOL     OW23989   4.576   3.342   6.251 -0.4483  0.5513 -1.0285
 4176SOL    HW123990   4.599   3.300   6.168 -0.6331 -1.4638 -0.0354
 4176SOL    HW223991   4.610   3.275   6.310 -1.1609 -0.3124 -1.6076
 4177SOL     OW23992   0.686   1.455  13.109  0.5525 -0.2376 -0.0703
 4177SOL    HW123993   0.770   1.501  13.109  0.4132  0.0160  0.0427
 4177SOL    HW223994   0.642   1.498  13.036  1.4171 -0.9761 -1.0396
 4178SOL     OW23995   2.846   1.048   7.355 -0.1751  0.0564  0.6123
 4178SOL    HW123996   2.818   1.025   7.443  0.8991 -1.8028  0.4798
 4178SOL    HW223997   2.807   1.135   7.348 -0.4241  0.1323  3.1671
 4179SOL     OW23998   4.203   0.222   3.347  0.3519 -0.3045  0.5288
 4179SOL    HW123999   4.216   0.291   3.282 -0.8595 -0.3869  0.1905
 4179SOL    HW224000   4.112   0.243   3.368 -0.2567 -1.4868 -0.8970
 4180SOL     OW24001   1.012   0.063  17.072 -0.4482 -0.4013  0.1707
 4180SOL    HW124002   0.998   4.686  17.063 -1.4489 -0.1885 -0.4350
 4180SOL    HW224003   1.095   0.058  17.120 -0.2502 -0.3507 -0.1643
 4181SOL     OW24004   0.141   3.364   6.878  0.1859  0.1498 -0.2570
 4181SOL    HW124005   0.080   3.301   6.916  1.0868 -0.0170  0.9384
 4181SOL    HW224006   0.102   3.370   6.791  2.5364  0.1967 -1.2944
 4182SOL     OW24007   3.611   1.578   3.171  0.2611 -0.0186  0.3699
 4182SOL    HW124008   3.605   1.508   3.235  3.7923  0.5567  1.3220
 4182SOL    HW224009   3.648   1.649   3.224 -2.8234  0.6435  1.6324
 4183SOL     OW24010   1.109   0.962   4.916 -0.3023 -0.1296  0.6662
 4183SOL    HW124011   1.148   0.996   4.996 -0.7273 -1.3662  1.4017
 4183SOL    HW224012   1.191   0.927   4.881 -1.2798 -1.1893 -0.5704
 4184SOL     OW24013   2.339   4.611  14.912 -0.2373  0.3216 -0.8408
 4184SOL    HW124014   2.350   4.517  14.926  0.3422  0.5717  0.4406
 4184SOL    HW224015   2.275   4.625  14.982  1.0247  0.4740  0.2842
 4185SOL     OW24016   0.764   2.733  12.250  0.1619  0.7410 -0.6738
 4185SOL    HW124017   0.716   2.651  12.236 -2.1729  1.5813  2.2520
 4185SOL    HW224018   0.697   2.791  12.287  3.0029  1.4821  3.2823
 4186SOL     OW24019   4.395   0.278   5.143  0.2776  0.0325  0.0892
 4186SOL    HW124020   4.335   0.344   5.179 -1.2150 -0.9951 -0.5504
 4186SOL    HW224021   4.341   0.240   5.075 -0.2638  0.5578  0.2270
 4187SOL     OW24022   2.473   3.148  15.899  0.1151 -0.7310  0.2846
 4187SOL    HW124023   2.392   3.198  15.893 -0.3581 -1.5550 -0.2691
 4187SOL    HW224024   2.514   3.144  15.813  0.1618  1.6682  0.2066
 4188SOL     OW24025   0.534   2.347  11.036 -0.0030  0.3461 -0.7199
 4188SOL    HW124026   0.465   2.362  10.971 -3.1761 -1.5419  2.2409
 4188SOL    HW224027   0.606   2.326  10.976 -0.2764  2.1785 -1.6730
 4189SOL     OW24028   4.214   0.499   3.533  0.5871 -0.4051 -0.1791
 4189SOL    HW124029   4.300   0.487   3.572 -0.3702  1.0640  2.3725
 4189SOL    HW224030   4.226   0.490   3.438  0.0794  0.8772 -0.3732
 4190SOL     OW24031   3.270   0.283   7.319 -0.3436 -0.1274  0.3092
 4190SOL    HW124032   3.194   0.302   7.264  0.4141  0.9104 -0.3746
 4190SOL    HW224033   3.292   0.201   7.275 -3.2711  0.4882 -2.3104
 4191SOL     OW24034   0.361   0.457   4.872 -0.5320  0.1872 -0.2108
 4191SOL    HW124035   0.388   0.366   4.869  2.9223  1.1089  2.7282
 4191SOL    HW224036   0.449   0.493   4.880 -0.7238  0.3544  1.0591
 4192SOL     OW24037   3.001   4.625   1.120  0.2288  0.0348  0.2246
 4192SOL    HW124038   2.923   4.624   1.175  1.0851 -0.7339  1.4343
 4192SOL    HW224039   2.986   4.544   1.072 -1.7435  0.5607 -0.0264
 4193SOL     OW24040   1.663   1.016   9.712  0.0130 -0.2994 -0.0435
 4193SOL    HW124041   1.689   1.075   9.782  0.9358 -0.6946 -0.0567
 4193SOL    HW224042   1.592   0.964   9.749 -0.2840 -0.1762 -0.4360
 4194SOL     OW24043   1.999   3.145  17.652 -0.1132  0.5574  0.1020
 4194SOL    HW124044   2.091   3.123  17.637 -0.4759  0.8828 -2.5614
 4194SOL    HW224045   1.999   3.110   0.071  0.8221 -1.1485 -0.5747
 4195SOL     OW24046   3.459   4.628   8.223  0.4826 -0.2451  0.7338
 4195SOL    HW124047   3.519   4.702   8.225 -0.2745  0.3872  0.2578
 4195SOL    HW224048   3.419   4.618   8.310 -1.9337  0.3010 -0.3028
 4196SOL     OW24049   0.296   4.369   8.687  0.2785 -0.3199  0.5938
 4196SOL    HW124050   0.266   4.371   8.778 -0.8948 -2.7605  0.2654
 4196SOL    HW224051   0.272   4.457   8.658 -1.7191  0.2379  3.9796
 4197SOL     OW24052   3.468   3.093  12.658  0.6314 -0.8226  0.5396
 4197SOL    HW124053   3.476   3.184  12.628  1.7967 -1.1706 -0.2368
 4197SOL    HW224054   3.428   3.052  12.581  1.0024 -2.5284  1.2474
 4198SOL     OW24055   0.963   4.384   3.934 -0.3460  0.0217  0.2072
 4198SOL    HW124056   0.958   4.350   3.845 -0.1222 -2.1113  1.0156
 4198SOL    HW224057   0.888   4.351   3.983 -1.7599  1.5431 -0.9203
 4199SOL     OW24058   3.420   1.776   5.895 -0.2051  0.5102 -0.2936
 4199SOL    HW124059   3.330   1.779   5.863 -0.6118  2.5964  1.0190
 4199SOL    HW224060   3.395   1.806   5.982 -2.0246 -1.1651 -0.2522
 4200SOL     OW24061   2.524   0.435  17.393  0.2681 -0.0850 -0.2234
 4200SOL    HW124062   2.440   0.449  17.436  1.1183  1.3644  0.9365
 4200SOL    HW224063   2.523   0.507  17.329  0.1204 -0.0852 -0.2206
 4201SOL     OW24064   0.562   1.439  16.626  0.0743 -0.0947 -0.3806
 4201SOL    HW124065   0.550   1.435  16.531  3.6758 -1.7025 -0.7992
 4201SOL    HW224066   0.515   1.360  16.653  1.1912 -1.1510 -1.4506
 4202SOL     OW24067   2.510   4.666  17.530  0.1527 -0.1444 -0.5119
 4202SOL    HW124068   2.468   4.661  17.444 -3.5406 -0.0117  1.2875
 4202SOL    HW224069   2.507   0.045  17.538  1.2997 -0.1045 -0.5041
 4203SOL     OW24070   1.411   4.112   5.012  0.5803 -0.1604 -0.3885
 4203SOL    HW124071   1.435   4.029   5.055 -0.6943 -1.2064 -1.7067
 4203SOL    HW224072   1.496   4.143   4.982  0.2441  0.8398 -0.3092
 4204SOL     OW24073   4.338   2.933   5.705 -0.2519  0.5541 -0.3168
 4204SOL    HW124074   4.424   2.892   5.705 -0.2101  0.6184 -1.5733
 4204SOL    HW224075   4.277   2.866   5.672  1.6144 -1.5869  0.6575
 4205SOL     OW24076   3.461   0.396   9.142 -0.6163  0.0232  0.1630
 4205SOL    HW124077   3.417   0.480   9.130 -0.2171  0.5674  2.4555
 4205SOL    HW224078   3.426   0.343   9.071  2.8786  0.1942 -1.7150
 4206SOL     OW24079   0.185   3.409   3.498 -0.4963  0.2272  0.4687
 4206SOL    HW124080   0.193   3.371   3.411 -1.5464 -3.1471  1.8297
 4206SOL    HW224081   0.092   3.434   3.495  0.4004  3.4504 -0.4121
 4207SOL     OW24082   1.710   1.717   1.088  0.1247 -0.5092 -0.1440
 4207SOL    HW124083   1.752   1.803   1.079  1.9527 -1.3306  0.5203
 4207SOL    HW224084   1.644   1.741   1.154 -0.6306 -0.6843 -0.8336
 4208SOL     OW24085   4.404   2.541  12.952 -0.4020 -0.5922 -0.2364
 4208SOL    HW124086   4.377   2.571  12.865 -1.2716  0.5027  0.4127
 4208SOL    HW224087   4.417   2.447  12.937 -3.4478 -1.0309 -0.2411
 4209SOL     OW24088   2.077   3.376   6.240 -0.3621 -0.1333  0.2646
 4209SOL    HW124089   2.122   3.314   6.183  0.3627 -0.1485  0.8514
 4209SOL    HW224090   2.026   3.319   6.297 -1.8958 -0.0885 -1.0762
 4210SOL     OW24091   2.536   1.594   9.186  0.6671  0.3647  0.1877
 4210SOL    HW124092   2.522   1.536   9.261  0.2455  1.0208  0.6243
 4210SOL    HW224093   2.538   1.679   9.231  0.2802  0.7282 -0.4923
 4211SOL     OW24094   1.975   0.920   6.510 -0.2230  0.1221  0.1833
 4211SOL    HW124095   2.064   0.947   6.534  0.1382 -2.3779  1.6700
 4211SOL    HW224096   1.925   0.995   6.542 -0.5453 -0.1610  0.3438
 4212SOL     OW24097   2.646   2.231   2.890 -0.2609 -0.1193 -0.0519
 4212SOL    HW124098   2.724   2.192   2.929  0.5933 -0.1650 -1.8325
 4212SOL    HW224099   2.620   2.153   2.840  2.8964 -0.8132 -0.5990
 4213SOL     OW24100   4.260   2.185   8.857  0.2811  0.1851  0.5917
 4213SOL    HW124101   4.218   2.224   8.780 -0.2299 -0.1658  0.6957
 4213SOL    HW224102   4.189   2.150   8.910 -0.9648  1.8576  0.0078
 4214SOL     OW24103   3.189   4.692   4.183 -0.0531  1.3054  0.4387
 4214SOL    HW124104   3.268   4.649   4.150 -1.2214 -0.0244 -0.6424
 4214SOL    HW224105   3.228   0.045   4.236  3.1165 -1.3720  1.6172
 4215SOL     OW24106   1.891   0.163   7.414 -0.2352  0.5417  0.2705
 4215SOL    HW124107   1.808   0.143   7.456 -1.1095  1.4088 -1.0479
 4215SOL    HW224108   1.915   0.081   7.371 -0.5188  0.8701 -0.5056
 4216SOL     OW24109   1.686   2.091   6.543 -0.8384  0.1309  0.8607
 4216SOL    HW124110   1.722   2.015   6.589  1.1383  0.3837 -0.2839
 4216SOL    HW224111   1.703   2.077   6.450 -1.7434 -1.7928  0.9815
 4217SOL     OW24112   2.650   3.077   8.517  0.4417  0.1075 -0.6518
 4217SOL    HW124113   2.729   3.129   8.528  0.3586 -0.2864  1.7836
 4217SOL    HW224114   2.681   3.009   8.458 -0.4593 -0.5938 -0.3285
 4218SOL     OW24115   3.124   3.056   2.859 -0.1823 -0.0150 -0.6548
 4218SOL    HW124116   3.101   3.143   2.825  0.1016 -0.4569 -1.9747
 4218SOL    HW224117   3.219   3.053   2.865 -0.3091 -1.5594  0.4492
 4219SOL     OW24118   3.421   4.336   0.701 -0.4301 -0.2112 -0.0204
 4219SOL    HW124119   3.435   4.250   0.741  0.1469 -0.5457 -0.9403
 4219SOL    HW224120   3.380   4.313   0.618 -0.6520 -0.5481  0.1854
 4220SOL     OW24121   3.866   4.669   5.720 -0.6949 -0.9694  0.2006
 4220SOL    HW124122   3.960   4.650   5.723 -0.6322 -0.5045  1.1058
 4220SOL    HW224123   3.829   4.585   5.748 -1.9043  0.1109  1.8877
 4221SOL     OW24124   0.097   2.354  12.861 -0.0596  0.0986  0.1865
 4221SOL    HW124125   0.009   2.391  12.848 -0.3021  0.5132  2.9985
 4221SOL    HW224126   0.151   2.411  12.807  0.6413 -2.1639 -1.4849
 4222SOL     OW24127   3.199   2.388  15.959  0.8192 -0.3003 -0.2825
 4222SOL    HW124128   3.109   2.401  15.990  0.9640 -0.2056  0.1067
 4222SOL    HW224129   3.245   2.453  16.012 -1.8859  1.7627 -0.4370
 4223SOL     OW24130   0.367   0.686  11.153 -0.1059 -0.2834 -0.4159
 4223SOL    HW124131   0.456   0.680  11.117 -0.5036  3.6606 -2.0330
 4223SOL    HW224132   0.382   0.732  11.235  0.1675  0.0588 -0.6598
 4224SOL     OW24133   4.087   0.798  12.407  0.3764 -0.1308 -0.2103
 4224SOL    HW124134   4.174   0.839  12.404 -0.2128  1.2533  1.6632
 4224SOL    HW224135   4.063   0.823  12.496  1.5291 -0.6634  0.2474
 4225SOL     OW24136   1.064   4.564   6.356 -0.2536  0.0637 -0.2994
 4225SOL    HW124137   1.015   4.482   6.348 -0.1984  0.1133 -1.1619
 4225SOL    HW224138   1.143   4.520   6.326  0.2296  1.3614 -0.9131
 4226SOL     OW24139   1.638   4.484   3.284  0.1000  0.5221  0.5864
 4226SOL    HW124140   1.642   4.393   3.257 -2.4838  0.2083  1.2812
 4226SOL    HW224141   1.628   4.480   3.379  1.1565  4.1946  0.8733
 4227SOL     OW24142   4.377   4.369   7.319  0.1452 -0.2082  0.5455
 4227SOL    HW124143   4.401   4.461   7.307  1.5012 -0.9181 -2.2304
 4227SOL    HW224144   4.312   4.366   7.249  0.0861 -0.7994  0.6223
 4228SOL     OW24145   0.723   3.065   8.638 -0.1172  0.3570  0.0335
 4228SOL    HW124146   0.769   3.143   8.608 -1.0649  0.6998 -0.5176
 4228SOL    HW224147   0.643   3.070   8.586  0.8061  1.4207 -1.2820
 4229SOL     OW24148   0.834   1.886  13.170 -0.0937 -0.4223  0.4045
 4229SOL    HW124149   0.900   1.893  13.239  0.7078  0.0090 -0.3992
 4229SOL    HW224150   0.882   1.933  13.101 -0.2801  0.0662  0.6088
 4230SOL     OW24151   3.039   4.037  12.030  0.7738 -0.3989  0.3914
 4230SOL    HW124152   2.988   4.094  12.087  3.0846  1.9626  0.0925
 4230SOL    HW224153   2.996   3.952  12.040  0.5375 -0.1940  1.1459
 4231SOL     OW24154   0.156   1.935   9.490 -0.4228  0.5876  0.0635
 4231SOL    HW124155   0.110   1.885   9.422 -0.6105  0.1801  0.4923
 4231SOL    HW224156   0.187   2.011   9.440 -2.3127  0.8221 -0.7370
 4232SOL     OW24157   3.232   4.160   4.554 -0.1471 -0.3556 -0.4142
 4232SOL    HW124158   3.178   4.159   4.475  0.7115 -2.4991 -1.0039
 4232SOL    HW224159   3.202   4.078   4.594  1.4509  0.2635  2.0610
 4233SOL     OW24160   3.501   3.281   3.690  0.4609  0.1422  0.3374
 4233SOL    HW124161   3.552   3.202   3.704 -0.4749 -0.9117 -2.2847
 4233SOL    HW224162   3.570   3.347   3.684  0.3884  0.1887  0.0016
 4234SOL     OW24163   1.782   4.250  12.254  0.1948 -0.4797 -0.8049
 4234SOL    HW124164   1.872   4.281  12.261  0.5426 -1.7006  0.1943
 4234SOL    HW224165   1.781   4.226  12.162  0.6220  0.2220 -0.9946
 4235SOL     OW24166   0.143   3.077   5.930 -0.4448 -0.3594 -0.3003
 4235SOL    HW124167   0.215   3.056   5.990 -0.4999  1.0654  0.2568
 4235SOL    HW224168   0.128   2.995   5.882 -0.9513 -0.2085 -0.3953
 4236SOL     OW24169   2.360   4.405   4.407 -0.1941  0.4763  0.6196
 4236SOL    HW124170   2.355   4.329   4.349 -0.3436  1.8598 -1.1596
 4236SOL    HW224171   2.339   4.475   4.346  0.3664 -1.0715 -1.3369
 4237SOL     OW24172   4.219   0.188   3.968  0.0932 -0.4052  0.2413
 4237SOL    HW124173   4.266   0.256   4.016  0.2310 -0.4038  0.1067
 4237SOL    HW224174   4.135   0.232   3.971 -0.3610 -1.2740  0.2442
 4238SOL     OW24175   1.062   1.761   6.155  0.0821 -0.2043 -0.4675
 4238SOL    HW124176   0.986   1.796   6.202 -0.2997 -0.6049 -0.7865
 4238SOL    HW224177   1.115   1.728   6.228 -0.6853 -1.2195 -0.3672
 4239SOL     OW24178   0.157   0.244   5.642  0.0400  0.3413  0.0578
 4239SOL    HW124179   0.143   0.339   5.646 -2.2257  0.1212 -2.1178
 4239SOL    HW224180   0.063   0.227   5.649  0.1463 -0.8465 -1.4464
 4240SOL     OW24181   3.543   0.211   3.033  0.5228  0.6730 -0.4920
 4240SOL    HW124182   3.483   0.200   2.959  2.0422 -2.0956 -1.3620
 4240SOL    HW224183   3.566   0.119   3.048 -2.3406 -0.0309 -0.4416
 4241SOL     OW24184   1.409   1.928   6.776 -0.1084  0.4067  0.6157
 4241SOL    HW124185   1.347   1.859   6.752 -0.1561  0.5974  0.1937
 4241SOL    HW224186   1.390   1.933   6.870  1.7920 -1.8053  1.1335
 4242SOL     OW24187   1.510   3.365   8.955 -0.1835 -0.0845 -0.1937
 4242SOL    HW124188   1.545   3.320   8.878 -0.8034 -0.9114  0.0044
 4242SOL    HW224189   1.537   3.304   9.023 -2.2992  0.0128  0.7341
 4243SOL     OW24190   2.797   1.269   6.689 -0.3143  0.0499  0.0237
 4243SOL    HW124191   2.844   1.259   6.606 -0.1769 -2.5743  0.4046
 4243SOL    HW224192   2.789   1.363   6.707  0.8813  0.3749 -1.1813
 4244SOL     OW24193   0.877   2.047   2.116 -0.3856  0.4877  0.6454
 4244SOL    HW124194   0.905   2.048   2.208  3.2475  2.5118 -0.4836
 4244SOL    HW224195   0.960   2.018   2.079 -1.1311 -2.0586  0.9885
 4245SOL     OW24196   0.055   0.671   4.114  0.2599 -0.0383  0.0060
 4245SOL    HW124197   0.135   0.713   4.147 -1.6086  3.1591  0.3932
 4245SOL    HW224198   0.090   0.606   4.053 -1.9534 -0.9980 -0.2184
 4246SOL     OW24199   2.151   4.671  17.460 -0.0799 -0.0298  0.4145
 4246SOL    HW124200   2.154   0.047  17.482 -1.6656 -0.1425  1.1374
 4246SOL    HW224201   2.180   4.621  17.537  1.7162 -0.0780 -0.2933
 4247SOL     OW24202   0.127   2.542   5.915 -0.8655 -0.4142 -0.1294
 4247SOL    HW124203   0.175   2.470   5.955 -1.9794 -1.1994 -0.2162
 4247SOL    HW224204   0.162   2.551   5.827 -1.8657  1.3513 -0.3434
 4248SOL     OW24205   0.786   0.220   4.383 -0.5285  0.3334  0.5475
 4248SOL    HW124206   0.718   0.262   4.436 -0.4386 -0.0349  0.9613
 4248SOL    HW224207   0.734   0.143   4.357  0.6735 -0.4956  0.5895
 4249SOL     OW24208   3.024   4.242  14.866 -0.7840  0.2757  0.2853
 4249SOL    HW124209   3.116   4.255  14.891 -0.1763 -4.1236  0.3430
 4249SOL    HW224210   3.025   4.180  14.793  1.5478  1.4255 -0.6739
 4250SOL     OW24211   2.857   1.296  10.476  0.2954 -0.1073 -0.2290
 4250SOL    HW124212   2.763   1.309  10.489  0.3936 -0.0895  0.4481
 4250SOL    HW224213   2.884   1.311  10.567 -2.1132 -1.6167  0.7258
 4251SOL     OW24214   1.718   3.503  12.511  0.4716  0.0620 -0.5515
 4251SOL    HW124215   1.810   3.510  12.485  0.5096  2.3770  0.2392
 4251SOL    HW224216   1.728   3.433  12.575  2.6577  0.8684 -0.0232
 4252SOL     OW24217   2.596   1.869   7.555  0.5668 -0.1792  0.7506
 4252SOL    HW124218   2.615   1.775   7.546 -0.3022 -0.7440  4.4914
 4252SOL    HW224219   2.629   1.876   7.645  0.9536  0.5316  0.5478
 4253SOL     OW24220   4.326   0.672   8.645  0.3992 -0.4239 -0.4305
 4253SOL    HW124221   4.362   0.692   8.559 -1.1400  2.3944 -0.4169
 4253SOL    HW224222   4.397   0.705   8.701  0.4171 -0.4766 -0.4212
 4254SOL     OW24223   0.978   0.361   4.608  0.0284  0.1735 -0.1373
 4254SOL    HW124224   0.948   0.377   4.519 -0.0421 -1.4176 -0.3885
 4254SOL    HW224225   0.973   0.453   4.635  0.8684  0.4995 -1.1178
 4255SOL     OW24226   4.064   0.423   7.520  0.1420  0.4914  0.3289
 4255SOL    HW124227   3.972   0.398   7.504  0.3988  0.0165 -0.4222
 4255SOL    HW224228   4.048   0.509   7.557 -1.3695  0.0331  0.7466
 4256SOL     OW24229   3.380   3.600  16.560  0.2677  0.1342  0.1388
 4256SOL    HW124230   3.285   3.601  16.561  0.2579 -2.7773  1.5720
 4256SOL    HW224231   3.402   3.669  16.497 -0.7738 -1.1213 -1.6233
 4257SOL     OW24232   2.583   0.873   2.660 -0.2850 -0.1766 -0.0350
 4257SOL    HW124233   2.536   0.793   2.640 -0.3523 -0.1097 -0.1444
 4257SOL    HW224234   2.657   0.841   2.712 -0.0124 -0.0527 -0.3493
 4258SOL     OW24235   3.340   1.903   2.775 -0.2544 -0.0399 -0.4977
 4258SOL    HW124236   3.274   1.848   2.734 -0.8572  0.6386 -0.4476
 4258SOL    HW224237   3.397   1.930   2.704 -0.1818  0.5597 -0.2122
 4259SOL     OW24238   4.498   3.014   9.095  0.1449 -0.7058  0.0459
 4259SOL    HW124239   4.411   2.974   9.086 -1.1624  2.1929 -0.2951
 4259SOL    HW224240   4.549   2.954   9.041 -1.4545 -3.2745  1.3949
 4260SOL     OW24241   0.378   3.754  10.892  0.0916  0.1460  0.8650
 4260SOL    HW124242   0.369   3.659  10.890  0.6033  0.1039  0.4163
 4260SOL    HW224243   0.457   3.770  10.840  0.1569 -1.8128  0.3619
 4261SOL     OW24244   3.535   1.477   5.825  0.4587  0.0998 -0.3877
 4261SOL    HW124245   3.580   1.500   5.744 -0.4794  0.5244 -0.7913
 4261SOL    HW224246   3.447   1.471   5.788  0.6037  0.3005 -0.7633
 4262SOL     OW24247   4.677   4.488   1.635 -0.3061  0.4857  0.2422
 4262SOL    HW124248   4.625   4.409   1.653  0.2614 -0.4332 -2.0706
 4262SOL    HW224249   4.713   4.466   1.549 -0.1715 -1.0141  0.6719
 4263SOL     OW24250   3.072   0.913   1.215 -0.1425 -0.6178  0.0027
 4263SOL    HW124251   3.084   1.008   1.214 -1.7594 -0.3686  2.1468
 4263SOL    HW224252   3.047   0.904   1.308  0.7987  1.4887  0.4504
 4264SOL     OW24253   0.609   2.862   6.434  0.0810 -0.5531 -0.0977
 4264SOL    HW124254   0.566   2.790   6.388 -0.9076  0.1925 -0.3437
 4264SOL    HW224255   0.659   2.823   6.506  0.3668  0.6916  0.3938
 4265SOL     OW24256   3.813   2.179   3.274  0.0430  0.8711 -0.2738
 4265SOL    HW124257   3.879   2.206   3.211  0.3117 -1.4373 -1.0004
 4265SOL    HW224258   3.753   2.254   3.273 -0.2424  0.6350 -0.8230
 4266SOL     OW24259   4.249   4.192   6.039  0.5810 -0.1624 -0.3042
 4266SOL    HW124260   4.252   4.220   6.130  0.7687  2.3752 -1.0849
 4266SOL    HW224261   4.184   4.122   6.047  1.5053 -0.9882 -0.0284
 4267SOL     OW24262   4.097   3.919   7.120  0.2646  0.3011 -0.0106
 4267SOL    HW124263   4.028   3.980   7.147  1.9155  2.8425 -1.5934
 4267SOL    HW224264   4.146   3.968   7.055  1.7648  0.1685  1.0184
 4268SOL     OW24265   1.640   2.868   4.987 -0.0587 -0.0951 -0.1472
 4268SOL    HW124266   1.559   2.867   5.038 -0.6183  0.0851 -1.0355
 4268SOL    HW224267   1.666   2.960   4.995  0.7988 -0.2502 -1.1888
 4269SOL     OW24268   2.630   3.502   9.810  0.5619 -0.6720 -0.4851
 4269SOL    HW124269   2.656   3.411   9.796  0.4232 -1.0121  1.4262
 4269SOL    HW224270   2.710   3.540   9.846  0.7051 -1.6170  0.1763
 4270SOL     OW24271   4.356   3.831   6.827  0.1456 -0.0024 -0.0546
 4270SOL    HW124272   4.414   3.759   6.803 -0.2334 -0.0729 -0.7565
 4270SOL    HW224273   4.338   3.801   6.916 -1.8486  1.2117 -0.0478
 4271SOL     OW24274   4.617   1.799   1.986  0.5519  0.2928  0.0929
 4271SOL    HW124275   4.594   1.794   2.079  1.0689  3.4545  0.3916
 4271SOL    HW224276   4.694   1.743   1.976 -0.5582 -0.9774 -1.4976
 4272SOL     OW24277   4.433   4.040   2.239 -0.2424 -0.0345  0.0846
 4272SOL    HW124278   4.483   4.092   2.302  0.7463 -2.0211  0.9268
 4272SOL    HW224279   4.475   4.053   2.155  1.2803 -3.1876  0.3729
 4273SOL     OW24280   1.131   1.306  17.000 -0.3689 -0.1536 -0.0886
 4273SOL    HW124281   1.112   1.317  16.907 -0.3531 -1.2435 -0.2230
 4273SOL    HW224282   1.051   1.281  17.046 -0.8857 -1.1949 -1.5611
 4274SOL     OW24283   2.934   2.521   8.487  0.3205  0.0579 -0.5377
 4274SOL    HW124284   3.010   2.481   8.529  0.2128 -2.6095 -2.9431
 4274SOL    HW224285   2.967   2.524   8.397  0.7558  0.4427 -0.3666
 4275SOL     OW24286   0.660   2.608   0.452 -0.5259  0.0319  0.0613
 4275SOL    HW124287   0.740   2.564   0.424 -0.6079  1.5828 -2.5695
 4275SOL    HW224288   0.691   2.684   0.502 -0.1612  0.5045 -0.8855
 4276SOL     OW24289   3.409   3.345   7.357  0.2093  0.2504  0.7296
 4276SOL    HW124290   3.474   3.331   7.426  0.6475  1.2041  0.5113
 4276SOL    HW224291   3.331   3.303   7.394 -0.6429  1.6993  0.5806
 4277SOL     OW24292   1.287   3.087   8.992 -0.2978  0.4484  0.0133
 4277SOL    HW124293   1.227   3.127   9.055 -2.5292 -0.1082 -1.7348
 4277SOL    HW224294   1.336   3.026   9.047  0.7260  2.5051  1.3623
 4278SOL     OW24295   3.799   4.041   5.676 -0.4817  1.2702 -0.5525
 4278SOL    HW124296   3.853   4.001   5.607 -0.5309 -1.7596  1.1941
 4278SOL    HW224297   3.866   4.102   5.708 -1.8914  1.9535  1.1102
 4279SOL     OW24298   1.587   0.566  13.791  0.3411 -0.2967 -0.3365
 4279SOL    HW124299   1.618   0.477  13.775  1.3464 -0.2161  1.1522
 4279SOL    HW224300   1.493   0.554  13.804 -0.1239  1.3080 -2.1557
 4280SOL     OW24301   1.992   4.346   7.316 -0.2247 -0.2377 -1.2125
 4280SOL    HW124302   2.085   4.333   7.331 -0.1946  3.4472  1.6794
 4280SOL    HW224303   1.964   4.363   7.406 -2.2769  0.9850 -2.0908
 4281SOL     OW24304   2.909   2.784   7.756  0.3401  0.8348  0.1228
 4281SOL    HW124305   2.962   2.829   7.821  1.8176 -1.0979  0.2612
 4281SOL    HW224306   2.904   2.697   7.797  0.6529  0.0086 -1.6258
 4282SOL     OW24307   0.783   4.508  11.293  0.2323  0.4680 -0.2230
 4282SOL    HW124308   0.719   4.579  11.288  0.9166  1.0777 -0.3090
 4282SOL    HW224309   0.866   4.551  11.276  1.4395 -1.5414  0.6517
 4283SOL     OW24310   2.323   3.803   0.211 -0.1765 -0.3351  0.0328
 4283SOL    HW124311   2.389   3.835   0.150 -1.5989 -0.3964 -1.5482
 4283SOL    HW224312   2.349   3.711   0.211 -1.6351 -0.7589 -0.1673
 4284SOL     OW24313   4.413   3.224   5.650  0.1757  0.7385 -0.0153
 4284SOL    HW124314   4.371   3.141   5.673  0.4955 -0.0185 -2.1537
 4284SOL    HW224315   4.383   3.242   5.561 -2.7576  1.9811  1.2279
 4285SOL     OW24316   2.651   3.002  13.044  0.8437  0.7469  0.3045
 4285SOL    HW124317   2.612   3.069  12.988  0.8217 -1.1597 -1.9460
 4285SOL    HW224318   2.650   3.041  13.132 -0.0868 -0.0804  0.6624
 4286SOL     OW24319   4.695   1.953   0.403 -0.3480 -0.0326  0.0328
 4286SOL    HW124320   4.632   1.896   0.358  0.7844 -0.6037 -0.8387
 4286SOL    HW224321   4.682   1.924   0.493 -2.5302 -3.0071 -1.2261
 4287SOL     OW24322   0.031   0.149  17.137  0.0659 -0.0740  0.0187
 4287SOL    HW124323   4.666   0.196  17.159 -1.8882 -2.6472 -1.7054
 4287SOL    HW224324   0.033   0.149  17.041 -3.8535 -1.7795 -0.0951
 4288SOL     OW24325   0.443   3.722  11.309  0.1281  0.0319 -0.2539
 4288SOL    HW124326   0.441   3.786  11.380 -0.0157 -2.9014  2.3929
 4288SOL    HW224327   0.534   3.715  11.280 -0.0264 -0.2251 -0.6916
 4289SOL     OW24328   4.329   3.226  15.798 -0.2119 -0.0619  0.1178
 4289SOL    HW124329   4.294   3.178  15.723 -1.9423  2.4488 -0.6884
 4289SOL    HW224330   4.408   3.264  15.760  2.1004 -2.8129  2.1776
 4290SOL     OW24331   0.009   2.538   1.911  0.2176 -0.7844  0.0450
 4290SOL    HW124332   4.692   2.626   1.894  2.4581 -0.0668 -0.6137
 4290SOL    HW224333   0.104   2.550   1.904 -0.2006  1.6547 -1.2359
 4291SOL     OW24334   3.829   0.358   7.983 -0.2493  0.1414  0.1393
 4291SOL    HW124335   3.796   0.337   7.896 -3.3099 -0.3173  1.4487
 4291SOL    HW224336   3.900   0.293   7.990 -0.3549 -0.0139 -0.2434
 4292SOL     OW24337   4.660   0.725  16.814  0.1137 -0.3035 -0.3052
 4292SOL    HW124338   4.582   0.670  16.807  1.4955 -2.2626 -0.2487
 4292SOL    HW224339   0.014   0.665  16.790 -1.6429 -1.4773 -2.5595
 4293SOL     OW24340   2.619   3.656   8.067  0.1764 -0.9078 -0.0358
 4293SOL    HW124341   2.665   3.591   8.120  0.3473  0.2390  1.2070
 4293SOL    HW224342   2.694   3.681   8.013  0.1700  1.0675  0.8731
 4294SOL     OW24343   4.674   0.218   7.633  0.4082 -0.1273  0.1279
 4294SOL    HW124344   0.029   0.168   7.672 -0.4011  0.0118  1.8148
 4294SOL    HW224345   4.656   0.181   7.547 -1.6005 -2.5618  1.5930
 4295SOL     OW24346   1.147   3.433   3.519  0.2313  0.5288 -0.1822
 4295SOL    HW124347   1.158   3.384   3.601 -0.0166  1.1296  0.2130
 4295SOL    HW224348   1.087   3.503   3.544 -1.0011 -0.6470  0.1346
 4296SOL     OW24349   0.031   1.703   0.976 -0.5643 -0.5139 -0.1638
 4296SOL    HW124350   4.670   1.743   0.936 -0.5819  0.2256  0.6134
 4296SOL    HW224351   0.091   1.739   0.911  1.6233  0.1978  2.2596
 4297SOL     OW24352   1.563   0.206   7.171  0.1826  0.0057 -0.2763
 4297SOL    HW124353   1.565   0.137   7.237  0.2691  0.3021  0.0265
 4297SOL    HW224354   1.514   0.168   7.098  3.7156  0.4555 -2.8437
 4298SOL     OW24355   2.748   2.657   6.169  0.5820  0.5829  0.0437
 4298SOL    HW124356   2.840   2.643   6.145  0.3359 -0.8756 -0.0594
 4298SOL    HW224357   2.716   2.726   6.111  1.6984  0.1291 -1.1164
 4299SOL     OW24358   4.301   1.689   9.236  0.0986 -0.0315 -0.1033
 4299SOL    HW124359   4.221   1.742   9.229  0.2825  0.4011  1.1387
 4299SOL    HW224360   4.263   1.601   9.235  1.5233 -0.6405  0.0374
 4300SOL     OW24361   3.950   3.175   5.454  0.0312 -0.4204 -0.1123
 4300SOL    HW124362   3.888   3.161   5.526 -1.2784  1.2112 -0.9251
 4300SOL    HW224363   3.896   3.234   5.401  0.4587  0.9878  1.0295
 4301SOL     OW24364   0.760   1.358   5.303  0.3856  0.1552  0.4658
 4301SOL    HW124365   0.765   1.412   5.224 -1.9681 -0.7921 -0.3379
 4301SOL    HW224366   0.698   1.290   5.277 -0.3471  1.2217 -0.5862
 4302SOL     OW24367   0.863   3.623   2.761 -0.2052 -0.3232  0.0001
 4302SOL    HW124368   0.820   3.538   2.770 -1.5973  0.2682 -1.0990
 4302SOL    HW224369   0.809   3.683   2.813  0.2755 -0.0263  0.1577
 4303SOL     OW24370   4.504   2.311   0.184 -0.0045 -0.2334  0.2693
 4303SOL    HW124371   4.475   2.287   0.096 -0.5470 -0.7805  0.6013
 4303SOL    HW224372   4.430   2.297   0.242  0.0821 -1.4555  0.0914
 4304SOL     OW24373   2.322   1.975  13.765 -0.0019  0.2928  0.3624
 4304SOL    HW124374   2.230   1.955  13.749  0.8736 -2.8644 -0.6083
 4304SOL    HW224375   2.373   1.978  13.684 -0.8063 -1.2067 -0.1921
 4305SOL     OW24376   2.809   3.863  14.769  0.1563  0.3817 -0.0684
 4305SOL    HW124377   2.752   3.938  14.752 -0.9371 -0.4258 -0.0001
 4305SOL    HW224378   2.846   3.870  14.682 -1.8398 -2.5183 -1.1668
 4306SOL     OW24379   3.864   2.440  12.589 -0.1357 -0.6949 -0.6660
 4306SOL    HW124380   3.880   2.522  12.543  3.1866 -1.8604 -1.6376
 4306SOL    HW224381   3.930   2.452  12.657 -1.5885  2.9368  0.0757
 4307SOL     OW24382   4.008   1.615   9.493  0.4659 -0.3807  0.4935
 4307SOL    HW124383   4.025   1.690   9.551 -3.1612  1.0330 -0.2611
 4307SOL    HW224384   4.012   1.542   9.554 -0.1776 -0.8978 -0.0848
 4308SOL     OW24385   2.721   3.845  12.433  0.4831 -0.2651 -0.1950
 4308SOL    HW124386   2.703   3.804  12.518 -0.0530 -0.0738 -0.2145
 4308SOL    HW224387   2.636   3.823  12.395  0.7337 -1.2996 -0.1463
 4309SOL     OW24388   0.508   0.754   4.542  0.0977  0.0433  0.1162
 4309SOL    HW124389   0.518   0.847   4.522  0.8022 -0.2840 -1.0898
 4309SOL    HW224390   0.537   0.753   4.633  1.6642 -1.4433 -0.3804
 4310SOL     OW24391   4.248   4.650  11.652 -0.1809 -0.1390 -0.1120
 4310SOL    HW124392   4.235   4.623  11.561 -1.7294 -1.7008  0.5674
 4310SOL    HW224393   4.306   4.580  11.681 -1.4705 -1.3928 -0.5581
 4311SOL     OW24394   3.791   3.390   6.488  0.3707 -0.4695  0.3949
 4311SOL    HW124395   3.810   3.422   6.576 -0.9253  1.7387 -0.1158
 4311SOL    HW224396   3.838   3.454   6.433 -1.0972  0.5796  0.3727
 4312SOL     OW24397   1.429   3.575   2.197  0.0096  0.5054 -0.1994
 4312SOL    HW124398   1.494   3.612   2.137  1.7149  0.2058  1.4734
 4312SOL    HW224399   1.354   3.576   2.137  0.2780 -1.5035 -0.5591
 4313SOL     OW24400   2.240   3.107  11.450 -0.4562 -0.1763 -0.1605
 4313SOL    HW124401   2.303   3.040  11.478 -0.0082  1.1745  2.0167
 4313SOL    HW224402   2.298   3.172  11.409 -1.8023  2.1222  1.6017
 4314SOL     OW24403   0.256   0.870  15.448  0.4420  0.2187  0.4114
 4314SOL    HW124404   0.207   0.794  15.417  0.5110 -0.0778  1.0315
 4314SOL    HW224405   0.309   0.888  15.370 -0.2494 -1.2024 -0.3897
 4315SOL     OW24406   1.065   0.799   1.398 -0.2159 -0.7320  0.4214
 4315SOL    HW124407   1.062   0.756   1.313  1.6516 -0.3312  0.1401
 4315SOL    HW224408   1.031   0.886   1.376  1.9343 -0.2165 -0.8956
 4316SOL     OW24409   3.202   0.545   4.752 -0.2696 -0.1184 -0.4012
 4316SOL    HW124410   3.232   0.537   4.842  0.9288  0.4294 -0.7500
 4316SOL    HW224411   3.226   0.635   4.733 -1.2908  0.2927  0.2716
 4317SOL     OW24412   1.426   1.020   5.538  0.0153  0.0584 -0.3871
 4317SOL    HW124413   1.519   1.024   5.516 -0.2040 -0.1187 -1.3418
 4317SOL    HW224414   1.418   0.936   5.583  3.7490  0.6645  1.3740
 4318SOL     OW24415   1.393   1.582  16.846 -0.2280  0.7788  0.2671
 4318SOL    HW124416   1.394   1.673  16.817  2.1986  0.4127 -0.7587
 4318SOL    HW224417   1.391   1.536  16.762 -0.6802 -0.8025  1.1438
 4319SOL     OW24418   2.138   0.502   3.158  0.2648  0.4204  0.8762
 4319SOL    HW124419   2.230   0.478   3.147 -0.2825 -0.8795 -0.9582
 4319SOL    HW224420   2.110   0.502   3.067 -0.3705  1.2151  1.0688
 4320SOL     OW24421   3.456   3.317   0.854 -0.0248 -0.2375 -0.8927
 4320SOL    HW124422   3.525   3.291   0.793  1.7936  1.7403  0.3330
 4320SOL    HW224423   3.494   3.270   0.929  3.7543  0.8967 -2.0771
 4321SOL     OW24424   1.370   4.194   9.645  0.0108  0.7219 -0.1841
 4321SOL    HW124425   1.336   4.188   9.734 -1.5283 -0.0014 -0.8261
 4321SOL    HW224426   1.365   4.103   9.617  2.5793  0.5683 -0.1490
 4322SOL     OW24427   3.563   0.781  17.522 -0.1299 -0.2008  0.0463
 4322SOL    HW124428   3.596   0.720  17.588  0.8593 -1.8849 -2.0111
 4322SOL    HW224429   3.599   0.731  17.449 -1.3986 -1.1280  0.0461
 4323SOL     OW24430   2.524   4.115  15.598 -0.2474 -0.1404  0.0208
 4323SOL    HW124431   2.561   4.159  15.521 -1.8338 -0.4178 -0.8951
 4323SOL    HW224432   2.604   4.115  15.651 -1.5109  0.2058  1.9562
 4324SOL     OW24433   3.799   1.186   9.925  0.1661 -0.1436  0.4192
 4324SOL    HW124434   3.876   1.184   9.982 -0.6830  1.1848  1.6161
 4324SOL    HW224435   3.759   1.102   9.949  0.6100 -0.6365 -0.5786
 4325SOL     OW24436   3.627   3.765  12.268 -0.8527  0.5371 -0.2402
 4325SOL    HW124437   3.704   3.716  12.297  0.2879  2.7578  0.4174
 4325SOL    HW224438   3.668   3.846  12.238  0.4886  0.4237  1.3019
 4326SOL     OW24439   3.789   2.161   7.637  0.6354 -0.3004  0.1036
 4326SOL    HW124440   3.702   2.180   7.600  0.7521  0.6370  0.2947
 4326SOL    HW224441   3.750   2.135   7.720  0.1660 -0.6750 -0.2313
 4327SOL     OW24442   3.294   1.800   7.719 -0.6561  0.0419 -0.6152
 4327SOL    HW124443   3.259   1.714   7.742  0.5677 -0.6266 -1.2390
 4327SOL    HW224444   3.385   1.797   7.748 -0.4068  0.5104 -1.3513
 4328SOL     OW24445   2.592   3.857  14.154 -0.1221  0.2941  0.2419
 4328SOL    HW124446   2.572   3.949  14.138 -0.9893  0.2791  1.2559
 4328SOL    HW224447   2.667   3.872  14.212 -0.0818  0.3353  0.1796
 4329SOL     OW24448   1.831   2.112   3.213  0.0966  0.4183 -0.1429
 4329SOL    HW124449   1.815   2.028   3.170  0.4570 -1.1058  2.6915
 4329SOL    HW224450   1.750   2.162   3.204 -0.0747 -0.4144 -3.3926
 4330SOL     OW24451   0.312   0.859   3.056  0.6034 -0.3027 -0.6863
 4330SOL    HW124452   0.399   0.851   3.095  0.6284 -0.9480 -0.8753
 4330SOL    HW224453   0.338   0.823   2.972 -1.3531 -1.5826 -0.7526
 4331SOL     OW24454   0.513   2.414  17.347  0.5953  0.3684 -0.0421
 4331SOL    HW124455   0.507   2.319  17.347 -0.0526  0.4096 -0.2753
 4331SOL    HW224456   0.600   2.436  17.314  0.5472  1.4621  0.5758
 4332SOL     OW24457   2.774   4.420   9.882  0.0063 -0.1128 -0.0116
 4332SOL    HW124458   2.797   4.512   9.894 -1.9924  0.4124 -0.2952
 4332SOL    HW224459   2.776   4.379   9.968  0.0157 -1.7637 -0.7946
 4333SOL     OW24460   4.052   4.363   4.138 -0.4031 -0.0251  0.0794
 4333SOL    HW124461   3.990   4.424   4.177 -0.6468  0.7365 -1.4983
 4333SOL    HW224462   4.089   4.411   4.064  0.5695 -0.6351  0.1724
 4334SOL     OW24463   0.374   2.622   0.712  0.0960  0.0811  0.2826
 4334SOL    HW124464   0.413   2.696   0.758 -1.2465  2.1528 -1.8787
 4334SOL    HW224465   0.302   2.664   0.664  0.4844 -1.4487 -1.6194
 4335SOL     OW24466   4.627   2.520   2.320  0.2656 -0.1749 -0.0755
 4335SOL    HW124467   4.592   2.587   2.262  0.1797  0.8779  1.1938
 4335SOL    HW224468   4.574   2.548   2.394  0.3489 -0.9608  0.2808
 4336SOL     OW24469   1.618   3.547   4.757  0.6852  0.2459  0.0678
 4336SOL    HW124470   1.676   3.596   4.699  0.2601 -0.6876 -1.1472
 4336SOL    HW224471   1.534   3.592   4.757 -0.1162 -1.2160  2.4536
 4337SOL     OW24472   4.115   4.656   3.209 -0.0018  0.2255 -0.0368
 4337SOL    HW124473   4.120   0.029   3.177 -0.8917 -0.0477 -0.9202
 4337SOL    HW224474   4.190   4.655   3.269 -0.1938  1.1508  0.2189
 4338SOL     OW24475   3.854   2.683   8.559  0.2670 -0.0638 -0.6100
 4338SOL    HW124476   3.863   2.743   8.633  1.4259 -1.4306  0.3460
 4338SOL    HW224477   3.874   2.596   8.594 -0.1081  0.6957  1.4472
 4339SOL     OW24478   1.582   1.155  11.207 -0.6048  0.3114  0.3038
 4339SOL    HW124479   1.549   1.237  11.171 -0.9344  1.0242  2.1862
 4339SOL    HW224480   1.671   1.155  11.172 -1.1007 -0.4526 -0.9546
 4340SOL     OW24481   3.075   0.887   5.352  0.5639 -0.0411  0.6481
 4340SOL    HW124482   3.043   0.916   5.437 -0.7681 -0.5449  0.3150
 4340SOL    HW224483   3.057   0.961   5.294  0.4136 -0.0940  0.6297
 4341SOL     OW24484   1.071   2.542   7.313  0.0203 -0.2517 -0.1910
 4341SOL    HW124485   0.980   2.524   7.291  0.2601  0.6802 -1.9311
 4341SOL    HW224486   1.074   2.638   7.313 -0.8175 -0.2317 -0.4824
 4342SOL     OW24487   0.869   0.928   7.214  0.4493  0.2093  0.7303
 4342SOL    HW124488   0.816   0.982   7.154  0.5063 -0.9786 -0.3849
 4342SOL    HW224489   0.889   0.849   7.164  1.1412  1.2080 -0.5812
 4343SOL     OW24490   1.124   0.544  14.423 -0.0490 -0.2897  0.2259
 4343SOL    HW124491   1.144   0.637  14.409 -2.0806  0.2201  0.7319
 4343SOL    HW224492   1.137   0.556  14.517 -0.1667  0.4911  0.1443
 4344SOL     OW24493   2.558   0.804  10.991 -0.6888  0.1949  0.3982
 4344SOL    HW124494   2.576   0.726  11.044 -3.3115 -0.6313  0.0524
 4344SOL    HW224495   2.512   0.771  10.913 -0.2983  0.7618 -0.0764
 4345SOL     OW24496   4.414   2.065   8.243 -0.5433 -0.0233 -0.1222
 4345SOL    HW124497   4.486   2.015   8.281 -2.6933  0.0507  4.0998
 4345SOL    HW224498   4.419   2.032   8.153  2.4518 -0.8732  0.3452
 4346SOL     OW24499   1.158   1.398   5.901 -0.2696  0.0360 -0.5151
 4346SOL    HW124500   1.161   1.488   5.932 -0.4252 -0.5969  1.3473
 4346SOL    HW224501   1.233   1.393   5.843  1.9485 -0.1981  2.3777
 4347SOL     OW24502   1.754   2.358   8.409  0.4017 -0.0312 -0.8213
 4347SOL    HW124503   1.669   2.398   8.386 -0.6972 -1.1607  1.3070
 4347SOL    HW224504   1.795   2.426   8.463 -0.0262 -0.5109  0.1031
 4348SOL     OW24505   0.761   0.623   8.434 -0.6169 -0.3332  0.0115
 4348SOL    HW124506   0.842   0.601   8.388  0.1682 -0.4987  1.4925
 4348SOL    HW224507   0.762   0.561   8.507 -0.7040  0.7191  0.9048
 4349SOL     OW24508   2.364   2.723  15.986 -0.2930 -1.1358  0.0845
 4349SOL    HW124509   2.409   2.807  15.986 -2.2859 -0.0598 -3.0786
 4349SOL    HW224510   2.277   2.737  16.022 -0.5082 -1.7490 -0.1842
 4350SOL     OW24511   4.092   1.438   9.699  0.1423  0.4628 -0.0656
 4350SOL    HW124512   4.152   1.425   9.772 -0.3647 -0.4113  0.1955
 4350SOL    HW224513   4.109   1.363   9.641 -1.0209  0.0504  0.1366
 4351SOL     OW24514   2.276   3.608   7.661 -0.7500 -0.4140  0.3388
 4351SOL    HW124515   2.263   3.556   7.740 -2.6342 -0.5786 -0.1010
 4351SOL    HW224516   2.352   3.564   7.621 -1.3731  1.0564 -2.4768
 4352SOL     OW24517   4.585   1.991   4.457  0.0328 -0.2573  0.1461
 4352SOL    HW124518   4.515   1.931   4.431  0.5428 -0.4580 -0.7711
 4352SOL    HW224519   4.655   1.990   4.392  0.9976  0.2370  1.1719
 4353SOL     OW24520   2.459   3.951  10.781 -0.1599  0.0888 -0.2943
 4353SOL    HW124521   2.430   3.983  10.867  1.9836  0.8759  0.1138
 4353SOL    HW224522   2.531   3.892  10.802 -0.7959 -0.4718  0.3081
 4354SOL     OW24523   1.258   0.982  13.289 -0.1889  0.2453  0.3940
 4354SOL    HW124524   1.323   0.921  13.324  0.1071 -0.5410 -1.5498
 4354SOL    HW224525   1.179   0.935  13.317 -1.2298  2.6869  1.5509
 4355SOL     OW24526   0.319   1.354   1.844  0.2249 -0.5533 -0.6655
 4355SOL    HW124527   0.325   1.368   1.749 -1.8222  0.3890 -0.6476
 4355SOL    HW224528   0.258   1.417   1.882  0.8658  1.0030 -2.2064
 4356SOL     OW24529   0.420   3.279   7.795  0.1442  0.4916 -0.2298
 4356SOL    HW124530   0.483   3.317   7.856  1.6238  2.9936 -3.3213
 4356SOL    HW224531   0.474   3.288   7.716  2.2472  1.0767  1.2588
 4357SOL     OW24532   2.532   1.123   5.446  0.1521 -0.5069 -0.2190
 4357SOL    HW124533   2.617   1.164   5.434  0.3247 -0.4369  1.2386
 4357SOL    HW224534   2.486   1.150   5.367  1.4848 -0.2202 -0.8922
 4358SOL     OW24535   1.782   2.923   3.849  0.0276 -0.0849  0.0368
 4358SOL    HW124536   1.827   2.962   3.924 -0.8485  0.2288  0.4043
 4358SOL    HW224537   1.722   2.996   3.835 -1.5480 -1.3218  0.2538
 4359SOL     OW24538   3.484   0.618   6.677 -0.2989 -0.0618  0.3162
 4359SOL    HW124539   3.412   0.639   6.736  1.9983  0.8927  2.8055
 4359SOL    HW224540   3.448   0.619   6.589 -0.3840  1.5098  0.3595
 4360SOL     OW24541   1.813   1.622  12.951 -0.2971 -0.3102 -0.3266
 4360SOL    HW124542   1.843   1.679  12.881 -1.4270  0.3696 -0.2532
 4360SOL    HW224543   1.719   1.632  12.939 -0.3028  1.7671  1.4851
 4361SOL     OW24544   1.502   0.684   4.593  0.0821 -0.2724 -0.8896
 4361SOL    HW124545   1.495   0.588   4.600 -1.2472 -0.1429 -0.3285
 4361SOL    HW224546   1.431   0.712   4.535 -1.2462 -1.3873  0.1823
 4362SOL     OW24547   2.935   1.923   1.623 -0.5753 -0.0880 -0.3262
 4362SOL    HW124548   2.854   1.929   1.572  0.0766 -0.1735 -1.3622
 4362SOL    HW224549   2.994   1.964   1.560 -0.1326 -0.2066  0.0126
 4363SOL     OW24550   3.886   1.487  12.068  0.1919  0.3046 -0.0933
 4363SOL    HW124551   3.827   1.560  12.052  0.3939  0.2997 -0.8389
 4363SOL    HW224552   3.965   1.516  12.023  0.4737 -0.0975  0.1370
 4364SOL     OW24553   3.822   2.672   2.569 -0.2681 -0.5005  0.1361
 4364SOL    HW124554   3.834   2.635   2.482  0.1128 -0.1865  0.0574
 4364SOL    HW224555   3.747   2.729   2.555  0.0399  0.3452  1.9569
 4365SOL     OW24556   3.953   0.641   8.019 -0.2223 -0.0369 -0.6445
 4365SOL    HW124557   3.937   0.612   8.109  2.4937 -0.8044 -0.3850
 4365SOL    HW224558   3.962   0.555   7.976  1.0718 -0.3792  0.2977
 4366SOL     OW24559   4.168   4.700   2.030  0.2799 -0.6421 -0.4780
 4366SOL    HW124560   4.218   4.693   2.111 -0.3324 -0.9094 -0.1236
 4366SOL    HW224561   4.177   0.075   2.000 -0.5047  0.3277  2.2829
 4367SOL     OW24562   0.238   3.284   9.140  0.3911 -0.1424 -0.0421
 4367SOL    HW124563   0.173   3.247   9.080 -0.7979 -0.0787  1.2122
 4367SOL    HW224564   0.297   3.329   9.080 -1.1117  1.4195 -0.3414
 4368SOL     OW24565   4.080   4.130  15.141 -0.1707 -0.0687 -0.3108
 4368SOL    HW124566   4.125   4.174  15.068  0.5745 -0.6514 -0.2139
 4368SOL    HW224567   4.141   4.059  15.162 -0.2126 -0.4888 -1.6030
 4369SOL     OW24568   2.702   0.909   8.202  0.0748  0.7025 -0.2177
 4369SOL    HW124569   2.760   0.913   8.278  0.5178  0.9849 -0.5749
 4369SOL    HW224570   2.755   0.900   8.123  1.8994 -0.3283  1.1338
 4370SOL     OW24571   0.352   4.284   6.105 -0.0312  0.4713  0.3038
 4370SOL    HW124572   0.397   4.335   6.037  0.8770  1.7626  1.8673
 4370SOL    HW224573   0.262   4.315   6.095 -0.1886 -0.0899 -0.0090
 4371SOL     OW24574   2.377   2.726   2.093  0.5577  0.4911  0.2379
 4371SOL    HW124575   2.368   2.692   2.003  1.6438  0.1189  0.2765
 4371SOL    HW224576   2.399   2.816   2.069  0.6646  0.4394  0.1406
 4372SOL     OW24577   0.275   0.456  17.637 -0.2923  0.6962 -0.0373
 4372SOL    HW124578   0.362   0.480  17.669  0.3952 -0.2621 -1.1806
 4372SOL    HW224579   0.297   0.393  17.569  1.3812  0.6637  0.5145
 4373SOL     OW24580   0.600   4.533  10.955  0.2535  0.5673  0.6270
 4373SOL    HW124581   0.667   4.601  10.965  0.4910  0.7550 -2.3804
 4373SOL    HW224582   0.639   4.452  10.988 -0.2907 -0.4763 -1.3069
 4374SOL     OW24583   0.790   2.991   2.371  0.0024  0.2572 -0.2262
 4374SOL    HW124584   0.877   3.018   2.343 -0.7267  0.9266 -1.8737
 4374SOL    HW224585   0.795   3.008   2.465  0.8848 -0.7501 -0.0915
 4375SOL     OW24586   0.582   0.590   2.189  0.1432 -0.1600  0.4302
 4375SOL    HW124587   0.656   0.623   2.241 -1.0801  1.1337  1.3564
 4375SOL    HW224588   0.594   0.495   2.196  2.8926  0.0237 -2.0761
 4376SOL     OW24589   0.975   1.598   5.415  0.0769  0.2161 -0.1624
 4376SOL    HW124590   0.941   1.679   5.453  2.3458  0.7686  0.7421
 4376SOL    HW224591   1.001   1.627   5.328 -2.8803  0.2170 -1.0208
 4377SOL     OW24592   1.387   4.572   5.743 -0.3086  0.3421  0.2973
 4377SOL    HW124593   1.439   4.633   5.795  0.6177 -0.1077 -0.0924
 4377SOL    HW224594   1.350   4.632   5.678  1.7767 -0.1291 -1.3256
 4378SOL     OW24595   1.073   1.008  13.514  0.4026  0.3398  0.1323
 4378SOL    HW124596   1.037   0.926  13.479 -0.2808  0.4680  0.5266
 4378SOL    HW224597   1.133   0.982  13.584  0.1103 -1.8431 -0.4040
 4379SOL     OW24598   3.248   2.509   1.072  0.2712 -0.3296  0.3671
 4379SOL    HW124599   3.319   2.526   1.134  0.0905  1.5155  0.0743
 4379SOL    HW224600   3.189   2.470   1.137 -0.0330 -0.5683 -0.0558
 4380SOL     OW24601   4.147   2.315   8.625  0.9573 -0.0357 -0.1502
 4380SOL    HW124602   4.130   2.255   8.552 -0.6731  0.6686 -0.3244
 4380SOL    HW224603   4.057   2.336   8.649  0.9915  1.2358 -1.1546
 4381SOL     OW24604   3.876   0.834   0.890 -0.4911  0.6561  0.1349
 4381SOL    HW124605   3.835   0.853   0.805 -3.2028  0.9164  1.5152
 4381SOL    HW224606   3.803   0.823   0.950  0.1653 -0.0919  0.7970
 4382SOL     OW24607   3.084   2.599   7.099 -0.1756 -0.0211  0.3932
 4382SOL    HW124608   3.020   2.641   7.157 -0.5350  1.6593 -1.2150
 4382SOL    HW224609   3.028   2.570   7.027  0.8933  0.8039 -0.7838
 4383SOL     OW24610   1.331   2.412   6.668  0.0675 -0.0746 -0.3813
 4383SOL    HW124611   1.283   2.407   6.751  0.1125 -1.2787 -0.4278
 4383SOL    HW224612   1.328   2.324   6.631 -2.3207 -0.8687  1.6983
 4384SOL     OW24613   1.009   4.281   6.646  0.2226  0.9012 -0.6044
 4384SOL    HW124614   0.954   4.347   6.689 -0.8038  1.6592 -3.0718
 4384SOL    HW224615   1.019   4.306   6.554 -2.9862  2.0264 -0.6446
 4385SOL     OW24616   1.082   2.628   2.015  0.6491 -0.5875 -0.3486
 4385SOL    HW124617   0.987   2.641   2.021  0.9169  1.7064 -1.1149
 4385SOL    HW224618   1.113   2.716   1.994 -2.3370  0.1779 -1.5912
 4386SOL     OW24619   0.409   3.810   9.820 -0.2837 -0.0604  0.3915
 4386SOL    HW124620   0.456   3.885   9.856 -2.0469  1.3234 -0.2072
 4386SOL    HW224621   0.467   3.794   9.746  0.4855  1.6206  0.6374
 4387SOL     OW24622   3.257   1.585   2.743  0.5426 -0.6020  0.1744
 4387SOL    HW124623   3.320   1.574   2.671  1.3729 -1.4367  1.0241
 4387SOL    HW224624   3.312   1.574   2.821 -1.3308 -2.2251  1.2772
 4388SOL     OW24625   3.096   4.354   0.704 -0.5019  0.2470  0.0363
 4388SOL    HW124626   3.150   4.431   0.718 -0.1754  0.1628 -0.7890
 4388SOL    HW224627   3.010   4.397   0.712 -0.5136 -0.0115  1.2790
 4389SOL     OW24628   0.551   4.043   5.349  0.4132  0.5299 -0.5637
 4389SOL    HW124629   0.577   3.957   5.384  0.0402  0.7332  0.2045
 4389SOL    HW224630   0.506   4.082   5.424 -2.0613 -0.8376 -1.3445
 4390SOL     OW24631   1.280   0.972  10.061 -0.0724  0.0611 -0.2208
 4390SOL    HW124632   1.268   0.880  10.039 -2.4421  1.1468 -3.4423
 4390SOL    HW224633   1.193   1.007  10.039 -0.1117 -0.4571 -0.8652
 4391SOL     OW24634   1.519   1.701   7.919 -0.2100 -0.3588 -0.2670
 4391SOL    HW124635   1.475   1.775   7.879  3.2485  1.4582 -0.6874
 4391SOL    HW224636   1.588   1.748   7.966  1.1389 -4.3830  1.7735
 4392SOL     OW24637   4.215   4.361  17.396  0.1763  0.1845  0.1918
 4392SOL    HW124638   4.188   4.453  17.389  1.1793  0.4225 -0.5754
 4392SOL    HW224639   4.171   4.335  17.477 -0.8768 -1.3188 -0.8722
 4393SOL     OW24640   3.539   0.663  16.509 -0.1657 -0.2617  0.1626
 4393SOL    HW124641   3.587   0.745  16.493 -0.3687 -0.7107 -2.7706
 4393SOL    HW224642   3.468   0.677  16.446  0.7866 -0.0016 -0.8585
 4394SOL     OW24643   0.853   4.048   2.322 -0.4499 -0.6530 -0.5370
 4394SOL    HW124644   0.853   3.955   2.296  2.2267 -0.5727 -0.8138
 4394SOL    HW224645   0.878   4.086   2.237 -0.6312  2.3881  0.7717
 4395SOL     OW24646   2.633   2.085  16.147  0.2330  0.3391  0.1591
 4395SOL    HW124647   2.662   2.072  16.057  0.9826 -0.7910  0.5587
 4395SOL    HW224648   2.699   2.033  16.193 -1.6137 -1.1796  1.0905
 4396SOL     OW24649   2.903   2.558  13.374  0.2384 -0.0387  0.2435
 4396SOL    HW124650   2.966   2.513  13.430  2.7367  1.6821 -1.1642
 4396SOL    HW224651   2.832   2.495  13.364  1.4406 -1.3591  0.1174
 4397SOL     OW24652   4.598   2.909   7.966 -0.2228  1.0576 -0.4557
 4397SOL    HW124653   4.572   2.887   8.055  0.1567 -0.1375 -0.6407
 4397SOL    HW224654   4.556   2.995   7.958  0.1944  1.2856 -0.2139
 4398SOL     OW24655   3.083   2.508   5.165  0.1306  0.1497 -0.6183
 4398SOL    HW124656   3.016   2.532   5.230 -0.9233 -0.4231 -1.4880
 4398SOL    HW224657   3.157   2.474   5.216 -1.0977 -3.0325 -0.9553
 4399SOL     OW24658   2.303   1.825   8.084 -0.1149 -0.4179 -0.0004
 4399SOL    HW124659   2.214   1.835   8.051  0.0965  1.4427  0.0165
 4399SOL    HW224660   2.306   1.885   8.158  0.2631 -0.4600  0.0166
 4400SOL     OW24661   1.835   3.568   9.571 -0.0814 -0.1643  0.2217
 4400SOL    HW124662   1.800   3.653   9.545 -1.4437 -0.5897  0.6102
 4400SOL    HW224663   1.826   3.578   9.665  0.7184  1.9954  0.0408
 4401SOL     OW24664   0.947   3.056   8.823 -0.1576 -0.1104  0.4979
 4401SOL    HW124665   0.930   3.143   8.789 -1.2761 -0.8068 -0.6960
 4401SOL    HW224666   0.881   3.059   8.892 -1.8582 -2.1568 -1.0272
 4402SOL     OW24667   3.620   0.064   4.487  0.3426 -0.0488 -0.1814
 4402SOL    HW124668   3.672   0.140   4.515 -0.0330  0.3184 -0.4684
 4402SOL    HW224669   3.643   0.068   4.394 -1.0535 -1.1347 -0.5648
 4403SOL     OW24670   1.857   0.801  17.495  0.3473 -0.3027 -0.0677
 4403SOL    HW124671   1.914   0.734  17.458  0.4744 -0.0320 -0.3563
 4403SOL    HW224672   1.933   0.846  17.532 -1.5578  1.3730  1.8001
 4404SOL     OW24673   3.187   2.196   5.972  0.1365  0.0253 -0.2727
 4404SOL    HW124674   3.243   2.245   6.032 -2.2867  2.2045  0.1833
 4404SOL    HW224675   3.210   2.226   5.884  0.6014  1.3602  0.3036
 4405SOL     OW24676   2.702   2.351  10.727  0.1594  0.1076 -0.2640
 4405SOL    HW124677   2.700   2.440  10.763 -0.4295 -0.2693  0.6325
 4405SOL    HW224678   2.636   2.349  10.658 -0.9637  1.7557  0.7429
 4406SOL     OW24679   4.540   1.651  15.141  0.1377 -0.1967 -0.5356
 4406SOL    HW124680   4.464   1.595  15.127  1.1263 -1.2811 -1.4901
 4406SOL    HW224681   4.605   1.593  15.179  0.0224  1.0326  1.5200
 4407SOL     OW24682   1.794   1.028  16.804 -0.6375 -0.7752  0.1023
 4407SOL    HW124683   1.762   1.013  16.893  1.9360 -1.9881  0.8175
 4407SOL    HW224684   1.815   0.938  16.777 -1.2088 -0.0918 -2.7192
 4408SOL     OW24685   3.589   0.617   1.937 -0.5873  0.0204  0.3330
 4408SOL    HW124686   3.556   0.551   1.877  1.5015 -0.6553 -0.0750
 4408SOL    HW224687   3.683   0.602   1.923 -1.2480 -2.1599 -1.6422
 4409SOL     OW24688   4.139   2.115   1.660 -0.0537  0.0787  0.2964
 4409SOL    HW124689   4.100   2.029   1.673 -0.9882  0.7389  1.8641
 4409SOL    HW224690   4.065   2.154   1.612 -1.1096 -1.2012  0.8815
 4410SOL     OW24691   4.699   3.118   4.086  0.1104 -0.1335 -0.1600
 4410SOL    HW124692   0.009   3.089   4.173 -0.1664 -1.5071 -0.5192
 4410SOL    HW224693   0.047   3.181   4.053  1.5496 -1.7992 -0.5611
 4411SOL     OW24694   0.181   4.671   9.491 -0.3511 -0.7911 -0.2155
 4411SOL    HW124695   0.248   4.604   9.506 -0.5039 -1.0867 -0.8640
 4411SOL    HW224696   0.122   4.655   9.564 -2.6799  0.5333 -1.8099
 4412SOL     OW24697   2.280   4.577   5.298  0.2430  0.3927 -0.1471
 4412SOL    HW124698   2.262   4.665   5.332 -2.0717  0.8946 -2.7188
 4412SOL    HW224699   2.372   4.566   5.322  0.3756  1.4293 -0.2032
 4413SOL     OW24700   2.207   1.809  15.832  0.1912 -0.3260  0.0286
 4413SOL    HW124701   2.204   1.888  15.777 -1.9085  0.5249  1.3662
 4413SOL    HW224702   2.278   1.844  15.886  0.2951  0.1358 -0.4077
 4414SOL     OW24703   0.833   3.583   1.289 -0.1010 -0.1044  0.0343
 4414SOL    HW124704   0.917   3.550   1.258 -0.3100  0.2958 -0.9640
 4414SOL    HW224705   0.785   3.561   1.209 -2.3259 -1.6163  1.7777
 4415SOL     OW24706   3.960   2.762   6.499 -0.4826  0.4075 -0.2537
 4415SOL    HW124707   3.968   2.780   6.406 -1.8565  0.9125 -0.2773
 4415SOL    HW224708   4.008   2.829   6.548 -1.1890  0.3852  0.4680
 4416SOL     OW24709   2.762   1.314   3.859 -0.4039  0.0704  0.1081
 4416SOL    HW124710   2.693   1.252   3.881 -0.0044 -0.2089  0.5841
 4416SOL    HW224711   2.765   1.300   3.765  1.0098 -0.0974  0.1722
 4417SOL     OW24712   4.173   3.158   5.139 -0.0311  0.0645 -0.0524
 4417SOL    HW124713   4.116   3.086   5.165 -1.1903  0.4677 -1.4996
 4417SOL    HW224714   4.202   3.194   5.223 -0.5159 -1.7403  0.8850
 4418SOL     OW24715   0.790   2.199   4.763 -0.2398 -0.2133 -0.2415
 4418SOL    HW124716   0.702   2.214   4.797 -0.1429  3.2614 -1.5449
 4418SOL    HW224717   0.773   2.208   4.669  0.6096 -1.8348 -0.5534
 4419SOL     OW24718   4.692   2.170   2.861 -0.0118 -0.1944 -0.3142
 4419SOL    HW124719   4.713   2.260   2.834 -1.0777 -0.0667 -0.7105
 4419SOL    HW224720   0.016   2.117   2.793  0.2863 -0.3347 -0.0271
 4420SOL     OW24721   0.947   3.305   7.990  0.5942 -0.2184 -0.8258
 4420SOL    HW124722   0.917   3.219   7.958  1.9544 -0.4858 -1.3612
 4420SOL    HW224723   1.031   3.286   8.030  0.3293  1.3502  0.4434
 4421SOL     OW24724   1.409   3.892   9.929 -0.0153  0.2542 -0.1365
 4421SOL    HW124725   1.323   3.851   9.941  0.6740 -0.8798  0.8501
 4421SOL    HW224726   1.390   3.984   9.910  0.6462  0.2315 -0.9187
 4422SOL     OW24727   1.450   1.015   4.314  0.1012 -0.0635 -0.3967
 4422SOL    HW124728   1.521   0.985   4.371  0.1726  1.0196  0.0630
 4422SOL    HW224729   1.465   1.109   4.324  1.8374 -0.4800  0.8901
 4423SOL     OW24730   2.343   2.217   8.153 -0.1338  0.0194  0.0164
 4423SOL    HW124731   2.416   2.203   8.092 -0.2919  0.2685 -0.2281
 4423SOL    HW224732   2.365   2.144   8.211 -1.1437 -1.5193 -1.5682
 4424SOL     OW24733   1.870   2.780   3.647 -0.3285  0.6646  0.1335
 4424SOL    HW124734   1.778   2.766   3.628 -0.5670  0.6750  1.2949
 4424SOL    HW224735   1.868   2.829   3.729  0.5143 -0.1154  0.6254
 4425SOL     OW24736   0.052   1.838   5.028  0.4682 -0.1507 -0.0162
 4425SOL    HW124737   4.706   1.867   4.962  0.7673 -0.1333 -0.2919
 4425SOL    HW224738   0.045   1.742   5.025 -1.7659  0.0161 -0.0979
 4426SOL     OW24739   1.808   0.015   3.639 -0.1665 -0.1143 -0.3134
 4426SOL    HW124740   1.830   4.649   3.596 -0.6797 -0.2593 -0.2924
 4426SOL    HW224741   1.734   0.031   3.581  0.3080  1.4044 -0.5088
 4427SOL     OW24742   3.185   1.106   0.999 -0.0943 -0.1847  0.2295
 4427SOL    HW124743   3.121   1.035   0.998  0.8412 -1.0290 -0.5251
 4427SOL    HW224744   3.147   1.159   0.929  1.1276 -1.1849 -1.1975
 4428SOL     OW24745   2.756   1.856   0.059 -0.0615  0.2600 -0.2774
 4428SOL    HW124746   2.759   1.794  17.656  1.9990 -0.7207  0.6420
 4428SOL    HW224747   2.787   1.935   0.016 -0.4468 -0.0152 -1.0717
 4429SOL     OW24748   1.821   3.333  17.538 -0.1080 -0.5463  0.2363
 4429SOL    HW124749   1.875   3.259  17.565  0.3830 -0.0595  0.5854
 4429SOL    HW224750   1.825   3.379  17.622  0.8178 -1.0837  0.4849
 4430SOL     OW24751   3.248   2.803   2.591  0.1914 -0.0313 -0.9036
 4430SOL    HW124752   3.198   2.844   2.520 -3.3423 -0.9945  1.0113
 4430SOL    HW224753   3.196   2.723   2.586  1.6825 -1.1043  0.4126
 4431SOL     OW24754   2.939   0.209  12.388 -0.1982  0.1741 -0.3649
 4431SOL    HW124755   2.913   0.170  12.471  0.4728  3.2432  1.2879
 4431SOL    HW224756   3.032   0.214  12.407 -0.3834  0.9353  0.3499
 4432SOL     OW24757   2.616   2.358   7.372 -0.5696 -0.2013 -0.3054
 4432SOL    HW124758   2.564   2.435   7.351  0.7441  0.8807  0.4684
 4432SOL    HW224759   2.612   2.316   7.286  0.0829  0.8846 -0.8626
 4433SOL     OW24760   2.165   2.008   5.698  0.1138 -0.7767 -0.0767
 4433SOL    HW124761   2.207   2.051   5.624 -1.2260  3.1632  1.4491
 4433SOL    HW224762   2.194   1.920   5.673  0.7913 -0.5026 -0.2483
 4434SOL     OW24763   1.042   3.058   1.732  0.1046 -0.3807  0.3748
 4434SOL    HW124764   1.040   3.065   1.636  0.2257  0.3512  0.4264
 4434SOL    HW224765   0.949   3.048   1.754  0.1206  0.8022  1.0051
 4435SOL     OW24766   1.420   0.440   6.696  0.1614 -0.7287  0.1724
 4435SOL    HW124767   1.464   0.399   6.622  0.3513 -1.1840  0.5391
 4435SOL    HW224768   1.485   0.505   6.724  1.7887 -0.8057 -3.4626
 4436SOL     OW24769   3.656   2.832   3.526 -0.6919 -0.3891  0.2733
 4436SOL    HW124770   3.574   2.875   3.503 -0.9487 -1.2115 -0.3413
 4436SOL    HW224771   3.679   2.784   3.447 -1.5748 -0.5234  0.0958
 4437SOL     OW24772   1.578   4.400  14.748 -0.3713 -0.0925  0.5991
 4437SOL    HW124773   1.573   4.370  14.657 -0.6883 -0.9789  0.9139
 4437SOL    HW224774   1.594   4.317  14.792 -0.9117  0.4524  1.8305
 4438SOL     OW24775   4.040   1.471   6.307 -0.1144 -0.3190 -0.2863
 4438SOL    HW124776   3.973   1.404   6.293  1.4539 -1.3108 -2.9424
 4438SOL    HW224777   4.118   1.421   6.332  0.1193  0.7412  1.1243
 4439SOL     OW24778   3.638   3.691  14.904  0.1074 -0.1062 -0.3735
 4439SOL    HW124779   3.680   3.675  14.989 -2.0811 -0.7822  0.5630
 4439SOL    HW224780   3.697   3.759  14.872 -0.7710  1.3906  1.2182
 4440SOL     OW24781   0.230   1.596   3.700  0.1900 -0.4635  0.4953
 4440SOL    HW124782   0.223   1.517   3.647  0.5884  0.4691 -0.9526
 4440SOL    HW224783   0.152   1.578   3.752 -0.7448  0.2260 -0.6682
 4441SOL     OW24784   1.109   1.865   8.605 -0.8711 -0.2992  0.0259
 4441SOL    HW124785   1.121   1.953   8.568 -1.4889 -0.2384 -0.0370
 4441SOL    HW224786   1.178   1.870   8.672 -0.6682 -0.2519 -0.1888
 4442SOL     OW24787   1.558   0.796   9.834 -0.2530 -0.8009 -0.4247
 4442SOL    HW124788   1.608   0.767   9.758  0.4285 -0.2130 -0.2017
 4442SOL    HW224789   1.469   0.772   9.808  0.2313 -2.0266 -0.9573
 4443SOL     OW24790   3.542   0.116   7.164  0.3900  0.0776  0.1890
 4443SOL    HW124791   3.601   0.164   7.222  0.1173  0.1141  0.4342
 4443SOL    HW224792   3.605   0.098   7.094 -0.9931 -0.2884 -0.9828
 4444SOL     OW24793   1.800   2.796  11.745  0.5528 -0.0518 -0.5584
 4444SOL    HW124794   1.710   2.819  11.720 -0.3212 -0.9441  1.7572
 4444SOL    HW224795   1.852   2.875  11.732  0.0028  0.6493  1.5727
 4445SOL     OW24796   0.784   4.497   3.094  0.0080  0.2181 -0.5743
 4445SOL    HW124797   0.709   4.542   3.131  0.0916  0.5301 -0.7883
 4445SOL    HW224798   0.795   4.553   3.017 -0.8361  0.8184 -0.2468
 4446SOL     OW24799   2.237   0.221  14.572  0.5762 -0.9956  0.0201
 4446SOL    HW124800   2.162   0.213  14.512  0.5377 -1.3057  0.1106
 4446SOL    HW224801   2.283   0.298  14.539 -3.0854  0.2419 -2.2714
 4447SOL     OW24802   0.852   0.425  11.947 -0.3190 -0.0379  0.6643
 4447SOL    HW124803   0.760   0.411  11.927 -1.0360  0.7161  3.5648
 4447SOL    HW224804   0.872   0.485  11.875 -0.2201 -0.6863  0.1515
 4448SOL     OW24805   4.686   4.392   4.502 -0.6425  0.1036  0.3491
 4448SOL    HW124806   4.669   4.380   4.409 -0.8458 -0.4150  0.4515
 4448SOL    HW224807   4.664   4.302   4.525  0.6488 -0.2002  0.3999
 4449SOL     OW24808   1.637   1.591   3.247 -0.2818 -0.3267 -0.3925
 4449SOL    HW124809   1.676   1.506   3.226 -0.2426 -0.6057  0.8417
 4449SOL    HW224810   1.624   1.618   3.156  0.2809 -0.9105 -0.6512
 4450SOL     OW24811   4.474   0.773   4.055 -0.0742 -0.3711 -0.3955
 4450SOL    HW124812   4.567   0.786   4.071  0.2167 -1.0923 -1.4951
 4450SOL    HW224813   4.451   0.861   4.026 -0.0079  0.0768  0.9086
 4451SOL     OW24814   3.534   3.361   5.752 -0.1027  0.2087 -0.0932
 4451SOL    HW124815   3.613   3.414   5.735  0.4109  0.1040  1.9289
 4451SOL    HW224816   3.466   3.428   5.748 -0.4355 -0.1031  0.3895
 4452SOL     OW24817   0.128   1.299  12.876 -0.1789 -0.2315 -0.1853
 4452SOL    HW124818   0.184   1.239  12.925  0.6026 -0.0136 -0.8101
 4452SOL    HW224819   0.044   1.284  12.920 -0.1085  3.0845  1.0952
 4453SOL     OW24820   1.976   4.272   3.178  0.2686 -0.1409  0.3268
 4453SOL    HW124821   2.042   4.212   3.213 -0.5732 -0.2536  1.7258
 4453SOL    HW224822   2.024   4.297   3.099 -1.3863  0.2204 -0.5570
 4454SOL     OW24823   2.599   0.887   5.157  0.1191 -0.5088  0.3133
 4454SOL    HW124824   2.665   0.910   5.223 -0.8240 -0.3329  1.1911
 4454SOL    HW224825   2.602   0.964   5.100  1.9777 -0.1390  0.9101
 4455SOL     OW24826   1.532   2.171   7.940  0.7394  0.6859  0.2980
 4455SOL    HW124827   1.601   2.147   7.879  2.1385  2.6717  1.0734
 4455SOL    HW224828   1.492   2.243   7.891 -1.5277 -0.8605 -0.1226
 4456SOL     OW24829   2.283   4.571  16.960  0.2250  0.8246 -0.0839
 4456SOL    HW124830   2.278   4.631  16.887  0.7963  1.0041  0.0261
 4456SOL    HW224831   2.294   4.492  16.907  1.3336  0.3874  0.7858
 4457SOL     OW24832   3.624   4.433   4.099  0.4089  0.4908  0.3814
 4457SOL    HW124833   3.714   4.419   4.068  1.3084  1.8354  2.3312
 4457SOL    HW224834   3.629   4.406   4.191  0.1185 -0.2243  0.1778
 4458SOL     OW24835   0.251   0.799   7.844  0.3167  0.1009 -0.0181
 4458SOL    HW124836   0.310   0.779   7.771  2.0348 -0.8403  1.6305
 4458SOL    HW224837   0.277   0.724   7.896 -0.6263 -0.6858 -0.6864
 4459SOL     OW24838   0.279   1.798   1.302 -0.2813 -0.3393 -0.3370
 4459SOL    HW124839   0.346   1.867   1.301  1.3284 -1.9049  0.1079
 4459SOL    HW224840   0.203   1.848   1.332  0.9471  2.0381 -1.1611
 4460SOL     OW24841   0.605   3.955   3.361 -0.6112 -0.1546 -0.1941
 4460SOL    HW124842   0.662   3.879   3.366 -1.2103 -0.8151 -3.3862
 4460SOL    HW224843   0.659   4.015   3.309  1.2521 -0.3563  1.5140
 4461SOL     OW24844   2.519   2.197   8.692 -0.6588 -0.2334 -0.1270
 4461SOL    HW124845   2.541   2.120   8.639  1.3493 -1.5754  2.6503
 4461SOL    HW224846   2.515   2.266   8.627  1.0254  0.7165  0.7679
 4462SOL     OW24847   1.357   1.870   7.759 -0.0464  0.6879 -0.1092
 4462SOL    HW124848   1.263   1.872   7.742 -0.0908 -2.7778 -0.1970
 4462SOL    HW224849   1.373   1.963   7.742  0.4995 -0.1551 -4.2325
 4463SOL     OW24850   4.124   2.253   4.085  0.3417 -0.2910 -0.1298
 4463SOL    HW124851   4.202   2.228   4.036  1.9743  0.6522  1.9790
 4463SOL    HW224852   4.117   2.347   4.067  1.7096  0.3455  2.6838
 4464SOL     OW24853   0.129   4.578  12.473 -0.3292 -0.2713 -0.1476
 4464SOL    HW124854   0.199   4.592  12.409 -1.3567  3.0862 -0.5448
 4464SOL    HW224855   0.187   4.561  12.548  0.3138  2.3851 -0.0357
 4465SOL     OW24856   3.086   0.856   4.292 -0.1970  0.0536 -0.1872
 4465SOL    HW124857   3.000   0.885   4.262 -0.0124 -0.3566 -1.1126
 4465SOL    HW224858   3.067   0.763   4.303  2.9099 -0.7726 -1.6055
 4466SOL     OW24859   4.712   4.325   3.779  0.0292 -0.4264 -0.1752
 4466SOL    HW124860   0.026   4.372   3.702  1.4619 -0.3616  0.4262
 4466SOL    HW224861   4.685   4.394   3.840  0.9095 -0.7070  0.5277
 4467SOL     OW24862   3.624   0.766   3.731  0.4111  0.1056  1.0235
 4467SOL    HW124863   3.552   0.802   3.679  2.5960  1.6815 -0.8650
 4467SOL    HW224864   3.669   0.843   3.765  0.2100 -0.3313  2.2687
 4468SOL     OW24865   2.903   1.200   6.446  0.5725  0.0009 -0.4918
 4468SOL    HW124866   2.933   1.291   6.444 -0.9699  0.5318  0.5025
 4468SOL    HW224867   2.868   1.196   6.357 -1.2343  1.0201  0.1612
 4469SOL     OW24868   2.770   2.231   4.623 -0.1036 -0.1808 -1.0128
 4469SOL    HW124869   2.771   2.241   4.528  2.3873 -3.6212 -1.3489
 4469SOL    HW224870   2.852   2.273   4.647 -1.3469  2.5154 -1.4912
 4470SOL     OW24871   4.031   1.647  17.080  0.0083 -0.8777 -0.3635
 4470SOL    HW124872   3.985   1.638  17.163 -1.8348 -1.9943 -1.5232
 4470SOL    HW224873   4.116   1.638  17.124 -1.1066 -1.0764  1.7865
 4471SOL     OW24874   4.391   2.257   1.959  0.2822 -0.0940  0.2962
 4471SOL    HW124875   4.473   2.246   2.007 -0.7055  0.2641  2.0821
 4471SOL    HW224876   4.422   2.296   1.878  1.2754 -2.8752 -0.6713
 4472SOL     OW24877   2.001   1.313   4.208  0.4805  0.2366  0.2581
 4472SOL    HW124878   1.971   1.403   4.194 -1.8481 -0.4192  1.0325
 4472SOL    HW224879   2.057   1.294   4.133  0.3866  0.7985  0.0495
 4473SOL     OW24880   3.934   3.768   6.763 -0.6387  0.1747  0.6264
 4473SOL    HW124881   3.888   3.844   6.799 -2.1814 -0.6667  0.4132
 4473SOL    HW224882   3.932   3.705   6.835 -1.4497 -0.3849  0.1231
 4474SOL     OW24883   0.359   0.201   4.954 -0.0384  0.3921  0.6510
 4474SOL    HW124884   0.275   0.216   4.998 -0.7951  1.1925 -1.0654
 4474SOL    HW224885   0.349   0.111   4.921 -0.5042  0.3508  0.9035
 4475SOL     OW24886   1.715   0.438   4.428 -0.5348  0.5369  0.0831
 4475SOL    HW124887   1.712   0.388   4.509 -2.0778  1.1688  0.4058
 4475SOL    HW224888   1.625   0.429   4.396 -0.3440 -0.4636 -0.1609
 4476SOL     OW24889   0.917   2.448   7.782 -0.2503  0.0218  0.2286
 4476SOL    HW124890   1.003   2.483   7.760 -0.3055 -1.1870 -1.9478
 4476SOL    HW224891   0.932   2.414   7.870 -0.9956 -2.9532 -0.7888
 4477SOL     OW24892   1.069   2.847   5.589  0.1082  0.3921  0.0099
 4477SOL    HW124893   1.127   2.816   5.658  1.0541  1.4006 -0.3462
 4477SOL    HW224894   1.129   2.873   5.519  1.9694  2.9848  2.5784
 4478SOL     OW24895   4.075   1.520   8.552  0.1253  0.0198 -0.6809
 4478SOL    HW124896   4.028   1.584   8.606  1.2951  0.1708  0.1497
 4478SOL    HW224897   4.018   1.443   8.554  0.0441  0.1165  0.7552
 4479SOL     OW24898   3.895   3.800   7.432  0.2073  0.0797  0.0489
 4479SOL    HW124899   3.960   3.817   7.501  0.2135 -0.8881  0.2843
 4479SOL    HW224900   3.948   3.816   7.354  1.1389  1.2616  0.9144
 4480SOL     OW24901   2.297   1.058   8.385  0.5427 -0.1040  0.6188
 4480SOL    HW124902   2.316   1.063   8.291  0.3367 -1.0423  0.5263
 4480SOL    HW224903   2.242   0.981   8.398 -1.2614  1.1458  0.4772
 4481SOL     OW24904   4.508   1.804   4.872  0.3788 -0.1373  0.3566
 4481SOL    HW124905   4.552   1.735   4.823 -1.6694 -0.7478 -0.6216
 4481SOL    HW224906   4.439   1.818   4.807  1.0327 -2.0218 -0.7475
 4482SOL     OW24907   0.529   1.469   8.539  0.8743  0.3926 -0.6600
 4482SOL    HW124908   0.461   1.527   8.505  0.4114 -0.2177 -0.7769
 4482SOL    HW224909   0.561   1.423   8.461 -0.5986 -1.3816 -0.2145
 4483SOL     OW24910   0.379   3.645  10.620 -0.0753  0.2704 -0.5752
 4483SOL    HW124911   0.465   3.686  10.629  0.0423 -0.5948  2.1273
 4483SOL    HW224912   0.333   3.727  10.637  0.7221  0.3372  1.2266
 4484SOL     OW24913   0.228   3.212  15.788 -0.3064  0.3470 -0.4884
 4484SOL    HW124914   0.154   3.259  15.750  1.1628  2.7055 -0.4268
 4484SOL    HW224915   0.184   3.139  15.832 -0.2635  0.5425 -0.1179
 4485SOL     OW24916   0.866   4.314   1.034  0.2467 -0.4325  0.3751
 4485SOL    HW124917   0.932   4.364   0.986 -0.2386 -0.6275 -0.4966
 4485SOL    HW224918   0.808   4.278   0.967 -0.4499 -3.6044  2.6900
 4486SOL     OW24919   3.266   3.612  10.293  0.2212 -0.3481 -0.0788
 4486SOL    HW124920   3.313   3.574  10.218  0.4636 -1.0367  0.4187
 4486SOL    HW224921   3.277   3.545  10.360  0.5860 -0.8147 -0.5991
 4487SOL     OW24922   2.808   2.561  15.927  0.4835 -0.0317  0.1505
 4487SOL    HW124923   2.776   2.651  15.916  1.0329  0.2451  0.7919
 4487SOL    HW224924   2.748   2.506  15.878  2.7463 -0.5459 -2.0544
 4488SOL     OW24925   3.676   3.161   5.129 -0.0186  0.0875 -0.1956
 4488SOL    HW124926   3.616   3.219   5.082 -1.9103  0.0233  2.1198
 4488SOL    HW224927   3.751   3.219   5.143  0.9121 -1.2478  0.3221
 4489SOL     OW24928   0.109   1.148  12.635 -0.1755 -0.2692 -0.1474
 4489SOL    HW124929   0.132   1.209  12.705  0.3357  1.6874 -1.9968
 4489SOL    HW224930   0.015   1.165  12.630  0.0632  1.7475  1.9609
 4490SOL     OW24931   2.559   2.042   6.944  0.4596  0.4590 -0.0263
 4490SOL    HW124932   2.474   2.047   6.900  1.6541  0.6248 -2.2892
 4490SOL    HW224933   2.615   2.012   6.872  0.2499 -0.8655  0.3474
 4491SOL     OW24934   2.570   2.198   6.124  0.1335  0.4233 -0.0183
 4491SOL    HW124935   2.484   2.240   6.132  0.7863  1.7176  0.1052
 4491SOL    HW224936   2.603   2.195   6.213 -0.7420  2.2505  0.3724
 4492SOL     OW24937   1.340   4.438   6.573 -0.2282 -0.0957 -0.0624
 4492SOL    HW124938   1.312   4.399   6.490  0.7243  0.5142 -0.6733
 4492SOL    HW224939   1.290   4.520   6.572 -1.0928 -0.6036  0.9740
 4493SOL     OW24940   0.888   2.101   3.245  0.3477  0.1342 -0.3840
 4493SOL    HW124941   0.897   2.193   3.223  0.3526  0.9648  3.1908
 4493SOL    HW224942   0.801   2.102   3.206 -0.2591  0.8401  1.0072
 4494SOL     OW24943   3.656   2.382   4.355 -0.0148  0.3790  0.4774
 4494SOL    HW124944   3.572   2.377   4.401 -0.8844 -0.7339 -1.2381
 4494SOL    HW224945   3.637   2.439   4.281 -1.6181  0.0367  0.6314
 4495SOL     OW24946   3.314   2.424   2.002 -0.3653  0.4658  0.5674
 4495SOL    HW124947   3.294   2.404   2.094  0.3067  0.5321  0.7290
 4495SOL    HW224948   3.238   2.388   1.957  0.8881  1.7032 -2.4888
 4496SOL     OW24949   1.214   0.352   4.921  0.6523  0.2580  0.0212
 4496SOL    HW124950   1.118   0.354   4.927  0.6079 -1.8320 -0.1555
 4496SOL    HW224951   1.241   0.263   4.942  0.8824  0.4011  0.3330
 4497SOL     OW24952   1.963   0.904   4.495 -0.3809  0.1623  0.4989
 4497SOL    HW124953   2.004   0.822   4.523  1.9218  0.2958 -2.4375
 4497SOL    HW224954   1.948   0.945   4.580 -0.4214  1.5093 -0.1664
 4498SOL     OW24955   1.865   4.407   7.000  0.4057  0.0315  0.1555
 4498SOL    HW124956   1.847   4.501   6.998  0.2709  0.0495  2.5805
 4498SOL    HW224957   1.910   4.389   7.082 -2.7110  0.6738  1.9948
 4499SOL     OW24958   0.650   0.338   4.713 -0.0381 -0.7507  0.1372
 4499SOL    HW124959   0.706   0.267   4.744  0.1231 -2.2085 -3.4738
 4499SOL    HW224960   0.680   0.420   4.753 -3.1101  0.5278 -0.1811
 4500SOL     OW24961   2.078   0.926  14.017 -0.2104  0.4135  0.3424
 4500SOL    HW124962   2.076   0.831  14.011 -2.0071  0.5927 -1.6289
 4500SOL    HW224963   2.174   0.932  14.009 -0.3347  1.4491 -0.2702
 4501SOL     OW24964   3.656   2.495   7.308  0.2285  0.0950  0.2839
 4501SOL    HW124965   3.579   2.545   7.279 -0.1447 -0.4176  0.3731
 4501SOL    HW224966   3.626   2.406   7.290 -1.0061  0.9274 -1.8444
 4502SOL     OW24967   3.290   1.056   3.402  0.4144  0.1500 -0.0708
 4502SOL    HW124968   3.279   1.044   3.308 -0.0433  1.8119 -0.2236
 4502SOL    HW224969   3.199   1.049   3.430 -0.3813  2.3432 -2.1461
 4503SOL     OW24970   3.944   3.954   5.477 -0.4660  0.1388  0.2724
 4503SOL    HW124971   3.987   4.023   5.427 -0.4219  0.6125  0.9646
 4503SOL    HW224972   4.000   3.887   5.439 -0.2271  0.5903 -0.1827
 4504SOL     OW24973   0.573   0.532  15.947 -0.5204 -0.2129  0.6883
 4504SOL    HW124974   0.661   0.556  15.916 -0.0390 -2.8051  0.0485
 4504SOL    HW224975   0.517   0.550  15.872  1.6075 -0.7553 -1.0334
 4505SOL     OW24976   0.060   1.940   8.471 -0.5094 -0.0668 -0.3337
 4505SOL    HW124977   0.111   1.899   8.541  0.9659 -0.8428 -1.8598
 4505SOL    HW224978   0.084   2.031   8.487  0.8999 -0.5859  0.4881
 4506SOL     OW24979   4.541   3.259   8.771 -0.4882 -0.1134  0.4366
 4506SOL    HW124980   4.503   3.210   8.699 -0.3664  0.8745 -0.2994
 4506SOL    HW224981   4.466   3.295   8.819  0.7605  1.9380  0.8671
 4507SOL     OW24982   2.308   1.953   5.944 -0.8154 -0.4567  0.2181
 4507SOL    HW124983   2.352   2.038   5.956  1.4328 -1.6951  0.8346
 4507SOL    HW224984   2.259   1.969   5.864 -0.1384  1.1479  0.1115
 4508SOL     OW24985   1.583   1.400   5.619 -0.3573  0.0927 -0.6686
 4508SOL    HW124986   1.550   1.329   5.563 -0.8317 -0.0075 -0.2655
 4508SOL    HW224987   1.678   1.385   5.612 -0.3289  1.3317 -3.1982
 4509SOL     OW24988   4.380   4.587  15.065 -0.2750 -0.6401 -0.4109
 4509SOL    HW124989   4.404   4.512  15.010  1.6041 -1.8992  2.1479
 4509SOL    HW224990   4.405   4.663  15.013 -0.5937 -0.1392  0.1686
 4510SOL     OW24991   2.735   3.043   2.394  0.1945  0.1675 -0.1799
 4510SOL    HW124992   2.680   2.965   2.409  2.0923 -1.2138 -0.4288
 4510SOL    HW224993   2.693   3.077   2.315  0.2243 -0.4946 -0.4825
 4511SOL     OW24994   1.000   1.391   0.392  0.3269  0.2807  0.1784
 4511SOL    HW124995   0.961   1.372   0.477 -2.3244  1.9484 -0.6487
 4511SOL    HW224996   1.092   1.404   0.415  0.3873  1.9102 -0.9552
 4512SOL     OW24997   3.577   3.507   4.016 -0.0509  0.1772  0.4306
 4512SOL    HW124998   3.522   3.480   3.943 -0.4995  0.3629  0.7002
 4512SOL    HW224999   3.524   3.568   4.068 -1.1330  1.0329 -1.6690
 4513SOL     OW25000   2.789   4.171   7.443  0.0783  0.0361  0.9537
 4513SOL    HW125001   2.815   4.095   7.391 -0.2161  0.0841  0.7368
 4513SOL    HW225002   2.868   4.225   7.444 -0.9268  1.5335 -0.4543
 4514SOL     OW25003   1.173   1.504  13.282 -0.1137  0.1997  0.0044
 4514SOL    HW125004   1.176   1.411  13.303  0.1832  0.2274  0.0831
 4514SOL    HW225005   1.079   1.515  13.267 -0.0827  1.7662  0.9145
 4515SOL     OW25006   0.500   3.654   8.864 -0.0648 -0.4877 -0.1154
 4515SOL    HW125007   0.485   3.595   8.791 -0.5585 -1.6730  0.9574
 4515SOL    HW225008   0.418   3.661   8.912 -0.3110 -1.8849 -0.3561
 4516SOL     OW25009   2.121   4.423  14.291 -0.3958  0.0535 -0.5416
 4516SOL    HW125010   2.026   4.419  14.293 -0.3612 -0.2640  0.9713
 4516SOL    HW225011   2.144   4.393  14.379  3.1874  1.0832 -1.1091
 4517SOL     OW25012   3.503   4.020   6.710  0.0649  0.0902  0.2444
 4517SOL    HW125013   3.554   3.945   6.741  2.5625  2.0233  0.8442
 4517SOL    HW225014   3.536   4.030   6.620 -1.4911 -3.4310 -0.6889
 4518SOL     OW25015   4.179   1.181   5.760 -0.1036  0.4827 -1.6083
 4518SOL    HW125016   4.190   1.110   5.823 -0.9688  1.7973  0.0396
 4518SOL    HW225017   4.270   1.211   5.761  0.0390  0.0662 -1.8776
 4519SOL     OW25018   3.824   1.900   9.127  0.1326  0.1188  0.1560
 4519SOL    HW125019   3.877   1.833   9.169 -0.7267 -1.7623 -1.7838
 4519SOL    HW225020   3.811   1.958   9.202  3.8236 -1.8604  2.3142
 4520SOL     OW25021   0.952   2.673   8.027 -0.2539  0.0917 -0.3244
 4520SOL    HW125022   0.974   2.669   8.120  0.3663 -3.0308 -0.6095
 4520SOL    HW225023   1.029   2.625   7.995 -0.7797  0.5167 -2.1799
 4521SOL     OW25024   4.676   0.824   4.310 -0.1134 -0.4342  0.1812
 4521SOL    HW125025   4.711   0.769   4.239  1.2952  1.6405 -0.7146
 4521SOL    HW225026   4.683   0.765   4.385  1.0646  1.9314  1.9089
 4522SOL     OW25027   0.710   3.549   7.498  0.4131 -0.6054  1.0028
 4522SOL    HW125028   0.692   3.462   7.532  1.1887 -1.5969 -1.1145
 4522SOL    HW225029   0.628   3.595   7.480  0.8019 -0.8015 -1.3176
 4523SOL     OW25030   1.996   2.139   8.872 -0.2161  0.0792 -0.7358
 4523SOL    HW125031   1.982   2.065   8.813  2.7405 -1.9414  1.0832
 4523SOL    HW225032   1.937   2.198   8.825  0.6396  1.6956  0.2282
 4524SOL     OW25033   1.574   2.452   4.126  0.3054 -0.3673  0.3465
 4524SOL    HW125034   1.518   2.374   4.121 -1.0418  0.6153  0.0600
 4524SOL    HW225035   1.643   2.425   4.066  1.9194 -0.3081  2.1911
 4525SOL     OW25036   3.093   3.928  12.411  0.5201 -0.0747 -0.2084
 4525SOL    HW125037   3.153   3.912  12.339 -0.1708 -0.0728 -0.7821
 4525SOL    HW225038   3.037   3.998  12.376  0.5752  0.4114  0.6697
 4526SOL     OW25039   1.556   2.663  11.135 -0.3594  0.2003  0.9010
 4526SOL    HW125040   1.477   2.715  11.153 -0.1935  1.0098 -0.6202
 4526SOL    HW225041   1.583   2.638  11.223 -0.0522 -0.8127  0.5136
 4527SOL     OW25042   1.122   0.176   5.763  0.4535 -0.0714  0.1539
 4527SOL    HW125043   1.172   0.196   5.842 -1.1464 -0.7735  1.3552
 4527SOL    HW225044   1.191   0.132   5.714  1.4551 -1.1156  2.5328
 4528SOL     OW25045   2.802   0.651   4.507 -0.0965 -0.0964  0.1388
 4528SOL    HW125046   2.805   0.706   4.429 -0.3843 -3.0902 -2.0033
 4528SOL    HW225047   2.848   0.572   4.477 -1.7606 -1.1536  0.3985
 4529SOL     OW25048   3.908   2.440   2.758 -0.0837  0.0152  0.2141
 4529SOL    HW125049   3.904   2.522   2.710  2.5656 -1.2676 -2.1774
 4529SOL    HW225050   3.893   2.372   2.692 -0.7452  0.7803 -0.4186
 4530SOL     OW25051   2.723   1.778   8.087 -0.4279 -0.3609  0.3224
 4530SOL    HW125052   2.698   1.755   8.177 -0.8337 -1.6588 -0.1217
 4530SOL    HW225053   2.795   1.840   8.097 -1.9661  1.7208 -1.7937
 4531SOL     OW25054   1.750   4.086  11.649  0.3638 -0.3899  0.5162
 4531SOL    HW125055   1.830   4.083  11.597 -0.3719 -2.9932 -0.4939
 4531SOL    HW225056   1.690   4.093  11.574 -1.0277 -0.3093  1.6316
 4532SOL     OW25057   4.473   0.438   4.450  0.6037  0.2470  0.4455
 4532SOL    HW125058   4.386   0.472   4.468 -0.2908 -1.7396 -0.1267
 4532SOL    HW225059   4.525   0.516   4.473  1.2940 -0.3157  0.8058
 4533SOL     OW25060   0.619   2.336   4.579  0.6032  0.0573  0.4936
 4533SOL    HW125061   0.571   2.418   4.564 -0.6463 -0.4860  1.5756
 4533SOL    HW225062   0.558   2.276   4.537 -0.1580  1.8259 -0.9244
 4534SOL     OW25063   0.747   1.653   1.826  0.2256 -0.1829  0.2516
 4534SOL    HW125064   0.653   1.669   1.830  0.5984  2.1574  0.0136
 4534SOL    HW225065   0.748   1.558   1.832  2.4627 -0.1800  0.0226
 4535SOL     OW25066   4.671   0.052   2.176 -0.1720  0.2334 -0.6191
 4535SOL    HW125067   4.703   4.682   2.150  0.7826 -0.0387  1.4794
 4535SOL    HW225068   0.016   0.100   2.121  1.2793 -2.1805 -1.0784
 4536SOL     OW25069   2.814   4.320   1.266  0.0907  0.3360 -0.2129
 4536SOL    HW125070   2.862   4.385   1.317  0.8812  0.0370 -0.5736
 4536SOL    HW225071   2.816   4.362   1.180  0.8873  0.0452 -0.3397
 4537SOL     OW25072   4.224   1.902  10.145  0.5624 -0.0034  0.3885
 4537SOL    HW125073   4.232   1.874  10.054  1.1334 -1.2356  0.8150
 4537SOL    HW225074   4.228   1.998  10.139 -1.6509  0.1187  0.9242
 4538SOL     OW25075   3.789   1.921   5.375  0.6427  0.7461 -0.3754
 4538SOL    HW125076   3.765   1.991   5.436  0.0604 -0.6995  1.0647
 4538SOL    HW225077   3.884   1.924   5.375  0.6892 -0.5487 -0.1406
 4539SOL     OW25078   3.653   3.088   7.068  0.1028 -0.3617  0.2991
 4539SOL    HW125079   3.593   3.038   7.013  0.9379 -1.4556  0.3959
 4539SOL    HW225080   3.601   3.161   7.102  0.4000  1.0989 -2.3523
 4540SOL     OW25081   2.979   2.410  12.497 -0.6667  0.1656 -0.5905
 4540SOL    HW125082   2.934   2.453  12.570 -2.7301 -0.2157 -1.6341
 4540SOL    HW225083   3.023   2.483  12.452  2.6936 -0.4082  1.8170
 4541SOL     OW25084   4.384   3.500   4.583  0.4282  0.1001 -0.5119
 4541SOL    HW125085   4.469   3.477   4.547  0.5378  1.4002 -1.0756
 4541SOL    HW225086   4.406   3.504   4.677  0.2289 -2.8202 -0.3526
 4542SOL     OW25087   1.460   1.529  16.110 -0.3877  0.0119 -0.0860
 4542SOL    HW125088   1.518   1.499  16.180  0.4859 -2.4332 -1.8366
 4542SOL    HW225089   1.528   1.587  16.076 -0.2019  0.4684  1.0834
 4543SOL     OW25090   2.209   0.843  12.521 -0.2564  0.1463 -0.2473
 4543SOL    HW125091   2.262   0.892  12.584 -3.0728  2.2487  0.5319
 4543SOL    HW225092   2.266   0.774  12.490  2.9862  1.9919  1.6384
 4544SOL     OW25093   2.817   2.252  16.691 -0.2540 -0.1780 -0.6378
 4544SOL    HW125094   2.778   2.211  16.768 -1.3833 -0.5370 -1.4121
 4544SOL    HW225095   2.744   2.301  16.652  0.2645  1.0658 -0.0666
 4545SOL     OW25096   4.433   3.842   9.844 -0.4427  0.2324 -0.1313
 4545SOL    HW125097   4.380   3.779   9.894 -0.3440 -0.4937 -0.9277
 4545SOL    HW225098   4.369   3.911   9.828 -1.0722 -0.2860  0.1637
 4546SOL     OW25099   0.816   1.637   8.271 -0.0035  0.1439 -0.1661
 4546SOL    HW125100   0.894   1.594   8.238  1.6959  0.7910  2.9706
 4546SOL    HW225101   0.844   1.634   8.363 -1.1400  2.3699  0.2440
 4547SOL     OW25102   2.644   0.741   3.631 -0.1848  0.6291  0.4702
 4547SOL    HW125103   2.571   0.753   3.570 -1.0749 -1.9664  1.0321
 4547SOL    HW225104   2.644   0.646   3.642 -0.9665  0.7639  1.6804
 4548SOL     OW25105   3.774   2.296   2.984  0.0335  0.1988 -0.0189
 4548SOL    HW125106   3.836   2.350   2.936 -0.1181  0.3863 -0.0007
 4548SOL    HW225107   3.716   2.267   2.913  1.5266 -0.5864 -0.9165
 4549SOL     OW25108   1.241   2.279   7.484 -0.5001  0.4246 -0.3522
 4549SOL    HW125109   1.311   2.300   7.422  0.9864  1.1631  1.6112
 4549SOL    HW225110   1.216   2.192   7.451  5.1164 -1.1140 -0.6864
 4550SOL     OW25111   0.645   2.579   7.409  0.0961 -0.2057  0.2624
 4550SOL    HW125112   0.685   2.666   7.411  1.4734 -0.8499  0.4396
 4550SOL    HW225113   0.574   2.599   7.348  0.2944 -0.3563 -0.0142
 4551SOL     OW25114   2.434   1.378   9.338 -0.0222 -0.7231  0.1212
 4551SOL    HW125115   2.437   1.304   9.277  0.1485 -1.1856  0.6943
 4551SOL    HW225116   2.339   1.388   9.348  0.1246  1.9372 -1.1087
 4552SOL     OW25117   1.285   2.258   5.232  0.3103  0.2452 -0.3232
 4552SOL    HW125118   1.322   2.181   5.188 -0.9062 -1.6399  1.9613
 4552SOL    HW225119   1.251   2.307   5.157 -1.6470  1.1980  1.2096
 4553SOL     OW25120   2.548   1.713   6.742  0.0371 -0.6283 -0.2671
 4553SOL    HW125121   2.616   1.728   6.676  0.4114 -2.6202 -0.3159
 4553SOL    HW225122   2.604   1.689   6.817  0.5286  1.0317 -0.0946
 4554SOL     OW25123   2.998   1.458   3.549  0.0148 -0.1709 -0.1639
 4554SOL    HW125124   3.027   1.548   3.533 -0.9188  0.0942 -0.3963
 4554SOL    HW225125   2.906   1.479   3.564  0.5440  1.7643  0.4966
 4555SOL     OW25126   2.590   0.814   2.274 -0.4421 -0.5601 -0.3497
 4555SOL    HW125127   2.509   0.816   2.222 -1.5472 -1.7554  1.3391
 4555SOL    HW225128   2.613   0.721   2.275 -0.9723 -0.6640  2.1897
 4556SOL     OW25129   3.615   2.460  12.689 -0.2772 -0.6374 -0.2940
 4556SOL    HW125130   3.549   2.504  12.635  1.3929  1.0201 -0.9932
 4556SOL    HW225131   3.689   2.457  12.628  0.8194  0.6074  0.9698
 4557SOL     OW25132   2.890   4.257  13.785  0.1666 -0.1000 -0.4495
 4557SOL    HW125133   2.852   4.343  13.765 -0.4644 -0.9370 -2.8139
 4557SOL    HW225134   2.809   4.210  13.807  1.4634 -2.8103 -1.4480
 4558SOL     OW25135   3.229   1.052  15.589 -0.7612  0.2958  0.3485
 4558SOL    HW125136   3.292   0.999  15.540 -0.1732  0.7635  0.6010
 4558SOL    HW225137   3.231   1.134  15.540  0.1931  0.2596  0.3379
 4559SOL     OW25138   0.758   4.194   4.507  0.2765 -0.3345 -0.2412
 4559SOL    HW125139   0.749   4.283   4.471  3.6039  0.1998  0.2592
 4559SOL    HW225140   0.824   4.206   4.576  1.6662 -0.9603 -1.4817
 4560SOL     OW25141   1.379   0.235   5.202 -0.5967  0.6159 -0.1073
 4560SOL    HW125142   1.308   0.197   5.253 -2.0333  2.7640 -0.5015
 4560SOL    HW225143   1.368   0.177   5.127 -3.2516  2.5295 -1.2166
 4561SOL     OW25144   0.023   3.711   2.145  0.1523  0.5275 -0.0980
 4561SOL    HW125145   0.067   3.741   2.066 -0.4529  1.3245 -0.1278
 4561SOL    HW225146   4.649   3.705   2.114 -0.1840  0.9129  0.8134
 4562SOL     OW25147   3.351   0.220   2.805  0.5644  0.6697  0.1553
 4562SOL    HW125148   3.373   0.313   2.806 -1.5684  1.1778  0.9622
 4562SOL    HW225149   3.294   0.213   2.882  0.0584  0.8479 -0.1969
 4563SOL     OW25150   4.202   0.628   0.077 -0.0555 -0.3612 -0.4891
 4563SOL    HW125151   4.242   0.552   0.035 -0.5095  0.1664 -1.8554
 4563SOL    HW225152   4.270   0.694   0.063  1.7240 -1.5463  2.4672
 4564SOL     OW25153   1.989   3.618   0.575 -0.6337 -0.3466  0.0736
 4564SOL    HW125154   1.986   3.712   0.556 -0.7517 -0.3334  0.1566
 4564SOL    HW225155   2.083   3.600   0.565 -0.2521  2.0601 -0.5680
 4565SOL     OW25156   1.294   0.746   7.270  0.2984  0.5532  0.1896
 4565SOL    HW125157   1.299   0.841   7.263 -1.4305  0.7408  1.4661
 4565SOL    HW225158   1.201   0.723   7.263  1.0621 -2.2399 -0.8761
 4566SOL     OW25159   2.859   3.640   9.875 -0.5725  0.3061 -0.3979
 4566SOL    HW125160   2.899   3.627   9.962 -2.1596  1.1088  0.4406
 4566SOL    HW225161   2.895   3.723   9.845  0.2619  0.0424 -0.1311
 4567SOL     OW25162   3.556   3.122  14.014 -0.9019  0.1302 -0.1303
 4567SOL    HW125163   3.536   3.204  13.969 -2.6697 -0.9174 -1.2527
 4567SOL    HW225164   3.476   3.115  14.067 -0.4532  2.4191  0.8565
 4568SOL     OW25165   1.649   1.944   7.382 -0.3929 -0.3187  0.6188
 4568SOL    HW125166   1.673   1.851   7.380 -0.6513 -0.3588 -0.7059
 4568SOL    HW225167   1.732   1.991   7.377 -0.3646 -0.6943 -2.6766
 4569SOL     OW25168   3.797   4.149   2.551 -0.3414 -0.6452  0.1559
 4569SOL    HW125169   3.848   4.183   2.624 -0.0804 -1.9327  0.5701
 4569SOL    HW225170   3.856   4.090   2.504 -0.1680 -1.3047  1.2234
 4570SOL     OW25171   1.684   0.373   2.478 -0.3208  0.2904 -0.5604
 4570SOL    HW125172   1.654   0.291   2.518  0.1769  0.3706 -0.0290
 4570SOL    HW225173   1.740   0.334   2.411 -1.5010 -1.1701 -0.7029
 4571SOL     OW25174   2.596   2.087  15.022  0.6770 -0.1344  0.0788
 4571SOL    HW125175   2.558   2.032  15.091 -1.2547  0.5834 -0.3993
 4571SOL    HW225176   2.611   2.019  14.957  0.4476 -0.7916  0.7022
 4572SOL     OW25177   2.941   1.950   8.120  0.1575 -0.1413  0.1697
 4572SOL    HW125178   2.936   2.031   8.170  0.9815 -0.2275  0.3894
 4572SOL    HW225179   3.009   1.909   8.173  0.4206  1.4401  1.0537
 4573SOL     OW25180   2.498   4.624   8.211 -0.2434  0.4107 -0.4452
 4573SOL    HW125181   2.528   4.715   8.215 -1.5745  0.8689 -0.9556
 4573SOL    HW225182   2.434   4.618   8.282  0.9702 -1.4384  0.4788
 4574SOL     OW25183   4.089   3.642  17.602  0.2030  0.3463 -0.2567
 4574SOL    HW125184   4.097   3.713  17.538  0.6317  0.7553  0.2586
 4574SOL    HW225185   4.015   3.681  17.648 -1.2484 -3.5287  0.6908
 4575SOL     OW25186   2.667   3.934   0.670 -0.0677 -0.4388  0.6423
 4575SOL    HW125187   2.668   3.838   0.668 -0.4751 -0.4181 -0.4443
 4575SOL    HW225188   2.754   3.952   0.705  0.2957  1.3480 -1.2350
 4576SOL     OW25189   0.107   3.406   1.983 -0.7892  0.4775  0.7401
 4576SOL    HW125190   0.131   3.458   1.907 -1.3195  0.1864  0.3719
 4576SOL    HW225191   0.095   3.468   2.055 -0.9420  1.3026  0.0071
 4577SOL     OW25192   1.895   2.737  10.062 -1.3417 -0.7136 -0.0206
 4577SOL    HW125193   1.814   2.779  10.088 -0.8930 -0.3726  0.8146
 4577SOL    HW225194   1.898   2.668  10.128  2.5415 -1.4282 -0.8767
 4578SOL     OW25195   1.031   1.151   7.893  0.1822 -0.0132  0.1423
 4578SOL    HW125196   1.112   1.113   7.927  1.5642  2.9663  0.2096
 4578SOL    HW225197   1.063   1.223   7.838 -0.5471  0.6751  0.6308
 4579SOL     OW25198   2.793   0.724   6.572  0.3844  0.6595 -0.2252
 4579SOL    HW125199   2.771   0.660   6.505  1.8104 -0.9471  0.8575
 4579SOL    HW225200   2.746   0.806   6.555 -0.0572  0.1482 -1.4614
 4580SOL     OW25201   2.367   4.236   6.808 -0.0397  0.0131  0.1214
 4580SOL    HW125202   2.285   4.225   6.761 -0.5667  0.0292  1.0426
 4580SOL    HW225203   2.375   4.329   6.827  0.9546  0.0661 -0.5549
 4581SOL     OW25204   2.709   2.529   0.099 -0.1714  0.0771 -0.3560
 4581SOL    HW125205   2.781   2.591   0.086  0.7144 -1.4251 -2.5103
 4581SOL    HW225206   2.741   2.473   0.170  1.6856  1.1054 -0.3928
 4582SOL     OW25207   4.072   1.270   8.308 -0.1853 -0.3320 -0.2704
 4582SOL    HW125208   4.053   1.350   8.259  0.0725  0.3468  0.7223
 4582SOL    HW225209   4.024   1.274   8.391 -2.9433  1.4791 -1.9858
 4583SOL     OW25210   2.213   3.090   5.444 -0.0683  0.1142 -0.6300
 4583SOL    HW125211   2.134   3.140   5.423 -0.5955 -0.0412  1.0180
 4583SOL    HW225212   2.163   3.017   5.481 -0.3131  0.0543 -1.0701
 4584SOL     OW25213   1.779   3.281   7.410 -0.1606  0.0511  0.0783
 4584SOL    HW125214   1.841   3.217   7.376 -0.7711  0.5016 -1.8521
 4584SOL    HW225215   1.695   3.241   7.389 -0.8634  2.0372 -0.8437
 4585SOL     OW25216   1.237   4.197   9.894 -0.0154 -0.4671  0.2779
 4585SOL    HW125217   1.161   4.141   9.877 -1.5491  1.0114  2.3675
 4585SOL    HW225218   1.210   4.238   9.976  2.4795 -1.5322  1.6454
 4586SOL     OW25219   0.101   0.047   3.931  0.1168 -0.0468  0.6652
 4586SOL    HW125220   0.041   0.044   4.005  0.7033 -0.9095  1.1002
 4586SOL    HW225221   0.170   0.092   3.979  1.8160 -0.4288 -1.4041
 4587SOL     OW25222   4.493   2.850   7.472 -0.6467  0.4485  0.3144
 4587SOL    HW125223   4.447   2.847   7.388 -1.4226  0.3887  0.7365
 4587SOL    HW225224   4.473   2.930   7.521  0.1148 -0.0326  1.3958
 4588SOL     OW25225   2.253   2.373   8.358  0.8156  0.0623  0.7147
 4588SOL    HW125226   2.277   2.323   8.280 -0.0434 -0.1341  0.5686
 4588SOL    HW225227   2.232   2.308   8.425 -2.4530 -0.0131 -0.3622
 4589SOL     OW25228   3.356   0.071   3.884 -0.1294  0.0586 -0.2187
 4589SOL    HW125229   3.388   0.042   3.970 -1.9204 -1.8395 -0.1733
 4589SOL    HW225230   3.376   4.700   3.851  0.3197 -0.6840  2.0194
 4590SOL     OW25231   1.400   0.789   4.191 -0.2009  0.6636 -0.2875
 4590SOL    HW125232   1.476   0.755   4.145 -2.6829 -1.0755 -3.1262
 4590SOL    HW225233   1.438   0.858   4.245  1.8899 -0.9978  0.3618
 4591SOL     OW25234   1.105   4.367   0.481  0.4461 -0.0581 -0.9171
 4591SOL    HW125235   1.039   4.373   0.412 -1.6582  2.2223  1.3204
 4591SOL    HW225236   1.072   4.419   0.554 -1.1177  0.9860 -2.3884
 4592SOL     OW25237   1.980   0.435  16.780 -0.1282 -0.4092 -0.0981
 4592SOL    HW125238   2.000   0.363  16.720  0.3730 -0.4912  0.1723
 4592SOL    HW225239   1.891   0.454  16.750 -1.6008  0.2541  4.8020
 4593SOL     OW25240   0.156   1.132   1.999 -0.8772 -0.1837 -0.1436
 4593SOL    HW125241   0.168   1.210   1.945 -1.7433 -1.2745 -1.8782
 4593SOL    HW225242   0.210   1.068   1.952 -1.6933  0.2495 -1.6547
 4594SOL     OW25243   0.280   2.716   5.188  0.7607 -0.5537  0.0571
 4594SOL    HW125244   0.218   2.672   5.130 -0.4888  0.1062  0.8927
 4594SOL    HW225245   0.335   2.774   5.136  1.4669 -0.8983  0.4313
 4595SOL     OW25246   1.754   3.925   4.711 -0.2265  0.1392  0.0112
 4595SOL    HW125247   1.705   3.964   4.639 -1.6678 -1.4164  0.1449
 4595SOL    HW225248   1.812   3.993   4.746  1.5756 -1.0676 -0.6044
 4596SOL     OW25249   3.254   1.435   5.870 -0.0648  0.3856  0.1238
 4596SOL    HW125250   3.322   1.380   5.908 -0.0142  0.8197  0.6479
 4596SOL    HW225251   3.262   1.516   5.919  0.0819  0.2319  0.3511
 4597SOL     OW25252   1.677   3.158  14.938 -0.1351  0.0082  0.4804
 4597SOL    HW125253   1.615   3.206  14.993 -2.0195 -0.1167 -1.5182
 4597SOL    HW225254   1.631   3.106  14.872  1.6896 -0.5761 -0.3250
 4598SOL     OW25255   2.813   0.009   6.208 -0.1935  0.1838 -0.4793
 4598SOL    HW125256   2.878   0.067   6.169 -1.3244 -0.2714 -3.0370
 4598SOL    HW225257   2.859   4.678   6.277  0.5683  2.2988  0.4645
 4599SOL     OW25258   0.452   2.902  17.623 -0.1136  0.1174  0.6075
 4599SOL    HW125259   0.501   2.956   0.016 -0.1678  0.7419  0.1048
 4599SOL    HW225260   0.388   2.856   0.008  0.1409  0.3339  1.0897
 4600SOL     OW25261   2.045   0.868   8.005  0.3780 -0.4469  0.4024
 4600SOL    HW125262   1.974   0.816   8.043  0.4524 -0.4713  0.5055
 4600SOL    HW225263   2.024   0.955   8.041  0.3717 -0.8201  1.3030
 4601SOL     OW25264   0.650   1.109   6.260 -0.0668 -0.3685 -0.4738
 4601SOL    HW125265   0.720   1.163   6.224 -1.8459  1.8005 -0.6189
 4601SOL    HW225266   0.695   1.070   6.336 -2.7775 -1.0864  0.7694
 4602SOL     OW25267   1.483   3.627   6.777 -0.1808 -0.2727 -0.1406
 4602SOL    HW125268   1.401   3.583   6.799 -0.5677  0.9282  0.8535
 4602SOL    HW225269   1.534   3.605   6.855 -0.7108 -0.7886  0.0579
 4603SOL     OW25270   2.196   0.354   8.361 -0.0053  0.0382 -0.1053
 4603SOL    HW125271   2.251   0.431   8.371  0.4557 -0.2559 -0.3556
 4603SOL    HW225272   2.254   0.288   8.400  1.0151  0.9145 -0.1439
 4604SOL     OW25273   0.427   4.462   5.327  0.5796  0.2430 -0.3121
 4604SOL    HW125274   0.387   4.378   5.303 -2.6005  1.0451  2.1514
 4604SOL    HW225275   0.515   4.425   5.314 -0.7461 -2.7581 -0.8319
 4605SOL     OW25276   1.748   1.372   8.562 -0.0791 -0.8985 -0.0036
 4605SOL    HW125277   1.689   1.377   8.637  1.5119  1.2322  1.1317
 4605SOL    HW225278   1.716   1.294   8.517  0.8513 -0.2198 -1.8296
 4606SOL     OW25279   1.810   1.665  10.377 -0.1154  0.2533 -0.4374
 4606SOL    HW125280   1.736   1.716  10.411 -0.5307 -0.5295 -0.1568
 4606SOL    HW225281   1.757   1.601  10.329  3.0811 -1.8852 -1.1235
 4607SOL     OW25282   0.457   2.235   7.726  0.2587 -0.3666  0.0528
 4607SOL    HW125283   0.469   2.326   7.752  1.1804 -0.8782  1.4165
 4607SOL    HW225284   0.525   2.194   7.779  1.4631  0.4925 -0.8259
 4608SOL     OW25285   0.932   3.616   4.910 -0.1155  0.3393  0.0290
 4608SOL    HW125286   0.998   3.640   4.845 -1.7928  2.9118 -0.7285
 4608SOL    HW225287   0.867   3.685   4.892  1.0989  1.8470  1.3381
 4609SOL     OW25288   0.605   4.231   5.618  0.1131  0.0148 -0.2801
 4609SOL    HW125289   0.566   4.314   5.647 -4.7734 -2.7606  1.0773
 4609SOL    HW225290   0.684   4.265   5.575  0.8797  0.7637  1.6730
 4610SOL     OW25291   2.977   1.615   4.663  0.2935 -0.7319  0.2674
 4610SOL    HW125292   2.996   1.679   4.594  1.5993 -2.0113 -0.5462
 4610SOL    HW225293   2.889   1.639   4.690  0.6121  0.8241 -0.0440
 4611SOL     OW25294   2.497   2.521  14.223  0.6070  0.0301 -0.0781
 4611SOL    HW125295   2.566   2.586  14.210 -0.1239  0.8282  0.0407
 4611SOL    HW225296   2.442   2.548  14.150 -0.3933 -3.4056 -0.5804
 4612SOL     OW25297   2.092   0.271  12.657 -0.5116  0.7115 -0.5656
 4612SOL    HW125298   2.032   0.262  12.583 -1.4094 -0.6268  0.3331
 4612SOL    HW225299   2.152   0.338  12.622 -0.5852  1.1531  0.1431
 4613SOL     OW25300   1.593   0.777   6.202 -0.1201  0.5687 -0.1119
 4613SOL    HW125301   1.636   0.858   6.174 -2.4455  1.3806 -1.3135
 4613SOL    HW225302   1.535   0.822   6.264 -1.8993  1.0672 -2.1577
 4614SOL     OW25303   4.684   1.491  15.331 -0.4748  0.0837  0.9009
 4614SOL    HW125304   4.674   1.427  15.401 -3.7743 -1.3421 -0.8410
 4614SOL    HW225305   0.051   1.528  15.358  0.3188 -1.3295  0.3772
 4615SOL     OW25306   0.278   4.073  10.344  0.0591 -0.5735  0.0120
 4615SOL    HW125307   0.252   4.053  10.254  1.2640 -1.2859 -0.1890
 4615SOL    HW225308   0.372   4.055  10.350  0.0592 -0.2898  0.7811
 4616SOL     OW25309   1.128   2.440  11.707 -1.0590 -0.0627 -0.3436
 4616SOL    HW125310   1.131   2.484  11.792 -0.2216 -1.7774  0.5248
 4616SOL    HW225311   1.064   2.374  11.733 -1.2082 -0.1025 -0.8013
 4617SOL     OW25312   1.013   3.775   3.476  0.4646 -0.5968 -0.6951
 4617SOL    HW125313   0.986   3.867   3.465  1.5336 -0.1638  0.2512
 4617SOL    HW225314   0.930   3.733   3.498  1.2305 -1.7995 -0.0835
 4618SOL     OW25315   2.427   1.909  10.787 -0.8289 -0.2772  0.1220
 4618SOL    HW125316   2.485   1.982  10.767 -0.1995  0.0309  3.0120
 4618SOL    HW225317   2.394   1.891  10.699 -0.4081 -0.1633 -0.0614
 4619SOL     OW25318   2.873   0.973   8.965 -0.1151  0.1226  0.1163
 4619SOL    HW125319   2.811   1.007   8.900 -0.9883  0.5036  1.1413
 4619SOL    HW225320   2.826   0.896   8.997  0.6156 -0.0327  0.7915
 4620SOL     OW25321   3.513   0.913   4.498 -0.4167  0.4059 -0.2050
 4620SOL    HW125322   3.561   0.921   4.416 -0.5112 -0.5770 -0.3589
 4620SOL    HW225323   3.459   0.992   4.498 -1.2576 -0.1606  0.6712
 4621SOL     OW25324   0.384   2.923   7.745  0.3094  0.1823 -0.8240
 4621SOL    HW125325   0.355   2.878   7.666 -1.9037 -2.8858  1.7139
 4621SOL    HW225326   0.309   2.976   7.771 -1.1284 -1.4867 -1.5952
 4622SOL     OW25327   2.119   2.223  13.552  0.2503 -0.2889  0.3941
 4622SOL    HW125328   2.095   2.220  13.644  3.8402  0.0525  1.3489
 4622SOL    HW225329   2.201   2.273  13.551 -1.1293  2.0187  2.3094
 4623SOL     OW25330   3.763   1.547   7.852 -0.1275 -0.0362 -0.2886
 4623SOL    HW125331   3.816   1.592   7.918  1.6088 -2.5299 -0.0031
 4623SOL    HW225332   3.708   1.484   7.900  2.0486 -1.4372  0.3404
 4624SOL     OW25333   3.768   1.318   1.834  0.0267  0.4010 -0.3650
 4624SOL    HW125334   3.734   1.235   1.869  0.7650  0.5962  0.8118
 4624SOL    HW225335   3.756   1.298   1.741  1.5682  1.7053 -0.8313
 4625SOL     OW25336   1.823   1.443   2.812 -0.0424 -0.1074 -0.9875
 4625SOL    HW125337   1.785   1.477   2.893  2.0024  0.5680 -0.3165
 4625SOL    HW225338   1.915   1.469   2.813  0.6523 -2.5753 -0.7184
 4626SOL     OW25339   0.960   2.665   2.410  0.3711 -0.0024  0.1256
 4626SOL    HW125340   0.936   2.749   2.369 -1.5437 -1.9988 -2.8572
 4626SOL    HW225341   1.044   2.696   2.443  2.5039 -4.7952 -0.8093
 4627SOL     OW25342   0.852   1.484   6.925 -0.0007  0.4313 -0.4369
 4627SOL    HW125343   0.802   1.557   6.890 -0.5654  0.1769 -0.1620
 4627SOL    HW225344   0.865   1.511   7.016  0.1547 -0.8735 -0.0690
 4628SOL     OW25345   1.305   0.200  16.984  0.0246 -0.4045  0.1493
 4628SOL    HW125346   1.320   0.218  17.077 -0.0631 -0.6096  0.2025
 4628SOL    HW225347   1.313   0.105  16.978  0.6003 -0.2723 -1.2887
 4629SOL     OW25348   0.696   1.017   7.014 -0.5148 -0.0407 -0.3336
 4629SOL    HW125349   0.685   1.111   6.997  1.1332  0.5741  2.0598
 4629SOL    HW225350   0.683   0.975   6.929 -1.7624 -0.3990  0.0255
 4630SOL     OW25351   1.746   4.685   6.376  0.2650  0.0946 -0.1280
 4630SOL    HW125352   1.773   0.046   6.328  0.5942  0.1875  0.2043
 4630SOL    HW225353   1.695   4.631   6.316 -0.9933  0.1951  0.8583
 4631SOL     OW25354   0.223   1.827   7.016 -0.3408  0.6811  0.0460
 4631SOL    HW125355   0.204   1.746   6.968 -0.3792  0.9785 -0.4376
 4631SOL    HW225356   0.172   1.885   6.960 -0.5700  0.0229 -0.4217
 4632SOL     OW25357   2.486   3.085   4.658 -0.9069  0.1027 -0.4190
 4632SOL    HW125358   2.522   3.164   4.699 -1.6348 -1.5848  3.4657
 4632SOL    HW225359   2.418   3.115   4.598 -2.3894 -0.4521  0.9942
 4633SOL     OW25360   3.057   4.653   6.781 -0.1086  0.6731 -0.0915
 4633SOL    HW125361   3.127   4.660   6.716 -1.1572 -0.4476 -1.3385
 4633SOL    HW225362   3.050   0.020   6.826  0.4708 -1.5222  4.1502
 4634SOL     OW25363   2.773   0.581   6.792  0.0032 -0.0870 -0.4793
 4634SOL    HW125364   2.693   0.549   6.750 -0.1670  0.4728 -0.5855
 4634SOL    HW225365   2.796   0.648   6.728  0.5343  0.4037  0.2275
 4635SOL     OW25366   3.924   1.000   9.043 -0.3212  0.3159  0.0405
 4635SOL    HW125367   3.942   1.094   9.046 -1.6281  0.5880 -0.9456
 4635SOL    HW225368   3.954   0.968   9.128  0.2391  1.3447  0.2412
 4636SOL     OW25369   1.605   2.095   5.957  0.4182  0.7516  0.2774
 4636SOL    HW125370   1.601   2.187   5.931 -0.9023  0.0020 -2.1949
 4636SOL    HW225371   1.638   2.061   5.874 -0.1259 -0.8529  0.7178
 4637SOL     OW25372   1.588   3.057   4.574  0.0882 -0.0663 -0.0489
 4637SOL    HW125373   1.577   3.148   4.601  0.3767  0.1246 -0.5897
 4637SOL    HW225374   1.615   3.060   4.482 -0.7298 -0.6947 -0.3169
 4638SOL     OW25375   3.922   0.574   8.287 -0.4026  0.1397 -0.5656
 4638SOL    HW125376   3.956   0.486   8.303  3.4464  1.9971  1.3858
 4638SOL    HW225377   3.931   0.611   8.375  0.3340  2.9072 -1.7892
 4639SOL     OW25378   1.143   4.437   8.578  0.4633  0.3772 -0.3637
 4639SOL    HW125379   1.230   4.405   8.600  0.7264  0.7857 -0.8142
 4639SOL    HW225380   1.163   4.459   8.487 -2.1387 -0.4329 -1.1344
 4640SOL     OW25381   1.233   2.914  13.497  0.5597  0.4652 -0.6557
 4640SOL    HW125382   1.145   2.899  13.531  1.9186 -1.7642  1.9984
 4640SOL    HW225383   1.216   2.988  13.439  0.1422  1.5772  0.8867
 4641SOL     OW25384   1.195   1.693   3.107 -0.6291 -0.7525  0.1884
 4641SOL    HW125385   1.178   1.672   3.198  0.3934  0.9658  0.7765
 4641SOL    HW225386   1.169   1.611   3.064  0.2324 -1.0222  0.1743
 4642SOL     OW25387   2.686   2.761   3.627 -0.6198 -0.1481 -0.3621
 4642SOL    HW125388   2.755   2.698   3.609 -0.0949  0.2479  0.2668
 4642SOL    HW225389   2.722   2.832   3.574  0.0101 -1.1570 -1.2584
 4643SOL     OW25390   1.686   1.631  16.396  0.0318  0.8339 -0.0297
 4643SOL    HW125391   1.770   1.592  16.372  1.0141  2.0218  1.5143
 4643SOL    HW225392   1.637   1.550  16.380 -1.8531  1.7726  0.9640
 4644SOL     OW25393   2.351   4.348   3.986  0.3229  0.0260 -0.2142
 4644SOL    HW125394   2.327   4.428   4.035  0.4957 -0.9400  1.4602
 4644SOL    HW225395   2.435   4.326   4.025  0.1599 -2.4588 -1.2876
 4645SOL     OW25396   4.371   1.777   1.534 -0.2621 -0.2174  0.1502
 4645SOL    HW125397   4.363   1.828   1.615 -1.7548  4.0457 -2.6872
 4645SOL    HW225398   4.464   1.759   1.524 -0.3029  1.1171 -2.4190
 4646SOL     OW25399   1.128   3.906   1.769  0.3563 -0.9747 -0.4742
 4646SOL    HW125400   1.191   3.835   1.787  1.9490 -0.5621 -4.5710
 4646SOL    HW225401   1.160   3.968   1.834 -0.9038  0.6451 -1.4289
 4647SOL     OW25402   0.676   4.105   0.022 -0.0619  0.7419 -0.2559
 4647SOL    HW125403   0.613   4.176   0.035 -0.6859  0.3362 -1.0349
 4647SOL    HW225404   0.650   4.061  17.610 -0.1503 -1.8720  1.1836
 4648SOL     OW25405   1.677   2.456  14.489  0.5452  0.4851 -0.0305
 4648SOL    HW125406   1.765   2.429  14.464  0.7534  0.3615  0.8503
 4648SOL    HW225407   1.629   2.418  14.415 -0.8928 -0.8487  1.5966
 4649SOL     OW25408   1.279   0.249   5.956 -0.3609 -0.6130 -0.3527
 4649SOL    HW125409   1.240   0.259   6.043  0.1225 -0.1106 -0.1908
 4649SOL    HW225410   1.343   0.320   5.947 -1.5141  0.9472  3.8241
 4650SOL     OW25411   0.239   3.866   1.600  0.1150  0.1476  0.3884
 4650SOL    HW125412   0.182   3.881   1.526 -1.6315  1.4808  1.9940
 4650SOL    HW225413   0.266   3.776   1.585 -1.6339 -0.2394 -0.3059
 4651SOL     OW25414   3.817   3.587  12.973  0.1978  0.0644 -0.5964
 4651SOL    HW125415   3.794   3.531  13.047 -0.0486  0.6929 -0.1951
 4651SOL    HW225416   3.907   3.564  12.950  0.2629  1.3882 -1.6554
 4652SOL     OW25417   2.244   3.785  11.336  0.1052 -0.4659 -0.1900
 4652SOL    HW125418   2.249   3.827  11.250  0.4933  3.6480  1.8509
 4652SOL    HW225419   2.309   3.832  11.388  0.2367 -0.2956 -0.5091
 4653SOL     OW25420   1.929   3.700   2.916 -0.1176  0.2087 -0.0149
 4653SOL    HW125421   1.891   3.661   2.837 -2.0646 -2.6007  2.3337
 4653SOL    HW225422   1.857   3.702   2.978  0.6544 -1.4492  0.9261
 4654SOL     OW25423   3.527   0.241   0.347  0.2021 -0.3877 -0.1110
 4654SOL    HW125424   3.487   0.218   0.431  2.4941  1.4399  1.4978
 4654SOL    HW225425   3.577   0.160   0.339 -1.3895 -1.3555 -0.2147
 4655SOL     OW25426   1.334   1.434   4.746  0.2548 -0.0697  0.0421
 4655SOL    HW125427   1.353   1.404   4.835  1.5337 -1.7983 -0.8016
 4655SOL    HW225428   1.386   1.371   4.695  0.0150  0.3236 -0.6976
 4656SOL     OW25429   4.604   3.431   4.864 -0.6663 -0.3507 -0.3060
 4656SOL    HW125430   4.518   3.405   4.896 -1.3506  0.0305 -1.8842
 4656SOL    HW225431   4.577   3.503   4.808 -2.4175  0.1201  1.1468
 4657SOL     OW25432   4.041   1.857   3.947 -0.3557  0.1944 -0.0825
 4657SOL    HW125433   3.982   1.892   4.013 -2.6199  0.7650 -2.3949
 4657SOL    HW225434   4.038   1.930   3.886 -0.8843  2.1191  2.2523
 4658SOL     OW25435   3.075   0.895  16.453 -0.6264 -0.8051  0.0764
 4658SOL    HW125436   3.013   0.834  16.492  0.0854 -0.2427  2.0756
 4658SOL    HW225437   3.097   0.945  16.532 -0.2935 -2.2025  0.8606
 4659SOL     OW25438   4.305   3.868   0.003 -0.1355 -0.1959  1.0201
 4659SOL    HW125439   4.318   3.796  17.610  0.8212  0.9531 -0.1048
 4659SOL    HW225440   4.228   3.906  17.630 -0.1214 -1.5018 -0.1870
 4660SOL     OW25441   0.537   1.027   4.503  0.2622  0.1402  0.5332
 4660SOL    HW125442   0.598   1.066   4.565  1.2909 -1.7228  0.6925
 4660SOL    HW225443   0.602   0.996   4.440  1.1362  0.4064  1.3092
 4661SOL     OW25444   1.633   2.816   2.971  0.5129  0.2823  0.2823
 4661SOL    HW125445   1.610   2.852   2.885 -0.1332  1.0298  0.7732
 4661SOL    HW225446   1.696   2.885   2.990 -0.0530  0.9375 -0.2541
 4662SOL     OW25447   4.078   1.370   3.669 -0.2392  0.1623 -0.4534
 4662SOL    HW125448   4.002   1.423   3.696  0.3364  0.5793  0.3420
 4662SOL    HW225449   4.146   1.434   3.649 -1.1871  1.1578 -0.5357
 4663SOL     OW25450   3.220   3.951   0.619 -0.2635  0.3852  0.1506
 4663SOL    HW125451   3.229   3.861   0.587  0.0509 -0.4588  2.6749
 4663SOL    HW225452   3.259   3.943   0.705  1.7216  0.2291 -0.7770
 4664SOL     OW25453   2.962   0.529   3.895 -0.0171  0.7341 -0.3759
 4664SOL    HW125454   3.021   0.604   3.885  0.3902  0.4647  0.0332
 4664SOL    HW225455   2.953   0.503   3.803  2.5624  0.9109 -0.6719
 4665SOL     OW25456   2.099   4.355   5.260 -0.1429 -0.1286  0.1044
 4665SOL    HW125457   2.178   4.395   5.296 -0.4188  1.3123 -0.9202
 4665SOL    HW225458   2.094   4.279   5.318 -0.7498  1.8040  2.5698
 4666SOL     OW25459   0.699   0.334   6.323  0.4498 -0.3338  0.3534
 4666SOL    HW125460   0.681   0.418   6.282 -0.8279  0.3518  2.3059
 4666SOL    HW225461   0.680   0.345   6.416 -1.1046 -0.3973  0.0556
 4667SOL     OW25462   3.208   0.606   5.015  0.0900  0.6001 -0.0277
 4667SOL    HW125463   3.261   0.583   5.091 -0.2676  0.1944  0.1026
 4667SOL    HW225464   3.128   0.557   5.030  1.0715 -0.6333  1.1876
 4668SOL     OW25465   2.672   3.108   7.843  0.6209  0.5075  0.8571
 4668SOL    HW125466   2.750   3.060   7.815  0.4258  0.8906 -0.3854
 4668SOL    HW225467   2.705   3.191   7.877  0.8187  0.8477 -0.1415
 4669SOL     OW25468   1.297   4.005  14.583 -0.4627  0.6475  0.2049
 4669SOL    HW125469   1.240   3.945  14.630  0.0885 -0.8624 -1.0590
 4669SOL    HW225470   1.231   4.034  14.520 -0.9207  0.1526  0.4611
 4670SOL     OW25471   4.403   2.131   1.650 -0.2657 -0.2093 -0.5542
 4670SOL    HW125472   4.414   2.075   1.726 -1.1323 -0.2017 -0.4239
 4670SOL    HW225473   4.314   2.100   1.634 -0.0089 -1.6115  0.7529
 4671SOL     OW25474   0.681   1.709   4.284 -0.4794 -0.3637 -0.2407
 4671SOL    HW125475   0.766   1.669   4.265 -0.9949 -1.9269  0.7096
 4671SOL    HW225476   0.648   1.707   4.194 -0.9940 -0.3873 -0.0561
 4672SOL     OW25477   4.028   0.968   4.808 -0.2134  0.2361  0.2673
 4672SOL    HW125478   4.118   0.942   4.826  0.0618  0.0045 -1.4045
 4672SOL    HW225479   4.042   1.006   4.721  1.8579 -0.3815  0.3315
 4673SOL     OW25480   1.548   0.945   8.176 -0.3148  0.2663  0.1856
 4673SOL    HW125481   1.575   0.892   8.101  0.4947  3.0059 -1.4199
 4673SOL    HW225482   1.579   1.030   8.148 -1.9210  1.3226  1.6061
 4674SOL     OW25483   3.220   0.093   0.575  0.4797  0.4556  0.0306
 4674SOL    HW125484   3.308   0.117   0.603  0.9742 -1.4967  0.1959
 4674SOL    HW225485   3.167   0.170   0.596  1.6262  1.7207 -1.7552
 4675SOL     OW25486   0.836   2.335   2.022  0.7607 -0.1042  0.5615
 4675SOL    HW125487   0.849   2.242   2.040 -0.5233 -0.6891 -1.5666
 4675SOL    HW225488   0.883   2.375   2.095  0.6101  0.0625  0.5681
 4676SOL     OW25489   1.083   0.454   4.213  0.6785  0.3132 -1.0185
 4676SOL    HW125490   1.179   0.449   4.212  0.5772 -1.8374 -1.2460
 4676SOL    HW225491   1.056   0.365   4.237 -0.3182  0.4447 -1.6596
 4677SOL     OW25492   1.446   1.819   5.001 -0.6573  0.0411  0.7008
 4677SOL    HW125493   1.425   1.752   4.937  1.0385  0.6442 -0.4970
 4677SOL    HW225494   1.489   1.767   5.070  0.0442 -2.7393 -1.8527
 4678SOL     OW25495   0.886   3.138   5.768  0.1007 -0.2905 -0.3399
 4678SOL    HW125496   0.888   3.088   5.850  1.2732 -0.0003 -0.2059
 4678SOL    HW225497   0.807   3.184   5.796  1.9221  1.2405  2.2631
 4679SOL     OW25498   3.178   0.984  16.040  0.7773 -0.6475 -0.3248
 4679SOL    HW125499   3.128   0.906  16.018 -0.1148  0.0978 -0.8995
 4679SOL    HW225500   3.126   1.024  16.109  3.3541  1.2080  0.5559
 4680SOL     OW25501   1.201   4.072   1.981 -0.7945 -0.0254 -0.3439
 4680SOL    HW125502   1.295   4.089   1.985 -0.7115 -0.2868 -1.3088
 4680SOL    HW225503   1.167   4.124   2.054 -0.4446 -1.3052  0.7381
 4681SOL     OW25504   0.436   1.584   5.244  0.2483  0.4739  0.2192
 4681SOL    HW125505   0.428   1.612   5.153 -1.4842  0.5697  0.4038
 4681SOL    HW225506   0.451   1.490   5.242  1.3822  0.6377  0.6916
 4682SOL     OW25507   2.144   3.242   9.272 -0.6108  0.5664  0.9374
 4682SOL    HW125508   2.143   3.247   9.177 -2.5111 -0.2656  0.9114
 4682SOL    HW225509   2.129   3.336   9.286 -0.1915  0.7291  0.3020
 4683SOL     OW25510   2.670   0.167   0.396  0.1590  0.0698  0.2230
 4683SOL    HW125511   2.729   0.195   0.326  0.7039 -3.0216 -0.5725
 4683SOL    HW225512   2.621   0.249   0.401  1.6420  1.2047 -3.7088
 4684SOL     OW25513   2.280   4.019  15.280 -0.0998 -0.0266  0.2310
 4684SOL    HW125514   2.185   4.008  15.276  0.1674 -1.9700 -0.7735
 4684SOL    HW225515   2.319   3.932  15.289  1.7446  0.7981  0.2644
 4685SOL     OW25516   0.291   4.361   7.425  0.3276  0.0217 -0.3065
 4685SOL    HW125517   0.285   4.266   7.432  0.1411 -0.0378 -1.3688
 4685SOL    HW225518   0.201   4.388   7.408 -0.5671 -1.0063  2.7215
 4686SOL     OW25519   1.100   3.597  10.816 -0.1481  0.0944 -0.1071
 4686SOL    HW125520   1.108   3.687  10.786  0.1396  0.4404  1.0094
 4686SOL    HW225521   1.134   3.611  10.904  0.8212 -0.8989 -0.3317
 4687SOL     OW25522   1.784   0.338   3.465  0.4934  0.2009  0.1062
 4687SOL    HW125523   1.798   0.352   3.559 -1.0315  1.7603  0.0928
 4687SOL    HW225524   1.849   0.404   3.439 -1.9933  2.3948 -0.5835
 4688SOL     OW25525   3.148   0.590  13.085  0.3908  0.4448 -0.3456
 4688SOL    HW125526   3.060   0.617  13.114  1.0284  2.7807 -0.5898
 4688SOL    HW225527   3.186   0.661  13.033  0.0760  1.9994  1.4939
 4689SOL     OW25528   4.215   2.588  16.770 -0.2728 -0.2205 -0.2122
 4689SOL    HW125529   4.292   2.593  16.714  0.4609  1.2308  0.9399
 4689SOL    HW225530   4.264   2.572  16.850  0.5423 -1.8058 -1.0476
 4690SOL     OW25531   4.232   4.482   7.593  0.5977 -0.1714 -0.0942
 4690SOL    HW125532   4.238   4.418   7.664 -0.1225  1.5656  1.5351
 4690SOL    HW225533   4.324   4.487   7.567  0.2658 -1.1930 -1.4574
 4691SOL     OW25534   4.616   0.316   6.534  0.1917 -0.9969 -1.2107
 4691SOL    HW125535   4.597   0.247   6.597 -1.0870  0.2114 -0.2511
 4691SOL    HW225536   4.639   0.394   6.586  1.3946 -1.2491 -1.3754
 4692SOL     OW25537   3.868   1.596   9.253  0.0409 -0.5575 -0.0362
 4692SOL    HW125538   3.916   1.593   9.335  0.8561 -1.4858 -0.5426
 4692SOL    HW225539   3.929   1.539   9.206 -1.2162  0.2524 -2.7002
 4693SOL     OW25540   1.000   2.210   9.838  0.1632  0.1934 -0.0945
 4693SOL    HW125541   0.996   2.197   9.744  2.0388 -0.8432 -0.0309
 4693SOL    HW225542   1.090   2.187   9.860  0.5224  1.5576 -0.1049
 4694SOL     OW25543   0.350   3.845   7.477 -0.2292  0.4598  0.5769
 4694SOL    HW125544   0.407   3.915   7.446  0.3290  0.1650  0.9411
 4694SOL    HW225545   0.269   3.895   7.481 -0.6440 -0.0677 -1.2140
 4695SOL     OW25546   4.357   1.202   3.574 -0.3066 -0.4247 -0.0945
 4695SOL    HW125547   4.305   1.229   3.499  1.7080  3.2941 -0.1524
 4695SOL    HW225548   4.449   1.210   3.547 -0.7821  1.1505 -1.2134
 4696SOL     OW25549   2.722   1.613  10.617  0.3798  0.1847 -0.4202
 4696SOL    HW125550   2.646   1.596  10.672 -0.6050  0.9243 -1.5618
 4696SOL    HW225551   2.785   1.550  10.654  1.0448  1.6197  0.8761
 4697SOL     OW25552   0.473   1.045  11.097 -0.3059 -0.2431  0.3209
 4697SOL    HW125553   0.470   1.048  11.193 -0.5059 -1.9059  0.3534
 4697SOL    HW225554   0.442   1.131  11.068 -0.4459 -0.2591  0.4229
 4698SOL     OW25555   2.959   1.977  11.807 -0.4316  0.0787  0.1118
 4698SOL    HW125556   2.969   1.937  11.894 -1.1759  0.1243  0.2203
 4698SOL    HW225557   3.032   1.947  11.754 -0.1815  0.9374 -0.0278
 4699SOL     OW25558   0.846   1.975  10.594 -0.0179 -0.8457  0.4901
 4699SOL    HW125559   0.871   2.048  10.538 -0.3970 -0.7523  0.4430
 4699SOL    HW225560   0.864   2.014  10.680  1.5869 -0.1282 -0.1723
 4700SOL     OW25561   3.889   3.000  10.974  0.2333 -0.6077  0.6259
 4700SOL    HW125562   3.862   2.937  11.041 -1.2872 -1.2972 -0.6566
 4700SOL    HW225563   3.823   2.996  10.905  0.6974 -2.2776  0.2842
 4701SOL     OW25564   2.137   2.375   0.725 -0.6270  0.0024 -0.4645
 4701SOL    HW125565   2.212   2.349   0.672 -1.1720 -1.8911 -0.3278
 4701SOL    HW225566   2.086   2.439   0.675 -0.8108 -0.3350 -0.7137
 4702SOL     OW25567   2.979   0.484   5.188 -0.0586 -0.1741 -0.5901
 4702SOL    HW125568   2.884   0.477   5.183  0.0833 -1.6947 -1.0636
 4702SOL    HW225569   3.008   0.397   5.212 -1.4027  0.0831  2.0314
 4703SOL     OW25570   1.364   3.338   1.187 -0.9433  0.7790  0.0276
 4703SOL    HW125571   1.375   3.376   1.100 -3.1626  0.2810 -0.4798
 4703SOL    HW225572   1.355   3.244   1.171 -0.3365  0.3544  2.1717
 4704SOL     OW25573   4.557   2.492   6.380 -0.1041 -0.0945 -0.4159
 4704SOL    HW125574   4.566   2.397   6.370  2.4937  0.2228 -0.9930
 4704SOL    HW225575   4.583   2.519   6.292  0.7789  0.3239 -0.0211
 4705SOL     OW25576   2.045   3.727   2.096 -0.0400  0.4848  0.3331
 4705SOL    HW125577   1.991   3.796   2.057  0.7408 -0.2079 -1.9771
 4705SOL    HW225578   2.103   3.778   2.152  1.6485  0.7954 -1.6878
 4706SOL     OW25579   2.051   1.708  13.159 -0.1738 -0.2875  0.1344
 4706SOL    HW125580   2.129   1.692  13.213  0.1760 -0.8658 -0.5306
 4706SOL    HW225581   2.079   1.786  13.112 -1.2023  0.2110  0.3583
 4707SOL     OW25582   2.507   0.066   0.677  0.2882 -0.7779 -0.7098
 4707SOL    HW125583   2.497   0.145   0.624  1.9426 -0.5202 -0.6392
 4707SOL    HW225584   2.438   0.060   0.743  0.1130 -1.1746 -0.9254
 4708SOL     OW25585   4.115   0.457   5.879 -0.2972  0.4714  0.1321
 4708SOL    HW125586   4.174   0.384   5.866  1.0027  2.1114 -3.1953
 4708SOL    HW225587   4.133   0.497   5.964  0.4960 -1.4812  0.8810
 4709SOL     OW25588   0.309   2.662  16.769 -0.3581  0.1045 -0.2967
 4709SOL    HW125589   0.279   2.732  16.711  1.2088  2.2857  1.5508
 4709SOL    HW225590   0.334   2.711  16.847  1.6149 -0.3194 -0.6755
 4710SOL     OW25591   3.995   2.902   7.105 -0.0506 -0.0686 -0.3387
 4710SOL    HW125592   3.986   2.970   7.172  1.7407  0.9429 -1.1389
 4710SOL    HW225593   3.964   2.825   7.152  2.7935  0.0703  1.7687
 4711SOL     OW25594   2.720   0.690   0.944 -0.1664  0.1301  0.3027
 4711SOL    HW125595   2.635   0.693   0.899  0.8852  0.9762 -1.6201
 4711SOL    HW225596   2.756   0.605   0.921  0.4473  0.8648 -1.4801
 4712SOL     OW25597   0.154   4.470   4.940  0.4299  0.4638  0.2394
 4712SOL    HW125598   0.122   4.500   4.856  0.9767 -1.9053 -0.8124
 4712SOL    HW225599   0.099   4.521   4.999 -1.6819 -1.0253 -0.4802
 4713SOL     OW25600   4.184   2.869   8.487  0.2189  0.6071 -0.5809
 4713SOL    HW125601   4.158   2.846   8.398 -2.7272 -1.4996  0.7812
 4713SOL    HW225602   4.197   2.963   8.485  0.0153  0.6661  0.8957
 4714SOL     OW25603   1.151   1.089  10.607 -0.2270  0.7061  0.3380
 4714SOL    HW125604   1.230   1.142  10.616 -0.1356  0.7135 -0.4605
 4714SOL    HW225605   1.135   1.086  10.512 -1.4741 -1.3203  0.6160
 4715SOL     OW25606   0.170   1.355   0.993  0.1963  0.3540 -0.6489
 4715SOL    HW125607   0.264   1.340   0.988  0.3475  1.8344 -2.0787
 4715SOL    HW225608   0.155   1.402   0.911  0.6780 -0.0186 -0.9504
 4716SOL     OW25609   1.811   2.476   3.050 -0.1653 -0.1573  0.5174
 4716SOL    HW125610   1.887   2.422   3.028  0.7663  1.7472 -0.9919
 4716SOL    HW225611   1.810   2.479   3.145  0.0486 -0.4560  0.5286
 4717SOL     OW25612   3.674   1.584   6.062 -0.3451  0.0719  0.6013
 4717SOL    HW125613   3.686   1.491   6.082  1.9000 -0.2387 -2.1733
 4717SOL    HW225614   3.611   1.572   5.990 -2.8475  0.1587  2.7570
 4718SOL     OW25615   1.080   4.370   1.985 -0.6845 -0.3392 -0.5204
 4718SOL    HW125616   1.138   4.346   1.913  1.6918 -0.7686  1.5277
 4718SOL    HW225617   1.134   4.429   2.038 -0.5504 -0.8568 -0.0725
 4719SOL     OW25618   3.951   4.406   2.528  0.0370  0.1285 -0.0674
 4719SOL    HW125619   4.024   4.363   2.485  0.3101 -0.6759  1.2190
 4719SOL    HW225620   3.885   4.396   2.460  0.8540  2.0047 -1.1427
 4720SOL     OW25621   0.412   3.423   2.149 -0.2563 -0.2949 -0.2495
 4720SOL    HW125622   0.483   3.374   2.191  0.0228  1.1276  0.9558
 4720SOL    HW225623   0.335   3.392   2.197 -1.1414  1.4590 -0.5391
 4721SOL     OW25624   2.590   3.706   1.343  0.2835  0.2550 -0.1592
 4721SOL    HW125625   2.595   3.694   1.248 -0.6913 -2.6300  0.1571
 4721SOL    HW225626   2.626   3.624   1.375 -0.3302 -0.1625 -0.5510
 4722SOL     OW25627   0.613   4.025   2.451 -0.3219  0.5195 -0.2529
 4722SOL    HW125628   0.692   4.041   2.400  0.8382  1.7990  1.9600
 4722SOL    HW225629   0.544   4.033   2.385 -1.2956 -0.0183  0.7136
 4723SOL     OW25630   3.479   2.221   6.446  0.5350 -0.5308 -0.1543
 4723SOL    HW125631   3.538   2.162   6.400  1.5273 -0.1269  0.5904
 4723SOL    HW225632   3.463   2.173   6.526  0.2118  0.1714  0.2067
 4724SOL     OW25633   1.943   1.501   1.247  0.5468 -0.1684  0.3360
 4724SOL    HW125634   1.939   1.579   1.192  0.4735 -0.2860  0.1756
 4724SOL    HW225635   2.016   1.516   1.307  0.3563  0.4280  0.4176
 4725SOL     OW25636   1.105   3.182  13.695  0.0261 -0.0014  0.0275
 4725SOL    HW125637   1.092   3.247  13.625  2.2792  0.0576 -0.3485
 4725SOL    HW225638   1.018   3.156  13.724  0.4576 -0.0291  1.3141
 4726SOL     OW25639   0.544   3.069   1.322  0.0594  0.3165  0.4865
 4726SOL    HW125640   0.599   3.134   1.279  1.2628 -0.9653  0.1095
 4726SOL    HW225641   0.455   3.100   1.305  1.2550  2.4052 -2.0090
 4727SOL     OW25642   4.090   4.373  12.571 -0.5189  0.5414 -0.0765
 4727SOL    HW125643   4.145   4.387  12.494 -4.4066  1.7849 -2.5884
 4727SOL    HW225644   4.141   4.310  12.623 -1.3851  1.2159  1.6128
 4728SOL     OW25645   3.957   4.618   4.168 -0.3261 -0.0717 -0.5212
 4728SOL    HW125646   3.974   4.705   4.202 -2.6262  1.2774 -2.8435
 4728SOL    HW225647   3.972   4.640   4.077 -0.6012  0.2039 -0.5000
 4729SOL     OW25648   1.166   4.263   4.515 -0.1508 -0.4058  0.6088
 4729SOL    HW125649   1.141   4.251   4.423 -0.1218 -1.1786  0.7015
 4729SOL    HW225650   1.180   4.357   4.527  1.7172 -0.7132  0.7400
 4730SOL     OW25651   1.987   3.077   5.122  0.1385  0.1762  0.1651
 4730SOL    HW125652   1.901   3.071   5.080 -0.2110 -0.8375  0.9896
 4730SOL    HW225653   2.045   3.010   5.085  0.2283  0.3138  0.0576
 4731SOL     OW25654   4.430   2.876   0.394 -0.9377  0.3007 -0.6025
 4731SOL    HW125655   4.354   2.929   0.369  0.4362  0.7750 -3.7988
 4731SOL    HW225656   4.455   2.929   0.470 -0.6159  0.8738 -1.1083
 4732SOL     OW25657   2.226   2.132   3.118 -0.1013  0.0177 -0.1882
 4732SOL    HW125658   2.264   2.083   3.191  0.2025  0.6499  0.0784
 4732SOL    HW225659   2.289   2.102   3.052  0.6094  0.5196  0.2685
 4733SOL     OW25660   3.761   0.847   7.604  0.0860  0.2056 -0.0859
 4733SOL    HW125661   3.731   0.820   7.517  0.4702  0.4250 -0.2847
 4733SOL    HW225662   3.757   0.760   7.645  0.1829  0.1020 -0.2960
 4734SOL     OW25663   3.666   1.693  13.472  0.2872  0.2679  0.3377
 4734SOL    HW125664   3.637   1.629  13.407 -0.7842  1.9404 -0.8000
 4734SOL    HW225665   3.706   1.759  13.416 -1.7403  2.0815  1.0314
 4735SOL     OW25666   3.299   2.937   9.010  0.4326  0.8799 -0.1297
 4735SOL    HW125667   3.206   2.917   9.019  0.8923 -2.6873 -3.2618
 4735SOL    HW225668   3.326   2.929   8.918  0.4959  3.7757 -0.3528
 4736SOL     OW25669   4.261   0.176  14.899  0.2701  0.9362 -0.4236
 4736SOL    HW125670   4.232   0.193  14.989 -1.1810  1.9679 -1.0917
 4736SOL    HW225671   4.309   0.255  14.871 -0.3430  1.8182  0.9890
 4737SOL     OW25672   3.889   2.865   4.184 -0.3672 -0.2101 -0.4394
 4737SOL    HW125673   3.818   2.898   4.239  0.7543  2.0631 -0.3195
 4737SOL    HW225674   3.955   2.932   4.204 -1.5470  1.4482 -2.1062
 4738SOL     OW25675   2.081   0.026  14.785 -0.6771  0.1177 -0.4016
 4738SOL    HW125676   2.027   0.066  14.716 -1.3595  2.7590  1.6249
 4738SOL    HW225677   2.021   4.687  14.834 -1.2424  2.1061  1.1861
 4739SOL     OW25678   2.060   1.039  12.378  0.0988 -0.0364  0.8246
 4739SOL    HW125679   2.091   1.017  12.290  1.2810 -2.1942  1.7639
 4739SOL    HW225680   2.102   0.971  12.431  1.9466  0.8309  0.5026
 4740SOL     OW25681   3.952   2.496   8.966  0.2567 -0.2367  0.5621
 4740SOL    HW125682   3.895   2.568   8.994  0.0303  0.1291 -0.8422
 4740SOL    HW225683   3.960   2.431   9.036  0.3464 -2.4228 -1.4760
 4741SOL     OW25684   4.362   0.250   6.808 -0.2147  0.0576 -0.1317
 4741SOL    HW125685   4.434   0.197   6.773  0.7258  2.2293 -1.4916
 4741SOL    HW225686   4.409   0.273   6.888 -2.3340  1.0922  0.8254
 4742SOL     OW25687   0.360   0.295  15.074 -0.0354 -0.3351  0.3171
 4742SOL    HW125688   0.318   0.311  15.158  2.3540  3.2447  0.8632
 4742SOL    HW225689   0.451   0.325  15.083  0.6384 -1.5046 -2.4445
 4743SOL     OW25690   4.106   3.102  16.060  0.2865  0.2902  0.7139
 4743SOL    HW125691   4.072   3.023  16.019 -0.8744  0.9081  0.4805
 4743SOL    HW225692   4.174   3.061  16.113  2.5000  1.5072 -1.2373
 4744SOL     OW25693   2.253   2.649   0.958  0.1975 -0.2862  0.3124
 4744SOL    HW125694   2.235   2.561   0.927  4.4427 -2.0389  2.8213
 4744SOL    HW225695   2.303   2.625   1.036  0.5714 -0.6588 -0.0426
 4745SOL     OW25696   4.372   3.529   9.955 -0.0876 -0.2473 -0.0216
 4745SOL    HW125697   4.383   3.441   9.990 -0.5633  0.3103  1.5480
 4745SOL    HW225698   4.401   3.584  10.028 -3.1537  2.7665 -1.0742
 4746SOL     OW25699   3.520   0.317   4.085 -0.0388 -0.2778 -0.2547
 4746SOL    HW125700   3.611   0.303   4.109  0.5686  2.1704 -1.0942
 4746SOL    HW225701   3.533   0.362   4.001 -2.5034  0.5005 -0.2183
 4747SOL     OW25702   3.280   1.600   6.962  0.3371  0.3499 -0.3118
 4747SOL    HW125703   3.370   1.628   6.979  0.5150 -0.7675  0.5814
 4747SOL    HW225704   3.265   1.544   7.038  1.0563  0.4244 -0.1110
 4748SOL     OW25705   1.371   0.893  11.698  0.2434  0.2695  0.0005
 4748SOL    HW125706   1.449   0.922  11.651 -0.3660  0.2389 -1.0468
 4748SOL    HW225707   1.317   0.969  11.674 -1.6213 -0.5251  1.7353
 4749SOL     OW25708   2.938   3.289   5.622 -0.7530  0.0675 -0.7783
 4749SOL    HW125709   2.954   3.376   5.659 -1.9012  1.2796 -3.1707
 4749SOL    HW225710   3.021   3.241   5.628 -0.3333  0.5477 -2.9407
 4750SOL     OW25711   1.874   4.273   6.382 -0.0835  0.0705  0.0128
 4750SOL    HW125712   1.864   4.336   6.312  0.2006 -1.7779 -1.6946
 4750SOL    HW225713   1.785   4.237   6.381  0.1270 -0.4789  0.5638
 4751SOL     OW25714   4.637   2.395   5.216  0.9747 -0.0165  0.0254
 4751SOL    HW125715   4.654   2.488   5.227  1.5287 -0.2667  1.2173
 4751SOL    HW225716   4.630   2.367   5.307 -0.7291 -0.5666 -0.2583
 4752SOL     OW25717   4.017   2.006   6.589 -0.0719  0.2588  0.3393
 4752SOL    HW125718   4.088   1.945   6.605  1.4245  1.9282  0.0626
 4752SOL    HW225719   4.010   2.045   6.676  0.8020  2.0808 -0.4084
 4753SOL     OW25720   3.749   3.998   1.437 -0.2873 -0.1097  0.6721
 4753SOL    HW125721   3.697   4.046   1.502  0.7495 -1.2965  2.3885
 4753SOL    HW225722   3.833   3.973   1.476  2.1489  1.8184 -3.3519
 4754SOL     OW25723   0.869   3.121  15.336 -0.0182 -0.0756  0.6221
 4754SOL    HW125724   0.923   3.197  15.358  2.0520 -0.5132 -2.8485
 4754SOL    HW225725   0.802   3.152  15.275 -0.6590  0.1870  1.4664
 4755SOL     OW25726   2.746   3.489   1.449  0.0580  0.0842  0.2687
 4755SOL    HW125727   2.813   3.555   1.431  0.1205  0.1809  0.8517
 4755SOL    HW225728   2.801   3.416   1.476  0.8575  0.3450 -0.6766
 4756SOL     OW25729   2.100   2.092   4.391 -0.6879 -0.0263 -0.2005
 4756SOL    HW125730   2.079   2.170   4.338 -0.2094 -1.3419 -2.3017
 4756SOL    HW225731   2.169   2.056   4.335 -0.1883  1.5109 -0.5857
 4757SOL     OW25732   0.687   1.625   7.677  0.3143 -0.9176  0.1405
 4757SOL    HW125733   0.764   1.671   7.643 -1.1262  1.2238 -0.2108
 4757SOL    HW225734   0.644   1.691   7.732  0.3680  1.8731 -3.1411
 4758SOL     OW25735   0.726   0.425  12.448 -0.1122 -0.5749 -0.3282
 4758SOL    HW125736   0.658   0.358  12.454 -0.6674  0.3873  4.0809
 4758SOL    HW225737   0.696   0.494  12.508 -1.5691 -2.0643  0.6457
 4759SOL     OW25738   3.023   2.164   7.162  0.2527  0.8791 -0.1022
 4759SOL    HW125739   2.946   2.133   7.113  0.7854  0.5815 -0.7525
 4759SOL    HW225740   3.069   2.088   7.197 -0.0788 -0.0774 -1.7413
 4760SOL     OW25741   2.035   1.082   5.205  0.7186 -0.2126 -0.3110
 4760SOL    HW125742   1.999   1.021   5.141  0.2931 -0.0825 -0.1992
 4760SOL    HW225743   2.027   1.166   5.161  1.2847  0.4382  0.8224
 4761SOL     OW25744   0.298   2.174   0.572 -0.6914 -0.6482  0.2429
 4761SOL    HW125745   0.370   2.223   0.611 -0.2359 -0.2402 -1.0878
 4761SOL    HW225746   0.334   2.086   0.560 -1.3717 -0.7946 -0.7448
 4762SOL     OW25747   1.630   1.190   8.389 -0.8198  0.2154  0.3215
 4762SOL    HW125748   1.650   1.186   8.296  0.9943  0.1002  0.7175
 4762SOL    HW225749   1.539   1.222   8.392 -0.6668  0.5932  1.0749
 4763SOL     OW25750   3.421   0.050   5.342  0.3540  0.6742 -0.4139
 4763SOL    HW125751   3.451   4.680   5.369  0.3897  0.9112  0.2980
 4763SOL    HW225752   3.496   0.109   5.337  0.4483  0.6794  1.0656
 4764SOL     OW25753   0.639   0.031  15.518 -0.2141  0.1984  0.3981
 4764SOL    HW125754   0.666   4.660  15.490  2.1061  0.3960  2.0517
 4764SOL    HW225755   0.566   0.040  15.457 -0.2518  2.8063  0.8270
 4765SOL     OW25756   0.971   2.818   1.438 -0.7632  0.2916 -0.2445
 4765SOL    HW125757   0.878   2.832   1.421 -0.7424 -1.0533 -1.5279
 4765SOL    HW225758   0.990   2.910   1.420  0.6899 -0.4780 -2.6342
 4766SOL     OW25759   0.949   3.048   3.129 -0.0191  0.0001 -0.2550
 4766SOL    HW125760   0.935   3.142   3.139  0.2144  0.1993 -1.7519
 4766SOL    HW225761   1.029   3.039   3.181  0.3828 -0.2396 -0.9213
 4767SOL     OW25762   2.974   0.155  13.797 -0.2375 -0.3189  0.0955
 4767SOL    HW125763   3.046   0.218  13.795 -1.3363  0.9795  1.6922
 4767SOL    HW225764   2.909   0.195  13.854 -1.1131 -1.2910 -0.2227
 4768SOL     OW25765   1.036   0.769   2.194  0.2617 -0.3164  0.3555
 4768SOL    HW125766   0.989   0.837   2.146  2.9048  0.3666 -1.2896
 4768SOL    HW225767   1.127   0.800   2.192  0.0340  0.4084  1.2067
 4769SOL     OW25768   0.300   3.247  17.250 -0.0778 -0.1053  0.4600
 4769SOL    HW125769   0.328   3.213  17.336 -0.0566 -1.9067 -0.2450
 4769SOL    HW225770   0.310   3.341  17.265  0.5714 -0.1277  0.1745
 4770SOL     OW25771   4.654   4.410  13.636  0.2141  0.1404  0.0261
 4770SOL    HW125772   4.641   4.439  13.726  0.0626 -0.0169  0.0531
 4770SOL    HW225773   4.648   4.316  13.648 -0.3524  0.3219  1.1098
 4771SOL     OW25774   2.644   4.420   8.322  0.2798  0.3459  0.2039
 4771SOL    HW125775   2.723   4.437   8.271  0.0846  1.1409  0.1716
 4771SOL    HW225776   2.581   4.482   8.287 -1.6973 -1.9535 -0.3603
 4772SOL     OW25777   0.086   1.632   6.575  0.0389 -0.1585  0.3935
 4772SOL    HW125778   0.157   1.597   6.629  0.8283  2.5089  1.1336
 4772SOL    HW225779   0.134   1.695   6.521 -0.5917 -0.3072 -0.3353
 4773SOL     OW25780   0.277   1.639  16.095  0.2754 -0.4668 -0.0559
 4773SOL    HW125781   0.233   1.644  16.180  0.2845  1.9010 -0.1768
 4773SOL    HW225782   0.352   1.696  16.110  0.5058 -1.2735  1.9435
 4774SOL     OW25783   0.390   2.619   4.223 -0.5172 -0.5794 -0.1015
 4774SOL    HW125784   0.424   2.553   4.162 -1.1998 -1.2050  0.1926
 4774SOL    HW225785   0.356   2.687   4.166 -0.2187  0.0907  0.5223
 4775SOL     OW25786   1.184   3.843  11.328 -0.4935  0.2992 -0.1096
 4775SOL    HW125787   1.199   3.916  11.387 -1.9605  1.0770 -0.6893
 4775SOL    HW225788   1.235   3.773  11.368 -2.8323 -0.3007  1.8119
 4776SOL     OW25789   1.174   4.615   2.052  0.1888  0.1280 -0.0735
 4776SOL    HW125790   1.216   4.673   1.988 -0.5330  1.2550  0.4659
 4776SOL    HW225791   1.145   4.681   2.115 -0.6856  0.1345 -0.4756
 4777SOL     OW25792   3.896   2.294   5.673 -0.3829  0.2149  0.0352
 4777SOL    HW125793   3.966   2.257   5.620 -1.5849 -1.4078 -0.3940
 4777SOL    HW225794   3.941   2.283   5.757 -2.0552 -0.0355  0.9091
 4778SOL     OW25795   2.703   4.473   4.815  0.4844 -0.0915 -0.3636
 4778SOL    HW125796   2.610   4.488   4.833  0.2175  0.4608 -2.2017
 4778SOL    HW225797   2.750   4.498   4.895 -1.2225 -0.4624  0.7642
 4779SOL     OW25798   0.808   3.829   0.593 -0.2267 -0.0661  0.4199
 4779SOL    HW125799   0.783   3.742   0.563 -3.2607  0.3303  1.7838
 4779SOL    HW225800   0.843   3.864   0.511  1.8398 -0.7607  1.0122
 4780SOL     OW25801   3.371   2.559  17.186  0.1602 -0.2386  0.3079
 4780SOL    HW125802   3.414   2.522  17.264 -0.0370 -0.2516  0.4105
 4780SOL    HW225803   3.379   2.654  17.197  1.5874 -0.4816  1.4200
 4781SOL     OW25804   1.040   2.061   6.639 -0.3604 -0.3021 -0.2948
 4781SOL    HW125805   0.955   2.025   6.666  1.4235 -3.4743  1.1597
 4781SOL    HW225806   1.092   2.067   6.719  0.3625 -1.8551 -0.6443
 4782SOL     OW25807   0.404   2.771   8.006 -0.0262  0.0729  0.3557
 4782SOL    HW125808   0.384   2.707   7.938  2.8382 -0.2881 -0.1291
 4782SOL    HW225809   0.413   2.845   7.946  0.9521  0.5648  1.1151
 4783SOL     OW25810   0.219   2.082   4.479 -0.1718 -0.0546  0.4525
 4783SOL    HW125811   0.178   2.071   4.565 -0.7594  0.0502  0.1803
 4783SOL    HW225812   0.217   2.177   4.469  1.6872  0.1088  1.7250
 4784SOL     OW25813   0.381   3.037  11.653 -0.1734 -0.2448  0.2426
 4784SOL    HW125814   0.476   3.027  11.661 -0.2389  0.2618  1.5883
 4784SOL    HW225815   0.391   3.132  11.663  0.7362 -0.2889 -0.2322
 4785SOL     OW25816   0.521   3.778   2.977  0.0108  0.2057 -0.4556
 4785SOL    HW125817   0.473   3.838   3.033 -0.8291  0.1189 -1.0859
 4785SOL    HW225818   0.549   3.843   2.912  1.8029  0.1370  0.2444
 4786SOL     OW25819   3.486   1.714  13.786 -0.1932  0.3732  0.4910
 4786SOL    HW125820   3.460   1.627  13.756  0.2559 -0.5572  2.8174
 4786SOL    HW225821   3.413   1.757  13.830 -1.1650 -2.7193  1.8761
 4787SOL     OW25822   3.049   3.537   7.544 -0.3553  0.4082  0.0657
 4787SOL    HW125823   3.096   3.524   7.462  1.0686  0.2831  0.9128
 4787SOL    HW225824   3.076   3.459   7.591 -3.2286 -0.8025 -0.2625
 4788SOL     OW25825   3.474   2.060  16.658 -0.2904 -0.3062  0.1118
 4788SOL    HW125826   3.406   2.053  16.725 -0.2915 -0.5558  0.0851
 4788SOL    HW225827   3.440   2.117  16.589  3.0277  1.4165 -0.0732
 4789SOL     OW25828   3.731   1.801  16.465 -0.2566 -0.1045 -0.2463
 4789SOL    HW125829   3.712   1.713  16.433 -0.2046 -0.8704  1.8015
 4789SOL    HW225830   3.646   1.824  16.504  0.6542 -0.6957  2.1255
 4790SOL     OW25831   3.169   2.420   4.322  0.5579 -0.2133  0.3375
 4790SOL    HW125832   3.201   2.413   4.232 -1.9133  1.7802 -0.6758
 4790SOL    HW225833   3.074   2.433   4.313  0.6013  0.0967  0.3416
 4791SOL     OW25834   0.968   4.398   7.050 -0.1656  0.7681 -0.8162
 4791SOL    HW125835   1.040   4.350   7.092 -0.6589  2.8052  2.2978
 4791SOL    HW225836   0.894   4.337   7.053  0.4114  0.1677  1.2240
 4792SOL     OW25837   0.860   1.041   5.703  0.0107 -0.2109 -0.3027
 4792SOL    HW125838   0.954   1.035   5.684  0.5736  1.4984  1.8624
 4792SOL    HW225839   0.864   1.137   5.699 -1.0939 -0.2461 -1.9975
 4793SOL     OW25840   3.249   0.259  12.224 -0.2240  0.0334 -0.1256
 4793SOL    HW125841   3.230   0.209  12.303 -0.9006 -0.3676 -0.5424
 4793SOL    HW225842   3.198   0.214  12.157 -2.3397 -2.6211  3.2709
 4794SOL     OW25843   3.757   1.717  11.984  0.1983 -0.3805 -0.3302
 4794SOL    HW125844   3.707   1.695  11.905  0.3430 -0.8521 -0.2893
 4794SOL    HW225845   3.809   1.792  11.953 -0.8836  0.1121 -0.9793
 4795SOL     OW25846   0.136   0.213  12.405  0.6328  0.4713 -0.8201
 4795SOL    HW125847   0.174   0.298  12.428  3.0103 -0.8002 -0.0400
 4795SOL    HW225848   0.187   0.152  12.458 -0.1287 -0.3673 -1.0494
 4796SOL     OW25849   1.551   0.053   5.825  0.3353  0.0942 -0.0164
 4796SOL    HW125850   1.588   0.092   5.747 -1.3339  0.1461 -0.7895
 4796SOL    HW225851   1.549   0.129   5.883 -1.4129  0.4964 -0.6181
 4797SOL     OW25852   1.965   3.537   8.690  0.5092  0.1674 -0.2547
 4797SOL    HW125853   2.057   3.524   8.669  0.6610  2.1254 -0.8030
 4797SOL    HW225854   1.942   3.615   8.639 -0.5508  0.1531  0.1881
 4798SOL     OW25855   4.209   1.751  17.415 -0.3969 -0.2451  0.3010
 4798SOL    HW125856   4.124   1.710  17.430 -1.1123  1.8287  1.8516
 4798SOL    HW225857   4.222   1.695  17.339 -1.7427  0.1860 -0.2571
 4799SOL     OW25858   0.200   0.467   6.872 -0.5600  0.3004  0.4987
 4799SOL    HW125859   0.216   0.419   6.791  3.1295 -1.8889  2.5000
 4799SOL    HW225860   0.241   0.411   6.938  1.4407  0.7788 -0.3683
 4800SOL     OW25861   1.883   4.139   8.770 -0.0934 -0.0122  0.8032
 4800SOL    HW125862   1.823   4.210   8.790  0.0971 -0.4888  3.0237
 4800SOL    HW225863   1.957   4.166   8.824  0.3543 -0.4230  0.3995
 4801SOL     OW25864   1.652   3.463  15.061 -0.2626 -0.2608  0.0938
 4801SOL    HW125865   1.636   3.424  15.147 -0.2864  0.0459  0.2283
 4801SOL    HW225866   1.705   3.539  15.087  0.2352 -0.3684 -0.6027
 4802SOL     OW25867   1.031   4.427  17.335  0.3907 -0.2912 -0.5026
 4802SOL    HW125868   1.043   4.521  17.327 -2.0833  0.1557  0.9686
 4802SOL    HW225869   1.089   4.405  17.408  2.8598  1.9172 -1.8194
 4803SOL     OW25870   3.235   2.856   8.211  0.3932 -0.0687  0.1034
 4803SOL    HW125871   3.322   2.863   8.251  1.4056  1.5937 -2.4016
 4803SOL    HW225872   3.187   2.873   8.293 -4.1812 -1.1412 -2.3803
 4804SOL     OW25873   0.200   2.765   7.619  0.2568 -0.0521 -0.2130
 4804SOL    HW125874   0.134   2.816   7.665  1.2909  1.4038 -0.3436
 4804SOL    HW225875   0.224   2.706   7.691 -0.1509  0.0712  0.0213
 4805SOL     OW25876   2.486   2.683   1.799 -0.3298 -0.3230  0.1677
 4805SOL    HW125877   2.533   2.600   1.795 -1.1771 -0.6492 -2.7143
 4805SOL    HW225878   2.435   2.686   1.718  0.3725 -0.9292 -0.2991
 4806SOL     OW25879   4.351   3.507   4.873 -0.6243 -0.0480  0.2504
 4806SOL    HW125880   4.350   3.591   4.918  0.6568  0.4714 -0.6865
 4806SOL    HW225881   4.290   3.452   4.923  0.3775 -1.5501 -0.1982
 4807SOL     OW25882   1.576   3.761   8.706 -0.0823 -0.7380 -0.9945
 4807SOL    HW125883   1.661   3.786   8.742 -0.1703 -1.6178 -0.2053
 4807SOL    HW225884   1.523   3.757   8.786 -1.8278 -1.1483 -2.1768
 4808SOL     OW25885   3.790   0.972   6.853 -0.2226 -0.0141  0.2661
 4808SOL    HW125886   3.754   0.913   6.786 -3.4557  1.0216  1.0554
 4808SOL    HW225887   3.882   0.946   6.856  0.4882  2.4216 -0.4117
 4809SOL     OW25888   4.089   1.631   6.791 -0.3106  0.0717  1.0019
 4809SOL    HW125889   4.135   1.548   6.802  1.2503  0.9698  1.2682
 4809SOL    HW225890   4.056   1.621   6.702  1.5054 -0.7730  0.4263
 4810SOL     OW25891   1.153   1.255  16.364 -0.2392  0.1544  0.7479
 4810SOL    HW125892   1.097   1.177  16.366  1.5373 -1.0888  1.8912
 4810SOL    HW225893   1.112   1.294  16.286 -4.2938 -1.3752  2.1111
 4811SOL     OW25894   0.304   1.963   6.485  0.1076 -0.2397 -0.3507
 4811SOL    HW125895   0.318   1.983   6.392  1.1055 -1.7002 -0.5154
 4811SOL    HW225896   0.302   2.051   6.523  0.3625 -1.1100  1.6497
 4812SOL     OW25897   0.457   3.771   6.110 -0.0926  0.0283 -0.7076
 4812SOL    HW125898   0.442   3.746   6.201 -2.4519  1.8046 -0.5876
 4812SOL    HW225899   0.396   3.723   6.054  2.9500 -1.6002 -2.6256
 4813SOL     OW25900   3.386   3.175  14.448  0.3727 -0.5235  0.2440
 4813SOL    HW125901   3.329   3.250  14.466  1.4645  0.4155 -0.1946
 4813SOL    HW225902   3.379   3.139  14.537  0.3163 -2.9201 -0.7368
 4814SOL     OW25903   4.383   1.365   4.836 -0.1133  0.1703 -0.2810
 4814SOL    HW125904   4.371   1.303   4.909  1.0816  0.5563  0.2384
 4814SOL    HW225905   4.477   1.373   4.852 -0.0559 -1.4491  0.1819
 4815SOL     OW25906   4.172   2.444   8.221  0.2913 -0.0884  0.4100
 4815SOL    HW125907   4.130   2.526   8.244 -0.9321  0.2507 -3.1037
 4815SOL    HW225908   4.188   2.457   8.127  1.0647  0.6920  0.6521
 4816SOL     OW25909   2.091   0.663  13.999 -0.4223  0.2354  0.3318
 4816SOL    HW125910   2.095   0.575  14.038  0.8250 -1.1178 -2.8977
 4816SOL    HW225911   2.027   0.645  13.931 -0.2945  0.3522  0.1816
 4817SOL     OW25912   1.074   4.595   4.200  0.4071  0.0202 -0.2188
 4817SOL    HW125913   1.036   4.658   4.139  0.4247 -0.2659 -0.5208
 4817SOL    HW225914   1.082   4.651   4.278  1.0545  1.1239 -1.0782
 4818SOL     OW25915   0.311   1.049   7.880 -0.1971  0.2091  0.4383
 4818SOL    HW125916   0.306   0.954   7.873 -0.7646  0.4171 -1.7552
 4818SOL    HW225917   0.406   1.056   7.874 -0.3406  0.7173 -1.2206
 4819SOL     OW25918   2.574   2.846   7.256 -0.5013 -0.0605 -0.6956
 4819SOL    HW125919   2.591   2.938   7.237  0.4255 -0.3663 -1.3314
 4819SOL    HW225920   2.618   2.840   7.341 -0.0182  0.2953 -0.9270
 4820SOL     OW25921   1.262   3.644   5.840 -0.3919  0.1703  0.2156
 4820SOL    HW125922   1.206   3.569   5.860  0.8455 -0.4372  1.3888
 4820SOL    HW225923   1.276   3.643   5.745 -0.0931  2.8628  0.2304
 4821SOL     OW25924   3.224   4.115   7.335 -0.6676  0.1731  0.3774
 4821SOL    HW125925   3.304   4.144   7.291 -0.4408  1.1853  1.4443
 4821SOL    HW225926   3.258   4.098   7.423 -0.4677 -0.7806  0.1083
 4822SOL     OW25927   4.194   4.455  10.448 -0.7909  0.2076  0.4385
 4822SOL    HW125928   4.283   4.489  10.438 -1.3254  1.6769  0.7304
 4822SOL    HW225929   4.153   4.483  10.366 -2.0411  0.5807  1.1917
 4823SOL     OW25930   1.118   2.976   6.807 -0.3357 -0.1728 -0.6763
 4823SOL    HW125931   1.071   3.058   6.795  0.7621  0.4143 -0.9087
 4823SOL    HW225932   1.075   2.930   6.735 -0.9993 -2.9559  1.4786
 4824SOL     OW25933   2.158   3.547   4.129  0.2521 -0.2858 -0.3140
 4824SOL    HW125934   2.217   3.510   4.064  1.1095  2.3002 -0.9565
 4824SOL    HW225935   2.208   3.628   4.136 -0.3558  0.1681 -1.2674
 4825SOL     OW25936   2.912   2.336  15.344 -0.1865  0.0442  0.1892
 4825SOL    HW125937   2.959   2.402  15.293  2.1147 -1.1620  0.7897
 4825SOL    HW225938   2.896   2.371  15.432 -0.4958 -1.5239  0.7439
 4826SOL     OW25939   1.168   0.162   5.361  0.2960 -0.5332 -0.8816
 4826SOL    HW125940   1.088   0.178   5.411 -0.5126 -0.6013 -2.1388
 4826SOL    HW225941   1.134   0.118   5.283  0.4050  0.0215 -1.2462
 4827SOL     OW25942   2.454   0.534   6.822 -0.5515 -0.3884  0.6133
 4827SOL    HW125943   2.478   0.597   6.891 -1.4319  1.0039 -0.3614
 4827SOL    HW225944   2.359   0.539   6.826 -0.5073  1.0488  0.0514
 4828SOL     OW25945   1.269   2.452  13.386  0.5700 -0.0398 -0.2791
 4828SOL    HW125946   1.307   2.432  13.301  0.7577 -0.8585 -0.0059
 4828SOL    HW225947   1.333   2.516  13.417  0.7602 -1.2103  1.7916
 4829SOL     OW25948   0.887   3.982   4.328 -0.2088 -0.1007 -0.4293
 4829SOL    HW125949   0.861   3.891   4.340  1.4336 -0.5451 -0.1980
 4829SOL    HW225950   0.826   4.028   4.385  1.0039  3.0285 -1.6533
 4830SOL     OW25951   1.108   3.062  11.421 -0.0032 -0.1904  0.2764
 4830SOL    HW125952   1.046   3.051  11.494  0.9544  0.5852  1.2087
 4830SOL    HW225953   1.152   2.978  11.407 -0.6364 -0.7458  1.6527
 4831SOL     OW25954   0.407   3.546   3.614  0.5229  0.5338 -0.5682
 4831SOL    HW125955   0.319   3.514   3.593  0.0819  1.2528  0.2176
 4831SOL    HW225956   0.456   3.536   3.532 -0.4357 -2.5818 -0.7793
 4832SOL     OW25957   0.409   3.311   8.901  0.0391  0.7072 -0.2250
 4832SOL    HW125958   0.362   3.229   8.883  1.4784 -0.1125 -0.2337
 4832SOL    HW225959   0.500   3.290   8.880 -0.3054 -1.5251  0.4926
 4833SOL     OW25960   3.907   3.439   5.878 -0.4024 -0.0041 -1.2206
 4833SOL    HW125961   3.885   3.418   5.969 -1.4851 -0.6417 -1.6208
 4833SOL    HW225962   3.968   3.369   5.856 -3.7075 -2.0383 -4.1155
 4834SOL     OW25963   1.594   3.544   0.558 -0.2060 -0.0277  0.3391
 4834SOL    HW125964   1.532   3.584   0.619 -0.7448 -0.5812  0.1410
 4834SOL    HW225965   1.587   3.595   0.477  0.4529 -0.6549 -0.1137
 4835SOL     OW25966   2.647   4.658   7.208  0.1252  0.7301 -0.2985
 4835SOL    HW125967   2.685   4.607   7.279  0.2151 -0.9866 -1.5714
 4835SOL    HW225968   2.560   4.674   7.245  0.9506  1.7784  1.1724
 4836SOL     OW25969   1.469   2.597   3.615 -0.2562 -0.4722 -0.4595
 4836SOL    HW125970   1.556   2.621   3.584 -0.5396 -3.0769 -3.2917
 4836SOL    HW225971   1.491   2.600   3.708  1.5558  1.6457 -0.9527
 4837SOL     OW25972   0.708   1.093   4.750 -0.4773 -0.2059  0.1094
 4837SOL    HW125973   0.763   1.020   4.775 -1.0636 -0.2869  1.1449
 4837SOL    HW225974   0.777   1.158   4.734  0.9905 -2.3054 -2.0005
 4838SOL     OW25975   4.506   1.297   7.357  0.1885  0.6001  0.1169
 4838SOL    HW125976   4.461   1.355   7.295  1.2382  0.0655 -1.1249
 4838SOL    HW225977   4.595   1.285   7.324  0.0461 -2.3882  0.8427
 4839SOL     OW25978   2.707   3.662   6.332 -0.3294 -0.1086 -0.2369
 4839SOL    HW125979   2.702   3.666   6.427  0.3593 -2.6731 -0.0824
 4839SOL    HW225980   2.643   3.728   6.304 -0.1833 -0.1455 -0.6631
 4840SOL     OW25981   0.804   0.456   2.940 -0.3992  0.1490  0.2100
 4840SOL    HW125982   0.762   0.484   3.021  0.0436 -0.4603  0.6476
 4840SOL    HW225983   0.893   0.462   2.973  0.0452  0.7222 -1.1025
 4841SOL     OW25984   0.197   3.747  13.554 -0.6066  0.2304  0.4727
 4841SOL    HW125985   0.249   3.785  13.624 -1.4525 -0.4305  1.4656
 4841SOL    HW225986   0.226   3.656  13.558  0.2073  0.4548 -0.2283
 4842SOL     OW25987   2.756   4.607   6.963 -0.4537  0.1212 -0.0135
 4842SOL    HW125988   2.783   4.694   6.933 -0.9987  0.7689  1.3855
 4842SOL    HW225989   2.715   4.638   7.044  0.9666 -1.9387  1.4837
 4843SOL     OW25990   3.587   1.330  16.860  0.4648 -0.3732  0.3348
 4843SOL    HW125991   3.618   1.405  16.810  0.4901 -0.5582  0.0719
 4843SOL    HW225992   3.646   1.341  16.935 -1.3348 -2.2307  2.0081
 4844SOL     OW25993   2.860   3.173  13.221 -0.2193  0.0907 -0.4282
 4844SOL    HW125994   2.896   3.110  13.159 -0.7976  1.1005 -1.7902
 4844SOL    HW225995   2.886   3.254  13.177 -1.4004  0.4201 -0.5178
 4845SOL     OW25996   3.939   1.115   3.111  0.1253  0.3285 -0.0558
 4845SOL    HW125997   3.942   1.209   3.130 -3.3401  0.3818  0.1859
 4845SOL    HW225998   3.854   1.107   3.068  0.3378 -0.8838 -0.2257
 4846SOL     OW25999   3.730   4.211  12.393  0.0517 -0.0292 -0.3564
 4846SOL    HW126000   3.723   4.140  12.328 -0.0388  1.5462 -2.0697
 4846SOL    HW226001   3.665   4.267  12.352  0.7206  1.0360  0.0548
 4847SOL     OW26002   0.912   1.866   2.976  0.3393 -0.6251 -0.1584
 4847SOL    HW126003   0.877   1.825   3.056  0.6939  0.5121  0.5879
 4847SOL    HW226004   0.956   1.790   2.938  3.1768 -0.7377  3.3528
 4848SOL     OW26005   3.182   0.666   6.747 -0.0363  0.0222  0.0240
 4848SOL    HW126006   3.122   0.736   6.722  0.3934  0.7653  1.0528
 4848SOL    HW226007   3.198   0.692   6.838 -2.1151 -0.7952  0.6176
 4849SOL     OW26008   1.984   2.557   7.214  0.0158  0.0658  0.4800
 4849SOL    HW126009   1.919   2.498   7.177  1.1002 -0.5248 -0.4958
 4849SOL    HW226010   1.945   2.643   7.198 -0.8963 -0.7546 -1.7337
 4850SOL     OW26011   0.504   3.559  14.110  0.4627  0.7028 -0.0302
 4850SOL    HW126012   0.501   3.613  14.189 -0.5121  2.2921 -1.1528
 4850SOL    HW226013   0.417   3.519  14.109  1.3784 -1.2495 -0.6990
 4851SOL     OW26014   3.236   3.212   5.424  0.4366 -0.6992  0.0559
 4851SOL    HW126015   3.160   3.247   5.378  0.9922 -0.1063 -0.3980
 4851SOL    HW226016   3.300   3.274   5.389 -0.9806  0.3077 -0.7423
 4852SOL     OW26017   4.460   1.381   9.600  0.6122  0.3615  0.1218
 4852SOL    HW126018   4.446   1.315   9.667  1.0898  0.6832  0.5345
 4852SOL    HW226019   4.467   1.332   9.518 -1.5990  0.6671 -0.2414
 4853SOL     OW26020   3.516   1.320   1.571  0.1323 -0.4595 -0.1004
 4853SOL    HW126021   3.424   1.337   1.550 -0.3858 -0.4037  2.1909
 4853SOL    HW226022   3.519   1.351   1.661  2.2652 -2.4515  0.5312
 4854SOL     OW26023   2.432   0.303   5.352 -0.6943  0.4633  0.4914
 4854SOL    HW126024   2.341   0.333   5.357 -1.1010 -0.3888 -2.0052
 4854SOL    HW226025   2.476   0.376   5.309  2.6690 -1.3718  0.8353
 4855SOL     OW26026   3.585   4.417   8.055 -0.5907  0.6870  0.0333
 4855SOL    HW126027   3.493   4.430   8.077 -0.3888  0.0585  1.2619
 4855SOL    HW226028   3.577   4.366   7.974 -0.5640 -1.4815  1.4070
 4856SOL     OW26029   0.168   3.235  11.482 -0.2269  0.2641 -0.2245
 4856SOL    HW126030   0.086   3.235  11.532  0.2914  0.6931  0.6319
 4856SOL    HW226031   0.161   3.153  11.432  3.2405 -1.0924  1.5518
 4857SOL     OW26032   1.195   4.601   3.638 -0.1543 -0.3804 -0.3040
 4857SOL    HW126033   1.216   4.508   3.638  0.7024 -0.1684 -3.3421
 4857SOL    HW226034   1.192   4.622   3.545 -1.7971 -0.1360 -0.1899
 4858SOL     OW26035   3.841   1.987  10.689  0.1274 -0.4786  0.5915
 4858SOL    HW126036   3.763   1.978  10.634  1.7599  2.3855 -2.1852
 4858SOL    HW226037   3.895   2.022  10.619  1.0783  0.3514  1.7290
 4859SOL     OW26038   4.336   0.610   7.914  0.0229 -0.6713  0.2829
 4859SOL    HW126039   4.284   0.663   7.975  2.8003  1.9600  0.3536
 4859SOL    HW226040   4.299   0.525   7.937 -0.8457 -0.0791  1.1051
 4860SOL     OW26041   1.258   3.584   5.205 -0.5419 -0.0838 -0.0192
 4860SOL    HW126042   1.291   3.495   5.213 -0.7899 -0.1562  0.2059
 4860SOL    HW226043   1.317   3.621   5.271  2.1277  1.0347 -3.0323
 4861SOL     OW26044   4.452   2.454  14.605  0.1442 -0.4376 -0.0520
 4861SOL    HW126045   4.370   2.407  14.622  1.6664 -3.2876 -0.4469
 4861SOL    HW226046   4.502   2.404  14.670 -1.7047 -0.4165  1.4085
 4862SOL     OW26047   0.745   2.726  11.916 -0.2390 -0.1842 -0.2394
 4862SOL    HW126048   0.831   2.718  11.957 -0.6829  1.0019  0.9188
 4862SOL    HW226049   0.711   2.802  11.963  0.9001 -0.7875  1.5968
 4863SOL     OW26050   2.851   2.765   9.025  0.1694  0.2140 -0.4162
 4863SOL    HW126051   2.827   2.677   8.998  2.3287 -1.5329  3.3368
 4863SOL    HW226052   2.806   2.805   8.950 -0.4319  0.2813 -0.0218
 4864SOL     OW26053   4.113   0.646   3.068  0.1960 -0.2139 -0.3147
 4864SOL    HW126054   4.057   0.622   2.995  2.5694  0.9311 -2.5218
 4864SOL    HW226055   4.075   0.731   3.088  0.5816  0.2026 -1.3639
 4865SOL     OW26056   4.211   2.609   7.636  0.1039  0.1416  0.3061
 4865SOL    HW126057   4.169   2.690   7.607 -0.9213  0.1010  1.6650
 4865SOL    HW226058   4.157   2.538   7.600 -2.6323  2.3955 -0.0733
 4866SOL     OW26059   3.854   4.112   4.828  0.4519  0.2661 -0.0236
 4866SOL    HW126060   3.809   4.195   4.811  0.0855 -0.1200 -0.9280
 4866SOL    HW226061   3.818   4.067   4.752  1.4589  0.6566 -0.7193
 4867SOL     OW26062   2.544   3.884   0.023 -0.1018  0.6342  0.2262
 4867SOL    HW126063   2.537   3.946  17.621 -1.4524  1.1245  0.7958
 4867SOL    HW226064   2.600   3.932   0.084 -0.6947  1.4493  0.1224
 4868SOL     OW26065   3.013   3.912   7.780 -0.1516  0.1168  0.0260
 4868SOL    HW126066   2.995   3.875   7.694  1.4414  2.7065 -1.4131
 4868SOL    HW226067   2.923   3.891   7.807 -0.4946  0.9335 -0.4703
 4869SOL     OW26068   0.995   2.949  10.710 -0.0959  0.3191 -0.5564
 4869SOL    HW126069   1.009   3.043  10.720  0.4367  0.0299  1.3782
 4869SOL    HW226070   0.931   2.935  10.779  0.1497 -0.3053 -0.4565
 4870SOL     OW26071   0.850   2.600   9.447  0.4286  0.2570  0.2128
 4870SOL    HW126072   0.801   2.612   9.366 -1.3086 -0.5654  1.1313
 4870SOL    HW226073   0.815   2.673   9.499  1.0216  0.5807  0.1579
 4871SOL     OW26074   3.306   1.547   6.377  0.4154 -0.3549  0.0761
 4871SOL    HW126075   3.283   1.455   6.389  0.7038 -0.5573 -0.9905
 4871SOL    HW226076   3.400   1.529   6.379  0.3166 -0.9408 -0.5911
 4872SOL     OW26077   2.892   2.392   6.191 -0.0958  0.3141 -0.3445
 4872SOL    HW126078   2.965   2.449   6.167 -0.3691  0.1074 -1.6608
 4872SOL    HW226079   2.829   2.398   6.118 -1.7157 -1.7024  0.8940
 4873SOL     OW26080   3.026   2.968   7.094  0.3480  0.0791  0.1173
 4873SOL    HW126081   2.939   3.010   7.093 -0.7606 -2.3000 -2.3113
 4873SOL    HW226082   3.029   2.922   7.010  0.7458  2.3569 -1.1352
 4874SOL     OW26083   3.099   3.520   6.037 -0.1488  0.5226 -0.0931
 4874SOL    HW126084   3.032   3.526   5.969 -0.2443 -0.1143 -0.0562
 4874SOL    HW226085   3.068   3.441   6.082  1.6625 -0.4433 -0.5246
 4875SOL     OW26086   0.594   3.663  17.491 -0.4151  0.3400  0.1037
 4875SOL    HW126087   0.568   3.572  17.485 -2.7039  1.1878 -2.6303
 4875SOL    HW226088   0.661   3.667  17.423 -0.0891  1.7849  0.4971
 4876SOL     OW26089   4.716   3.041   8.506 -0.3952 -0.2304 -0.0341
 4876SOL    HW126090   4.630   3.044   8.548  0.3686  0.0506  1.5272
 4876SOL    HW226091   0.040   3.117   8.548  2.1287 -1.1808 -0.7471
 4877SOL     OW26092   3.920   2.947   2.706 -0.2937 -0.6938  0.5469
 4877SOL    HW126093   3.856   2.921   2.640 -1.1555  1.1576  0.6595
 4877SOL    HW226094   3.865   2.998   2.766 -1.1206 -1.0326  0.0706
 4878SOL     OW26095   3.456   3.362   9.173 -0.3329  0.0402  0.1048
 4878SOL    HW126096   3.445   3.425   9.102  1.5775  1.7957  1.3780
 4878SOL    HW226097   3.370   3.322   9.162  0.4110 -1.6280  0.3313
 4879SOL     OW26098   1.139   3.815   4.453  0.0786  0.1983  0.4807
 4879SOL    HW126099   1.203   3.849   4.515 -0.1599  1.0674  0.2404
 4879SOL    HW226100   1.117   3.895   4.406  1.3751  0.2007 -0.1127
 4880SOL     OW26101   1.791   0.155   9.783 -0.5852 -0.1418 -0.1543
 4880SOL    HW126102   1.770   0.241   9.747 -1.0402 -0.6475 -1.1174
 4880SOL    HW226103   1.876   0.152   9.740 -0.2630 -1.8174  0.5846
 4881SOL     OW26104   3.936   4.160  10.963  0.0506  0.0039 -0.0327
 4881SOL    HW126105   3.893   4.076  10.949 -0.4311  0.5085 -1.5691
 4881SOL    HW226106   3.955   4.158  11.057  0.0569 -0.1082 -0.0367
 4882SOL     OW26107   3.470   4.594   0.641  0.3075  0.0468 -0.0716
 4882SOL    HW126108   3.378   4.602   0.666  0.3614  1.2550 -0.2258
 4882SOL    HW226109   3.469   4.499   0.648  1.1023  0.0971  0.8162
 4883SOL     OW26110   0.148   4.607   4.216 -0.4110  0.0327 -0.4087
 4883SOL    HW126111   0.073   4.651   4.175  0.2377  0.7757 -0.7999
 4883SOL    HW226112   0.099   4.559   4.283  0.4206 -0.1690  0.0443
 4884SOL     OW26113   3.502   3.728   7.423 -0.2101 -0.4248 -0.1293
 4884SOL    HW126114   3.409   3.749   7.412  0.3544  2.3894  0.5704
 4884SOL    HW226115   3.504   3.648   7.371 -3.7706  0.0674 -1.0785
 4885SOL     OW26116   0.350   0.668   2.838  0.1740  0.4546 -0.0841
 4885SOL    HW126117   0.347   0.572   2.841  1.2382  0.4489  0.7119
 4885SOL    HW226118   0.276   0.691   2.782  0.9447  1.1778 -0.8026
 4886SOL     OW26119   1.821   2.370   7.934 -0.5862  0.2265 -0.1461
 4886SOL    HW126120   1.774   2.382   7.851  2.3770  4.2605 -1.2332
 4886SOL    HW226121   1.874   2.449   7.930 -2.3261  1.3685 -0.4386
 4887SOL     OW26122   2.392   0.366   9.485  0.3860  0.1864 -0.1519
 4887SOL    HW126123   2.431   0.388   9.570  1.7781  1.4720 -1.1141
 4887SOL    HW226124   2.364   0.452   9.451 -1.7469 -0.4751 -0.0590
 4888SOL     OW26125   4.550   0.326  17.191 -0.7422  0.3455 -0.6125
 4888SOL    HW126126   4.525   0.336  17.283  2.3046 -0.4645  0.3165
 4888SOL    HW226127   4.590   0.411  17.174  3.8821 -1.4505  1.2960
 4889SOL     OW26128   2.902   4.551   4.623 -0.0821  0.0697 -0.2436
 4889SOL    HW126129   2.844   4.573   4.550 -0.1610 -0.5415 -0.3678
 4889SOL    HW226130   2.848   4.508   4.690  0.7290 -0.3466  0.1414
 4890SOL     OW26131   0.952   2.345   9.371  0.0859  0.2294  0.4089
 4890SOL    HW126132   0.915   2.432   9.383  0.8772  0.5775  0.3395
 4890SOL    HW226133   1.039   2.384   9.362 -0.5447  1.9082  1.7001
 4891SOL     OW26134   0.328   1.231  15.255 -0.3787 -0.2954 -0.3745
 4891SOL    HW126135   0.340   1.316  15.298  0.0199 -0.6254  0.1694
 4891SOL    HW226136   0.241   1.207  15.285 -0.3384  1.8517  1.4647
 4892SOL     OW26137   1.494   2.682   5.906 -0.3296 -0.1551  0.1251
 4892SOL    HW126138   1.462   2.750   5.965 -1.9189  0.1335 -1.0756
 4892SOL    HW226139   1.419   2.655   5.854 -0.2505 -1.7255  0.8365
 4893SOL     OW26140   1.102   3.983   8.130  0.2371 -0.2834 -0.5739
 4893SOL    HW126141   1.094   3.889   8.148  1.0129  0.1047  1.8152
 4893SOL    HW226142   1.140   3.989   8.043  1.3549  0.8367 -0.0063
 4894SOL     OW26143   3.502   0.834   5.840 -0.2536  0.4173 -0.0843
 4894SOL    HW126144   3.436   0.852   5.772 -1.9058  1.1004  1.6750
 4894SOL    HW226145   3.512   0.920   5.882 -2.1525  1.0163 -0.8420
 4895SOL     OW26146   0.884   3.023   4.831 -0.5363  0.1635  0.2217
 4895SOL    HW126147   0.958   3.072   4.867 -1.3319 -0.0741  2.1613
 4895SOL    HW226148   0.919   2.936   4.812  0.6993  0.3568  1.6467
 4896SOL     OW26149   1.829   4.190  12.989  0.2190  0.2674  0.3038
 4896SOL    HW126150   1.808   4.123  13.055 -0.9105  0.5012  0.1924
 4896SOL    HW226151   1.749   4.243  12.989  0.8233  1.1676 -0.8874
 4897SOL     OW26152   4.191   2.930   1.241 -0.1584 -0.3490  0.1473
 4897SOL    HW126153   4.178   3.023   1.223  0.6603 -0.1473  0.5723
 4897SOL    HW226154   4.130   2.885   1.183 -0.9593  2.2994 -1.0582
 4898SOL     OW26155   4.259   0.850   4.928  0.4630 -0.5315 -0.3614
 4898SOL    HW126156   4.337   0.811   4.968 -1.3434 -1.7159  1.9736
 4898SOL    HW226157   4.192   0.789   4.957 -0.4557 -0.0093 -1.3992
 4899SOL     OW26158   4.119   2.129   4.713 -0.2986 -0.0797 -0.2520
 4899SOL    HW126159   4.132   2.042   4.751  1.6119 -0.0069 -0.7204
 4899SOL    HW226160   4.209   2.146   4.685 -0.4202 -1.6022 -1.5839
 4900SOL     OW26161   0.502   2.835  11.432  0.5010  0.1897 -0.5561
 4900SOL    HW126162   0.462   2.882  11.505 -0.2081 -0.2171 -0.6829
 4900SOL    HW226163   0.505   2.746  11.466  0.8084  0.4340  0.0448
 4901SOL     OW26164   0.595   2.360  11.676  0.3731  0.7438 -0.0378
 4901SOL    HW126165   0.667   2.380  11.735  1.2170  0.2018 -0.8856
 4901SOL    HW226166   0.521   2.330  11.730  1.2361 -1.0697  0.1339
 4902SOL     OW26167   3.138   3.382  11.389 -0.6909 -0.1454  0.0173
 4902SOL    HW126168   3.219   3.421  11.356  0.3867 -0.8367  1.8899
 4902SOL    HW226169   3.120   3.451  11.454 -0.2547  1.1368 -1.2166
 4903SOL     OW26170   1.896   3.738   5.032 -0.3050 -0.2846  0.4755
 4903SOL    HW126171   1.847   3.794   4.971 -1.5362 -1.6626  0.2027
 4903SOL    HW226172   1.952   3.704   4.963 -2.1218  0.8048 -1.5486
 4904SOL     OW26173   3.633   4.062   7.684 -0.4701  0.2781 -0.1564
 4904SOL    HW126174   3.661   4.153   7.696 -1.8774  0.6807  0.2052
 4904SOL    HW226175   3.668   4.041   7.598 -2.5778  1.9093 -1.3994
 4905SOL     OW26176   3.921   1.733  10.804  0.0918 -0.2253  0.5151
 4905SOL    HW126177   4.014   1.744  10.820 -0.1011 -1.8932  2.6717
 4905SOL    HW226178   3.900   1.818  10.766  0.9317  0.1051  0.7995
 4906SOL     OW26179   2.780   3.934  17.293 -0.5160 -0.3266 -0.4494
 4906SOL    HW126180   2.763   3.841  17.309  2.4168 -0.5162  1.5499
 4906SOL    HW226181   2.762   3.968  17.380  0.1275  1.8495 -1.1748
 4907SOL     OW26182   1.712   3.135   5.051  0.3984 -0.0892  0.2723
 4907SOL    HW126183   1.630   3.174   5.022  0.1443 -0.1395  0.9279
 4907SOL    HW226184   1.764   3.216   5.052  2.0006 -1.0922 -0.4199
 4908SOL     OW26185   0.920   4.028   3.496  0.1755  0.2142 -0.4229
 4908SOL    HW126186   0.842   4.072   3.464  0.4927  0.4132 -0.9259
 4908SOL    HW226187   0.990   4.089   3.474  0.7011  0.4433  1.8435
 4909SOL     OW26188   3.393   4.340   0.255  0.0430  0.2547  0.5172
 4909SOL    HW126189   3.308   4.382   0.248  0.4220  0.6595 -1.9328
 4909SOL    HW226190   3.392   4.281   0.330 -0.2913  0.3003  0.5478
 4910SOL     OW26191   3.502   1.286  11.159  0.1212 -0.7330 -0.3778
 4910SOL    HW126192   3.492   1.354  11.093  0.8494  0.8155  1.1047
 4910SOL    HW226193   3.527   1.223  11.091  0.0349 -1.4353  0.2396
 4911SOL     OW26194   4.188   1.389   5.189  0.4667 -0.4977  0.3188
 4911SOL    HW126195   4.254   1.426   5.248  0.6840  0.7517 -0.7207
 4911SOL    HW226196   4.210   1.297   5.205 -0.3491 -0.7862 -0.2509
 4912SOL     OW26197   0.162   0.534  16.822  0.5932  0.6493  0.1487
 4912SOL    HW126198   0.175   0.447  16.861  1.5326  0.0308 -1.5341
 4912SOL    HW226199   0.251   0.557  16.795  0.6523 -0.6803 -0.8129
 4913SOL     OW26200   1.531   3.823  11.630  0.1348  0.3517  0.6598
 4913SOL    HW126201   1.615   3.837  11.585 -0.5858 -1.2718 -1.1796
 4913SOL    HW226202   1.564   3.758  11.691  0.9376  0.8859  0.7999
 4914SOL     OW26203   0.992   0.221   3.580 -0.2706 -0.6109 -0.6626
 4914SOL    HW126204   0.939   0.169   3.521 -0.3464  0.0935 -1.2150
 4914SOL    HW226205   1.077   0.207   3.539 -1.0825 -2.3337 -1.7468
 4915SOL     OW26206   1.352   3.248   3.406  0.3895  0.4940  0.2538
 4915SOL    HW126207   1.411   3.314   3.441  0.7749  0.0014  0.5424
 4915SOL    HW226208   1.264   3.280   3.424  0.1335  0.2752 -0.6142
 4916SOL     OW26209   0.240   3.726   9.394  0.2712  0.6478 -0.1248
 4916SOL    HW126210   0.230   3.636   9.424  1.4346  0.8734  0.9181
 4916SOL    HW226211   0.250   3.773   9.477  1.0994 -0.5808  0.4746
 4917SOL     OW26212   1.172   2.503  14.692 -0.2200 -0.1572  0.1610
 4917SOL    HW126213   1.111   2.471  14.626 -0.1085 -1.3782  0.6380
 4917SOL    HW226214   1.250   2.482  14.640 -0.6523  1.8035 -1.2963
 4918SOL     OW26215   2.635   0.581  12.476  0.2575 -0.8591 -0.1163
 4918SOL    HW126216   2.660   0.501  12.428 -0.0659 -1.0274 -0.0048
 4918SOL    HW226217   2.700   0.643  12.443 -1.2405  0.8541  0.1765
 4919SOL     OW26218   2.063   3.644  14.559 -0.4715  0.2946 -0.3912
 4919SOL    HW126219   2.131   3.685  14.612 -1.2148 -0.5052  1.1504
 4919SOL    HW226220   2.026   3.575  14.614 -0.3012  0.2754 -0.3023
 4920SOL     OW26221   1.794   0.377   3.132  0.7005  0.0742 -0.3510
 4920SOL    HW126222   1.832   0.353   3.216 -0.1126 -2.5161 -0.6953
 4920SOL    HW226223   1.715   0.424   3.158  0.6338  0.4039 -1.1542
 4921SOL     OW26224   4.501   2.452   0.885  0.4173 -0.4688 -0.2688
 4921SOL    HW126225   4.439   2.504   0.834 -0.3970  1.8599  3.1139
 4921SOL    HW226226   4.476   2.476   0.974  4.9229 -1.2231  1.2051
 4922SOL     OW26227   4.076   0.653  16.154  0.2125  0.2480  0.1568
 4922SOL    HW126228   4.073   0.645  16.059 -0.6739  0.3752  0.1682
 4922SOL    HW226229   4.166   0.682  16.167  0.1787  0.9025 -1.1059
 4923SOL     OW26230   0.606   3.264  13.489  0.1166 -0.0084 -0.0396
 4923SOL    HW126231   0.551   3.334  13.454 -0.8430 -1.6507 -1.7998
 4923SOL    HW226232   0.573   3.183  13.451 -0.0333  0.7533 -1.5058
 4924SOL     OW26233   1.111   2.785  11.421 -0.1643 -0.2706  0.0806
 4924SOL    HW126234   1.148   2.700  11.443  0.3871 -0.3591 -1.2036
 4924SOL    HW226235   1.064   2.807  11.502 -2.3651 -0.9534 -0.9870
 4925SOL     OW26236   1.036   0.986   1.671 -0.6405  0.3891 -0.4987
 4925SOL    HW126237   1.046   0.907   1.617 -1.3316  0.8070 -1.2374
 4925SOL    HW226238   1.127   1.015   1.679 -1.1256  1.0655  2.4862
 4926SOL     OW26239   2.354   0.469  17.076  1.0937 -0.7094  0.2187
 4926SOL    HW126240   2.294   0.443  17.146 -0.5932  0.2679 -0.8675
 4926SOL    HW226241   2.324   0.423  16.998 -0.2916 -3.2195  2.2218
 4927SOL     OW26242   1.796   3.046   8.880 -0.2511 -0.4027  0.2835
 4927SOL    HW126243   1.866   3.110   8.870 -2.8504  2.1704 -1.2664
 4927SOL    HW226244   1.799   2.987   8.805 -0.8018 -1.3626  1.0062
 4928SOL     OW26245   1.701   2.174   4.958 -0.2808 -0.1642 -0.2053
 4928SOL    HW126246   1.697   2.114   5.033 -1.1128 -2.3042 -1.9733
 4928SOL    HW226247   1.793   2.162   4.934 -0.4745  1.0049 -1.4803
 4929SOL     OW26248   1.333   4.211  14.750  0.0734 -0.2293 -0.3015
 4929SOL    HW126249   1.325   4.136  14.690 -3.7368  2.7052 -3.4247
 4929SOL    HW226250   1.421   4.191  14.782  1.1566  1.4894 -2.2078
 4930SOL     OW26251   2.145   2.977  16.878 -0.0051 -0.4500 -0.5316
 4930SOL    HW126252   2.146   3.028  16.958 -2.5107 -2.0928  0.5332
 4930SOL    HW226253   2.225   3.010  16.837  0.4508  1.8598  2.2778
 4931SOL     OW26254   1.202   4.351   2.593  0.0712  0.1448 -0.2669
 4931SOL    HW126255   1.159   4.267   2.574  0.9914 -0.0794 -1.3089
 4931SOL    HW226256   1.231   4.331   2.682 -2.8459 -0.6583  0.5105
 4932SOL     OW26257   1.611   3.408  15.325  0.2102 -0.0578 -0.5745
 4932SOL    HW126258   1.597   3.400  15.419  0.4590  0.3503 -0.5023
 4932SOL    HW226259   1.555   3.338  15.291  1.9849 -1.0991 -1.3261
 4933SOL     OW26260   4.660   0.073  16.488  0.5774  0.1899  0.2569
 4933SOL    HW126261   4.601   0.051  16.416  0.6708 -1.1118  0.5712
 4933SOL    HW226262   4.691   0.162  16.469 -2.6919  1.1104 -0.7065
 4934SOL     OW26263   4.713   3.811   9.231  0.3115 -0.3582  0.0096
 4934SOL    HW126264   0.065   3.782   9.292 -0.2557 -2.9877 -0.6062
 4934SOL    HW226265   0.015   3.759   9.153  0.0381  1.6917 -1.4157
 4935SOL     OW26266   3.350   1.913   6.354  0.6940  0.2956 -0.0210
 4935SOL    HW126267   3.430   1.889   6.308 -0.8068 -0.4604 -2.2753
 4935SOL    HW226268   3.378   1.916   6.445  3.1467 -2.1380 -0.7181
 4936SOL     OW26269   2.983   3.044   4.712 -0.1881 -0.1394 -0.1217
 4936SOL    HW126270   2.986   3.101   4.635  1.9128 -1.8084 -1.3037
 4936SOL    HW226271   2.975   3.113   4.779  2.0544  0.7658 -0.7844
 4937SOL     OW26272   0.204   1.417   2.265 -0.3925 -0.0531 -0.1294
 4937SOL    HW126273   0.210   1.490   2.326  0.6033  0.8425 -1.2873
 4937SOL    HW226274   0.133   1.361   2.295 -2.4124  1.5182 -1.9689
 4938SOL     OW26275   0.849   3.929  13.891 -0.7484  0.0098  1.1742
 4938SOL    HW126276   0.759   3.924  13.859  0.0281 -0.9573 -0.8184
 4938SOL    HW226277   0.891   3.961  13.812 -0.8861  0.2219  1.1880
 4939SOL     OW26278   0.489   0.656  14.345 -0.7344  0.7406  0.5312
 4939SOL    HW126279   0.496   0.650  14.440  1.4548  1.9737  0.4537
 4939SOL    HW226280   0.471   0.565  14.324  0.3839  0.1704  2.0254
 4940SOL     OW26281   2.228   2.448  13.219  0.0057 -1.4892  0.1019
 4940SOL    HW126282   2.247   2.541  13.231 -2.3888 -0.9168 -0.5685
 4940SOL    HW226283   2.266   2.424  13.303 -0.5271 -0.1780  0.7085
 4941SOL     OW26284   0.956   4.348   7.695 -0.0253 -0.6870 -0.1037
 4941SOL    HW126285   1.039   4.303   7.707 -0.6429 -2.0814 -1.0214
 4941SOL    HW226286   0.984   4.390   7.613 -0.4881  2.3277  1.2663
 4942SOL     OW26287   3.967   2.834   0.925  0.3558 -0.1526 -0.7111
 4942SOL    HW126288   3.907   2.780   0.874  1.2006 -2.1361  0.4254
 4942SOL    HW226289   3.917   2.915   0.935  0.1278 -0.6218  1.8652
 4943SOL     OW26290   1.717   3.410   3.752 -0.5737 -0.0229 -0.5632
 4943SOL    HW126291   1.684   3.469   3.820  0.5419  0.9310 -0.8455
 4943SOL    HW226292   1.651   3.407   3.683 -2.3376 -1.4392  1.1970
 4944SOL     OW26293   1.393   2.948  11.933  0.3541  0.0672  0.0821
 4944SOL    HW126294   1.310   2.996  11.939  0.4481  0.1942  0.3631
 4944SOL    HW226295   1.374   2.868  11.981  0.0196  0.3693  0.4461
 4945SOL     OW26296   0.858   4.560   1.889  0.3790 -0.6181  0.3919
 4945SOL    HW126297   0.790   4.567   1.957  0.8382 -2.1166  1.0141
 4945SOL    HW226298   0.937   4.547   1.941  0.2280  1.1053  1.0424
 4946SOL     OW26299   1.000   1.115   2.971 -0.1809 -0.2996  0.3713
 4946SOL    HW126300   0.984   1.132   2.878  1.6304  0.3981  0.1790
 4946SOL    HW226301   1.085   1.157   2.984  1.6669 -4.1780  0.8183
 4947SOL     OW26302   0.208   3.599  16.414 -0.0688 -0.5085  0.2507
 4947SOL    HW126303   0.266   3.572  16.343  1.0151  1.1124  0.5258
 4947SOL    HW226304   0.162   3.674  16.377  1.0704 -1.1082 -2.3525
 4948SOL     OW26305   3.570   4.466   2.598 -0.2021  0.3044  0.3737
 4948SOL    HW126306   3.477   4.475   2.574 -0.2739 -1.4646 -0.0039
 4948SOL    HW226307   3.565   4.390   2.657  0.4816 -0.8561 -1.0726
 4949SOL     OW26308   2.978   2.086  15.268 -0.2125 -0.2842 -0.0068
 4949SOL    HW126309   2.915   2.148  15.306  0.7761  1.6451 -1.5536
 4949SOL    HW226310   3.040   2.098  15.340  1.1135 -1.8668 -0.8850
 4950SOL     OW26311   2.415   1.400   5.022 -0.1192  0.1599 -0.1077
 4950SOL    HW126312   2.401   1.495   5.026  2.9974  0.5945  0.5705
 4950SOL    HW226313   2.351   1.382   4.954  1.6763  0.5399 -1.8911
 4951SOL     OW26314   4.356   0.704  16.188  0.3396  0.1147  0.0369
 4951SOL    HW126315   4.371   0.796  16.167 -0.4248  0.8380  2.7255
 4951SOL    HW226316   4.374   0.719  16.281  0.0125  0.6909  0.0080
 4952SOL     OW26317   0.070   2.949   7.775 -0.4359  0.0468  0.3580
 4952SOL    HW126318   0.045   3.032   7.815 -2.0487  0.1169 -0.8355
 4952SOL    HW226319   0.019   2.896   7.836 -0.0228  2.0649  2.4636
 4953SOL     OW26320   1.059   2.766   0.399 -0.2455  0.3180 -0.0158
 4953SOL    HW126321   1.095   2.689   0.441 -1.0719 -1.2770 -2.2143
 4953SOL    HW226322   1.121   2.833   0.429 -0.3562 -0.0241  0.9575
 4954SOL     OW26323   2.659   0.479  14.302 -0.3751 -0.1621 -0.2784
 4954SOL    HW126324   2.685   0.533  14.376 -2.6915 -2.1028  1.9169
 4954SOL    HW226325   2.709   0.400  14.322 -1.6813 -1.0172 -0.3869
 4955SOL     OW26326   4.604   2.189   6.361  0.1506  0.4749 -0.3182
 4955SOL    HW126327   4.564   2.182   6.275 -1.0034  2.2989  0.0716
 4955SOL    HW226328   4.558   2.120   6.408  1.8791 -0.5481 -0.0982
 4956SOL     OW26329   3.195   3.001   3.195  0.2246 -0.8457  0.1729
 4956SOL    HW126330   3.153   2.988   3.280 -0.6718  1.1003  0.0313
 4956SOL    HW226331   3.191   2.914   3.158 -0.1103 -0.3539 -0.9297
 4957SOL     OW26332   1.172   3.108  13.322  0.7132  0.8002 -0.3034
 4957SOL    HW126333   1.178   3.198  13.354  3.7024  0.7494 -0.7182
 4957SOL    HW226334   1.231   3.106  13.247 -0.4947 -0.3525 -1.2036
 4958SOL     OW26335   4.682   3.078   5.672  0.4151 -0.1589  0.2346
 4958SOL    HW126336   4.605   3.132   5.659 -0.2096 -0.4026  2.9044
 4958SOL    HW226337   0.039   3.137   5.691 -1.6530  1.8785  1.7705
 4959SOL     OW26338   0.437   3.604   7.408 -0.7496  0.2773  0.0131
 4959SOL    HW126339   0.441   3.592   7.313 -3.1161  0.9550 -0.1683
 4959SOL    HW226340   0.408   3.694   7.422  3.0686  1.7297 -1.3520
 4960SOL     OW26341   0.796   1.952   9.521  0.1182 -0.6218  0.0003
 4960SOL    HW126342   0.706   1.984   9.527 -0.0518 -1.0766 -0.1084
 4960SOL    HW226343   0.783   1.859   9.504 -0.2137 -0.3439 -1.2560
 4961SOL     OW26344   3.661   4.130  17.131 -0.7745  0.0471 -0.0756
 4961SOL    HW126345   3.662   4.225  17.142  2.2273  0.0415 -0.3270
 4961SOL    HW226346   3.664   4.127  17.035  1.9817  0.2204  0.0156
 4962SOL     OW26347   4.638   1.441   1.102  0.3128  0.4417  0.5166
 4962SOL    HW126348   4.695   1.517   1.095 -0.0986  0.5360 -1.8317
 4962SOL    HW226349   4.703   1.375   1.076 -0.6040  0.6395 -2.2447
 4963SOL     OW26350   1.416   1.735   1.871  0.2043  0.4785  0.6168
 4963SOL    HW126351   1.383   1.712   1.958 -3.5329 -2.4565 -1.5689
 4963SOL    HW226352   1.402   1.652   1.826 -1.1072  0.0095  1.8592
 4964SOL     OW26353   4.342   4.408  12.452  0.3773 -0.4864 -0.0309
 4964SOL    HW126354   4.376   4.382  12.537  2.9320 -2.1951 -1.5635
 4964SOL    HW226355   4.369   4.499  12.440 -0.1603 -0.3518 -0.1986
 4965SOL     OW26356   3.656   1.271   7.362 -0.1862 -0.6033 -0.3136
 4965SOL    HW126357   3.714   1.344   7.384 -1.0528  0.0894 -0.3356
 4965SOL    HW226358   3.571   1.315   7.356  0.2705  0.1924 -0.9368
 4966SOL     OW26359   0.014   3.827  17.273  0.2268  0.4292  0.3895
 4966SOL    HW126360   0.059   3.898  17.227  1.5764 -1.5322 -1.3646
 4966SOL    HW226361   0.076   3.798  17.340  1.1050  0.6116 -0.3319
 4967SOL     OW26362   1.686   3.046   4.301  0.1715 -0.1863  0.2474
 4967SOL    HW126363   1.672   3.095   4.220  1.4665 -0.0289  0.1146
 4967SOL    HW226364   1.653   2.962   4.271  0.2351  0.2879 -1.1525
 4968SOL     OW26365   3.678   0.677   9.149 -0.4254  0.0028  0.0723
 4968SOL    HW126366   3.593   0.715   9.125 -0.2121  0.2137 -0.3480
 4968SOL    HW226367   3.712   0.643   9.066 -1.7449  0.9284 -0.8488
 4969SOL     OW26368   3.122   2.292  10.217  0.0212  0.1065 -0.0982
 4969SOL    HW126369   3.165   2.216  10.178 -1.1567  0.0385 -1.2880
 4969SOL    HW226370   3.043   2.305  10.164  1.2146  1.7684 -1.4640
 4970SOL     OW26371   4.618   2.471   1.148  0.1015  0.1546 -0.1023
 4970SOL    HW126372   4.669   2.421   1.084 -1.0406  0.6691 -1.3961
 4970SOL    HW226373   4.626   2.560   1.116 -1.5991  1.0496  1.9863
 4971SOL     OW26374   1.065   3.329   0.909  0.0323  0.5036 -0.3583
 4971SOL    HW126375   1.074   3.234   0.915 -1.0189  0.3926 -0.6034
 4971SOL    HW226376   0.997   3.338   0.842 -1.1045 -0.4662  0.6621
 4972SOL     OW26377   4.503   4.088   9.550 -0.0610 -0.1338  0.2303
 4972SOL    HW126378   4.585   4.077   9.598  0.1977  0.9312  0.0375
 4972SOL    HW226379   4.474   4.169   9.592 -0.6978 -0.0492 -0.3763
 4973SOL     OW26380   3.215   2.550   3.477 -0.6865  0.1183  0.2425
 4973SOL    HW126381   3.179   2.487   3.539  0.6895  1.0192  1.9651
 4973SOL    HW226382   3.243   2.622   3.533  0.0821 -0.8948  1.1632
 4974SOL     OW26383   1.184   0.805  15.883  0.2697 -0.3369 -0.0760
 4974SOL    HW126384   1.268   0.758  15.884 -0.3994 -1.4987  2.1788
 4974SOL    HW226385   1.180   0.840  15.794 -0.5542 -0.9794 -0.2826
 4975SOL     OW26386   4.409   3.552   9.666  0.0360 -0.3466 -0.3080
 4975SOL    HW126387   4.492   3.600   9.659  0.6189 -1.4623 -1.1690
 4975SOL    HW226388   4.394   3.554   9.760  0.4780  2.7634 -0.2904
 4976SOL     OW26389   4.692   2.606   3.816 -0.0810  0.0824 -0.6652
 4976SOL    HW126390   4.608   2.590   3.859 -0.0983  1.1157 -0.3157
 4976SOL    HW226391   0.001   2.680   3.872 -1.4542 -1.9351  2.6223
 4977SOL     OW26392   2.637   2.728   5.846 -0.1163 -0.8219 -0.3720
 4977SOL    HW126393   2.602   2.811   5.880  0.0001 -1.2212  0.7142
 4977SOL    HW226394   2.732   2.737   5.854 -0.3158  0.3037  0.7850
 4978SOL     OW26395   3.179   2.863   4.704  0.1985  0.0420  0.2879
 4978SOL    HW126396   3.140   2.806   4.770 -0.8268 -0.2757 -0.5937
 4978SOL    HW226397   3.112   2.931   4.708 -0.5524 -0.7395  0.9645
 4979SOL     OW26398   4.692   4.108  17.003  0.0677  0.4051 -0.1349
 4979SOL    HW126399   0.047   4.101  17.066 -0.4282 -0.3732  0.3448
 4979SOL    HW226400   0.004   4.029  16.955  0.2306  0.4152 -0.0553
 4980SOL     OW26401   3.947   3.760   4.435 -0.4632  0.4162  0.3828
 4980SOL    HW126402   4.017   3.821   4.413 -1.6305  1.1676 -1.2434
 4980SOL    HW226403   3.941   3.767   4.530 -0.4525 -0.7232  0.4749
 4981SOL     OW26404   1.875   0.419  13.325 -0.1546 -0.2962 -0.3116
 4981SOL    HW126405   1.852   0.486  13.260 -0.5620 -0.1409 -0.0020
 4981SOL    HW226406   1.880   0.337  13.275 -0.3829  0.4103 -1.4824
 4982SOL     OW26407   0.729   2.714   2.980  0.0332 -0.1987 -0.3280
 4982SOL    HW126408   0.701   2.705   3.071  2.6792 -1.4850  0.3525
 4982SOL    HW226409   0.818   2.679   2.984  0.3076  0.4794 -0.5388
 4983SOL     OW26410   2.191   0.895   3.530  0.0453 -0.2960  0.0119
 4983SOL    HW126411   2.101   0.864   3.538 -0.8149  2.6100  1.7275
 4983SOL    HW226412   2.218   0.865   3.443 -3.0257 -0.9862 -0.7001
 4984SOL     OW26413   1.406   1.167   2.777  0.2888 -0.3724 -0.0180
 4984SOL    HW126414   1.334   1.109   2.803  0.1032  0.2653  0.8847
 4984SOL    HW226415   1.412   1.231   2.849 -0.6707  0.4628 -0.6718
 4985SOL     OW26416   3.884   2.139  11.834 -0.0638  0.2088  0.4157
 4985SOL    HW126417   3.907   2.087  11.757  1.1944 -2.2021  2.4227
 4985SOL    HW226418   3.823   2.199  11.791 -0.2875  0.7624  1.5187
 4986SOL     OW26419   3.837   4.681   2.128  0.0966  0.2448  0.1830
 4986SOL    HW126420   3.877   4.689   2.041  0.0972 -2.0433 -0.0213
 4986SOL    HW226421   3.804   4.592   2.120  0.1857  0.1924  0.3923
 4987SOL     OW26422   3.950   1.918  11.098  0.1124  1.2111 -0.6303
 4987SOL    HW126423   3.966   1.961  11.182  2.0371 -0.3887 -0.1824
 4987SOL    HW226424   4.041   1.889  11.089 -0.2428 -0.4798  1.2837
 4988SOL     OW26425   4.451   2.842   6.014  0.1648 -0.6186 -0.6572
 4988SOL    HW126426   4.488   2.787   5.945 -3.1853 -1.8368 -1.4791
 4988SOL    HW226427   4.463   2.772   6.077  0.5309  1.0944  1.1616
 4989SOL     OW26428   4.334   3.878   5.309 -0.2569 -0.4163 -0.3254
 4989SOL    HW126429   4.354   3.964   5.273  0.4167 -0.2144  0.5129
 4989SOL    HW226430   4.418   3.862   5.352 -0.5431 -4.7871 -1.4212
 4990SOL     OW26431   0.729   3.085   3.605  0.4431  0.3448 -0.5005
 4990SOL    HW126432   0.684   3.001   3.607  1.9182 -0.5116 -3.0690
 4990SOL    HW226433   0.801   3.047   3.554  1.1216 -0.6497  1.2310
 4991SOL     OW26434   2.910   1.797   5.743 -0.2851 -0.0438  0.2543
 4991SOL    HW126435   2.902   1.890   5.763 -2.9892  0.3907 -2.6766
 4991SOL    HW226436   2.898   1.807   5.648 -0.0073 -0.5718  0.1598
 4992SOL     OW26437   1.109   2.880   8.716 -0.2325  0.6122 -0.1818
 4992SOL    HW126438   1.173   2.948   8.696  2.6904 -1.8636  0.7410
 4992SOL    HW226439   1.048   2.934   8.765 -1.8812  0.5121 -2.1018
 4993SOL     OW26440   1.793   2.690   6.744  1.0344  0.2356  0.0839
 4993SOL    HW126441   1.794   2.621   6.679  0.4573 -1.0735  1.4599
 4993SOL    HW226442   1.714   2.671   6.796  0.7733  0.1927 -0.3333
 4994SOL     OW26443   1.942   1.229   4.538  0.0270 -0.2189 -0.1871
 4994SOL    HW126444   2.013   1.249   4.478 -0.3644  1.1731 -0.1747
 4994SOL    HW226445   1.989   1.190   4.612  2.5528  2.1272 -0.5625
 4995SOL     OW26446   1.240   1.439  17.259 -0.0475 -0.1474 -0.1236
 4995SOL    HW126447   1.172   1.395  17.208  0.7100 -2.1377  0.5731
 4995SOL    HW226448   1.205   1.528  17.267  2.4496  0.8215  0.3461
 4996SOL     OW26449   0.582   2.818   4.292 -0.5237 -0.2262 -0.0451
 4996SOL    HW126450   0.522   2.881   4.252 -0.2111 -0.5100 -0.9368
 4996SOL    HW226451   0.537   2.734   4.292 -0.5943 -0.1879 -0.1363
 4997SOL     OW26452   1.364   1.285   2.526  0.2996  0.1203  0.0254
 4997SOL    HW126453   1.327   1.371   2.547  3.3339  1.4173  0.2063
 4997SOL    HW226454   1.368   1.249   2.615  2.9885 -0.3036 -0.2625
 4998SOL     OW26455   1.592   0.667  17.510 -0.1518  0.3385 -0.1705
 4998SOL    HW126456   1.613   0.600  17.575 -0.0602  1.2274  0.7027
 4998SOL    HW226457   1.675   0.714  17.508  1.0027 -1.7011 -0.1062
 4999SOL     OW26458   4.299   4.606  11.376 -0.3393  0.1318  0.2723
 4999SOL    HW126459   4.309   4.532  11.316 -1.6651 -0.3303  0.6297
 4999SOL    HW226460   4.286   4.678  11.314  1.7391 -0.5642 -0.9893
 5000SOL     OW26461   4.215   4.033   6.915 -0.1434  0.2748  0.6912
 5000SOL    HW126462   4.305   4.061   6.929 -0.8899  2.3882  1.3889
 5000SOL    HW226463   4.227   3.946   6.876 -1.7191  0.1149  0.5353
 5001SOL     OW26464   4.558   3.999  17.614  0.4253  0.1254 -0.3225
 5001SOL    HW126465   4.488   4.064  17.624  0.8705  0.6895 -0.8154
 5001SOL    HW226466   4.512   3.918  17.632  0.6849 -0.3961 -2.0556
 5002SOL     OW26467   3.173   3.277   7.009 -0.3506 -0.5204  0.2071
 5002SOL    HW126468   3.173   3.223   7.088  0.5007 -0.8525 -0.0195
 5002SOL    HW226469   3.153   3.202   6.952  0.3360  0.8856 -1.8754
 5003SOL     OW26470   4.052   4.417  10.934 -0.2855 -0.1875 -0.9235
 5003SOL    HW126471   4.103   4.494  10.909 -1.1338  1.2713  1.8367
 5003SOL    HW226472   4.099   4.395  11.015 -1.1609  1.4080  0.0133
 5004SOL     OW26473   4.618   1.151   1.139 -0.6586 -0.0870  1.0352
 5004SOL    HW126474   4.663   1.159   1.224 -0.9776  0.0435  1.1897
 5004SOL    HW226475   4.697   1.163   1.086 -0.5592 -2.7176  0.5957
 5005SOL     OW26476   2.007   1.039   2.328 -0.3638  0.2027 -0.8180
 5005SOL    HW126477   1.986   0.980   2.401 -1.6247  1.9941  0.2792
 5005SOL    HW226478   1.920   1.062   2.296  0.0126  3.2670  0.3086
 5006SOL     OW26479   3.093   0.718   5.723  0.2932  0.0409  0.3869
 5006SOL    HW126480   3.012   0.690   5.680  0.5804  0.4260 -0.4007
 5006SOL    HW226481   3.093   0.652   5.792 -1.1614 -0.0856  0.2753
 5007SOL     OW26482   3.812   2.319  12.340 -0.0593 -0.0514  0.0182
 5007SOL    HW126483   3.803   2.406  12.301  2.0698  0.6364  1.0755
 5007SOL    HW226484   3.827   2.352  12.429 -2.3520 -1.5544  0.9715
 5008SOL     OW26485   1.269   2.816   5.783 -0.4183 -0.7693  0.0678
 5008SOL    HW126486   1.262   2.901   5.825  0.2007 -0.0608 -1.2583
 5008SOL    HW226487   1.344   2.824   5.724  0.3285 -1.4942  0.9174
 5009SOL     OW26488   2.703   0.987   9.336 -0.1079 -0.1048  0.4530
 5009SOL    HW126489   2.745   0.910   9.375  0.7550  1.0453  1.8077
 5009SOL    HW226490   2.762   1.047   9.383 -0.4773 -1.0952  2.1851
 5010SOL     OW26491   2.388   0.715   4.848  0.3473 -0.0323  0.3258
 5010SOL    HW126492   2.430   0.661   4.915  1.7856 -0.7895 -1.1858
 5010SOL    HW226493   2.462   0.721   4.786  0.9321  0.8964  1.1122
 5011SOL     OW26494   3.197   0.470   5.410  0.5881 -0.4642 -0.1663
 5011SOL    HW126495   3.154   0.420   5.480  0.1836  0.3396  0.1587
 5011SOL    HW226496   3.139   0.478   5.335  1.4858  1.4765 -0.6396
 5012SOL     OW26497   1.901   0.870   7.779  0.3239 -0.3436  0.0505
 5012SOL    HW126498   1.885   0.815   7.856  0.5728 -2.1433 -1.2058
 5012SOL    HW226499   1.866   0.950   7.819 -1.3284 -0.7255 -0.6284
 5013SOL     OW26500   2.831   4.106  11.227 -0.2630  0.6884 -0.5313
 5013SOL    HW126501   2.841   4.010  11.227 -0.2219  0.6929 -0.6591
 5013SOL    HW226502   2.796   4.113  11.139 -0.7707  1.7105 -0.2426
 5014SOL     OW26503   4.664   2.328   8.227 -0.0419  0.1067  0.2829
 5014SOL    HW126504   4.706   2.272   8.293 -1.0492 -1.9263 -0.7740
 5014SOL    HW226505   4.576   2.337   8.264  0.1596  1.0747  0.5182
 5015SOL     OW26506   4.127   1.640   1.885 -0.6284  0.6398  0.4223
 5015SOL    HW126507   4.141   1.672   1.974  0.0625 -1.5975  1.1100
 5015SOL    HW226508   4.208   1.598   1.857 -1.4666 -1.3183  0.9240
 5016SOL     OW26509   0.766   1.875  14.785  0.7962 -0.4014  0.4482
 5016SOL    HW126510   0.683   1.832  14.807 -1.5314  3.1269 -1.3807
 5016SOL    HW226511   0.809   1.888  14.870  2.3986 -0.8991 -0.2828
 5017SOL     OW26512   4.659   4.280   3.222 -0.0790  0.3997 -0.1357
 5017SOL    HW126513   4.607   4.358   3.239  0.0261  0.7508 -1.4256
 5017SOL    HW226514   4.605   4.222   3.168 -0.8036  1.0845 -0.1355
 5018SOL     OW26515   2.457   2.090   4.315  0.7790  0.7430 -0.2595
 5018SOL    HW126516   2.535   2.047   4.280 -0.9032  0.1276 -3.2406
 5018SOL    HW226517   2.394   2.020   4.297  1.4048  0.0154  0.3990
 5019SOL     OW26518   3.729   1.090   3.421 -0.8247  0.5857  0.2978
 5019SOL    HW126519   3.812   1.097   3.469 -0.2671  1.4059 -0.7982
 5019SOL    HW226520   3.730   1.002   3.384  0.1993  0.6262  0.2290
 5020SOL     OW26521   2.663   2.283   0.319  0.1013  0.0571 -0.1006
 5020SOL    HW126522   2.575   2.322   0.311 -0.2429 -0.8615 -0.7746
 5020SOL    HW226523   2.625   2.198   0.338 -0.2166 -0.4189 -2.8174
 5021SOL     OW26524   0.842   0.490  15.377 -0.3230 -0.1884  0.3306
 5021SOL    HW126525   0.796   0.416  15.416 -0.4563  0.2151  0.9411
 5021SOL    HW226526   0.794   0.572  15.389  1.8763  1.3019 -1.1073
 5022SOL     OW26527   4.335   4.270  13.667 -0.2785 -0.8868  0.3284
 5022SOL    HW126528   4.312   4.178  13.655 -4.3524  0.1505  0.3476
 5022SOL    HW226529   4.323   4.315  13.584 -0.4503  1.6039  1.7024
 5023SOL     OW26530   2.304   1.754   5.366  0.3131  0.2093  0.7458
 5023SOL    HW126531   2.300   1.777   5.459 -0.9529  0.0266  0.7367
 5023SOL    HW226532   2.398   1.741   5.355  0.0809 -1.3387  0.4958
 5024SOL     OW26533   1.004   3.536   7.207 -0.4539  0.5884  0.2958
 5024SOL    HW126534   1.070   3.544   7.276 -1.0855  1.3260  0.8039
 5024SOL    HW226535   1.053   3.587   7.142 -0.3918 -0.5259 -0.5376
 5025SOL     OW26536   1.391   2.225   4.065 -0.4915  0.0298 -0.0671
 5025SOL    HW126537   1.308   2.272   4.064 -0.7771 -0.4531  1.0299
 5025SOL    HW226538   1.372   2.151   4.123  0.3830  0.9753  1.4163
 5026SOL     OW26539   0.968   0.637   4.675  0.4080  0.1052  0.2636
 5026SOL    HW126540   0.943   0.717   4.629 -1.8053  0.6167  2.3518
 5026SOL    HW226541   0.885   0.621   4.720 -0.6469 -0.3479 -1.8910
 5027SOL     OW26542   1.367   3.605   2.573 -0.0256 -0.3720 -0.4144
 5027SOL    HW126543   1.382   3.517   2.608  1.5109  1.4774  3.5437
 5027SOL    HW226544   1.451   3.618   2.530  0.0392  1.0447  0.1238
 5028SOL     OW26545   2.864   3.246   5.260  0.3605 -0.3788  0.1967
 5028SOL    HW126546   2.813   3.306   5.205  0.9173 -0.7999 -0.7769
 5028SOL    HW226547   2.934   3.303   5.291 -0.9600  1.9492 -1.0987
 5029SOL     OW26548   1.834   1.931   7.135  0.1172 -0.2428  0.1133
 5029SOL    HW126549   1.758   1.880   7.110 -1.7345  1.4851  2.1588
 5029SOL    HW226550   1.899   1.868   7.166 -1.1315 -1.0973  1.0038
 5030SOL     OW26551   4.369   3.519   5.419  0.4067 -0.1833  0.1510
 5030SOL    HW126552   4.434   3.532   5.350 -1.1461  1.3164 -1.0265
 5030SOL    HW226553   4.366   3.424   5.408  0.0743 -0.2530  0.8385
 5031SOL     OW26554   0.561   0.958   0.216 -0.1549 -0.2924 -0.1088
 5031SOL    HW126555   0.520   0.953   0.130 -2.9952 -0.4812  1.2592
 5031SOL    HW226556   0.517   1.035   0.252  0.0529  0.0194 -0.5142
 5032SOL     OW26557   2.878   4.102   7.958  0.3984 -0.1556 -0.7350
 5032SOL    HW126558   2.789   4.137   7.946  0.5051 -0.1805 -1.6318
 5032SOL    HW226559   2.909   4.108   7.867  3.3503  0.3307  0.3170
 5033SOL     OW26560   3.426   1.421   2.373 -0.0062  0.4478  0.2845
 5033SOL    HW126561   3.499   1.407   2.433 -0.5074 -1.6719  0.3960
 5033SOL    HW226562   3.373   1.488   2.416  1.0473  1.7172 -0.3868
 5034SOL     OW26563   2.551   0.212   3.951  0.0541  0.2872 -0.1684
 5034SOL    HW126564   2.490   0.234   4.022  0.2459 -0.3623  0.2021
 5034SOL    HW226565   2.613   0.284   3.954  1.8688 -1.3108  0.5200
 5035SOL     OW26566   1.794   3.267   6.105  0.3569 -0.4871  0.1006
 5035SOL    HW126567   1.805   3.281   6.199 -2.0058 -0.1344  0.3255
 5035SOL    HW226568   1.755   3.180   6.100  2.1591 -1.2030 -1.3971
 5036SOL     OW26569   2.448   1.903   6.431 -0.6380 -0.6444 -0.6724
 5036SOL    HW126570   2.415   1.849   6.503  1.0787 -0.8804 -0.0640
 5036SOL    HW226571   2.534   1.927   6.464 -0.7978  0.8206 -1.3027
 5037SOL     OW26572   1.033   0.790  13.335  0.2171 -0.2968  0.2243
 5037SOL    HW126573   1.033   0.695  13.352  0.2674  0.2379  3.0826
 5037SOL    HW226574   0.940   0.806  13.317  0.7469  2.6961  0.2152
 5038SOL     OW26575   3.381   1.664   9.074 -0.5471 -0.1639  0.1819
 5038SOL    HW126576   3.386   1.759   9.073 -0.5549 -0.1539  1.1987
 5038SOL    HW226577   3.460   1.645   9.125  0.1965  0.3401 -0.7787
 5039SOL     OW26578   2.455   1.506   4.714 -0.1469  0.1163  0.0158
 5039SOL    HW126579   2.381   1.522   4.773 -0.2195  0.6335 -0.2176
 5039SOL    HW226580   2.446   1.583   4.659 -0.7718  0.1888  0.2245
 5040SOL     OW26581   4.265   1.640  15.460  0.4379  0.1679 -0.3776
 5040SOL    HW126582   4.297   1.552  15.481  2.3638  0.8404 -0.4563
 5040SOL    HW226583   4.337   1.700  15.480 -0.1444  1.0323 -0.8830
 5041SOL     OW26584   3.816   1.996   8.384  0.1824  0.3946  0.2798
 5041SOL    HW126585   3.786   2.069   8.438 -1.8151  0.4457 -0.8912
 5041SOL    HW226586   3.730   1.954   8.380  0.6256 -0.5203  0.5389
 5042SOL     OW26587   2.506   1.252  15.751  0.2319  0.2555  0.0268
 5042SOL    HW126588   2.571   1.185  15.729  0.0986 -0.2205  1.0997
 5042SOL    HW226589   2.566   1.309  15.799  2.9964 -0.5623 -2.4284
 5043SOL     OW26590   0.808   3.403   1.861 -0.3858 -0.1151  0.1444
 5043SOL    HW126591   0.864   3.359   1.925 -1.0985 -1.8522 -0.4335
 5043SOL    HW226592   0.863   3.385   1.784 -0.2729 -0.2306  0.2514
 5044SOL     OW26593   4.187   3.543   9.530 -0.0649 -0.2875  0.0569
 5044SOL    HW126594   4.272   3.536   9.573  0.3161 -1.0267 -0.8153
 5044SOL    HW226595   4.178   3.449   9.517 -1.6895 -0.0660 -0.3964
 5045SOL     OW26596   2.402   4.632   6.451  0.6844 -0.4350  0.0299
 5045SOL    HW126597   2.342   4.578   6.400  2.1699 -2.8049  0.8151
 5045SOL    HW226598   2.464   4.565   6.481  2.4283 -0.0526 -2.7090
 5046SOL     OW26599   1.672   2.158   9.140 -0.1264 -0.0164 -0.1529
 5046SOL    HW126600   1.653   2.240   9.093 -0.9917  1.1905  2.2837
 5046SOL    HW226601   1.622   2.096   9.087 -0.8820  0.2261  0.2731
 5047SOL     OW26602   1.596   3.788   0.305  0.9398 -0.7125 -0.2081
 5047SOL    HW126603   1.561   3.866   0.348  0.4929 -0.6018 -0.7636
 5047SOL    HW226604   1.513   3.744   0.287  0.3673  0.1314  0.3474
 5048SOL     OW26605   2.914   3.535   4.952  0.2152  0.7462  0.1419
 5048SOL    HW126606   2.883   3.546   4.862 -1.1912  2.6312  0.8539
 5048SOL    HW226607   2.974   3.607   4.972 -0.0087  0.7835  0.6887
 5049SOL     OW26608   1.531   2.386  16.959  0.1759 -0.5065 -0.1365
 5049SOL    HW126609   1.514   2.374  16.866  1.3412  0.6269 -0.4893
 5049SOL    HW226610   1.616   2.430  16.957  0.1363 -0.4026  0.4696
 5050SOL     OW26611   3.981   3.983   2.444  0.1116 -0.5708 -0.6429
 5050SOL    HW126612   3.983   3.997   2.349  1.0021 -1.2364 -0.7206
 5050SOL    HW226613   4.066   3.945   2.467  0.4007  0.7710  0.4406
 5051SOL     OW26614   1.368   3.599   8.593  0.2048  0.7270  0.2894
 5051SOL    HW126615   1.312   3.676   8.584  1.3069  1.5849  0.7143
 5051SOL    HW226616   1.444   3.652   8.620  1.0973  1.0718 -2.9064
 5052SOL     OW26617   0.104   2.638   3.292 -0.7759  0.4103  0.2314
 5052SOL    HW126618   0.046   2.572   3.255  0.3378 -0.7795  0.5933
 5052SOL    HW226619   0.123   2.599   3.378  1.6879 -1.4243 -1.1245
 5053SOL     OW26620   3.594   0.990   7.041 -0.6030  0.5887  0.1380
 5053SOL    HW126621   3.652   0.962   6.970 -3.2771 -1.9559 -1.0529
 5053SOL    HW226622   3.653   1.025   7.107 -0.5427  0.2596  0.2592
 5054SOL     OW26623   4.263   3.509   6.320 -0.4951  0.3645 -0.8219
 5054SOL    HW126624   4.266   3.586   6.377 -2.0985  0.0933 -0.3487
 5054SOL    HW226625   4.326   3.461   6.374 -1.8417 -0.8916 -0.3683
 5055SOL     OW26626   1.301   2.037  17.150  0.2421  0.7128  0.7536
 5055SOL    HW126627   1.267   2.127  17.148  0.8258  0.9150 -0.0244
 5055SOL    HW226628   1.233   1.992  17.200  1.1639 -1.8399 -0.2932
 5056SOL     OW26629   4.428   1.049  17.428 -0.1253  0.3764 -0.2702
 5056SOL    HW126630   4.499   0.994  17.395  0.2035 -0.1695  1.3183
 5056SOL    HW226631   4.429   1.121  17.366  1.4509  1.3759  0.9170
 5057SOL     OW26632   1.444   2.008   1.835 -0.4049  0.0997 -0.2094
 5057SOL    HW126633   1.397   2.032   1.755 -0.1108 -1.3687 -0.8112
 5057SOL    HW226634   1.427   1.914   1.841  2.2157 -0.2272  2.1428
 5058SOL     OW26635   1.529   4.549   9.137  0.5579  0.3014  0.1643
 5058SOL    HW126636   1.443   4.559   9.177  0.3660 -2.3553  0.4334
 5058SOL    HW226637   1.528   4.455   9.123 -0.0474  0.5582 -1.4513
 5059SOL     OW26638   3.302   1.093   4.854  0.4156  0.1168 -0.0739
 5059SOL    HW126639   3.394   1.118   4.844  0.3824  1.3968  2.7979
 5059SOL    HW226640   3.249   1.173   4.853 -2.8025 -2.0257 -1.1247
 5060SOL     OW26641   1.200   4.482   8.247  0.0589  0.2309  0.2458
 5060SOL    HW126642   1.166   4.394   8.232  1.4761 -0.3216  0.2694
 5060SOL    HW226643   1.290   4.472   8.217 -0.2898  0.0406 -0.7365
 5061SOL     OW26644   0.828   0.835   7.485 -0.2356 -0.4106  0.0681
 5061SOL    HW126645   0.891   0.841   7.413 -0.6464 -0.7652 -0.3307
 5061SOL    HW226646   0.796   0.925   7.490 -0.5463 -0.2247 -4.8256
 5062SOL     OW26647   2.747   3.789   7.506 -0.2139 -0.0050  0.3050
 5062SOL    HW126648   2.839   3.804   7.525 -0.7905  0.4615  2.8285
 5062SOL    HW226649   2.742   3.817   7.415 -0.5616 -0.9045  0.0464
 5063SOL     OW26650   4.702   2.563   8.060  0.3509 -0.1865 -0.3120
 5063SOL    HW126651   4.669   2.602   8.141 -0.3440  0.3539 -0.8518
 5063SOL    HW226652   0.031   2.488   8.097  0.3674 -0.3433 -0.6541
 5064SOL     OW26653   3.559   1.825  12.150  0.5336 -0.3078 -0.3284
 5064SOL    HW126654   3.638   1.794  12.106  0.4311 -1.1634  0.0922
 5064SOL    HW226655   3.499   1.842  12.077  0.7403  0.2739 -0.3624
 5065SOL     OW26656   0.221   4.101   7.515 -0.1079  0.1118 -0.5136
 5065SOL    HW126657   0.304   4.072   7.552  0.2295  1.8297  0.0542
 5065SOL    HW226658   0.201   4.171   7.577 -0.4635 -1.4929  1.2147
 5066SOL     OW26659   4.164   4.532  13.990  0.2399 -0.6024 -0.7511
 5066SOL    HW126660   4.209   4.581  13.921 -0.2215 -0.8475 -1.2242
 5066SOL    HW226661   4.189   4.595  14.057 -1.2778  0.4059 -1.1387
 5067SOL     OW26662   1.438   1.280   4.355 -0.2970 -0.1061 -0.3562
 5067SOL    HW126663   1.414   1.339   4.284  0.7024  0.5632 -0.1333
 5067SOL    HW226664   1.519   1.314   4.393  1.2378 -0.8144 -2.9811
 5068SOL     OW26665   2.954   3.798  13.047 -0.0509  0.0720 -0.3147
 5068SOL    HW126666   3.043   3.831  13.033 -0.0855  0.0010 -0.6894
 5068SOL    HW226667   2.940   3.808  13.142 -1.4687 -0.3846 -0.4815
 5069SOL     OW26668   3.228   1.602  10.241  0.2596  0.5168 -0.0217
 5069SOL    HW126669   3.291   1.536  10.213 -1.1393 -0.4597 -0.8592
 5069SOL    HW226670   3.163   1.560  10.296  1.3649 -1.0366  0.1149
 5070SOL     OW26671   4.157   3.128   1.730 -0.2379 -0.7177  0.3327
 5070SOL    HW126672   4.234   3.162   1.775  0.9132  0.7292 -2.7315
 5070SOL    HW226673   4.189   3.114   1.641  0.3673 -0.5299  0.5216
 5071SOL     OW26674   2.436   3.795  16.095  0.1516  0.6566  0.0776
 5071SOL    HW126675   2.490   3.756  16.163  2.2271  1.1939 -1.2552
 5071SOL    HW226676   2.481   3.763  16.017 -0.7229  3.1674 -1.4423
 5072SOL     OW26677   1.998   0.265   2.694  0.0540 -0.4800 -0.1898
 5072SOL    HW126678   2.016   0.174   2.717 -0.8166 -0.3596  0.9773
 5072SOL    HW226679   2.040   0.257   2.609  0.2121 -0.4983 -0.1084
 5073SOL     OW26680   3.757   2.809  17.205 -0.5389  0.7393  0.1077
 5073SOL    HW126681   3.670   2.798  17.245  0.8848  0.6192  3.2062
 5073SOL    HW226682   3.775   2.903  17.206  2.3340  0.1672  2.8856
 5074SOL     OW26683   4.268   0.835   1.862 -0.5425  0.1160 -0.0196
 5074SOL    HW126684   4.215   0.776   1.809 -2.4576  0.8107  1.1039
 5074SOL    HW226685   4.323   0.875   1.794 -1.6337 -0.4523 -1.2298
 5075SOL     OW26686   3.203   2.561   7.960  0.6474 -0.1524 -0.6588
 5075SOL    HW126687   3.266   2.530   8.025  1.1064  0.6242 -0.7276
 5075SOL    HW226688   3.223   2.501   7.887  1.2483 -1.1030  0.2881
 5076SOL     OW26689   0.273   1.153   7.283  0.2786  0.7402  0.0217
 5076SOL    HW126690   0.307   1.107   7.206 -0.6051  1.0130 -0.5292
 5076SOL    HW226691   0.221   1.083   7.322  1.4742 -0.2983 -0.2740
 5077SOL     OW26692   2.820   2.862   3.389 -0.2467  0.1208 -0.8632
 5077SOL    HW126693   2.860   2.783   3.353  1.9854  0.6300  0.4595
 5077SOL    HW226694   2.769   2.895   3.315  1.3775 -0.3728 -2.1994
 5078SOL     OW26695   1.353   0.735  13.295  0.1088 -0.0737 -0.5091
 5078SOL    HW126696   1.292   0.663  13.310  1.1118 -0.9778 -0.7577
 5078SOL    HW226697   1.438   0.694  13.279 -0.8547 -1.4989 -1.9798
 5079SOL     OW26698   3.769   2.029   6.448  0.2380  0.2516 -0.0180
 5079SOL    HW126699   3.749   1.980   6.367  0.5168  0.2975 -0.1121
 5079SOL    HW226700   3.840   1.985   6.494 -0.4512  0.1869  0.9876
 5080SOL     OW26701   1.135   3.567   2.022  0.1864 -0.0855 -0.1416
 5080SOL    HW126702   1.101   3.540   2.107 -1.3143  1.2151 -0.3158
 5080SOL    HW226703   1.080   3.515   1.963 -1.0894  0.3746  0.6406
 5081SOL     OW26704   0.707   3.584   6.922  0.2681  0.4993 -0.0587
 5081SOL    HW126705   0.663   3.571   7.006 -1.4947 -1.6238 -1.3297
 5081SOL    HW226706   0.664   3.659   6.881  0.2140  0.8547  0.6384
 5082SOL     OW26707   2.494   4.131   1.054 -0.5199  0.0765 -0.1566
 5082SOL    HW126708   2.515   4.210   1.104 -0.7967 -1.0001  1.6698
 5082SOL    HW226709   2.426   4.169   0.998 -1.4839  1.5425  1.9679
 5083SOL     OW26710   2.359   2.636  12.364  0.4022 -0.2505  0.6636
 5083SOL    HW126711   2.336   2.549  12.331 -1.8097 -0.0266  1.5621
 5083SOL    HW226712   2.430   2.605  12.420  0.7279 -0.8066 -0.0645
 5084SOL     OW26713   3.804   3.978   9.110  0.1553 -0.9273  0.0124
 5084SOL    HW126714   3.771   4.009   9.194 -0.5093 -2.1814  0.2241
 5084SOL    HW226715   3.866   4.049   9.095 -1.1246  0.1268 -0.2192
 5085SOL     OW26716   0.619   2.918  11.688  0.0163 -0.3993 -0.8299
 5085SOL    HW126717   0.647   2.896  11.776 -0.2180 -1.6880 -1.0785
 5085SOL    HW226718   0.704   2.931  11.645 -0.2515  0.1478 -1.1927
 5086SOL     OW26719   2.793   1.859   7.240  0.1637  0.3531 -0.5237
 5086SOL    HW126720   2.780   1.778   7.289  4.4252  0.0656  0.1125
 5086SOL    HW226721   2.768   1.924   7.305  1.7498  0.4110  0.0189
 5087SOL     OW26722   3.252   0.221   5.996  0.4576 -0.3498  0.0565
 5087SOL    HW126723   3.210   0.282   6.056 -1.4929 -0.4975 -1.1708
 5087SOL    HW226724   3.344   0.215   6.022  1.0601  3.8715 -1.2010
 5088SOL     OW26725   2.325   4.028   6.221  0.2680 -0.4059  0.2314
 5088SOL    HW126726   2.419   4.014   6.213  0.1411 -0.8680 -0.3987
 5088SOL    HW226727   2.297   3.953   6.272  1.4694 -0.4140  0.8868
 5089SOL     OW26728   1.738   3.300   1.810 -0.1432 -0.5012  0.6599
 5089SOL    HW126729   1.797   3.311   1.735 -1.9169 -0.4370 -0.7240
 5089SOL    HW226730   1.733   3.205   1.812 -0.7325 -0.4991 -1.0164
 5090SOL     OW26731   0.334   1.512   5.778  0.0065  0.4304 -0.3635
 5090SOL    HW126732   0.390   1.585   5.803 -0.1069  0.3664  0.0803
 5090SOL    HW226733   0.262   1.528   5.839 -1.3900  0.2454 -1.9636
 5091SOL     OW26734   2.524   3.189   8.896 -0.3535  0.5275 -0.4457
 5091SOL    HW126735   2.531   3.154   8.807  1.1286  1.5127 -0.7179
 5091SOL    HW226736   2.554   3.279   8.884  0.4579  0.0332 -2.1033
 5092SOL     OW26737   2.570   0.994  16.705  0.4826 -0.0213 -0.1356
 5092SOL    HW126738   2.612   0.911  16.728  0.4499  0.0581  0.2063
 5092SOL    HW226739   2.487   0.998  16.752  0.9263 -0.3652  0.6788
 5093SOL     OW26740   2.634   0.443   3.620  0.1444 -0.0290 -0.1538
 5093SOL    HW126741   2.560   0.410   3.671  0.6647 -0.9302  0.0221
 5093SOL    HW226742   2.600   0.439   3.531  0.7870  2.2715 -0.5008
 5094SOL     OW26743   3.718   2.828   8.358 -0.5376 -0.3928 -0.1810
 5094SOL    HW126744   3.797   2.802   8.406  0.2014  0.9988 -0.6449
 5094SOL    HW226745   3.692   2.747   8.315  0.1032 -1.0875  0.7476
 5095SOL     OW26746   3.453   0.476   2.805 -0.4212  0.5848 -0.0567
 5095SOL    HW126747   3.546   0.469   2.787 -0.4921  0.3719 -0.3335
 5095SOL    HW226748   3.453   0.537   2.879  3.3809  0.4750  0.0067
 5096SOL     OW26749   2.963   3.649   3.970 -0.0005  0.2325 -0.4849
 5096SOL    HW126750   2.903   3.641   4.044  0.1389 -1.8415 -0.5917
 5096SOL    HW226751   2.917   3.617   3.891 -1.8180 -0.6185  0.9024
 5097SOL     OW26752   1.366   0.003   3.152  0.2962  0.1430  0.0650
 5097SOL    HW126753   1.461   4.708   3.160  0.5806  1.5964 -1.4010
 5097SOL    HW226754   1.350   0.094   3.127  0.5959  0.3036  0.4594
 5098SOL     OW26755   0.173   1.176   8.664 -0.5704 -0.0728 -0.5976
 5098SOL    HW126756   0.109   1.113   8.698  1.6105 -1.6721  0.5259
 5098SOL    HW226757   0.130   1.192   8.580  1.7510  2.6189 -1.2801
 5099SOL     OW26758   2.807   1.374   7.078 -0.3036  0.6383 -0.2508
 5099SOL    HW126759   2.872   1.310   7.109  1.1434  3.1060  1.8283
 5099SOL    HW226760   2.848   1.418   7.003  0.6727  0.3851  0.1253
 5100SOL     OW26761   4.649   4.103   3.482 -0.5329  0.0995  0.3171
 5100SOL    HW126762   4.661   4.186   3.435 -3.0640  0.1088 -0.3320
 5100SOL    HW226763   4.570   4.121   3.534  0.8986  2.2193  1.7592
 5101SOL     OW26764   3.747   1.890   1.531  0.5408 -0.3032  0.2243
 5101SOL    HW126765   3.670   1.841   1.501  0.3144 -0.1361  0.5355
 5101SOL    HW226766   3.710   1.976   1.548  0.4230 -0.5646  1.2673
 5102SOL     OW26767   2.925   0.223   6.665 -0.2076 -0.4525  0.1760
 5102SOL    HW126768   2.857   0.286   6.690  0.2417  0.9165 -2.0380
 5102SOL    HW226769   2.998   0.272   6.703 -1.3842  1.3976  0.0639
 5103SOL     OW26770   4.669   4.356  16.124 -0.1674  0.1494  0.1291
 5103SOL    HW126771   4.642   4.335  16.213 -0.4670  0.3494  0.0861
 5103SOL    HW226772   4.709   4.440  16.147  0.5156 -0.3825  0.8756
 5104SOL     OW26773   2.791   3.335   0.873 -0.0587  0.0710 -0.3933
 5104SOL    HW126774   2.781   3.261   0.812  1.0243 -0.7816  0.4560
 5104SOL    HW226775   2.713   3.383   0.846 -0.0658 -0.3857 -1.1909
 5105SOL     OW26776   0.809   4.016  16.441  0.1720  0.0459  0.0614
 5105SOL    HW126777   0.785   4.102  16.473  2.2737  0.0543  1.6222
 5105SOL    HW226778   0.886   4.034  16.388  0.9071  0.9614  1.4481
 5106SOL     OW26779   1.095   3.809  13.689 -0.2576 -0.7455 -0.2868
 5106SOL    HW126780   1.086   3.748  13.617  1.2243 -0.6157 -0.5940
 5106SOL    HW226781   1.190   3.798  13.696 -0.4002 -1.2871  0.7492
 5107SOL     OW26782   3.967   1.637  14.307  0.3165  0.4630  0.0304
 5107SOL    HW126783   3.921   1.677  14.380 -0.0555  0.8445 -0.4174
 5107SOL    HW226784   3.994   1.712  14.255 -2.3170  1.5971  0.3062
 5108SOL     OW26785   3.298   2.238   6.744 -0.0288 -0.0546 -0.1146
 5108SOL    HW126786   3.204   2.242   6.726  0.0872 -2.8332 -1.2418
 5108SOL    HW226787   3.309   2.326   6.706  2.1171 -0.4836 -0.4746
 5109SOL     OW26788   4.519   2.870  14.369 -0.0325  0.4647 -0.2209
 5109SOL    HW126789   4.563   2.804  14.422 -0.1510 -1.0385 -1.9945
 5109SOL    HW226790   4.435   2.826  14.353 -0.8008  1.9646 -0.3243
 5110SOL     OW26791   0.580   0.786   4.780 -0.3212 -0.3003  0.3541
 5110SOL    HW126792   0.667   0.824   4.792 -0.0495 -1.1581  1.1832
 5110SOL    HW226793   0.533   0.842   4.842 -1.6665  0.6516 -1.5482
 5111SOL     OW26794   0.753   1.759  12.147  0.9117  0.2234  0.1001
 5111SOL    HW126795   0.668   1.717  12.132  1.4920 -0.6989 -0.5798
 5111SOL    HW226796   0.809   1.689  12.180  1.5445  0.9027  0.4620
 5112SOL     OW26797   1.565   4.381   6.685  0.6942 -0.2593 -0.2351
 5112SOL    HW126798   1.499   4.440   6.648  1.5017 -0.4880 -2.0796
 5112SOL    HW226799   1.639   4.441   6.687 -1.0542  1.9202 -1.2887
 5113SOL     OW26800   3.918   4.670  15.035  0.5237  0.1925 -0.2162
 5113SOL    HW126801   3.983   4.676  14.964 -0.5060 -0.3707 -1.1971
 5113SOL    HW226802   3.966   4.631  15.107  0.7718  1.6646  0.4219
 5114SOL     OW26803   0.618   3.168   6.301  0.1331 -0.3586  0.0781
 5114SOL    HW126804   0.672   3.096   6.267  0.8010  0.6726 -1.0471
 5114SOL    HW226805   0.623   3.233   6.231  0.6816 -0.7438 -0.2410
 5115SOL     OW26806   0.035   3.394  17.539  0.0661 -0.2684  0.2066
 5115SOL    HW126807   4.689   3.440  17.484 -1.2882 -1.9977  0.2880
 5115SOL    HW226808   0.094   3.357  17.474 -1.7961 -1.7076 -0.6580
 5116SOL     OW26809   0.195   0.764  12.173  0.3645 -0.3797  0.3836
 5116SOL    HW126810   0.200   0.702  12.100 -0.3613  2.3208 -1.9812
 5116SOL    HW226811   0.266   0.732  12.229  1.4460  1.1565 -0.0894
 5117SOL     OW26812   1.508   1.603   9.828  0.5437 -0.4474 -0.3310
 5117SOL    HW126813   1.471   1.602   9.740 -0.7216 -0.7795  0.2081
 5117SOL    HW226814   1.521   1.510   9.843  1.9522 -0.3016 -0.6689
 5118SOL     OW26815   4.419   3.757   9.090 -0.1550 -0.4518 -0.0405
 5118SOL    HW126816   4.503   3.713   9.076  1.0381  2.2947 -1.4258
 5118SOL    HW226817   4.382   3.737   9.176  0.6036 -0.6108  0.2477
 5119SOL     OW26818   1.407   0.447   2.692 -0.9130  0.0622  0.5239
 5119SOL    HW126819   1.417   0.454   2.597 -2.2160  0.1726  0.3985
 5119SOL    HW226820   1.495   0.451   2.729  0.4366  0.2416 -2.7015
 5120SOL     OW26821   3.518   2.690   2.108 -0.2575  0.4390 -0.0365
 5120SOL    HW126822   3.459   2.765   2.107  2.9873  2.9925  0.3449
 5120SOL    HW226823   3.509   2.657   2.198  2.8355  0.7417  0.3979
 5121SOL     OW26824   2.499   2.279   4.077 -0.0769  0.5886 -0.2847
 5121SOL    HW126825   2.479   2.254   3.987 -0.0667  0.4862 -0.2585
 5121SOL    HW226826   2.441   2.229   4.135  3.6206  0.3528  3.2372
 5122SOL     OW26827   1.539   0.634  14.875  0.6113  0.2090 -0.2014
 5122SOL    HW126828   1.501   0.684  14.947  0.1193  0.1089 -0.3890
 5122SOL    HW226829   1.492   0.551  14.886 -0.6428  0.8019 -1.2007
 5123SOL     OW26830   2.189   0.862   2.747 -0.3651  0.1247 -0.2687
 5123SOL    HW126831   2.250   0.936   2.737  0.8785 -0.8003  0.5311
 5123SOL    HW226832   2.166   0.836   2.658 -0.1848  2.3702 -0.9752
 5124SOL     OW26833   0.834   4.397   0.373  0.0025 -0.6816  0.5156
 5124SOL    HW126834   0.823   4.459   0.444 -0.8217  0.7326 -0.8447
 5124SOL    HW226835   0.752   4.398   0.324 -0.1012 -1.0146  0.6822
 5125SOL     OW26836   4.265   1.716  13.965  0.7584  0.0966  0.1542
 5125SOL    HW126837   4.272   1.666  13.884  1.2689  2.9285 -1.5494
 5125SOL    HW226838   4.313   1.797  13.950 -2.3224  1.8840 -0.2332
 5126SOL     OW26839   1.299   0.540   8.357 -0.0323  0.5882 -0.2024
 5126SOL    HW126840   1.344   0.514   8.437 -0.8555  0.2679  0.1598
 5126SOL    HW226841   1.329   0.475   8.294 -1.5236  0.0815 -0.3845
 5127SOL     OW26842   0.394   1.751   4.998  0.9055 -0.1367 -0.1104
 5127SOL    HW126843   0.389   1.827   5.057 -0.0634  0.9813 -1.6456
 5127SOL    HW226844   0.308   1.752   4.958  1.6924  0.0649 -1.7916
 5128SOL     OW26845   1.664   0.610   5.028  0.2070 -0.6857 -0.1454
 5128SOL    HW126846   1.622   0.556   4.961  0.0493 -0.3319 -0.3348
 5128SOL    HW226847   1.606   0.685   5.018 -1.8078 -2.4957 -2.0896
 5129SOL     OW26848   0.244   4.081   6.545  0.0454 -0.2042  0.1285
 5129SOL    HW126849   0.276   4.024   6.476 -1.2400 -0.3235 -0.3823
 5129SOL    HW226850   0.285   4.166   6.530 -0.3090 -0.3553 -1.7080
 5130SOL     OW26851   1.164   2.662   1.301 -0.5624  0.2695  0.4267
 5130SOL    HW126852   1.090   2.705   1.345  0.2860  2.6243 -0.4793
 5130SOL    HW226853   1.239   2.675   1.359 -1.4294  3.3065  0.8821
 5131SOL     OW26854   4.698   2.186   2.567  1.1461 -0.1122 -0.5409
 5131SOL    HW126855   4.643   2.202   2.490  0.2459  0.1576  0.1521
 5131SOL    HW226856   4.695   2.091   2.574 -0.8515  0.2506  3.1518
 5132SOL     OW26857   3.103   4.640   8.609 -0.1051  1.0909  0.2508
 5132SOL    HW126858   3.179   4.696   8.626 -0.0992  1.0140  0.4675
 5132SOL    HW226859   3.024   4.693   8.613 -0.3250  0.8611 -0.8605
 5133SOL     OW26860   0.864   2.087   4.194 -0.1182 -0.1849 -0.1507
 5133SOL    HW126861   0.836   2.179   4.193 -2.6268 -0.9319  1.1807
 5133SOL    HW226862   0.784   2.048   4.160 -0.9931  0.5718  1.0137
 5134SOL     OW26863   2.019   3.314  16.964  0.0139 -0.1424  0.0807
 5134SOL    HW126864   2.082   3.385  16.951  0.1786 -0.3948 -0.5084
 5134SOL    HW226865   2.015   3.266  16.881  0.7531 -0.2226  0.0928
 5135SOL     OW26866   1.558   3.929   5.921  0.1452  0.0712 -0.1397
 5135SOL    HW126867   1.558   3.845   5.966 -3.3221 -0.1583 -0.5386
 5135SOL    HW226868   1.601   3.990   5.981 -1.0356 -2.5746  3.3714
 5136SOL     OW26869   0.534   1.805   9.189  0.1196 -0.0098  0.3687
 5136SOL    HW126870   0.439   1.799   9.188  0.0662  0.7771  1.0757
 5136SOL    HW226871   0.566   1.719   9.218  1.0970 -0.7172 -2.7822
 5137SOL     OW26872   3.888   2.010  11.582  0.1107  0.4897 -0.2053
 5137SOL    HW126873   3.870   2.073  11.513 -1.5391 -0.8733 -1.0106
 5137SOL    HW226874   3.973   1.975  11.556  0.6639 -0.1245  2.3603
 5138SOL     OW26875   1.473   1.817  15.414 -0.2665  0.1557 -0.1517
 5138SOL    HW126876   1.412   1.852  15.479  0.9049 -0.8002  1.4912
 5138SOL    HW226877   1.560   1.832  15.453  0.1357 -1.7160 -0.3061
 5139SOL     OW26878   0.152   1.932   2.973  0.8667  0.0050  0.6846
 5139SOL    HW126879   0.117   1.860   3.025  1.2996 -0.6552  0.0662
 5139SOL    HW226880   0.084   1.961   2.912 -0.5924 -2.2071  1.2776
 5140SOL     OW26881   4.412   4.385   1.011  0.0971  0.4472 -0.0479
 5140SOL    HW126882   4.405   4.447   0.938 -0.8361  1.4435  0.9000
 5140SOL    HW226883   4.401   4.303   0.962 -1.7473  1.0047 -0.5554
 5141SOL     OW26884   3.143   3.660   3.071  0.2132 -0.5194  0.4392
 5141SOL    HW126885   3.176   3.630   3.155 -0.0264  0.3282  0.8350
 5141SOL    HW226886   3.069   3.717   3.093 -1.1458 -1.6604 -1.1278
 5142SOL     OW26887   3.058   0.460   3.294  0.1619 -0.0787 -0.3023
 5142SOL    HW126888   2.982   0.403   3.304 -0.7646  1.1086 -0.6202
 5142SOL    HW226889   3.033   0.519   3.223  3.0642 -0.8863 -1.9914
 5143SOL     OW26890   3.528   4.457  13.827  0.1862  0.3331  0.1278
 5143SOL    HW126891   3.598   4.394  13.846  0.8343  0.1999 -2.6691
 5143SOL    HW226892   3.461   4.397  13.794  2.2581 -2.3743  0.8438
 5144SOL     OW26893   3.254   1.761   6.729  0.3321 -0.9661 -0.5760
 5144SOL    HW126894   3.204   1.687   6.695 -1.7726 -0.0822  0.6234
 5144SOL    HW226895   3.264   1.724   6.817  0.3720  1.7659  0.5819
 5145SOL     OW26896   2.049   2.468  12.449 -0.0855  0.2161  0.7666
 5145SOL    HW126897   2.111   2.446  12.380 -0.3922  0.8165  0.2956
 5145SOL    HW226898   1.967   2.454  12.401  0.8055 -3.1222  0.2462
 5146SOL     OW26899   4.459   0.984   3.105  0.2457  0.0924  0.5137
 5146SOL    HW126900   4.536   1.000   3.049  0.4991  0.3616  0.9443
 5146SOL    HW226901   4.407   1.063   3.091  0.8630  0.1712 -1.4834
 5147SOL     OW26902   2.917   1.312  14.503  0.3696 -0.4072  0.5002
 5147SOL    HW126903   2.919   1.406  14.488 -0.5841 -0.2682  1.2573
 5147SOL    HW226904   2.985   1.301  14.569 -0.1314  1.7109  1.3794
 5148SOL     OW26905   4.377   2.190   4.646  0.0291  0.0851 -0.1101
 5148SOL    HW126906   4.441   2.130   4.684  1.8538  0.5612 -2.4614
 5148SOL    HW226907   4.419   2.272   4.673 -0.1093  0.8630 -2.2300
 5149SOL     OW26908   4.157   1.934   8.437  0.1277  0.1894  0.2180
 5149SOL    HW126909   4.133   1.861   8.380 -1.0603  1.8244 -1.3692
 5149SOL    HW226910   4.250   1.913   8.442  0.1729  0.5775  0.9559
 5150SOL     OW26911   1.033   4.313   4.255  0.0506 -0.4933 -0.2380
 5150SOL    HW126912   1.067   4.382   4.198  1.1679 -0.5735  0.3382
 5150SOL    HW226913   0.943   4.345   4.265 -0.8805 -2.8510 -1.2191
 5151SOL     OW26914   0.145   3.123   8.120  0.0297  0.1943 -0.5436
 5151SOL    HW126915   0.209   3.182   8.161  0.4241 -0.8629  0.3889
 5151SOL    HW226916   0.141   3.050   8.183 -0.2032  0.3473 -0.3822
 5152SOL     OW26917   3.287   0.049   7.191 -0.2040  0.1767 -0.1005
 5152SOL    HW126918   3.381   0.063   7.176  0.0815 -1.6199 -0.0062
 5152SOL    HW226919   3.301   4.673   7.208  0.0233  0.2162 -0.0666
 5153SOL     OW26920   0.114   0.553  11.159  0.4964 -0.2039  0.0292
 5153SOL    HW126921   0.090   0.615  11.227  0.1252 -1.6044  1.1533
 5153SOL    HW226922   0.203   0.577  11.133  1.0527  0.5540  2.7237
 5154SOL     OW26923   0.033   4.331  12.585  0.0374 -0.5597 -0.2630
 5154SOL    HW126924   0.024   4.423  12.561 -0.8782  0.1525  2.7079
 5154SOL    HW226925   0.111   4.320  12.531  1.8472  1.0824  1.9607
 5155SOL     OW26926   1.357   3.992   2.239  0.1378  0.1260  0.0359
 5155SOL    HW126927   1.266   4.001   2.268 -0.3777  0.0837 -1.5912
 5155SOL    HW226928   1.386   3.915   2.287 -1.4586 -0.3201  0.2967
 5156SOL     OW26929   3.699   1.742   6.455 -0.2931 -0.2608 -0.3288
 5156SOL    HW126930   3.671   1.764   6.366 -1.4299  1.3099  0.4242
 5156SOL    HW226931   3.673   1.650   6.457  0.3053 -0.3918  1.4042
 5157SOL     OW26932   2.082   3.538  16.162  0.4629 -0.0929  0.0815
 5157SOL    HW126933   1.996   3.530  16.122  0.4927 -2.7134  0.5898
 5157SOL    HW226934   2.122   3.451  16.161 -1.4843 -0.9672 -0.8586
 5158SOL     OW26935   3.774   1.028   4.035  0.0443 -0.0906  0.2187
 5158SOL    HW126936   3.834   0.999   3.967  0.0324 -1.5899  0.8538
 5158SOL    HW226937   3.779   1.121   4.014  0.6025 -0.3656 -0.9036
 5159SOL     OW26938   2.888   2.268   3.873  0.3216 -1.0079  0.4758
 5159SOL    HW126939   2.968   2.317   3.895 -1.3990  1.3686  1.5575
 5159SOL    HW226940   2.926   2.183   3.855 -1.6419 -2.0878  1.4837
 5160SOL     OW26941   2.751   3.217   6.027 -0.5187 -0.4725 -0.1620
 5160SOL    HW126942   2.693   3.269   6.081 -0.9321  1.7255 -2.7319
 5160SOL    HW226943   2.826   3.277   6.033 -2.4456  1.7443  1.6672
 5161SOL     OW26944   1.597   1.031  13.494  0.2729 -0.6755 -0.3580
 5161SOL    HW126945   1.626   0.960  13.552  1.7195  0.3639  0.1754
 5161SOL    HW226946   1.535   1.067  13.557 -0.3437 -1.3864 -0.5425
 5162SOL     OW26947   0.416   2.006  15.755  0.0545 -0.3088 -0.5345
 5162SOL    HW126948   0.360   2.079  15.731 -0.0273 -0.2046 -0.0380
 5162SOL    HW226949   0.496   2.051  15.784 -0.1110  0.6527 -1.5703
 5163SOL     OW26950   4.414   0.957   2.459 -0.0791  0.0687 -0.2522
 5163SOL    HW126951   4.409   0.990   2.369 -0.0707  0.9583  0.0771
 5163SOL    HW226952   4.363   0.876   2.467  1.0402 -0.6709 -0.5948
 5164SOL     OW26953   2.380   1.486   5.678 -0.1355  0.2307  0.5910
 5164SOL    HW126954   2.449   1.462   5.615 -2.4573  0.5973 -2.0700
 5164SOL    HW226955   2.424   1.499   5.762  2.5757  0.7529 -0.8848
 5165SOL     OW26956   0.523   1.587   3.704 -0.0046 -0.8813  0.2073
 5165SOL    HW126957   0.533   1.509   3.759 -0.2581  0.8640  2.7278
 5165SOL    HW226958   0.428   1.596   3.698 -0.1957 -3.7698 -1.2180
 5166SOL     OW26959   4.395   2.994   9.356  0.0280  0.3357 -0.1870
 5166SOL    HW126960   4.445   3.002   9.274 -1.6573 -0.0209 -1.2599
 5166SOL    HW226961   4.315   2.946   9.334  0.0736  0.5476 -0.8246
 5167SOL     OW26962   0.130   4.292  11.280 -0.5701  1.0283  0.2064
 5167SOL    HW126963   0.142   4.209  11.234 -1.6001 -0.6343  2.9407
 5167SOL    HW226964   0.208   4.293  11.337 -0.0407  1.5172 -0.5257
 5168SOL     OW26965   2.235   1.387  11.999 -0.0135  0.8132  0.0684
 5168SOL    HW126966   2.193   1.354  11.919 -2.3152 -1.6303  2.2801
 5168SOL    HW226967   2.313   1.431  11.966  1.7002 -1.1705  1.5281
 5169SOL     OW26968   1.858   2.895   9.432 -0.1335 -0.4922 -0.4655
 5169SOL    HW126969   1.882   2.959   9.364  3.0973 -1.9843 -0.7091
 5169SOL    HW226970   1.930   2.836   9.415  2.6331  2.4506  1.0374
 5170SOL     OW26971   2.858   3.588   1.039 -0.0114 -0.5139 -0.1383
 5170SOL    HW126972   2.894   3.607   1.125 -2.9908  1.6839  0.6207
 5170SOL    HW226973   2.767   3.605   1.064  0.4601  1.6785  0.0123
 5171SOL     OW26974   1.103   0.698   6.188  0.0274  0.3906 -0.3026
 5171SOL    HW126975   1.124   0.791   6.185  3.0771 -0.3164 -0.8363
 5171SOL    HW226976   1.184   0.647   6.178  0.6439  2.0047 -3.4704
 5172SOL     OW26977   0.585   3.045   4.806 -0.2055 -0.8509 -0.2956
 5172SOL    HW126978   0.580   3.085   4.893  0.2718 -1.8396  0.1948
 5172SOL    HW226979   0.677   3.034   4.786 -0.2246 -0.5546 -0.5335
 5173SOL     OW26980   3.165   1.887   5.158 -0.0686  0.0791  0.2316
 5173SOL    HW126981   3.251   1.858   5.187 -0.5925 -0.4124  1.2988
 5173SOL    HW226982   3.196   1.951   5.094  2.0861 -0.9501  0.2281
 5174SOL     OW26983   2.691   3.818  10.822 -0.8292 -0.5133  0.3370
 5174SOL    HW126984   2.722   3.901  10.858 -2.7512  0.1549  0.4291
 5174SOL    HW226985   2.770   3.790  10.774  0.4619  0.8893  1.6302
 5175SOL     OW26986   2.864   0.989  11.902  0.0458 -0.3726 -0.2636
 5175SOL    HW126987   2.771   0.978  11.922  0.1901 -0.0527  0.6135
 5175SOL    HW226988   2.867   1.082  11.883  1.0416 -0.1411  0.9974
 5176SOL     OW26989   0.097   2.868   3.893  0.0387 -0.3946  0.1558
 5176SOL    HW126990   0.113   2.860   3.987  0.4272 -1.7410 -0.0250
 5176SOL    HW226991   0.187   2.880   3.861 -0.7240  1.5063 -1.2454
 5177SOL     OW26992   1.955   3.097   3.448  0.1312 -0.3710 -0.5826
 5177SOL    HW126993   1.978   3.150   3.372  1.8494  0.9045  0.8307
 5177SOL    HW226994   2.002   3.015   3.441  1.7378  0.6162 -1.2453
 5178SOL     OW26995   0.701   4.685   5.791  0.9549  0.1468  0.3735
 5178SOL    HW126996   0.673   0.048   5.837 -0.0761 -1.1095  1.9231
 5178SOL    HW226997   0.632   4.625   5.820 -0.4192  1.0916 -1.0061
 5179SOL     OW26998   1.539   0.521   3.180 -0.8438 -0.3020  0.1209
 5179SOL    HW126999   1.533   0.603   3.131  0.5386 -1.3917 -1.8686
 5179SOL    HW227000   1.516   0.544   3.270  1.5495  2.3863  0.0398
 5180SOL     OW27001   4.204   4.139   8.635  0.3219  0.3293  0.3520
 5180SOL    HW127002   4.124   4.087   8.635 -0.0032  0.8401 -1.8586
 5180SOL    HW227003   4.221   4.152   8.542  0.7136  1.1582  0.5309
 5181SOL     OW27004   0.045   3.676   3.896  0.2832  0.1663  0.6565
 5181SOL    HW127005   4.679   3.668   3.943 -0.8450 -0.2056 -1.3755
 5181SOL    HW227006   0.097   3.731   3.955  0.3315 -0.0226  0.7901
 5182SOL     OW27007   1.570   0.485   5.828 -0.1985  0.3878  0.4930
 5182SOL    HW127008   1.654   0.525   5.847 -0.1905 -0.4920  2.2495
 5182SOL    HW227009   1.518   0.565   5.836 -1.1443 -0.1068 -0.6674
 5183SOL     OW27010   1.306   2.841   5.424 -0.1759  0.7203 -0.1375
 5183SOL    HW127011   1.379   2.890   5.386 -2.0137  1.7156 -2.3835
 5183SOL    HW227012   1.335   2.754   5.398  0.4964  1.0312 -0.4166
 5184SOL     OW27013   1.661   4.230   5.916  0.4399  0.2031 -0.0296
 5184SOL    HW127014   1.667   4.324   5.897 -0.1440 -0.3839 -3.0248
 5184SOL    HW227015   1.635   4.191   5.833 -1.9115  0.4199  0.5879
 5185SOL     OW27016   3.578   1.898   7.710  0.5796  0.0963 -0.0893
 5185SOL    HW127017   3.584   1.990   7.738  2.2671  0.1854 -0.7610
 5185SOL    HW227018   3.662   1.852   7.715  1.6316  2.1197  0.9551
 5186SOL     OW27019   2.180   0.735   2.430  0.2302  0.0227  0.1529
 5186SOL    HW127020   2.202   0.716   2.339 -1.9603 -0.2210 -0.3308
 5186SOL    HW227021   2.121   0.661   2.444  0.5972  0.0064  1.5532
 5187SOL     OW27022   0.858   1.185  14.897 -0.2870 -0.0499  0.1329
 5187SOL    HW127023   0.813   1.238  14.963 -1.0765 -1.1759  0.4923
 5187SOL    HW227024   0.813   1.102  14.912 -0.0981 -0.4712 -1.5934
 5188SOL     OW27025   0.960   1.117   6.435 -0.1865 -0.3292  0.5041
 5188SOL    HW127026   1.024   1.188   6.443 -0.8222  0.5138 -2.1577
 5188SOL    HW227027   0.932   1.142   6.347 -1.5991  0.7520  1.2671
 5189SOL     OW27028   2.801   3.754   5.467 -0.1594 -0.0141 -0.4962
 5189SOL    HW127029   2.814   3.843   5.434 -0.4993  0.1724 -0.1297
 5189SOL    HW227030   2.861   3.754   5.541 -0.9392  1.9789  0.1252
 5190SOL     OW27031   4.299   1.122   4.431  0.1503  0.3674  1.0002
 5190SOL    HW127032   4.346   1.112   4.514 -0.5910  0.6991  1.4718
 5190SOL    HW227033   4.365   1.084   4.374  0.9850  0.3812  1.9600
 5191SOL     OW27034   2.623   2.974   8.149  0.3014  0.0223 -0.3216
 5191SOL    HW127035   2.529   2.991   8.156 -0.0770 -2.1601 -0.4334
 5191SOL    HW227036   2.636   2.886   8.184  0.7966 -0.2175 -1.1182
 5192SOL     OW27037   4.591   2.979   6.583 -0.2996  0.1472 -0.0567
 5192SOL    HW127038   4.607   2.986   6.488 -0.3306 -1.1512 -0.1516
 5192SOL    HW227039   4.560   2.890   6.596  1.6102 -0.6171 -0.8406
 5193SOL     OW27040   2.900   0.904  16.801  0.0438  0.3149 -0.1032
 5193SOL    HW127041   2.904   0.930  16.893  0.5991  2.1686 -0.6383
 5193SOL    HW227042   2.845   0.826  16.802 -1.3580  1.2690 -1.3405
 5194SOL     OW27043   4.265   3.119   1.465  0.1272  0.2537  0.4785
 5194SOL    HW127044   4.238   3.138   1.374  0.0450 -0.1108  0.4285
 5194SOL    HW227045   4.268   3.025   1.481 -1.0784  0.5514  2.4273
 5195SOL     OW27046   0.443   3.145   5.706  0.4324 -0.5400  0.2976
 5195SOL    HW127047   0.401   3.172   5.624  1.1067  0.4030  0.2719
 5195SOL    HW227048   0.447   3.049   5.701 -2.6266 -0.8181  2.7030
 5196SOL     OW27049   3.977   4.624   8.244  0.3312  0.0238 -0.3529
 5196SOL    HW127050   4.025   4.545   8.220 -0.7172 -0.9486  0.7204
 5196SOL    HW227051   3.887   4.599   8.266  0.0175 -0.2246 -1.9116
 5197SOL     OW27052   0.755   4.633   2.193  0.3143 -0.2847 -0.2854
 5197SOL    HW127053   0.818   4.578   2.241  0.6198  1.2861  1.1124
 5197SOL    HW227054   0.819   4.703   2.181  0.6883 -0.2730  1.7574
 5198SOL     OW27055   4.607   3.748  12.082 -0.1622  0.2453  0.3351
 5198SOL    HW127056   4.615   3.666  12.130 -1.2499 -0.1416 -0.1368
 5198SOL    HW227057   4.512   3.751  12.072 -0.1941  1.3663  0.9554
 5199SOL     OW27058   2.034   3.884  15.274  0.2859  0.8013  0.6887
 5199SOL    HW127059   2.072   3.809  15.230 -1.3209 -0.5932  1.6781
 5199SOL    HW227060   1.983   3.916  15.200  0.6644 -1.7271 -0.6589
 5200SOL     OW27061   4.457   3.559   5.978  0.0142  0.7384  0.5504
 5200SOL    HW127062   4.470   3.494   6.047  2.4145 -2.3501 -2.8614
 5200SOL    HW227063   4.402   3.514   5.914  1.5436  0.4122 -0.5297
 5201SOL     OW27064   4.462   1.925   8.005 -0.0646 -0.3859  0.5330
 5201SOL    HW127065   4.423   1.916   7.918  2.2304  1.0993 -0.6255
 5201SOL    HW227066   4.477   1.835   8.035  0.0900 -0.1405  1.1791
 5202SOL     OW27067   0.716   3.501   6.635  0.7428 -0.4128  0.7925
 5202SOL    HW127068   0.701   3.511   6.729  1.5014  1.4952  0.7112
 5202SOL    HW227069   0.647   3.435   6.622 -0.3018  0.9381 -0.4855
 5203SOL     OW27070   3.098   3.554   4.581  0.5654 -0.1037 -0.3760
 5203SOL    HW127071   3.017   3.506   4.561 -0.6727  0.7775  2.4984
 5203SOL    HW227072   3.064   3.618   4.644  1.4837  0.8280 -0.8083
 5204SOL     OW27073   0.825   2.421  11.828  0.4882 -0.1349 -0.3778
 5204SOL    HW127074   0.850   2.364  11.901 -1.5354  0.7248  0.9948
 5204SOL    HW227075   0.773   2.484  11.879  0.8130  0.0457 -0.2691
 5205SOL     OW27076   4.525   4.389   6.327 -0.1674 -0.5457 -0.1708
 5205SOL    HW127077   4.585   4.412   6.398 -1.4951  0.6776  0.5549
 5205SOL    HW227078   4.581   4.329   6.279  0.6925 -0.8249  1.1765
 5206SOL     OW27079   2.877   4.204   3.375 -0.9292 -0.0122  0.1396
 5206SOL    HW127080   2.910   4.241   3.293 -1.1330  0.1028  0.1110
 5206SOL    HW227081   2.954   4.208   3.433 -0.6572 -0.6249 -0.1804
 5207SOL     OW27082   2.529   2.742   7.873 -0.0152  0.1499  0.0495
 5207SOL    HW127083   2.566   2.654   7.881 -1.0757 -0.2112  0.9891
 5207SOL    HW227084   2.478   2.753   7.954 -0.8417 -0.5540 -0.3686
 5208SOL     OW27085   4.272   1.337  10.421 -0.0621  0.4432 -0.3661
 5208SOL    HW127086   4.218   1.414  10.403 -0.9797 -0.4502 -1.4527
 5208SOL    HW227087   4.219   1.303  10.492 -0.6741 -0.6004 -1.3156
 5209SOL     OW27088   4.609   1.583  10.348  0.3532 -0.7227 -0.3818
 5209SOL    HW127089   4.588   1.636  10.425 -2.9073 -2.8629  0.1952
 5209SOL    HW227090   4.704   1.593  10.342  0.2245  0.6043 -0.1364
 5210SOL     OW27091   1.686   3.929   9.943  0.4842 -0.3261 -0.0342
 5210SOL    HW127092   1.727   3.890   9.866  1.1555 -1.1686  0.7468
 5210SOL    HW227093   1.592   3.911   9.932  0.1046 -0.0407  2.7149
 5211SOL     OW27094   3.211   0.148   6.921  0.0051  0.6268 -0.4662
 5211SOL    HW127095   3.166   0.229   6.943 -2.7274 -1.8571  3.1021
 5211SOL    HW227096   3.223   0.099   7.003 -0.2385  0.8130 -0.3207
 5212SOL     OW27097   0.796   0.625   3.890  0.4589  0.7442  0.3034
 5212SOL    HW127098   0.789   0.598   3.798  0.3033  1.1093  0.2073
 5212SOL    HW227099   0.889   0.612   3.911  0.9969  0.9069 -1.8818
 5213SOL     OW27100   1.045   2.178  14.976 -0.1385 -0.1166 -0.3836
 5213SOL    HW127101   1.060   2.270  14.995 -1.6127 -0.2786  1.6042
 5213SOL    HW227102   1.070   2.172  14.884 -1.4266  0.3938 -0.7677
 5214SOL     OW27103   0.030   2.180   0.281 -0.3984  0.4048 -0.5916
 5214SOL    HW127104   0.010   2.097   0.323  2.9861  1.2738  2.6972
 5214SOL    HW227105   4.665   2.191   0.232  0.2113  3.7353 -0.8759
 5215SOL     OW27106   2.211   4.503   3.053 -0.6398 -0.1644  0.2754
 5215SOL    HW127107   2.213   4.599   3.057  1.5724 -0.0636 -2.4745
 5215SOL    HW227108   2.129   4.489   3.006  0.1801  0.7758 -1.4747
 5216SOL     OW27109   3.597   3.250   6.378 -0.2345 -0.3423 -0.4907
 5216SOL    HW127110   3.612   3.160   6.406 -1.1164 -0.0633  0.8591
 5216SOL    HW227111   3.671   3.298   6.416 -1.2702  0.0261  1.0442
 5217SOL     OW27112   2.616   0.845  17.060 -0.1819  0.4727 -0.2321
 5217SOL    HW127113   2.640   0.937  17.052 -0.0970  0.4871  0.2196
 5217SOL    HW227114   2.638   0.814  16.972  0.7121  0.1408  0.1067
 5218SOL     OW27115   2.825   0.453   5.862 -0.8057 -0.1299 -0.7033
 5218SOL    HW127116   2.814   0.369   5.818  0.3205 -1.4163  1.5109
 5218SOL    HW227117   2.919   0.457   5.845 -0.8062 -0.3637 -0.7636
 5219SOL     OW27118   1.873   3.059   0.941  0.3413  0.2530 -0.4341
 5219SOL    HW127119   1.902   2.969   0.928 -1.5115 -0.2397 -1.0518
 5219SOL    HW227120   1.780   3.061   0.921  0.0488 -0.5221  0.8565
 5220SOL     OW27121   0.907   3.747  17.590  0.5904  0.3896 -0.2086
 5220SOL    HW127122   0.857   3.695  17.527 -0.6097  0.3387  0.7836
 5220SOL    HW227123   0.938   3.818  17.534  1.6729  0.8181  0.9353
 5221SOL     OW27124   4.256   1.643   2.776 -0.0968 -0.5991 -0.5607
 5221SOL    HW127125   4.273   1.564   2.725  0.5505 -1.5142  1.0899
 5221SOL    HW227126   4.224   1.690   2.698  2.7007  0.0696 -1.2893
 5222SOL     OW27127   3.243   3.980   6.224  0.1215 -0.9285  0.2064
 5222SOL    HW127128   3.196   3.929   6.159 -0.9065  0.0349  0.1912
 5222SOL    HW227129   3.250   3.919   6.297 -1.0408  0.4323  1.4516
 5223SOL     OW27130   3.198   0.679   7.846  0.4304  0.0717 -0.3421
 5223SOL    HW127131   3.276   0.716   7.804  0.4758 -0.1724 -0.4687
 5223SOL    HW227132   3.191   0.740   7.920 -0.3609 -0.1660 -0.2252
 5224SOL     OW27133   2.688   1.329   5.003  1.0608  0.3045 -0.4612
 5224SOL    HW127134   2.605   1.370   5.027 -0.6232 -1.5381 -3.1537
 5224SOL    HW227135   2.650   1.253   4.961 -1.6169  1.6652 -0.4936
 5225SOL     OW27136   0.227   1.295   2.906 -0.1435 -0.3250  0.1068
 5225SOL    HW127137   0.154   1.327   2.959  1.2470 -0.1303  1.8996
 5225SOL    HW227138   0.284   1.251   2.969 -0.4655  1.9053  1.9375
 5226SOL     OW27139   0.332   1.586   1.158 -0.6815 -0.0552  0.0942
 5226SOL    HW127140   0.305   1.525   1.226 -1.7328  1.0384  0.6495
 5226SOL    HW227141   0.295   1.668   1.191  2.1412  1.5572 -0.6726
 5227SOL     OW27142   2.973   2.371   1.546  0.2599  0.1173 -0.0402
 5227SOL    HW127143   2.958   2.452   1.595 -0.8919 -0.3770  0.4278
 5227SOL    HW227144   2.888   2.328   1.551 -0.9793  2.3923 -1.2230
 5228SOL     OW27145   0.831   3.225  13.629  0.0376 -0.4400  0.0544
 5228SOL    HW127146   0.877   3.299  13.589 -0.1724  0.5658  1.6899
 5228SOL    HW227147   0.744   3.237  13.591  0.6057  0.5038 -0.9510
 5229SOL     OW27148   2.922   4.265   7.740  0.2457 -0.3525 -0.4517
 5229SOL    HW127149   2.923   4.211   7.661 -0.3265  0.2422 -0.8635
 5229SOL    HW227150   2.836   4.305   7.735  1.4670  2.4785  0.8890
 5230SOL     OW27151   3.710   2.620   9.876  0.0318 -0.1636 -0.4723
 5230SOL    HW127152   3.662   2.538   9.867  2.5029 -1.2744 -3.1133
 5230SOL    HW227153   3.714   2.644   9.784  3.5409 -0.7936 -0.4716
 5231SOL     OW27154   0.362   0.117   3.700  0.1388  0.9418 -0.1439
 5231SOL    HW127155   0.437   0.075   3.658  0.8607  1.1572  0.9030
 5231SOL    HW227156   0.377   0.090   3.791 -2.0561 -0.0941 -0.0977
 5232SOL     OW27157   4.061   2.069   2.746  0.1780  0.4327  0.4140
 5232SOL    HW127158   4.143   2.023   2.729 -0.6905 -1.3044  0.8782
 5232SOL    HW227159   4.076   2.098   2.836  0.2682 -1.8748  1.1576
 5233SOL     OW27160   1.119   3.181   5.633  0.1381  0.2379  0.3804
 5233SOL    HW127161   1.026   3.183   5.654 -0.2207  0.2374 -1.1682
 5233SOL    HW227162   1.151   3.131   5.708  0.1691  1.5682  1.2401
 5234SOL     OW27163   1.037   4.399  10.984 -0.1928 -0.4394 -0.7059
 5234SOL    HW127164   0.946   4.370  10.985 -0.0388 -0.8869  0.1115
 5234SOL    HW227165   1.047   4.437  10.896  2.7520  1.6811  0.5655
 5235SOL     OW27166   1.871   2.770   5.084 -0.0267 -0.2664  0.2657
 5235SOL    HW127167   1.787   2.795   5.046  0.5120  0.1242 -0.6664
 5235SOL    HW227168   1.937   2.812   5.028 -0.7083 -0.8304 -0.9372
 5236SOL     OW27169   3.534   3.868   8.835 -0.3466 -0.0340  0.2901
 5236SOL    HW127170   3.602   3.800   8.840  0.3968  0.7251  0.4596
 5236SOL    HW227171   3.484   3.841   8.758 -1.3941  3.5124 -0.2529
 5237SOL     OW27172   2.222   2.847   4.718 -0.2958 -0.2859  0.1139
 5237SOL    HW127173   2.311   2.844   4.683 -1.2392  0.8681 -2.3681
 5237SOL    HW227174   2.175   2.858   4.635 -1.1261 -2.4285  0.2891
 5238SOL     OW27175   1.704   1.055   4.455  0.1138 -0.1026  0.4043
 5238SOL    HW127176   1.735   1.138   4.491 -0.2175  0.7087 -1.1890
 5238SOL    HW227177   1.756   0.986   4.497 -2.3093 -0.8967  2.0980
 5239SOL     OW27178   4.182   3.794   3.038  0.5064  0.2766 -0.3918
 5239SOL    HW127179   4.113   3.785   2.972 -0.3788  1.2979  0.3932
 5239SOL    HW227180   4.262   3.807   2.987  1.9924 -0.4473  1.7522
 5240SOL     OW27181   1.043   1.914   3.349 -0.4186 -0.8368 -0.1077
 5240SOL    HW127182   0.977   1.984   3.348  0.4390 -0.0211 -0.0689
 5240SOL    HW227183   1.000   1.862   3.281 -0.0473 -0.0466 -0.9608
 5241SOL     OW27184   1.734   3.001   6.092  0.2443 -0.5212  0.3651
 5241SOL    HW127185   1.639   3.002   6.103  0.2861  0.9687  0.6257
 5241SOL    HW227186   1.749   2.958   6.008  2.2455  0.1681  0.3619
 5242SOL     OW27187   4.565   4.152   7.374 -0.0040 -0.3590  0.1948
 5242SOL    HW127188   4.503   4.225   7.372 -0.1536 -0.5059 -0.5117
 5242SOL    HW227189   4.553   4.109   7.458 -1.9338 -2.6297 -1.2455
 5243SOL     OW27190   4.506   0.929   5.689 -0.0398  0.5376 -0.5369
 5243SOL    HW127191   4.551   0.948   5.772 -2.7794 -2.3674  1.6521
 5243SOL    HW227192   4.417   0.909   5.718 -0.3309  1.4069 -0.8385
 5244SOL     OW27193   2.048   0.971   9.017  0.3187 -0.3778 -0.0320
 5244SOL    HW127194   2.117   0.911   9.046  1.0858  0.1977 -0.6652
 5244SOL    HW227195   1.988   0.903   8.988 -0.1363  0.2996 -0.6896
 5245SOL     OW27196   0.428   0.096   6.850 -0.1320  0.0879 -0.2744
 5245SOL    HW127197   0.458   0.038   6.920  0.6858 -1.2028 -1.6945
 5245SOL    HW227198   0.368   0.154   6.898  0.5876  0.1274  0.5556
 5246SOL     OW27199   3.871   4.505   8.567  0.3856  0.7516  0.7487
 5246SOL    HW127200   3.876   4.494   8.472  2.3135  0.9159  0.8328
 5246SOL    HW227201   3.783   4.541   8.561 -0.1813 -1.0243 -2.0489
 5247SOL     OW27202   3.419   3.902   2.585 -0.0684  0.0578  0.3090
 5247SOL    HW127203   3.355   3.841   2.622  1.8858 -1.8613  0.5342
 5247SOL    HW227204   3.370   3.978   2.553 -1.5747 -1.0753 -0.0704
 5248SOL     OW27205   4.562   4.179   5.368 -0.2057 -0.2290  0.2388
 5248SOL    HW127206   4.639   4.222   5.332 -1.5311 -0.6450 -3.1359
 5248SOL    HW227207   4.510   4.170   5.288 -0.2933  0.3823  0.2287
 5249SOL     OW27208   0.736   0.575   8.078  0.7259  0.1593 -0.7708
 5249SOL    HW127209   0.686   0.646   8.118 -0.1042 -0.4068 -0.8205
 5249SOL    HW227210   0.679   0.500   8.090  0.5959  0.6868  1.7374
 5250SOL     OW27211   4.315   2.772   3.418 -0.2580 -0.3908 -0.2739
 5250SOL    HW127212   4.226   2.782   3.384 -0.3745 -1.0512 -0.1600
 5250SOL    HW227213   4.357   2.802   3.337  1.3553 -0.0371  0.6986
 5251SOL     OW27214   0.344   3.010   2.913 -0.5888 -0.3973 -0.1182
 5251SOL    HW127215   0.439   3.024   2.917 -0.9207  0.8305  2.9835
 5251SOL    HW227216   0.331   2.958   2.992  1.1098 -0.2597  0.2538
 5252SOL     OW27217   0.527   1.578  12.907  0.1391  0.4274 -0.3340
 5252SOL    HW127218   0.484   1.552  12.825 -0.7672 -3.5269  1.3927
 5252SOL    HW227219   0.455   1.601  12.966  0.5026 -0.6992  0.5483
 5253SOL     OW27220   0.199   0.369  17.237 -0.2558 -0.2065 -0.0702
 5253SOL    HW127221   0.148   0.290  17.219  1.6370 -1.9323  2.0494
 5253SOL    HW227222   0.257   0.329  17.303  0.3387  3.1407  1.4316
 5254SOL     OW27223   2.777   4.459   8.561  0.1956  0.3997  0.5106
 5254SOL    HW127224   2.773   4.377   8.610 -0.4347 -0.7800 -1.5000
 5254SOL    HW227225   2.742   4.426   8.478 -1.0182 -1.7456  1.8972
 5255SOL     OW27226   3.469   4.044   8.172  0.1852  0.0918  0.6390
 5255SOL    HW127227   3.454   3.950   8.157 -0.4851  0.4604 -1.0260
 5255SOL    HW227228   3.544   4.039   8.231 -1.0614  0.8042  2.2731
 5256SOL     OW27229   0.204   0.519  11.761  0.2030  0.2372  0.1198
 5256SOL    HW127230   0.269   0.487  11.824  0.4827 -1.4715 -1.0356
 5256SOL    HW227231   0.261   0.585  11.722 -1.8267  1.4829 -0.7625
 5257SOL     OW27232   4.630   3.496   9.094  0.1462 -0.0967  0.5468
 5257SOL    HW127233   4.549   3.445   9.087  0.9200 -1.3781  1.0397
 5257SOL    HW227234   4.685   3.420   9.080 -2.7764 -2.0558 -0.2279
 5258SOL     OW27235   2.786   1.406  17.396 -0.0804 -0.2612  0.0231
 5258SOL    HW127236   2.697   1.412  17.362  0.1262 -2.0554 -0.8334
 5258SOL    HW227237   2.797   1.319  17.436  1.4398  0.4608  1.1479
 5259SOL     OW27238   0.339   1.298   6.973  0.7648 -0.4024 -0.2360
 5259SOL    HW127239   0.297   1.242   6.908  0.9824  0.1474 -0.8513
 5259SOL    HW227240   0.299   1.383   6.954  1.1972  0.0314  0.7937
 5260SOL     OW27241   1.859   0.793  16.679 -0.7588  0.6373 -0.0671
 5260SOL    HW127242   1.903   0.730  16.621 -2.2251  1.5440 -2.1741
 5260SOL    HW227243   1.785   0.738  16.705 -0.0872 -1.4098 -2.3978
 5261SOL     OW27244   0.009   0.181  10.795  0.0469 -0.2027  0.0868
 5261SOL    HW127245   0.048   0.264  10.825 -0.2784 -0.4982  1.3198
 5261SOL    HW227246   0.075   0.139  10.740 -0.4989 -0.0613 -0.6777
 5262SOL     OW27247   1.190   2.546  12.306 -0.2173 -0.5178  0.1993
 5262SOL    HW127248   1.128   2.551  12.379 -0.3352  0.5257  0.0247
 5262SOL    HW227249   1.180   2.458  12.270  0.0259 -0.2508 -0.5202
 5263SOL     OW27250   2.300   3.895   2.198  0.1652  0.1419  0.0688
 5263SOL    HW127251   2.280   3.984   2.230 -0.8027  0.8572 -2.4972
 5263SOL    HW227252   2.338   3.856   2.276 -0.0449  1.3725  0.7996
 5264SOL     OW27253   4.039   2.590   3.093  0.6003  0.0077 -0.3741
 5264SOL    HW127254   4.066   2.669   3.141  1.4376 -1.5611  1.7287
 5264SOL    HW227255   3.981   2.639   3.034 -1.5160 -0.6143  1.2480
 5265SOL     OW27256   1.935   0.650   8.114  0.0804 -0.1803  0.2238
 5265SOL    HW127257   1.940   0.608   8.200 -0.0179 -3.5854 -1.4455
 5265SOL    HW227258   1.977   0.578   8.066 -0.9297 -0.4134 -0.2893
 5266SOL     OW27259   2.604   0.805   4.732 -0.1918  0.6372 -0.3001
 5266SOL    HW127260   2.646   0.785   4.648 -0.6058  0.5923 -0.4986
 5266SOL    HW227261   2.678   0.800   4.793 -1.2834 -2.0706  0.7607
 5267SOL     OW27262   4.509   4.475   9.664 -0.4170 -0.2391 -0.4042
 5267SOL    HW127263   4.467   4.557   9.639 -0.5063  0.4864  2.0944
 5267SOL    HW227264   4.434   4.419   9.644 -0.6363 -0.7870  1.9387
 5268SOL     OW27265   2.168   0.463  13.305  0.0808  0.2770  0.7769
 5268SOL    HW127266   2.217   0.436  13.382 -1.0399 -2.8278  0.3919
 5268SOL    HW227267   2.085   0.483  13.348  0.6518  1.9232  1.1123
 5269SOL     OW27268   2.523   2.653   5.607 -0.1485 -0.1310  0.3449
 5269SOL    HW127269   2.546   2.631   5.697 -2.4245 -1.3866  0.6120
 5269SOL    HW227270   2.473   2.732   5.627  0.1686  0.2731 -0.4626
 5270SOL     OW27271   3.847   1.983   7.379  0.0427  0.0456 -0.0771
 5270SOL    HW127272   3.874   1.982   7.287  1.6256 -0.5759  0.3898
 5270SOL    HW227273   3.773   2.043   7.378  0.6843  0.8349 -1.2130
 5271SOL     OW27274   4.706   3.465   2.259 -0.5140  0.0297 -0.1528
 5271SOL    HW127275   4.705   3.561   2.263  1.5118  0.1092 -1.8196
 5271SOL    HW227276   4.649   3.450   2.184 -2.1277  2.2797  0.6468
 5272SOL     OW27277   1.313   2.681   6.291 -0.1646 -0.1568  0.1654
 5272SOL    HW127278   1.360   2.709   6.212  0.4672 -0.3302  0.4778
 5272SOL    HW227279   1.380   2.622   6.327 -0.6437 -0.1829  1.0154
 5273SOL     OW27280   1.031   2.212   4.890  0.4066  0.2332 -0.8236
 5273SOL    HW127281   1.008   2.207   4.982 -0.7726 -0.7222 -1.1757
 5273SOL    HW227282   0.946   2.226   4.848 -0.7003  1.3484  1.8339
 5274SOL     OW27283   0.712   0.823   6.835 -0.2240  0.0355  0.0019
 5274SOL    HW127284   0.729   0.797   6.744 -1.9351 -0.8256 -0.0714
 5274SOL    HW227285   0.786   0.799   6.891 -0.2524  2.4228  1.0655
 5275SOL     OW27286   1.685   1.118  17.098 -0.2618  0.1894  0.0594
 5275SOL    HW127287   1.732   1.037  17.080 -2.2521 -0.2631 -3.0882
 5275SOL    HW227288   1.636   1.097  17.178 -1.0147  1.9830  0.0768
 5276SOL     OW27289   4.437   2.065  14.552 -0.8061 -0.2489 -0.7876
 5276SOL    HW127290   4.360   2.010  14.561 -1.7820  1.5647  1.6252
 5276SOL    HW227291   4.411   2.148  14.512 -0.3978  0.5406  0.5812
 5277SOL     OW27292   0.347   4.585   2.930 -0.4016 -0.0668  0.3074
 5277SOL    HW127293   0.367   4.679   2.923 -1.9730  0.1950 -0.5848
 5277SOL    HW227294   0.362   4.545   2.845  1.5554  0.7458  0.2711
 5278SOL     OW27295   2.835   3.139  11.891 -0.7108  0.1637 -0.5924
 5278SOL    HW127296   2.824   3.182  11.806 -0.2014  0.3997 -0.5398
 5278SOL    HW227297   2.751   3.153  11.935 -0.1767  1.3546  0.0458
 5279SOL     OW27298   2.685   3.386   3.077  0.3935  0.1835 -0.3267
 5279SOL    HW127299   2.739   3.374   3.155 -1.2748  2.2080  1.1383
 5279SOL    HW227300   2.744   3.433   3.018 -0.1286 -0.6003 -1.4734
 5280SOL     OW27301   3.418   2.521   6.409  0.5575 -0.2885  0.6423
 5280SOL    HW127302   3.483   2.451   6.401  1.0938  0.1209  1.4328
 5280SOL    HW227303   3.469   2.603   6.406  0.2427 -0.1392 -0.9676
 5281SOL     OW27304   3.589   1.711   0.278 -0.4768  0.1357  0.5719
 5281SOL    HW127305   3.564   1.624   0.309 -0.6041  0.0546  0.2386
 5281SOL    HW227306   3.547   1.715   0.193  0.6945  1.0019  0.0394
 5282SOL     OW27307   4.632   2.642   6.160  0.3577  0.3059  0.0229
 5282SOL    HW127308   4.616   2.563   6.109 -0.6069  0.7269 -0.3206
 5282SOL    HW227309   0.007   2.663   6.140 -0.3164  1.0263 -2.3757
 5283SOL     OW27310   2.098   0.508   7.128  0.5307 -0.1476  0.4213
 5283SOL    HW127311   2.098   0.426   7.178  0.8808 -1.1402 -1.1904
 5283SOL    HW227312   2.131   0.563   7.199 -1.7439  0.2810  1.1441
 5284SOL     OW27313   4.204   3.659  16.429  0.2638 -0.0959  0.2961
 5284SOL    HW127314   4.163   3.622  16.350 -1.9022 -0.7913  1.7372
 5284SOL    HW227315   4.240   3.742  16.398 -0.3155 -0.1475 -0.5287
 5285SOL     OW27316   2.230   3.092   0.521  0.0495 -0.5452 -0.5203
 5285SOL    HW127317   2.151   3.066   0.569  0.1583  0.6316  0.3011
 5285SOL    HW227318   2.278   3.011   0.504  0.9577  0.3836 -2.2778
 5286SOL     OW27319   3.054   4.670   4.987 -0.8488  0.0167  0.1724
 5286SOL    HW127320   3.057   4.586   5.033  1.0780 -0.1983 -0.3195
 5286SOL    HW227321   3.104   4.656   4.906  1.4048  1.1712  1.3697
 5287SOL     OW27322   3.984   3.175  14.409 -0.5049 -0.1060  0.3731
 5287SOL    HW127323   3.990   3.259  14.455  0.9665 -0.7237  1.3153
 5287SOL    HW227324   3.946   3.216  14.332  0.7472 -0.1951 -0.2822
 5288SOL     OW27325   3.535   1.660   2.206 -0.0041 -0.2477 -0.0365
 5288SOL    HW127326   3.473   1.732   2.189 -0.4492 -0.5288  0.3992
 5288SOL    HW227327   3.493   1.625   2.284  1.3476  0.6409  1.0767
 5289SOL     OW27328   3.170   1.005   3.155 -0.2839  0.2955  0.1096
 5289SOL    HW127329   3.075   0.991   3.158 -0.4307  1.3639  0.7131
 5289SOL    HW227330   3.184   0.991   3.061 -0.8234 -1.4285  0.2917
 5290SOL     OW27331   4.034   0.281  11.369  0.0569  0.1950 -0.4366
 5290SOL    HW127332   4.030   0.334  11.448 -2.3523 -0.3866 -0.1559
 5290SOL    HW227333   3.946   0.242  11.373 -0.0720  0.7064  1.5883
 5291SOL     OW27334   2.703   2.361   3.288 -0.0665  0.6513  0.4755
 5291SOL    HW127335   2.790   2.371   3.249  0.0778  0.6577  0.8012
 5291SOL    HW227336   2.723   2.343   3.380 -1.6560  2.1203  1.0982
 5292SOL     OW27337   2.897   2.065   5.716  0.2056  0.2555 -0.6834
 5292SOL    HW127338   2.958   2.066   5.789  0.0196  1.3824 -0.5490
 5292SOL    HW227339   2.819   2.104   5.755 -0.1716  0.2971 -1.4792
 5293SOL     OW27340   2.859   1.336   0.201  0.5684 -0.4313 -0.1318
 5293SOL    HW127341   2.826   1.426   0.203 -1.2723 -1.1293  0.9444
 5293SOL    HW227342   2.910   1.329   0.120 -1.5638  0.2003 -1.5304
 5294SOL     OW27343   2.625   4.068   8.941  0.3992  0.1945  0.5933
 5294SOL    HW127344   2.549   4.057   8.884  0.4353 -0.8633  0.7516
 5294SOL    HW227345   2.662   3.981   8.956 -1.3840 -0.8758 -1.2909
 5295SOL     OW27346   2.169   0.200  17.548 -0.4928 -0.4931  0.5763
 5295SOL    HW127347   2.104   0.264  17.577  0.5231  1.0741 -0.5681
 5295SOL    HW227348   2.220   0.186  17.628 -0.9072  0.2756  0.9699
 5296SOL     OW27349   4.369   0.834   6.382 -0.3837  0.3251  0.3064
 5296SOL    HW127350   4.451   0.792   6.357 -0.2468 -0.2686  1.7172
 5296SOL    HW227351   4.372   0.825   6.478  0.7416 -0.5168  0.1969
 5297SOL     OW27352   2.205   2.541   6.794 -0.0833  0.0633 -0.3661
 5297SOL    HW127353   2.162   2.456   6.796  0.5260 -0.2509 -0.5551
 5297SOL    HW227354   2.209   2.573   6.884  0.8969  1.1786 -0.8037
 5298SOL     OW27355   3.067   4.055   6.666 -0.2919 -0.3567 -0.1573
 5298SOL    HW127356   3.124   4.119   6.623 -0.3409  0.2845  0.7388
 5298SOL    HW227357   3.040   4.094   6.749 -0.1715 -0.3394 -0.1270
 5299SOL     OW27358   1.650   0.884   7.404  0.2927  0.0013  0.9897
 5299SOL    HW127359   1.595   0.889   7.482  0.3206 -1.1482  1.0764
 5299SOL    HW227360   1.684   0.795   7.409 -2.0920 -0.8205  2.4416
 5300SOL     OW27361   2.532   3.172   2.993  0.2306  0.1104 -0.1962
 5300SOL    HW127362   2.609   3.136   2.949  0.2017 -1.1131  0.7304
 5300SOL    HW227363   2.568   3.259   3.011  0.9299 -0.0587 -0.7482
 5301SOL     OW27364   2.963   2.353   2.895  0.6068 -0.3103 -0.9303
 5301SOL    HW127365   3.024   2.279   2.895  1.4693  0.3998 -0.5428
 5301SOL    HW227366   2.932   2.343   2.805  0.6529 -1.5648 -0.8087
 5302SOL     OW27367   0.849   0.834  16.142  0.1452  0.1783  0.2890
 5302SOL    HW127368   0.757   0.835  16.115 -0.0867  3.1981  1.1295
 5302SOL    HW227369   0.867   0.928  16.133  1.1110 -0.0942 -0.5600
 5303SOL     OW27370   1.965   3.581  15.326  0.1980  0.0991 -0.1834
 5303SOL    HW127371   2.042   3.633  15.305  1.8965 -2.4653 -0.3034
 5303SOL    HW227372   1.931   3.579  15.236  0.7221 -0.7318 -0.3659
 5304SOL     OW27373   2.403   2.367   3.370 -0.1525  0.3727 -0.7786
 5304SOL    HW127374   2.409   2.442   3.430 -0.8042 -1.1683  1.1898
 5304SOL    HW227375   2.474   2.383   3.307 -0.7607  2.0592 -1.0295
 5305SOL     OW27376   4.294   3.560   6.737  0.0822  0.1980  0.2818
 5305SOL    HW127377   4.257   3.610   6.664 -1.2023  1.3887  1.7566
 5305SOL    HW227378   4.367   3.524   6.687  0.8755  0.6544  1.1228
 5306SOL     OW27379   1.281   0.078  14.967  0.5338 -0.0508 -0.0617
 5306SOL    HW127380   1.281   0.027  15.048 -0.1187 -0.6065 -0.4105
 5306SOL    HW227381   1.305   0.023  14.892  1.4134  0.1393  0.0745
 5307SOL     OW27382   1.636   4.021   3.633  0.0883  0.6805 -0.0871
 5307SOL    HW127383   1.673   4.000   3.547 -0.7710 -3.3964  0.5584
 5307SOL    HW227384   1.665   4.112   3.643  0.6946  0.3514  1.1796
 5308SOL     OW27385   1.072   0.467   6.535 -0.4363 -0.1673  0.2958
 5308SOL    HW127386   1.027   0.401   6.483 -0.7221 -0.2178  0.6126
 5308SOL    HW227387   1.151   0.468   6.481 -2.6625  1.8578 -2.9515
 5309SOL     OW27388   1.322   2.433  16.066  0.5085 -0.7126  0.1339
 5309SOL    HW127389   1.362   2.383  15.994  2.1593 -1.8706  1.8677
 5309SOL    HW227390   1.349   2.390  16.147 -0.6291 -1.1288  0.2964
 5310SOL     OW27391   0.865   3.305   3.162 -0.1446  0.0305  0.0767
 5310SOL    HW127392   0.817   3.297   3.244  0.2288 -1.8525  0.0941
 5310SOL    HW227393   0.942   3.353   3.194  1.0096 -1.0613 -1.0891
 5311SOL     OW27394   0.470   3.923   1.904  0.9230  0.5476  0.0500
 5311SOL    HW127395   0.485   3.875   1.985  0.7691  2.3144  1.1127
 5311SOL    HW227396   0.374   3.923   1.899  0.9858  2.7192 -1.3916
 5312SOL     OW27397   4.130   2.422   4.809  0.0097 -0.5247  0.2128
 5312SOL    HW127398   4.096   2.355   4.750 -0.7770 -0.0950  0.1773
 5312SOL    HW227399   4.079   2.406   4.889  1.7378 -1.0128  1.2128
 5313SOL     OW27400   2.810   0.782   9.454 -0.0011  0.6508 -0.4650
 5313SOL    HW127401   2.744   0.713   9.450  3.0319 -2.1584 -1.7170
 5313SOL    HW227402   2.883   0.739   9.497 -0.2563 -0.0442 -0.7306
 5314SOL     OW27403   2.388   1.658   2.929  0.2739 -0.1918  0.0922
 5314SOL    HW127404   2.341   1.588   2.884  0.2748 -1.1439  1.5897
 5314SOL    HW227405   2.479   1.636   2.907  0.6055 -1.2049  2.4558
 5315SOL     OW27406   1.056   2.687  17.325  0.0902  0.1402  0.2890
 5315SOL    HW127407   1.086   2.605  17.366 -1.2209 -1.2726 -1.6047
 5315SOL    HW227408   1.072   2.655  17.237  0.7681 -1.9430  1.1519
 5316SOL     OW27409   0.085   4.227   1.256  0.2083  0.5889  0.4063
 5316SOL    HW127410   0.088   4.319   1.283  0.5406  0.9595 -0.9010
 5316SOL    HW227411   0.024   4.230   1.182  0.4253 -0.1652  0.2003
 5317SOL     OW27412   4.258   1.139   5.277  0.3363  0.8653  0.2845
 5317SOL    HW127413   4.298   1.130   5.363  0.0107  1.3054  0.4813
 5317SOL    HW227414   4.314   1.087   5.220  0.4230  1.2823 -0.0130
 5318SOL     OW27415   4.099   3.794   9.050  0.3636 -0.0961 -0.2787
 5318SOL    HW127416   4.163   3.782   9.120 -0.2887  0.2254  0.3751
 5318SOL    HW227417   4.028   3.737   9.079  3.2812 -2.7132  1.7071
 5319SOL     OW27418   2.450   3.552   2.261  0.2655  0.0464 -0.4683
 5319SOL    HW127419   2.373   3.497   2.244  0.4216 -0.6879  1.2410
 5319SOL    HW227420   2.510   3.485   2.228 -2.4244 -3.4813  1.8762
 5320SOL     OW27421   2.997   4.303   7.368 -0.1341 -0.7055 -0.4705
 5320SOL    HW127422   2.963   4.327   7.282  2.0197 -0.4621 -1.2689
 5320SOL    HW227423   3.066   4.239   7.349  1.1956 -0.5657  3.7861
 5321SOL     OW27424   0.877   3.544  17.132 -0.4098  0.5137  0.4243
 5321SOL    HW127425   0.938   3.478  17.166  1.5161  2.3076  0.4593
 5321SOL    HW227426   0.853   3.514  17.044  0.1511 -1.4162  0.9119
 5322SOL     OW27427   0.485   1.724   8.073 -0.1901  0.1496 -0.0075
 5322SOL    HW127428   0.424   1.789   8.109 -0.0793 -0.4248  1.2455
 5322SOL    HW227429   0.467   1.717   7.980 -3.9692  0.2578  0.7035
 5323SOL     OW27430   3.278   1.512  15.864 -0.1184  0.8282  0.2131
 5323SOL    HW127431   3.332   1.558  15.928  1.3773 -1.0638  0.3152
 5323SOL    HW227432   3.210   1.578  15.852 -1.5041 -0.7077 -0.3461
 5324SOL     OW27433   2.178   0.384   6.095  0.3346  0.0284 -0.2136
 5324SOL    HW127434   2.136   0.376   6.180  2.2529 -2.7033  0.4607
 5324SOL    HW227435   2.191   0.479   6.089  0.1266 -0.0029 -1.1515
 5325SOL     OW27436   4.162   4.386  11.199  0.1475  0.2866 -0.3794
 5325SOL    HW127437   4.068   4.374  11.216 -0.0949  1.4639 -0.8376
 5325SOL    HW227438   4.187   4.321  11.265 -0.3725  0.8354  0.3731
 5326SOL     OW27439   2.419   3.782   0.494 -0.1820  0.6398 -0.2675
 5326SOL    HW127440   2.375   3.697   0.502  1.1882 -0.0810 -0.4329
 5326SOL    HW227441   2.382   3.808   0.409  1.9863  0.8208 -1.1412
 5327SOL     OW27442   4.202   2.998   0.355 -0.1970  0.8701  0.0172
 5327SOL    HW127443   4.138   3.065   0.379 -1.3690 -0.1679 -0.1991
 5327SOL    HW227444   4.199   2.999   0.259 -0.3524 -1.5470 -0.0157
 5328SOL     OW27445   3.179   3.213   8.168 -0.1193 -0.2602  0.2457
 5328SOL    HW127446   3.140   3.132   8.200 -0.6951  0.1770  0.6492
 5328SOL    HW227447   3.105   3.247   8.118  0.3955 -0.7403 -0.8501
 5329SOL     OW27448   3.477   1.158  16.142 -0.1788 -0.1295 -0.4596
 5329SOL    HW127449   3.570   1.144  16.127 -0.4938 -2.5386 -0.2150
 5329SOL    HW227450   3.443   1.068  16.146 -0.4812 -0.0524 -1.4372
 5330SOL     OW27451   4.544   0.887   7.210 -0.3955 -0.1860 -0.4606
 5330SOL    HW127452   4.567   0.795   7.193  0.4898 -0.3218  1.4703
 5330SOL    HW227453   4.451   0.877   7.230 -0.5233 -0.8990 -1.3735
 5331SOL     OW27454   3.763   0.478   0.569  0.1474 -0.8170  0.6233
 5331SOL    HW127455   3.821   0.512   0.637  2.9740 -1.8234 -1.2504
 5331SOL    HW227456   3.705   0.549   0.542 -1.0662 -1.7384  0.8335
 5332SOL     OW27457   0.085   2.711  16.932 -0.2732 -0.6331  0.0193
 5332SOL    HW127458   0.012   2.650  16.943 -0.8300  0.0593  0.1483
 5332SOL    HW227459   0.143   2.654  16.881 -1.8243 -0.8820 -1.4800
 5333SOL     OW27460   4.492   2.906   4.069 -0.0948 -0.0468 -0.2620
 5333SOL    HW127461   4.413   2.932   4.021  1.1687  2.4918 -0.9972
 5333SOL    HW227462   4.552   2.981   4.072 -0.8249  0.6216 -2.5371
 5334SOL     OW27463   0.575   4.110   4.918  0.1794 -0.1223  0.1172
 5334SOL    HW127464   0.648   4.049   4.907  0.0980 -0.4004  1.0884
 5334SOL    HW227465   0.619   4.193   4.939 -0.7229  0.8292 -1.7915
 5335SOL     OW27466   2.020   4.237   3.567 -0.4285  0.9319  0.5366
 5335SOL    HW127467   2.115   4.230   3.564 -0.6274 -1.3958 -0.3310
 5335SOL    HW227468   1.990   4.214   3.479 -0.2993 -0.6693  0.9093
 5336SOL     OW27469   4.266   1.762   3.234 -0.2444 -0.2467  0.5010
 5336SOL    HW127470   4.294   1.848   3.203 -2.0854  0.4951  0.8985
 5336SOL    HW227471   4.273   1.712   3.153 -0.1753  0.0945  0.2943
 5337SOL     OW27472   4.272   1.422   1.076  0.2008  0.2049 -0.5474
 5337SOL    HW127473   4.235   1.500   1.036  3.3338  1.8644 -0.1618
 5337SOL    HW227474   4.206   1.399   1.141  0.0862 -0.1227 -0.7773
 5338SOL     OW27475   3.959   0.392  16.216 -0.2065  0.5575  0.5237
 5338SOL    HW127476   3.923   0.413  16.302 -0.3669  0.3530  0.5072
 5338SOL    HW227477   4.033   0.453  16.219 -0.6983  1.1233  1.1757
 5339SOL     OW27478   1.886   4.120  17.502  0.6485 -0.4866  0.5332
 5339SOL    HW127479   1.878   4.056  17.573 -0.4550 -0.2013  0.6755
 5339SOL    HW227480   1.856   4.060  17.433 -0.7220 -0.8013  1.3911
 5340SOL     OW27481   1.614   2.779   8.243 -0.0892 -0.2569  0.0948
 5340SOL    HW127482   1.572   2.732   8.172  1.4323  0.3782 -1.2309
 5340SOL    HW227483   1.615   2.872   8.219 -3.7919  0.2017  1.8327
 5341SOL     OW27484   2.816   0.469   2.924 -0.0625 -0.9619 -0.0524
 5341SOL    HW127485   2.794   0.406   2.992  1.9868 -0.6281  0.9117
 5341SOL    HW227486   2.900   0.440   2.888  0.1551  1.1346 -1.2964
 5342SOL     OW27487   3.397   3.622   8.133  0.0048 -0.4412  0.3236
 5342SOL    HW127488   3.472   3.620   8.073  0.2010 -1.3065  0.6018
 5342SOL    HW227489   3.418   3.542   8.180  0.6674 -1.5931 -1.9395
 5343SOL     OW27490   1.655   3.673  17.522 -0.2130 -0.3339 -0.4921
 5343SOL    HW127491   1.635   3.761  17.491  2.7510  1.1540  1.9126
 5343SOL    HW227492   1.623   3.675  17.613  1.8842  2.5001  0.1577
 5344SOL     OW27493   2.562   1.580   3.854 -0.0469 -0.3737  0.2509
 5344SOL    HW127494   2.533   1.536   3.934  1.8799 -1.3459  0.4073
 5344SOL    HW227495   2.558   1.501   3.801  2.7796 -0.7387  0.5874
 5345SOL     OW27496   3.298   0.299   7.575 -0.0016  0.0143  0.0979
 5345SOL    HW127497   3.314   0.210   7.607  0.6814 -0.7747 -2.4427
 5345SOL    HW227498   3.270   0.284   7.485 -0.0014 -1.3902  0.3354
 5346SOL     OW27499   3.245   1.966   4.503 -0.0126  0.2799  0.1454
 5346SOL    HW127500   3.300   1.922   4.568 -0.1584 -1.7869 -1.1420
 5346SOL    HW227501   3.187   1.900   4.466  1.0619 -1.7836  2.1297
 5347SOL     OW27502   0.463   2.710   8.373 -0.1339  0.3526  0.2719
 5347SOL    HW127503   0.452   2.631   8.321  0.3429 -0.1108  0.8695
 5347SOL    HW227504   0.387   2.763   8.351 -0.1776 -0.2937 -1.1504
 5348SOL     OW27505   2.854   1.806   5.092 -0.4728  0.0127  0.4171
 5348SOL    HW127506   2.909   1.733   5.122 -0.1142  0.6033  1.1944
 5348SOL    HW227507   2.916   1.877   5.074 -0.4702 -0.2557 -0.6224
 5349SOL     OW27508   3.550   1.524  13.297  0.1397  0.2934 -0.0153
 5349SOL    HW127509   3.542   1.432  13.318  1.6062  0.4490  1.1845
 5349SOL    HW227510   3.578   1.517  13.205 -0.7034  2.7173 -0.4726
 5350SOL     OW27511   1.297   3.935   2.937 -0.5296  0.5154  0.0746
 5350SOL    HW127512   1.243   3.857   2.948  1.1724 -0.3896  2.0326
 5350SOL    HW227513   1.338   3.945   3.023  1.2050  1.3046 -0.8466
 5351SOL     OW27514   1.522   0.852   5.068  0.6091 -0.3031 -0.1490
 5351SOL    HW127515   1.592   0.882   5.125  0.6987  0.2539 -0.5551
 5351SOL    HW227516   1.453   0.853   5.134  0.0642  1.1625 -0.7543
 5352SOL     OW27517   4.116   4.327   3.626  0.3574  0.2250 -0.5831
 5352SOL    HW127518   4.021   4.321   3.640  0.5397 -1.7881 -0.2093
 5352SOL    HW227519   4.136   4.251   3.680 -1.1366 -1.0287 -1.8173
 5353SOL     OW27520   4.692   1.436  12.684  0.0680 -0.0468 -0.5712
 5353SOL    HW127521   0.012   1.420  12.771  2.2855  2.7468 -0.9792
 5353SOL    HW227522   4.665   1.346  12.665 -2.4893  0.3760  1.0002
 5354SOL     OW27523   0.210   0.492   6.395  0.3987 -0.3989 -0.0369
 5354SOL    HW127524   0.286   0.550   6.396  0.1387 -0.1058  2.8375
 5354SOL    HW227525   0.157   0.544   6.456 -1.3330 -0.2007 -1.6956
 5355SOL     OW27526   3.351   3.135   2.398 -0.7231 -0.0137  0.0627
 5355SOL    HW127527   3.377   3.109   2.310  0.5328  1.2722  0.0481
 5355SOL    HW227528   3.270   3.183   2.377 -0.4238  0.3157 -0.3449
 5356SOL     OW27529   2.693   1.814   8.689  0.1340 -0.2772  0.2443
 5356SOL    HW127530   2.702   1.729   8.646 -1.6391 -0.7145  0.7395
 5356SOL    HW227531   2.598   1.817   8.702  0.3714 -1.0802  2.1848
 5357SOL     OW27532   3.383   4.168   0.479 -0.4136 -0.2943  0.0773
 5357SOL    HW127533   3.437   4.106   0.429 -1.7925 -1.5859  0.1862
 5357SOL    HW227534   3.325   4.106   0.522  0.7813 -2.2664 -1.1282
 5358SOL     OW27535   1.827   3.705   4.577 -0.6632  0.0389 -0.5474
 5358SOL    HW127536   1.922   3.712   4.585 -0.6487  1.3097 -1.8020
 5358SOL    HW227537   1.802   3.788   4.618  0.3031 -0.0917  0.3172
 5359SOL     OW27538   1.090   2.669   8.570  0.1651  0.1994 -0.5508
 5359SOL    HW127539   1.110   2.748   8.621 -2.3956  1.7947 -1.9924
 5359SOL    HW227540   1.173   2.622   8.564  0.2687  0.1521  1.3298
 5360SOL     OW27541   0.395   4.398   1.456 -0.0225 -0.6638 -0.0448
 5360SOL    HW127542   0.350   4.314   1.470  0.2167 -0.9228 -0.8158
 5360SOL    HW227543   0.483   4.362   1.456  0.5590  0.7690  0.1488
 5361SOL     OW27544   2.167   0.283   5.844  0.1566 -0.1144  0.5085
 5361SOL    HW127545   2.210   0.203   5.875  1.2614 -0.0967 -0.9585
 5361SOL    HW227546   2.173   0.333   5.925  0.4903  0.0702  0.3717
 5362SOL     OW27547   4.631   4.634   1.150 -0.4364  0.2434  0.7309
 5362SOL    HW127548   4.615   4.605   1.060  2.2158 -0.4485  0.4695
 5362SOL    HW227549   4.540   4.654   1.172 -0.0076  0.4310  2.2934
 5363SOL     OW27550   2.121   2.369   3.273  0.1959 -0.2755 -0.1116
 5363SOL    HW127551   2.208   2.368   3.312 -0.3078 -0.1106  1.0100
 5363SOL    HW227552   2.122   2.280   3.238 -2.4745 -0.4188  0.1416
 5364SOL     OW27553   4.459   0.073  14.132  0.5386  0.1843  0.5719
 5364SOL    HW127554   4.403   0.019  14.188  4.5507 -4.0775  0.4982
 5364SOL    HW227555   4.545   0.035  14.146  0.8063  0.1780 -1.1308
 5365SOL     OW27556   2.534   0.968  13.513 -0.0957 -0.2950  0.6038
 5365SOL    HW127557   2.545   0.912  13.590  2.9162 -2.1203 -1.1727
 5365SOL    HW227558   2.469   1.034  13.537 -1.6631 -2.2306  1.6576
 5366SOL     OW27559   1.526   4.020   8.598  0.2456 -0.1087  0.5637
 5366SOL    HW127560   1.621   4.036   8.599  0.6590 -2.5630 -0.3410
 5366SOL    HW227561   1.533   3.929   8.627 -0.6467 -0.8994 -1.6842
 5367SOL     OW27562   2.805   2.773  11.426 -0.2685 -0.1423  0.0835
 5367SOL    HW127563   2.714   2.763  11.399 -0.1525 -1.1156  0.0367
 5367SOL    HW227564   2.839   2.718  11.356  0.0583  0.7229 -0.4347
 5368SOL     OW27565   2.074   0.285   7.279 -0.3002 -0.3676  0.2814
 5368SOL    HW127566   2.143   0.227   7.311 -1.4801 -1.2033  1.3232
 5368SOL    HW227567   2.001   0.251   7.331 -0.3296  0.2973  0.6814
 5369SOL     OW27568   1.913   2.042   4.582  0.4061 -0.2597 -0.3606
 5369SOL    HW127569   1.995   2.075   4.545 -0.2905  2.3410  0.4725
 5369SOL    HW227570   1.896   1.963   4.530 -2.3765  0.6167 -0.7603
 5370SOL     OW27571   2.012   2.255  11.463 -0.3226  0.8226 -0.3771
 5370SOL    HW127572   1.997   2.257  11.369  2.6771 -1.4469 -0.9155
 5370SOL    HW227573   1.948   2.191  11.493  2.0045 -0.2811  2.3307
 5371SOL     OW27574   3.596   1.453   8.267  0.8582 -0.2235 -0.0282
 5371SOL    HW127575   3.562   1.364   8.273  0.6177 -0.1948 -1.0144
 5371SOL    HW227576   3.603   1.465   8.173 -1.3530 -0.3223 -0.1987
 5372SOL     OW27577   1.678   0.125   0.972  0.4230 -0.5353 -0.5441
 5372SOL    HW127578   1.627   0.044   0.968  1.9240 -1.3948 -1.9759
 5372SOL    HW227579   1.669   0.152   1.064  0.7683 -0.8873 -0.4093
 5373SOL     OW27580   2.193   1.576  17.663 -0.0148 -0.0595 -0.0507
 5373SOL    HW127581   2.101   1.552   0.002 -0.1745  0.8577  0.9125
 5373SOL    HW227582   2.212   1.575  17.569  1.2454 -0.2667  0.2035
 5374SOL     OW27583   0.724   3.592   7.786 -0.0697 -0.2432  0.1458
 5374SOL    HW127584   0.756   3.586   7.696  0.4661 -0.1270  0.3295
 5374SOL    HW227585   0.664   3.667   7.781 -0.4447 -0.4336  1.5666
 5375SOL     OW27586   0.565   3.782   7.695  0.5278 -0.5341  0.5448
 5375SOL    HW127587   0.650   3.802   7.657  0.0545 -2.0615 -1.3580
 5375SOL    HW227588   0.506   3.818   7.629  0.6385  0.3142  0.9072
 5376SOL     OW27589   3.302   1.985   0.712 -0.2355  0.0503  0.1424
 5376SOL    HW127590   3.309   2.076   0.739 -2.5438  0.4605 -0.6873
 5376SOL    HW227591   3.268   1.991   0.623  0.2629 -0.3555 -0.0777
 5377SOL     OW27592   3.947   0.803  12.661 -0.1359 -0.4498  0.0243
 5377SOL    HW127593   3.945   0.713  12.694 -3.5721  0.8474  3.3538
 5377SOL    HW227594   3.857   0.827  12.638 -0.0077  0.1171  0.1226
 5378SOL     OW27595   3.301   3.313   1.606 -0.2510 -0.8209  0.4315
 5378SOL    HW127596   3.281   3.266   1.686  0.0271  1.5596  1.8967
 5378SOL    HW227597   3.379   3.266   1.576  1.0739  2.0870 -0.6928
 5379SOL     OW27598   0.079   4.247   7.717 -0.0150 -0.4937  0.0364
 5379SOL    HW127599   0.086   4.274   7.808  0.9989  1.0257 -0.4793
 5379SOL    HW227600   0.109   4.331   7.682  0.4256 -0.5811  0.1996
 5380SOL     OW27601   1.894   4.628   4.207 -0.8081  0.1863  0.5906
 5380SOL    HW127602   1.800   4.611   4.196 -0.1143 -1.9931 -1.8597
 5380SOL    HW227603   1.933   4.541   4.212  1.7023  1.2305 -0.8099
 5381SOL     OW27604   2.225   2.087  15.617 -0.2118  0.0481  0.2940
 5381SOL    HW127605   2.240   2.102  15.523  1.0740 -1.7514  0.2181
 5381SOL    HW227606   2.131   2.104  15.625  0.0205  2.1320 -1.4563
 5382SOL     OW27607   4.215   2.525   3.786  0.7448 -0.4726 -0.0647
 5382SOL    HW127608   4.210   2.620   3.784 -1.9258 -0.5749  0.7212
 5382SOL    HW227609   4.279   2.506   3.855  1.9043 -0.1060 -1.0424
 5383SOL     OW27610   2.965   1.921  16.605 -0.4588  0.1968 -0.0747
 5383SOL    HW127611   3.005   1.847  16.559  0.0244 -0.5425  1.5470
 5383SOL    HW227612   2.971   1.887  16.694  0.9744  1.4654  0.3027
 5384SOL     OW27613   0.453   2.437   3.544  0.2952 -0.0280  0.1843
 5384SOL    HW127614   0.362   2.467   3.548  0.2978  0.0837 -0.5883
 5384SOL    HW227615   0.466   2.395   3.629 -1.6636 -1.3383 -0.1523
 5385SOL     OW27616   3.073   0.453   7.871 -0.0937  0.4447 -0.3861
 5385SOL    HW127617   3.095   0.447   7.964 -0.2296 -0.7401 -0.4393
 5385SOL    HW227618   3.100   0.545   7.863 -0.2613  0.4777 -0.5713
 5386SOL     OW27619   3.371   1.319   6.860 -0.2611  0.4782  0.6163
 5386SOL    HW127620   3.362   1.361   6.946  0.2234 -0.7932  1.2787
 5386SOL    HW227621   3.294   1.363   6.823  0.8809  1.7584 -0.2419
 5387SOL     OW27622   4.402   1.897   7.734 -0.3009 -0.7224  0.2372
 5387SOL    HW127623   4.463   1.837   7.692  0.6784 -0.4115  1.2276
 5387SOL    HW227624   4.368   1.939   7.655 -0.9446  1.1337  1.5006
 5388SOL     OW27625   0.429   0.696   8.588  0.3699  0.3292 -0.1951
 5388SOL    HW127626   0.426   0.737   8.502 -0.2826 -0.2984 -0.4652
 5388SOL    HW227627   0.386   0.766   8.637 -2.5448  0.5438 -3.1066
 5389SOL     OW27628   4.291   2.975   6.449 -0.0553 -0.1627 -0.9657
 5389SOL    HW127629   4.382   3.005   6.456  0.1264 -1.0284  0.4411
 5389SOL    HW227630   4.263   2.991   6.539  1.3194  0.8781 -0.7279
 5390SOL     OW27631   1.721   0.096   5.431 -0.7312 -0.1479  0.1340
 5390SOL    HW127632   1.657   0.164   5.450 -3.3421 -3.4003  2.9900
 5390SOL    HW227633   1.693   0.021   5.484 -0.8291  1.7375  2.7463
 5391SOL     OW27634   3.397   3.942   4.886 -0.0878 -0.1278 -0.1238
 5391SOL    HW127635   3.474   3.963   4.938 -1.3785  1.1736  1.2388
 5391SOL    HW227636   3.328   4.002   4.912 -0.5767 -0.5080 -0.5353
 5392SOL     OW27637   0.074   0.490   7.684 -0.1112 -0.1493 -0.0767
 5392SOL    HW127638   0.052   0.400   7.660  0.3136 -0.9746  2.6167
 5392SOL    HW227639   0.044   0.494   7.775 -0.7836 -0.2318 -0.2951
 5393SOL     OW27640   1.495   0.073   2.341 -0.0760 -0.1208 -0.7017
 5393SOL    HW127641   1.524   0.111   2.424  0.3566 -0.2946 -0.7706
 5393SOL    HW227642   1.560   0.005   2.325 -0.1252  0.3834 -3.0362
 5394SOL     OW27643   4.146   0.395   1.676 -0.1645  0.8594 -0.5145
 5394SOL    HW127644   4.053   0.419   1.674 -0.7312 -1.3145 -0.3581
 5394SOL    HW227645   4.182   0.457   1.739  0.9352  0.0857 -0.3976
 5395SOL     OW27646   3.195   2.658  16.489 -0.0831  0.4490 -0.0648
 5395SOL    HW127647   3.216   2.751  16.489 -3.8483  1.3111  0.3188
 5395SOL    HW227648   3.247   2.621  16.561  0.0843  2.3227  0.7690
 5396SOL     OW27649   3.498   3.190   2.622 -0.5269  0.3134 -0.0763
 5396SOL    HW127650   3.446   3.170   2.545 -0.9780 -1.1706  0.6132
 5396SOL    HW227651   3.584   3.215   2.588 -0.8952  1.3990 -0.1856
 5397SOL     OW27652   3.735   1.485  13.643 -0.6484 -0.2405  0.2210
 5397SOL    HW127653   3.811   1.505  13.697 -1.0306 -0.9617  1.0163
 5397SOL    HW227654   3.726   1.569  13.598  1.7467 -1.2895 -2.2129
 5398SOL     OW27655   1.694   4.586   5.584  0.2390  0.3476 -0.7125
 5398SOL    HW127656   1.734   4.500   5.597 -1.1375 -0.2433 -0.3555
 5398SOL    HW227657   1.606   4.588   5.622 -0.0494 -0.3109 -1.3532
 5399SOL     OW27658   0.131   3.051   3.467 -0.1944  0.3402 -0.2133
 5399SOL    HW127659   0.128   3.136   3.423 -0.6090  0.4648  0.0528
 5399SOL    HW227660   0.037   3.038   3.473 -0.4441  0.8568 -2.9387
 5400SOL     OW27661   0.497   3.693   1.395 -0.4795 -0.6804 -0.5222
 5400SOL    HW127662   0.486   3.657   1.307  0.5386  0.5620 -1.1546
 5400SOL    HW227663   0.574   3.750   1.390 -0.7449 -0.2133  0.7433
 5401SOL     OW27664   2.562   1.440  10.778 -0.7766  0.5228  0.2345
 5401SOL    HW127665   2.576   1.381  10.703 -0.5901  0.1131  0.5939
 5401SOL    HW227666   2.559   1.375  10.848 -0.6313 -0.1125 -0.3450
 5402SOL     OW27667   1.145   3.135   0.443  0.0807 -0.2511 -0.3486
 5402SOL    HW127668   1.213   3.074   0.473  1.7793  0.7992 -2.0763
 5402SOL    HW227669   1.168   3.138   0.350  0.4977 -0.1848 -0.2445
 5403SOL     OW27670   2.996   4.334   6.170 -0.3522 -0.6002  0.1641
 5403SOL    HW127671   2.908   4.305   6.148  0.8376 -3.0415 -1.3365
 5403SOL    HW227672   3.021   4.359   6.081 -0.6053  2.0206  0.8141
 5404SOL     OW27673   2.344   4.124   5.160 -0.1925 -0.5811 -0.1490
 5404SOL    HW127674   2.372   4.173   5.237 -0.1178 -1.5941  0.4686
 5404SOL    HW227675   2.287   4.056   5.197 -1.1168  0.2585 -0.0192
 5405SOL     OW27676   2.183   3.120   2.636  0.0067 -1.0444 -0.0324
 5405SOL    HW127677   2.261   3.066   2.651  1.4252  0.6125 -1.3767
 5405SOL    HW227678   2.130   3.050   2.599  0.2277 -0.9224 -0.5821
 5406SOL     OW27679   4.579   2.840  12.871  0.2445 -0.3238 -0.2210
 5406SOL    HW127680   4.603   2.885  12.790 -0.0232  1.2508  0.5776
 5406SOL    HW227681   4.589   2.911  12.934 -0.0236  0.4019 -0.9849
 5407SOL     OW27682   2.733   2.875   9.683  0.4603  0.6581  0.6187
 5407SOL    HW127683   2.779   2.791   9.673  0.8307  0.9045  0.2838
 5407SOL    HW227684   2.791   2.936   9.637 -1.7406  1.7271 -0.7224
 5408SOL     OW27685   1.096   0.419   7.321 -0.1616  0.1711  0.2299
 5408SOL    HW127686   1.128   0.347   7.374 -1.2764 -0.6279 -0.1874
 5408SOL    HW227687   1.177   0.423   7.271 -1.2232 -0.4649 -1.5548
 5409SOL     OW27688   3.846   0.578   3.176 -0.7584 -0.2355 -0.2913
 5409SOL    HW127689   3.918   0.584   3.113 -0.9593  2.8520 -0.2141
 5409SOL    HW227690   3.850   0.488   3.209  0.0806 -0.0517  0.0959
 5410SOL     OW27691   3.159   0.954   2.324 -0.3904 -0.2495  0.4427
 5410SOL    HW127692   3.156   1.000   2.240  0.6861  1.1947  1.2063
 5410SOL    HW227693   3.216   0.878   2.312 -1.5249 -1.0422  0.0317
 5411SOL     OW27694   2.632   0.863   7.692  0.9233 -0.4495 -0.2790
 5411SOL    HW127695   2.622   0.938   7.633  2.3481  1.1027  1.4221
 5411SOL    HW227696   2.721   0.883   7.721 -0.0970  2.7950  0.6999
 5412SOL     OW27697   1.683   3.923   6.412  0.1876 -0.7698 -0.1592
 5412SOL    HW127698   1.669   3.970   6.494 -1.9309  1.3016 -1.7047
 5412SOL    HW227699   1.627   3.847   6.426  0.1498 -0.6672  0.2404
 5413SOL     OW27700   1.025   2.363   8.526 -0.4891  0.1571  0.0960
 5413SOL    HW127701   0.946   2.331   8.570 -1.9740  3.9368  0.1869
 5413SOL    HW227702   1.019   2.458   8.534 -0.3891  0.1843 -0.1390
 5414SOL     OW27703   0.547   3.576   4.885 -0.0251  0.2366  0.6305
 5414SOL    HW127704   0.567   3.638   4.955  0.4254 -2.9778  3.3272
 5414SOL    HW227705   0.515   3.641   4.823  0.6137 -0.9382 -0.9298
 5415SOL     OW27706   4.705   2.042   5.249 -0.2833 -0.3230 -0.4282
 5415SOL    HW127707   4.633   2.089   5.207 -0.1646  0.2223 -0.0311
 5415SOL    HW227708   4.716   1.970   5.187  1.0790  1.5529 -2.3880
 5416SOL     OW27709   0.091   3.533   9.626 -0.3635  0.1944  0.0532
 5416SOL    HW127710   0.077   3.501   9.537  2.0184  0.3817 -0.3732
 5416SOL    HW227711   0.037   3.612   9.619  0.7026  0.7077 -2.3441
 5417SOL     OW27712   3.128   0.415   6.788  0.5648  0.0149 -0.1618
 5417SOL    HW127713   3.154   0.501   6.756 -2.1722  1.1836  0.7412
 5417SOL    HW227714   3.071   0.429   6.863 -0.3443  0.0101 -0.8427
 5418SOL     OW27715   3.793   1.096   2.249 -0.3013  0.1937 -0.0019
 5418SOL    HW127716   3.712   1.144   2.232 -0.9230 -1.2011 -0.9963
 5418SOL    HW227717   3.769   1.016   2.202  1.8079 -1.1625  1.2675
 5419SOL     OW27718   1.519   4.072   5.682  0.1321 -0.5222 -0.1141
 5419SOL    HW127719   1.543   4.013   5.610 -0.6284 -0.8066 -0.1358
 5419SOL    HW227720   1.535   4.019   5.760  0.7790 -0.1771 -0.0130
 5420SOL     OW27721   3.982   0.307   8.336 -0.4221  0.6149  0.6838
 5420SOL    HW127722   3.954   0.262   8.415  1.0316 -0.1410  0.7703
 5420SOL    HW227723   3.933   0.258   8.270 -0.0082  0.7056  0.3045
 5421SOL     OW27724   1.217   4.483   7.230  0.7261 -0.4807 -0.3054
 5421SOL    HW127725   1.218   4.578   7.243 -2.0748 -0.1911 -2.0279
 5421SOL    HW227726   1.264   4.477   7.147  1.2468 -1.7915  0.0939
 5422SOL     OW27727   0.288   1.102   4.651  0.0137  0.2581  0.0588
 5422SOL    HW127728   0.361   1.135   4.704  0.6750 -2.2043  0.6844
 5422SOL    HW227729   0.337   1.045   4.592 -0.3021 -0.0788  0.1204
 5423SOL     OW27730   4.606   3.717  13.200 -0.5534  0.2081 -0.1524
 5423SOL    HW127731   4.553   3.643  13.226 -0.6962  0.0555 -0.8867
 5423SOL    HW227732   4.621   3.703  13.107  0.5610 -0.6889  0.1687
 5424SOL     OW27733   3.062   2.594  12.282 -0.5362  0.1076  0.5160
 5424SOL    HW127734   3.083   2.502  12.267 -0.4533 -0.1435  2.1454
 5424SOL    HW227735   3.096   2.623  12.197 -0.8425  1.3527  0.8152
 5425SOL     OW27736   4.188   4.517   6.734  0.3272 -0.1047  0.5925
 5425SOL    HW127737   4.150   4.508   6.647 -0.1820  1.1015  0.6810
 5425SOL    HW227738   4.113   4.536   6.791 -1.8750 -1.4274 -1.8421
 5426SOL     OW27739   0.773   3.740  17.288  0.3951 -0.0341  0.1756
 5426SOL    HW127740   0.828   3.801  17.239  1.6823 -0.1929  1.4415
 5426SOL    HW227741   0.791   3.658  17.242  1.0759 -0.2400  0.8106
 5427SOL     OW27742   3.932   3.080  10.630 -0.1014 -0.4137  0.2188
 5427SOL    HW127743   3.982   3.008  10.593  1.7254  1.6524 -1.3143
 5427SOL    HW227744   3.945   3.151  10.567  1.5093 -2.0280 -1.2755
 5428SOL     OW27745   3.622   3.522   3.606 -0.8173 -0.3359  0.2261
 5428SOL    HW127746   3.539   3.563   3.627 -0.9744 -0.0302 -0.9911
 5428SOL    HW227747   3.680   3.581   3.655  0.0997 -0.3446 -0.8320
 5429SOL     OW27748   3.149   2.016   4.804 -0.3700  0.5078 -0.5140
 5429SOL    HW127749   3.200   2.069   4.865 -1.6687 -2.8055  3.4275
 5429SOL    HW227750   3.219   1.959   4.770  0.3229  0.7952  0.4374
 5430SOL     OW27751   2.580   4.185   8.024 -0.0705  0.0249 -0.4847
 5430SOL    HW127752   2.546   4.273   8.039  1.4275  1.2517 -4.3790
 5430SOL    HW227753   2.495   4.150   7.999 -0.5015  1.4898 -1.0699
 5431SOL     OW27754   0.453   4.460   9.272 -0.2086 -0.0969 -0.0458
 5431SOL    HW127755   0.507   4.427   9.200 -0.1504  1.4117 -0.6885
 5431SOL    HW227756   0.452   4.552   9.245  1.0991  0.5119  1.9118
 5432SOL     OW27757   3.393   2.157   5.441  0.8600  0.2354  0.0696
 5432SOL    HW127758   3.487   2.165   5.453  0.7674  0.4014  0.7030
 5432SOL    HW227759   3.390   2.070   5.399 -1.1901  0.0595  0.5721
 5433SOL     OW27760   1.922   0.267   0.043  0.3476  0.2310  0.2079
 5433SOL    HW127761   1.951   0.308   0.125  0.0166 -0.8681  0.8710
 5433SOL    HW227762   1.944   0.176   0.061 -1.1414  0.2667  2.1855
 5434SOL     OW27763   0.986   1.097   6.736  0.4887 -0.1092 -0.4831
 5434SOL    HW127764   0.997   1.101   6.641  0.4522 -4.4202 -0.6717
 5434SOL    HW227765   1.071   1.075   6.775  0.3549 -1.6277 -1.0486
 5435SOL     OW27766   4.275   3.685   9.326 -0.0748 -0.3562 -0.2291
 5435SOL    HW127767   4.321   3.752   9.377  1.8268 -0.6529 -1.5684
 5435SOL    HW227768   4.222   3.631   9.384  2.8173 -1.6650  1.1797
 5436SOL     OW27769   4.366   4.360  10.828 -0.0457  0.1508 -0.7040
 5436SOL    HW127770   4.364   4.402  10.914 -2.1286  2.3463 -1.8067
 5436SOL    HW227771   4.439   4.409  10.792 -0.3376 -0.6681 -2.4374
 5437SOL     OW27772   1.039   0.746   1.016 -0.0479 -0.4695  0.1212
 5437SOL    HW127773   1.126   0.717   1.043  0.2110 -0.4345 -0.6572
 5437SOL    HW227774   1.026   0.724   0.924  0.1786  0.8467 -0.2374
 5438SOL     OW27775   2.162   2.507  11.599 -0.2784 -0.1586  0.3393
 5438SOL    HW127776   2.100   2.459  11.543 -1.4975  0.0455  1.5012
 5438SOL    HW227777   2.116   2.503  11.683 -0.4548 -0.1223  0.2454
 5439SOL     OW27778   4.205   2.747   5.903 -0.4255 -0.5375  0.7813
 5439SOL    HW127779   4.262   2.816   5.938 -2.8677  1.4771  0.8360
 5439SOL    HW227780   4.254   2.674   5.939  0.9801  0.8750  1.7375
 5440SOL     OW27781   2.898   3.853   0.830  0.0961  0.3855  0.5600
 5440SOL    HW127782   2.942   3.837   0.914 -0.0596  2.3052  0.9930
 5440SOL    HW227783   2.905   3.767   0.787  0.3691  0.4229  0.5294
 5441SOL     OW27784   0.830   2.073   3.899 -0.0807  0.4723  0.3293
 5441SOL    HW127785   0.859   1.982   3.900 -0.3335  0.3885  0.0509
 5441SOL    HW227786   0.767   2.070   3.971  1.3125  0.7519  1.5506
 5442SOL     OW27787   0.142   3.862   2.970  0.5723 -0.4607  0.0211
 5442SOL    HW127788   0.219   3.916   2.952  0.1740 -0.1145 -0.6811
 5442SOL    HW227789   0.176   3.843   3.057 -1.2102 -0.1530  0.7835
 5443SOL     OW27790   4.294   1.992   7.520 -0.4370 -0.1409  0.0560
 5443SOL    HW127791   4.215   2.043   7.541 -0.5942 -1.8003  3.6334
 5443SOL    HW227792   4.253   1.941   7.451 -1.4421 -0.7695  1.1178
 5444SOL     OW27793   0.519   4.647   3.578 -0.0285  0.1926  0.6018
 5444SOL    HW127794   0.562   4.608   3.502 -0.0270  2.7119 -0.6902
 5444SOL    HW227795   0.581   4.613   3.642 -2.1860  0.1382  2.6706
 5445SOL     OW27796   0.026   4.622   7.171 -0.1333  0.3480  0.1940
 5445SOL    HW127797   0.051   4.535   7.201 -2.6922  0.1122  1.6373
 5445SOL    HW227798   4.675   4.593   7.110 -0.4037 -0.5622  0.9204
 5446SOL     OW27799   2.504   4.126   4.389  0.3470 -0.4383 -0.6754
 5446SOL    HW127800   2.579   4.106   4.333 -0.0194  1.4080 -1.8452
 5446SOL    HW227801   2.556   4.179   4.450 -1.2938  0.7974 -0.3568
 5447SOL     OW27802   4.328   4.235   8.840 -0.0570 -0.3480  0.2988
 5447SOL    HW127803   4.262   4.220   8.773 -0.2034  0.3102  0.2991
 5447SOL    HW227804   4.333   4.152   8.888  1.6858 -1.6103 -2.0766
 5448SOL     OW27805   4.010   3.270   2.293 -0.2060  0.2686  0.2034
 5448SOL    HW127806   4.035   3.363   2.296 -2.2977  0.7162  3.1755
 5448SOL    HW227807   4.019   3.244   2.385 -0.7546 -0.1522  0.1338
 5449SOL     OW27808   3.526   2.511   1.859 -0.0223 -0.4344 -0.1394
 5449SOL    HW127809   3.575   2.558   1.926 -0.6697  1.8966 -1.3172
 5449SOL    HW227810   3.453   2.490   1.916  0.0462  0.5169  0.2982
 5450SOL     OW27811   1.785   1.002  13.769 -0.4666 -0.1357  0.1592
 5450SOL    HW127812   1.752   0.983  13.857 -1.3150 -2.4060 -0.6657
 5450SOL    HW227813   1.756   0.924  13.723 -2.2046  1.0046 -0.6524
 5451SOL     OW27814   1.266   1.055   5.152 -0.3349  0.0615 -0.3228
 5451SOL    HW127815   1.259   0.976   5.205 -0.5492  0.8164  0.7866
 5451SOL    HW227816   1.280   1.127   5.213 -0.0381 -1.1142  0.9833
 5452SOL     OW27817   1.516   1.328   9.858 -0.8168  0.2591  0.3352
 5452SOL    HW127818   1.608   1.304   9.859 -0.7112  0.6863  0.8606
 5452SOL    HW227819   1.500   1.292   9.946  0.3267 -0.6441  0.1672
 5453SOL     OW27820   0.115   4.458   6.134  0.5403 -0.3533 -0.2304
 5453SOL    HW127821   0.101   4.523   6.203  1.0645  0.5458 -0.9813
 5453SOL    HW227822   0.043   4.397   6.148  0.4509 -0.4120 -0.9791
 5454SOL     OW27823   2.681   1.917  14.822 -0.0367  0.3270 -0.1593
 5454SOL    HW127824   2.672   1.822  14.821 -0.1250  0.3454 -1.0062
 5454SOL    HW227825   2.760   1.927  14.768 -2.7547  0.6422 -4.1219
 5455SOL     OW27826   4.106   0.849   4.484 -0.0415  0.5722 -0.0554
 5455SOL    HW127827   4.155   0.931   4.492 -0.2331  0.7634 -0.8908
 5455SOL    HW227828   4.015   0.870   4.462 -0.2200 -2.3727 -2.0280
 5456SOL     OW27829   3.105   1.737  15.840  0.7134  0.1336 -0.0983
 5456SOL    HW127830   3.150   1.741  15.755 -0.7069  2.0894 -0.7571
 5456SOL    HW227831   3.040   1.808  15.836 -0.9087 -1.3538 -0.3695
 5457SOL     OW27832   2.362   1.982   3.921  0.0602  0.6036  0.1377
 5457SOL    HW127833   2.405   1.907   3.963 -2.3656 -1.6832 -1.5159
 5457SOL    HW227834   2.435   2.016   3.869 -1.0585  0.5858 -1.4103
 5458SOL     OW27835   4.450   2.409  16.346 -0.4074  0.2487 -0.0606
 5458SOL    HW127836   4.424   2.320  16.369 -2.2098  1.2746  1.8718
 5458SOL    HW227837   4.468   2.406  16.252  0.8421 -0.1393  0.1881
 5459SOL     OW27838   4.127   3.837   8.421 -0.6011  0.7127 -0.0336
 5459SOL    HW127839   4.151   3.770   8.485 -1.2929 -1.6167 -2.2389
 5459SOL    HW227840   4.214   3.877   8.416  0.1344 -1.0003 -0.6466
 5460SOL     OW27841   1.857   4.432  11.339 -0.0678 -0.1698 -0.1871
 5460SOL    HW127842   1.853   4.397  11.428 -2.0495 -0.1580 -0.2778
 5460SOL    HW227843   1.799   4.374  11.291 -1.0889 -0.1931  1.0931
 5461SOL     OW27844   2.375   2.494   9.077 -0.3382  0.1082 -0.4641
 5461SOL    HW127845   2.409   2.411   9.111 -1.7587 -0.2689  0.0295
 5461SOL    HW227846   2.418   2.551   9.141  2.2024 -1.6345 -0.5978
 5462SOL     OW27847   0.228   1.189   9.946 -0.2416 -0.1423 -0.2686
 5462SOL    HW127848   0.191   1.269   9.985  0.3165  0.6145 -1.2704
 5462SOL    HW227849   0.145   1.145   9.926 -1.0876  2.1562 -1.8771
 5463SOL     OW27850   0.400   4.462   2.681 -0.4113  0.6501  0.6221
 5463SOL    HW127851   0.364   4.376   2.704  0.1825  0.1663 -0.2895
 5463SOL    HW227852   0.449   4.438   2.603  1.6439 -0.7146  2.3403
 5464SOL     OW27853   2.883   2.199   1.281  0.3018  0.2961  0.4017
 5464SOL    HW127854   2.838   2.282   1.265  0.0548 -0.2834 -2.0471
 5464SOL    HW227855   2.800   2.155   1.298  0.1790 -0.3093 -1.7272
 5465SOL     OW27856   1.810   0.967   6.908  0.4962 -0.2603 -0.0045
 5465SOL    HW127857   1.837   0.881   6.873  0.5227 -0.7260  1.1791
 5465SOL    HW227858   1.789   0.933   6.995  2.0412  0.8579  0.7999
 5466SOL     OW27859   2.928   2.658   2.807 -0.2533 -0.2271 -0.4116
 5466SOL    HW127860   2.886   2.622   2.886  4.7261  1.8821  3.2043
 5466SOL    HW227861   2.889   2.602   2.740 -2.1346 -0.3762  0.8128
 5467SOL     OW27862   4.604   3.729   6.113  0.5232 -0.5481 -0.0020
 5467SOL    HW127863   4.690   3.705   6.078 -1.3956 -3.6241 -2.7015
 5467SOL    HW227864   4.547   3.678   6.055 -1.5598  0.9810  0.7017
 5468SOL     OW27865   0.401   0.641  12.340  0.1342 -0.1142 -0.1492
 5468SOL    HW127866   0.431   0.630  12.250 -2.2662 -1.3078 -0.7888
 5468SOL    HW227867   0.435   0.728  12.363 -0.4203  0.3851 -1.2611
 5469SOL     OW27868   4.072   3.954   4.704  0.4030  0.8158 -0.1959
 5469SOL    HW127869   4.124   4.033   4.691  0.9849  0.6730  1.2930
 5469SOL    HW227870   3.999   3.988   4.755 -0.8564  2.6755 -3.2262
 5470SOL     OW27871   3.400   2.234  14.996  0.0124 -0.2133  0.4671
 5470SOL    HW127872   3.306   2.247  15.006  0.1274 -1.3057  2.9811
 5470SOL    HW227873   3.428   2.195  15.079  0.7824 -0.8450 -0.0904
 5471SOL     OW27874   2.906   1.575   9.151 -0.0906 -0.0225  0.3790
 5471SOL    HW127875   2.852   1.628   9.092  1.1248  2.1388  1.2346
 5471SOL    HW227876   2.837   1.528   9.197 -1.9390  0.4729 -1.8436
 5472SOL     OW27877   4.506   4.407  13.862  0.8929 -0.1466 -0.6158
 5472SOL    HW127878   4.567   4.384  13.932 -0.5006  0.1142  0.6947
 5472SOL    HW227879   4.514   4.316  13.832  0.3522 -0.3511 -0.1556
 5473SOL     OW27880   2.437   3.164   1.695 -0.4205  0.2146  0.1873
 5473SOL    HW127881   2.354   3.157   1.743 -1.0603  1.4352 -0.7334
 5473SOL    HW227882   2.454   3.251   1.730 -2.3657 -0.2041  2.1863
 5474SOL     OW27883   3.355   2.272   3.044 -0.2451 -0.2774  0.5032
 5474SOL    HW127884   3.340   2.308   2.956  0.4670 -0.2907  0.3799
 5474SOL    HW227885   3.280   2.303   3.094 -0.5832 -1.4444  0.7297
 5475SOL     OW27886   3.194   1.185   1.751 -0.5659  0.3585 -0.2534
 5475SOL    HW127887   3.238   1.192   1.666  0.4163  1.9974  0.3986
 5475SOL    HW227888   3.136   1.112   1.730 -0.6855  0.6979 -1.1119
 5476SOL     OW27889   3.783   3.976   3.480 -0.2070  0.7921  0.1086
 5476SOL    HW127890   3.757   4.059   3.440  2.3253  1.2987 -0.4284
 5476SOL    HW227891   3.717   3.966   3.549  0.1253  0.9915  0.4534
 5477SOL     OW27892   0.579   4.710   0.720  0.3498  0.4048  0.6514
 5477SOL    HW127893   0.603   0.038   0.801  0.5108 -0.1525  0.9060
 5477SOL    HW227894   0.497   4.669   0.746  0.4858 -1.7007 -2.2170
 5478SOL     OW27895   1.872   0.809   8.878 -0.7187 -0.1953  0.3874
 5478SOL    HW127896   1.862   0.721   8.913  0.3330 -1.7864 -3.3330
 5478SOL    HW227897   1.781   0.834   8.860 -0.8106 -0.8832 -0.0985
 5479SOL     OW27898   3.728   0.140   8.790  0.5780  0.1607  0.2806
 5479SOL    HW127899   3.710   0.053   8.824 -0.6664  0.4545  0.3612
 5479SOL    HW227900   3.759   0.179   8.871  1.1314  0.5691 -0.1248
 5480SOL     OW27901   3.950   0.333   2.052  0.7612  0.0482  0.5937
 5480SOL    HW127902   3.940   0.428   2.048 -0.8508 -0.1386  0.3520
 5480SOL    HW227903   3.872   0.299   2.009  2.1281 -0.3560 -1.5376
 5481SOL     OW27904   1.483   3.312   5.021  0.1271 -0.1764  0.0070
 5481SOL    HW127905   1.533   3.392   5.009  0.0077 -0.5628 -3.1454
 5481SOL    HW227906   1.405   3.331   4.968  1.2311  0.7477 -1.3021
 5482SOL     OW27907   1.792   4.669   7.042 -0.0943  0.4138  0.0829
 5482SOL    HW127908   1.838   4.684   7.124  0.1347  1.0523 -0.1645
 5482SOL    HW227909   1.837   0.010   6.980  0.6660 -0.3403 -0.0611
 5483SOL     OW27910   0.390   0.213   0.303  0.0901 -0.3068 -0.1596
 5483SOL    HW127911   0.327   0.284   0.305 -0.3481 -0.7046  0.0454
 5483SOL    HW227912   0.344   0.149   0.249  0.0233 -0.1515 -0.2852
 5484SOL     OW27913   0.617   2.600   6.037 -0.5147 -0.2205  0.2451
 5484SOL    HW127914   0.675   2.567   5.969  2.3678  0.0091  2.5815
 5484SOL    HW227915   0.689   2.642   6.084  1.4638 -3.4229  0.1305
 5485SOL     OW27916   4.385   4.417   2.455 -0.2118 -0.0039 -0.1684
 5485SOL    HW127917   4.303   4.433   2.409 -0.2499  0.2778 -0.0005
 5485SOL    HW227918   4.441   4.486   2.421  0.0519  0.2405  0.7722
 5486SOL     OW27919   4.034   1.506   4.013  0.5197  0.1424  0.1941
 5486SOL    HW127920   3.964   1.446   4.038  0.3552 -0.2056 -1.0964
 5486SOL    HW227921   3.989   1.587   3.991  0.6770  0.3353  0.5742
 5487SOL     OW27922   4.415   4.561   0.796  0.5649 -0.2444  0.1029
 5487SOL    HW127923   4.347   4.603   0.743 -0.3350 -0.0939  1.3864
 5487SOL    HW227924   4.488   4.556   0.734  0.0463  2.2813 -0.7053
 5488SOL     OW27925   1.171   4.377   5.769 -0.6260  0.2223 -0.3188
 5488SOL    HW127926   1.238   4.442   5.745  1.6937 -2.1722 -0.3164
 5488SOL    HW227927   1.093   4.419   5.731  0.1891 -0.9418 -3.2896
 5489SOL     OW27928   4.689   3.783   1.871  0.4985 -0.0219  0.0645
 5489SOL    HW127929   4.631   3.728   1.923 -1.8833  1.1311 -1.3724
 5489SOL    HW227930   0.020   3.723   1.813 -0.6309 -1.0903  0.2549
 5490SOL     OW27931   0.166   1.589   4.440 -0.3637 -0.2016 -0.0836
 5490SOL    HW127932   0.247   1.618   4.398  1.6585 -2.7167  2.1427
 5490SOL    HW227933   0.109   1.634   4.377 -2.3405  0.1385  1.9443
 5491SOL     OW27934   1.919   1.947   4.079 -0.1966  0.4295  0.4616
 5491SOL    HW127935   1.982   1.992   4.023  0.8140 -1.6887 -0.1001
 5491SOL    HW227936   1.946   1.855   4.073  1.9362  1.2829 -3.0307
 5492SOL     OW27937   1.781   4.387  13.798  0.1067  0.2078  0.9897
 5492SOL    HW127938   1.790   4.482  13.791 -2.2539  0.5087  2.0114
 5492SOL    HW227939   1.685   4.384  13.801  0.1202 -0.7060  0.5189
 5493SOL     OW27940   0.084   1.648   7.696  0.1819  0.2301 -0.5094
 5493SOL    HW127941   0.104   1.556   7.683  1.1370  0.7295 -2.5178
 5493SOL    HW227942   0.040   1.645   7.781  0.6367 -2.0980 -0.3683
 5494SOL     OW27943   1.422   0.842   7.928  0.5427 -0.0550 -0.3992
 5494SOL    HW127944   1.341   0.794   7.910  0.4479 -0.7207  1.7752
 5494SOL    HW227945   1.478   0.770   7.959  1.2094  0.8035  0.3851
 5495SOL     OW27946   3.383   2.044  14.656 -0.0345  0.0827  0.3351
 5495SOL    HW127947   3.474   2.041  14.685  0.1149  1.5336  0.0347
 5495SOL    HW227948   3.353   1.956  14.677  2.0795 -1.0160 -1.2889
 5496SOL     OW27949   1.395   1.193   3.359  0.2958  0.1776 -0.1400
 5496SOL    HW127950   1.358   1.218   3.274  0.7471 -0.0040 -0.3942
 5496SOL    HW227951   1.346   1.251   3.417 -0.1391 -0.7849  0.4506
 5497SOL     OW27952   3.124   3.972   4.725 -0.0798 -0.0026 -0.4999
 5497SOL    HW127953   3.043   4.002   4.766  0.0222  0.1528 -0.4118
 5497SOL    HW227954   3.181   3.980   4.802  0.8041 -2.0987 -0.9328
 5498SOL     OW27955   1.209   3.413   4.276  0.1913  0.3298 -0.1756
 5498SOL    HW127956   1.194   3.324   4.308  0.1735 -0.0487 -1.2500
 5498SOL    HW227957   1.293   3.434   4.317  0.1027  0.9102 -0.2805
 5499SOL     OW27958   3.292   3.740   2.882  0.3664  0.6006  0.4383
 5499SOL    HW127959   3.229   3.722   2.951 -1.7126  1.9094 -1.1365
 5499SOL    HW227960   3.309   3.654   2.844 -2.3579 -0.1933  1.0485
 5500SOL     OW27961   0.603   2.935   5.357  0.5091  0.1249 -0.0011
 5500SOL    HW127962   0.648   2.997   5.415  3.6849  1.0365 -3.4467
 5500SOL    HW227963   0.649   2.852   5.374  0.7486 -0.1657 -2.0772
 5501SOL     OW27964   4.237   2.955   8.811 -0.9086 -0.2757 -0.0182
 5501SOL    HW127965   4.226   2.915   8.898  0.2467 -0.3093  0.1060
 5501SOL    HW227966   4.238   3.045   8.846  0.7489 -0.5688  0.7016
 5502SOL     OW27967   4.550   2.240   2.299  0.0201  0.2837 -0.5106
 5502SOL    HW127968   4.463   2.264   2.330  0.3292  1.4755 -0.5511
 5502SOL    HW227969   4.583   2.328   2.280  0.2500  0.3009 -0.0348
 5503SOL     OW27970   0.072   0.475   4.675 -0.3696 -0.0651  0.5681
 5503SOL    HW127971   0.004   0.445   4.735 -0.6306  0.6124  0.6196
 5503SOL    HW227972   0.153   0.466   4.725  0.3407 -0.9045 -0.7407
 5504SOL     OW27973   1.726   2.124   6.964 -0.3031 -0.0975  0.2930
 5504SOL    HW127974   1.665   2.183   7.008  1.3052  3.1666 -1.7532
 5504SOL    HW227975   1.753   2.070   7.038  1.0544 -1.1920 -0.9845
 5505SOL     OW27976   1.063   1.730   0.991  0.0077 -0.0473 -0.5625
 5505SOL    HW127977   1.048   1.700   0.902 -0.5006  1.5945 -1.0432
 5505SOL    HW227978   0.981   1.778   1.001  0.1194  0.0094  0.0627
 5506SOL     OW27979   2.351   1.054  15.633 -0.0245  0.1408 -0.1028
 5506SOL    HW127980   2.302   1.125  15.590 -2.2918 -1.7967 -0.6945
 5506SOL    HW227981   2.398   1.106  15.698 -2.0107  2.3980 -0.4475
 5507SOL     OW27982   0.124   2.546  11.474  0.1476 -0.2195 -0.5354
 5507SOL    HW127983   0.169   2.521  11.555  0.8863  1.1462 -0.5224
 5507SOL    HW227984   0.041   2.512  11.507  0.0519 -0.2409 -0.7980
 5508SOL     OW27985   4.593   2.800   2.851 -0.2210  0.0796 -0.6907
 5508SOL    HW127986   4.688   2.799   2.868 -0.3416 -0.4865  0.0079
 5508SOL    HW227987   4.567   2.741   2.923 -2.2488  0.3473 -1.2193
 5509SOL     OW27988   3.412   2.789   5.006 -0.4586 -0.0198 -0.0053
 5509SOL    HW127989   3.478   2.731   5.044 -1.2678  0.2767  1.8311
 5509SOL    HW227990   3.343   2.769   5.069  0.9716 -0.7000  1.3479
 5510SOL     OW27991   4.257   4.146   4.846 -0.0085 -0.2545  0.3400
 5510SOL    HW127992   4.342   4.145   4.803 -0.9525 -0.3706 -1.5151
 5510SOL    HW227993   4.205   4.197   4.784  1.0879  0.9157  0.3828
 5511SOL     OW27994   1.762   1.495   6.139  0.3585 -0.7834 -0.3534
 5511SOL    HW127995   1.853   1.509   6.112  0.2968  2.2980  1.0753
 5511SOL    HW227996   1.777   1.430   6.208 -1.0686 -0.7208  0.0180
 5512SOL     OW27997   2.725   2.350  13.285  0.0710  0.0986 -0.0499
 5512SOL    HW127998   2.691   2.400  13.211 -0.9613 -2.3512 -1.2411
 5512SOL    HW227999   2.677   2.267  13.276  2.4794 -1.3183 -0.0775
 5513SOL     OW28000   2.797   0.803   3.938 -0.1306 -0.1907  0.0811
 5513SOL    HW128001   2.824   0.884   3.895  0.2343  0.2190  1.0948
 5513SOL    HW228002   2.830   0.737   3.877  0.5151  1.3303 -1.2064
 5514SOL     OW28003   2.217   0.794   2.047 -0.2451  0.1090  0.2205
 5514SOL    HW128004   2.241   0.824   1.959 -1.8332  2.5957  0.6458
 5514SOL    HW228005   2.242   0.863   2.108  2.7916 -0.2313 -0.6350
 5515SOL     OW28006   0.149   2.317   3.194  0.0273  0.4723  0.0429
 5515SOL    HW128007   0.162   2.320   3.099 -0.7124  0.7226 -0.0486
 5515SOL    HW228008   0.240   2.298   3.218 -0.0790  2.3951  1.8631
 5516SOL     OW28009   4.697   1.548   7.139 -0.0160 -0.3874 -0.0490
 5516SOL    HW128010   4.650   1.491   7.078 -1.3438 -0.2375  0.8310
 5516SOL    HW228011   0.020   1.480   7.195 -1.6584 -1.4626 -0.1854
 5517SOL     OW28012   1.992   4.513  16.914 -0.3255 -0.2720 -0.2167
 5517SOL    HW128013   2.083   4.518  16.946  0.2680 -0.1736 -1.9247
 5517SOL    HW228014   1.989   4.438  16.856  1.3902  0.3806 -1.1591
 5518SOL     OW28015   1.497   4.155   6.831  0.2128  0.2450  0.3753
 5518SOL    HW128016   1.493   4.234   6.778  0.2779  0.8155  1.2268
 5518SOL    HW228017   1.551   4.186   6.904 -1.1113  0.1919  1.3761
 5519SOL     OW28018   4.071   0.961   6.799 -0.2664 -0.4207  0.2413
 5519SOL    HW128019   4.153   1.007   6.783 -0.4767 -0.4386 -0.8879
 5519SOL    HW228020   4.096   0.908   6.874  1.0562  0.0302  0.1098
 5520SOL     OW28021   1.999   3.453  12.484 -0.0810 -0.3561  0.3736
 5520SOL    HW128022   2.088   3.487  12.479  0.1341 -0.5606  2.8739
 5520SOL    HW228023   1.999   3.421  12.574 -1.3013  0.9727  0.8580
 5521SOL     OW28024   2.008   0.685  16.464  0.0738  0.0123 -0.3488
 5521SOL    HW128025   1.963   0.721  16.388  0.2239 -0.3630 -0.6156
 5521SOL    HW228026   2.007   0.590  16.449 -0.5196 -0.0823  0.3061
 5522SOL     OW28027   2.297   3.376  12.043  0.5116 -0.7471  0.4674
 5522SOL    HW128028   2.321   3.354  12.133 -0.8245 -0.1516  0.9713
 5522SOL    HW228029   2.241   3.305  12.012 -0.9825  0.7636 -0.2846
 5523SOL     OW28030   0.485   2.511  11.994  0.0328 -0.4851  0.5044
 5523SOL    HW128031   0.481   2.591  11.942  1.9599  0.2948  1.5580
 5523SOL    HW228032   0.553   2.530  12.060 -0.4102 -2.3848  1.5017
 5524SOL     OW28033   1.685   0.161  10.529  0.2684 -0.0364 -0.4269
 5524SOL    HW128034   1.724   0.238  10.568  0.3252 -1.2720  1.9353
 5524SOL    HW228035   1.758   0.099  10.532  0.8003  0.4516 -2.8647
 5525SOL     OW28036   0.162   3.631   5.399 -0.1263 -0.5061 -0.2146
 5525SOL    HW128037   0.207   3.649   5.316  1.0888 -1.6393  0.1910
 5525SOL    HW228038   0.076   3.668   5.383  0.3611 -0.1065 -1.9454
 5526SOL     OW28039   0.523   2.443   5.018 -0.0906 -0.2322 -0.2835
 5526SOL    HW128040   0.440   2.452   4.972  1.3293  1.2198 -2.5173
 5526SOL    HW228041   0.566   2.524   4.993  1.8232 -1.4687 -1.0326
 5527SOL     OW28042   2.510   4.682   3.858 -0.0612  0.4658  0.0896
 5527SOL    HW128043   2.415   4.681   3.844  0.0751  1.2087 -0.9092
 5527SOL    HW228044   2.510   0.049   3.903 -1.3480 -1.2496  3.2596
 5528SOL     OW28045   1.673   2.753   2.146  0.2850 -0.3258  0.0738
 5528SOL    HW128046   1.735   2.689   2.110 -1.5089 -0.2157 -3.2169
 5528SOL    HW228047   1.650   2.711   2.228 -1.7529 -0.7395 -0.7135
 5529SOL     OW28048   0.782   1.677   3.526  0.0297 -0.4073  0.1087
 5529SOL    HW128049   0.745   1.709   3.444 -1.4393  0.0175  0.9274
 5529SOL    HW228050   0.719   1.612   3.557 -1.2151  0.7536 -0.0153
 5530SOL     OW28051   3.825   2.080   5.956 -0.3944 -0.0034  0.8812
 5530SOL    HW128052   3.734   2.078   5.929 -1.1467  3.3623  3.1743
 5530SOL    HW228053   3.850   2.173   5.960 -0.7304  0.0869  0.8628
 5531SOL     OW28054   0.628   2.851  10.681  0.3132  0.3529 -0.3789
 5531SOL    HW128055   0.704   2.824  10.733 -0.5786  0.4392  0.9603
 5531SOL    HW228056   0.631   2.787  10.610 -1.8559  0.9872 -1.0459
 5532SOL     OW28057   1.235   0.655  11.333 -0.6728  0.0296 -0.2885
 5532SOL    HW128058   1.193   0.594  11.393  0.0154  0.9378  1.1195
 5532SOL    HW228059   1.319   0.673  11.375 -0.6542  0.6920 -0.6085
 5533SOL     OW28060   2.686   1.395   6.396 -0.1322  0.3318 -0.0124
 5533SOL    HW128061   2.706   1.346   6.317  0.3914  0.1434  0.2352
 5533SOL    HW228062   2.598   1.359   6.410  0.3695 -0.3881  1.3257
 5534SOL     OW28063   1.956   1.083   8.235 -0.0755 -0.5830 -0.4317
 5534SOL    HW128064   1.896   1.118   8.300  1.0967  2.5962 -1.0564
 5534SOL    HW228065   2.027   1.146   8.248 -1.2518  1.1139 -2.2357
 5535SOL     OW28066   2.371   1.008   8.132  0.0001 -0.0611  0.8646
 5535SOL    HW128067   2.454   0.963   8.115 -0.6600 -0.8973 -0.1713
 5535SOL    HW228068   2.309   0.935   8.126  0.7651 -0.4499 -2.4004
 5536SOL     OW28069   4.714   3.347   6.612 -0.1117 -0.1461 -0.0379
 5536SOL    HW128070   4.647   3.294   6.656  0.5299  0.1730  1.3027
 5536SOL    HW228071   0.070   3.285   6.620 -0.1556 -0.1338  0.4542
 5537SOL     OW28072   2.382   3.240   3.969 -0.2053 -0.3325 -0.4932
 5537SOL    HW128073   2.440   3.225   3.894  0.7275  0.2875  0.1069
 5537SOL    HW228074   2.315   3.292   3.924  0.2972  1.5206  0.8692
 5538SOL     OW28075   2.901   4.384   6.805  0.0165 -0.3661  0.1198
 5538SOL    HW128076   2.834   4.334   6.852 -1.0479  1.3727  0.4695
 5538SOL    HW228077   2.902   4.469   6.849  2.0018  1.1356 -2.8491
 5539SOL     OW28078   0.984   3.582  14.917 -0.0973 -0.0442 -0.4841
 5539SOL    HW128079   1.003   3.556  14.827  0.8149  0.7757 -0.5201
 5539SOL    HW228080   0.939   3.507  14.957 -0.3358 -0.8640 -2.2759
 5540SOL     OW28081   1.148   2.871   9.367 -0.2640  0.3055 -0.2172
 5540SOL    HW128082   1.148   2.814   9.444 -0.5710  1.0050  0.2964
 5540SOL    HW228083   1.109   2.822   9.295 -3.1798 -0.7260  2.0669
 5541SOL     OW28084   0.706   3.146   2.610  0.8755 -0.4641  0.4547
 5541SOL    HW128085   0.761   3.070   2.631  1.2839 -0.1440  0.5305
 5541SOL    HW228086   0.621   3.103   2.602  0.8955 -0.2882 -0.7124
 5542SOL     OW28087   2.063   4.345  15.646  0.5440 -0.1827  0.6029
 5542SOL    HW128088   2.124   4.411  15.614 -1.2614 -0.3053 -3.1105
 5542SOL    HW228089   2.111   4.265  15.624 -1.0665 -0.1599 -3.0738
 5543SOL     OW28090   2.064   2.638  11.944 -0.3839 -0.4562  0.1522
 5543SOL    HW128091   2.031   2.557  11.904 -0.6791  1.1900 -2.9512
 5543SOL    HW228092   2.155   2.612  11.955  0.0326  0.8400 -0.2659
 5544SOL     OW28093   3.922   0.807   2.378  0.1261  0.0063 -0.2707
 5544SOL    HW128094   3.869   0.884   2.357  1.4331  1.0080  0.1326
 5544SOL    HW228095   3.983   0.802   2.305 -0.1733  1.1292 -0.5913
 5545SOL     OW28096   2.482   4.097  14.099  0.2736  0.6802  0.2971
 5545SOL    HW128097   2.511   4.149  14.024 -1.4889  0.3770 -0.6160
 5545SOL    HW228098   2.458   4.168  14.158  2.0795 -0.3306  2.2515
 5546SOL     OW28099   1.123   1.423   6.695 -0.6228 -0.0166  0.3699
 5546SOL    HW128100   1.132   1.340   6.741 -0.4584 -0.8344 -1.1503
 5546SOL    HW228101   1.029   1.425   6.682 -0.3603  1.0889 -1.3067
 5547SOL     OW28102   2.520   4.126   7.448 -0.4723 -0.1512  0.3958
 5547SOL    HW128103   2.503   4.065   7.520 -3.4426  0.6546  0.3500
 5547SOL    HW228104   2.610   4.153   7.466 -0.7731 -1.2450  3.6473
 5548SOL     OW28105   1.095   2.035  16.095  0.2344  0.7009  0.7656
 5548SOL    HW128106   1.019   1.988  16.061  1.4420 -0.3638 -0.4488
 5548SOL    HW228107   1.174   1.984  16.080  1.3437  2.0805  1.8525
 5549SOL     OW28108   1.109   1.371   1.752 -0.0067 -0.6256 -0.5351
 5549SOL    HW128109   1.196   1.404   1.731 -0.1391  0.6143  0.8513
 5549SOL    HW228110   1.081   1.349   1.663 -1.2532  0.1584 -0.3240
 5550SOL     OW28111   3.985   0.458   9.395  0.1252 -0.1679 -0.1485
 5550SOL    HW128112   3.956   0.408   9.471 -1.9515 -1.8075 -2.0389
 5550SOL    HW228113   3.908   0.454   9.338 -0.3592  0.5812  0.4397
 5551SOL     OW28114   2.337   1.385   7.310  0.3389 -0.1190 -0.1472
 5551SOL    HW128115   2.428   1.378   7.280  0.3689  1.4614 -0.4268
 5551SOL    HW228116   2.334   1.478   7.331 -2.4566 -0.4814  1.0393
 5552SOL     OW28117   3.753   4.025   5.277 -0.0231  0.5208 -0.1277
 5552SOL    HW128118   3.784   4.031   5.367  2.5473 -1.1037 -0.8793
 5552SOL    HW228119   3.811   3.952   5.254 -0.0003  0.7575 -0.8144
 5553SOL     OW28120   2.652   2.585  15.310 -0.1755  0.3425  0.0368
 5553SOL    HW128121   2.717   2.625  15.252  0.4852 -2.1935 -0.9763
 5553SOL    HW228122   2.655   2.639  15.390 -0.4201  0.4108  0.0013
 5554SOL     OW28123   3.281   0.129   8.648  0.1817  0.2388  0.4363
 5554SOL    HW128124   3.338   0.082   8.708  0.8094 -0.4425 -0.7142
 5554SOL    HW228125   3.287   0.220   8.678 -0.4094 -0.0225  1.3510
 5555SOL     OW28126   1.280   3.793   3.500  0.0578  0.0381  0.0736
 5555SOL    HW128127   1.191   3.773   3.471 -1.3128 -0.0549  4.2187
 5555SOL    HW228128   1.295   3.724   3.565  1.5635 -1.0278 -1.4072
 5556SOL     OW28129   3.047   0.355   7.174  0.4979  0.0511 -0.2017
 5556SOL    HW128130   3.070   0.439   7.133 -0.9492  1.0560  1.0291
 5556SOL    HW228131   2.969   0.337   7.121  0.0255 -2.3434  1.3160
 5557SOL     OW28132   0.647   1.588  10.559  0.7447 -0.0133 -0.2708
 5557SOL    HW128133   0.567   1.641  10.555  0.2527 -0.8613 -1.8623
 5557SOL    HW228134   0.721   1.639  10.526  0.8162 -0.3493 -0.6365
 5558SOL     OW28135   0.473   0.251   7.333 -0.3362 -0.8202 -0.8571
 5558SOL    HW128136   0.413   0.180   7.311  0.0308 -0.9744 -1.3683
 5558SOL    HW228137   0.418   0.329   7.335  0.0449 -0.5470 -0.9722
 5559SOL     OW28138   0.911   0.077   2.682 -0.3700 -0.7661 -0.9075
 5559SOL    HW128139   0.890   0.164   2.648  1.4137 -0.7193 -1.8923
 5559SOL    HW228140   0.932   0.030   2.601  1.2126  1.4045 -1.7338
 5560SOL     OW28141   1.784   1.537   6.516 -0.0448 -0.8825  0.3181
 5560SOL    HW128142   1.751   1.452   6.486  0.6526 -1.8775  2.3541
 5560SOL    HW228143   1.763   1.598   6.445  0.0401 -0.8065  0.3588
 5561SOL     OW28144   2.458   0.133   3.300  0.0531 -0.3009  0.8875
 5561SOL    HW128145   2.503   0.120   3.384 -0.7136 -0.2024  1.3130
 5561SOL    HW228146   2.468   0.049   3.255 -1.9234 -0.1261  0.1368
 5562SOL     OW28147   3.962   0.160   3.648 -0.7037 -0.6152 -0.2664
 5562SOL    HW128148   3.944   0.087   3.588  1.2705  0.4934 -2.2511
 5562SOL    HW228149   3.942   0.235   3.592  1.9785  1.5064  1.5913
 5563SOL     OW28150   2.359   2.175   3.554  0.1848 -0.5400 -0.1180
 5563SOL    HW128151   2.367   2.222   3.471  1.2204 -1.0652 -0.3187
 5563SOL    HW228152   2.307   2.098   3.532 -2.6800  1.7897 -1.4225
 5564SOL     OW28153   0.048   4.488   1.366 -0.0761 -0.2351  0.0037
 5564SOL    HW128154   4.696   4.530   1.315 -0.7093 -1.0022  0.2274
 5564SOL    HW228155   0.127   4.541   1.355  0.7400 -1.2887  0.8182
 5565SOL     OW28156   3.223   3.204   9.104 -0.0972 -0.1777  0.4609
 5565SOL    HW128157   3.152   3.248   9.059 -1.1299 -1.0048  1.2712
 5565SOL    HW228158   3.232   3.125   9.050 -1.6361 -0.3081  0.4091
 5566SOL     OW28159   0.856   2.400   2.325  0.3459 -0.3991 -0.1101
 5566SOL    HW128160   0.849   2.493   2.347  0.9452 -0.8929  2.1537
 5566SOL    HW228161   0.951   2.397   2.312  0.3201  1.5703 -0.7019
 5567SOL     OW28162   3.255   4.108   2.582  0.1186  0.5347 -0.6357
 5567SOL    HW128163   3.265   4.116   2.677  1.7263  2.8771 -1.0237
 5567SOL    HW228164   3.166   4.140   2.572 -0.0343  0.1025 -0.6741
 5568SOL     OW28165   2.078   0.677   4.540  0.3511 -0.2730 -0.0156
 5568SOL    HW128166   2.046   0.621   4.469  0.1811  0.7155 -0.7163
 5568SOL    HW228167   2.134   0.612   4.583  0.3741  0.0926  0.5048
 5569SOL     OW28168   4.010   1.575  15.376 -0.8239  0.4220  0.1279
 5569SOL    HW128169   4.031   1.547  15.287  0.1358  2.6552 -0.3418
 5569SOL    HW228170   4.094   1.596  15.417 -0.3377 -0.6792 -0.3058
 5570SOL     OW28171   0.272   1.575   8.969  0.0731  0.1035  0.2173
 5570SOL    HW128172   0.311   1.489   8.956 -1.1478 -0.4444  0.1887
 5570SOL    HW228173   0.188   1.550   8.930  0.8540  0.4091 -1.6886
 5571SOL     OW28174   0.065   3.388  13.146  0.4721 -0.4958  0.6708
 5571SOL    HW128175   0.103   3.300  13.151  0.2417 -0.5755  0.9614
 5571SOL    HW228176   0.059   3.406  13.239 -0.7569  0.1921  0.4515
 5572SOL     OW28177   3.351   1.184  12.166  0.1845 -0.1090 -0.3402
 5572SOL    HW128178   3.281   1.236  12.206 -0.7374 -0.5178 -1.4127
 5572SOL    HW228179   3.312   1.097  12.168 -2.2846  1.0555  1.7665
 5573SOL     OW28180   1.210   2.923  10.038 -0.2162  0.2581 -0.0810
 5573SOL    HW128181   1.125   2.940  10.081 -0.9959  0.6055 -1.7477
 5573SOL    HW228182   1.216   2.829  10.025 -0.7992  0.4201 -1.5328
 5574SOL     OW28183   3.789   2.778   3.181  0.3146  0.0383 -1.0754
 5574SOL    HW128184   3.819   2.746   3.096  0.7204 -2.6553  0.0854
 5574SOL    HW228185   3.726   2.845   3.155 -1.0029 -0.7408  0.1357
 5575SOL     OW28186   3.886   1.824   4.722 -0.2228 -0.1753  0.0272
 5575SOL    HW128187   3.958   1.806   4.783 -0.1792 -1.9651 -0.5453
 5575SOL    HW228188   3.870   1.918   4.728 -0.7174 -0.2828  0.4057
 5576SOL     OW28189   4.443   2.997   2.744  0.4101 -0.1435 -0.9407
 5576SOL    HW128190   4.478   2.916   2.780  1.3305  0.4812 -0.4345
 5576SOL    HW228191   4.349   2.981   2.745  0.1487  1.6369  2.7799
 5577SOL     OW28192   3.469   3.097  14.707 -0.2024  0.0431  0.3979
 5577SOL    HW128193   3.452   3.005  14.686 -2.5336  0.6273 -0.2832
 5577SOL    HW228194   3.504   3.092  14.796  0.4951 -1.7280  0.0124
 5578SOL     OW28195   3.209   2.477   6.588  0.2136 -0.1493 -0.7241
 5578SOL    HW128196   3.289   2.520   6.557 -0.3141 -0.7393 -2.9461
 5578SOL    HW228197   3.184   2.412   6.522  0.2605 -2.7995  1.8407
 5579SOL     OW28198   0.186   3.033   5.354  0.6113 -0.4012 -0.5257
 5579SOL    HW128199   0.135   2.966   5.309 -0.2905  0.5416 -0.9027
 5579SOL    HW228200   0.225   3.076   5.278 -2.1214 -0.2040 -1.8249
 5580SOL     OW28201   1.341   3.505   7.083 -0.2529  0.3620 -0.5978
 5580SOL    HW128202   1.428   3.532   7.054  0.5888 -2.1528 -0.4555
 5580SOL    HW228203   1.290   3.506   7.003 -0.4810 -0.2029 -0.4596
 5581SOL     OW28204   3.522   0.379  16.517  0.2599  0.3061 -0.5935
 5581SOL    HW128205   3.496   0.469  16.499 -0.9541  0.1076  0.0994
 5581SOL    HW228206   3.463   0.332  16.458  0.9171 -1.6911  0.3307
 5582SOL     OW28207   2.540   2.748   6.505  0.0374 -0.3725  0.1977
 5582SOL    HW128208   2.459   2.704   6.531 -0.3117  0.2619  0.1791
 5582SOL    HW228209   2.574   2.679   6.448 -0.6329 -0.6896  0.1872
 5583SOL     OW28210   2.592   3.606  17.632 -0.2751 -0.3110  0.3950
 5583SOL    HW128211   2.540   3.571   0.035  2.0945 -2.2390  1.1478
 5583SOL    HW228212   2.572   3.700  17.635  1.5467  0.0674  0.3945
 5584SOL     OW28213   4.508   2.567   4.032  0.4595 -0.7943  0.0991
 5584SOL    HW128214   4.487   2.514   4.108  0.8614 -1.9126 -0.5719
 5584SOL    HW228215   4.482   2.651   4.068 -1.0787 -0.4367 -1.8203
 5585SOL     OW28216   1.811   3.713   8.546  0.0107 -0.5465 -0.0078
 5585SOL    HW128217   1.724   3.689   8.579 -0.6478  0.0384 -1.3415
 5585SOL    HW228218   1.809   3.808   8.546  1.5973 -0.4877  2.9628
 5586SOL     OW28219   3.688   4.595  11.102 -0.1281  0.1755  0.1236
 5586SOL    HW128220   3.610   4.649  11.114 -0.3188  0.1242 -0.8852
 5586SOL    HW228221   3.752   4.664  11.086 -0.2533  0.2310 -0.1381
 5587SOL     OW28222   2.954   4.173   2.274  0.0650  0.2861 -0.4728
 5587SOL    HW128223   2.864   4.140   2.282  0.4036 -0.1577  1.4219
 5587SOL    HW228224   2.948   4.251   2.331 -0.6877  0.8610 -1.3296
 5588SOL     OW28225   4.653   0.926  10.473 -0.5638  0.2982  0.7639
 5588SOL    HW128226   4.594   0.999  10.494  1.4385  1.7367  1.3620
 5588SOL    HW228227   0.000   0.983  10.429 -1.4471  0.6021 -0.1383
 5589SOL     OW28228   1.961   4.299   1.028  0.3785 -0.1863  0.1240
 5589SOL    HW128229   1.946   4.271   1.119 -0.1112 -1.9399 -0.4885
 5589SOL    HW228230   1.944   4.213   0.988 -0.9693  0.6556 -1.1147
 5590SOL     OW28231   0.289   3.797   8.045 -0.1007  0.1458  0.2806
 5590SOL    HW128232   0.362   3.788   7.984  1.5189 -0.4710  2.2919
 5590SOL    HW228233   0.313   3.726   8.105  0.0611 -1.0548 -1.1945
 5591SOL     OW28234   0.733   3.839   1.337 -0.1261  0.2664  0.5035
 5591SOL    HW128235   0.726   3.877   1.249 -1.6388  2.7655  1.7203
 5591SOL    HW228236   0.784   3.759   1.322  0.6223  0.7062  0.6708
 5592SOL     OW28237   3.192   4.370  16.011 -0.4308 -0.1980  0.1013
 5592SOL    HW128238   3.278   4.403  15.984 -1.2959  1.2662 -0.8709
 5592SOL    HW228239   3.132   4.406  15.945  0.0918 -0.4358 -0.4965
 5593SOL     OW28240   1.090   2.655  10.024  0.0397  0.1654  0.2085
 5593SOL    HW128241   1.010   2.706  10.037  1.8375  2.8759  0.6572
 5593SOL    HW228242   1.045   2.578   9.990  0.2083 -0.5064  1.4839
 5594SOL     OW28243   3.161   4.318  11.987 -0.3405  0.3592  0.5092
 5594SOL    HW128244   3.088   4.257  12.001 -0.5069  0.0903 -1.5843
 5594SOL    HW228245   3.141   4.394  12.042  1.0734  1.3108 -0.2916
 5595SOL     OW28246   2.793   1.148   5.924 -0.6058 -0.2983  0.3564
 5595SOL    HW128247   2.784   1.181   5.834 -3.3482  0.8247  1.0437
 5595SOL    HW228248   2.711   1.103   5.941 -1.8486  1.8619  0.0059
 5596SOL     OW28249   0.546   3.504   7.161 -0.0383  0.0358  0.7275
 5596SOL    HW128250   0.592   3.507   7.245  2.3617  1.0383 -0.6148
 5596SOL    HW228251   0.550   3.411   7.139  3.0060  0.7093 -1.5148
 5597SOL     OW28252   2.450   2.760   6.176  0.1789  0.6227  0.0664
 5597SOL    HW128253   2.374   2.726   6.224 -0.8170 -1.0165 -2.6346
 5597SOL    HW228254   2.501   2.684   6.203 -0.8572  0.3781  1.3543
 5598SOL     OW28255   4.713   0.263   9.228  0.6740  0.0847  0.2973
 5598SOL    HW128256   0.084   0.224   9.231  0.4764 -0.3477  0.5261
 5598SOL    HW228257   4.699   0.292   9.318  0.5142 -1.6812  0.8484
 5599SOL     OW28258   2.541   4.224   2.449 -0.2931 -0.4143  0.1335
 5599SOL    HW128259   2.613   4.162   2.434  1.2806  1.2819  0.7081
 5599SOL    HW228260   2.581   4.266   2.524  2.6491 -0.3933 -1.4199
 5600SOL     OW28261   1.863   3.794   4.145 -0.2956  0.4129 -0.5584
 5600SOL    HW128262   1.937   3.821   4.199 -0.6835  2.5966 -1.1361
 5600SOL    HW228263   1.803   3.863   4.174  2.0604  2.0664  0.3768
 5601SOL     OW28264   3.693   2.585   6.437 -0.1609 -0.5478  0.3148
 5601SOL    HW128265   3.766   2.645   6.442 -0.8003  0.1905  0.7359
 5601SOL    HW228266   3.732   2.499   6.418  1.2564  0.2065 -0.1284
 5602SOL     OW28267   1.975   3.088   4.321 -0.0170 -0.1123 -0.2079
 5602SOL    HW128268   1.994   3.114   4.231 -0.0282  1.4386  0.2486
 5602SOL    HW228269   1.881   3.071   4.308 -0.3930  2.6760 -0.9791
 5603SOL     OW28270   0.168   2.331   1.809  0.1667 -0.5072  0.4517
 5603SOL    HW128271   0.219   2.376   1.878  1.4433  1.0863 -1.5299
 5603SOL    HW228272   0.181   2.238   1.826 -0.9340 -1.1945 -2.6190
 5604SOL     OW28273   1.077   3.094   1.458 -0.1505 -0.7757  0.1279
 5604SOL    HW128274   1.114   3.182   1.453  0.2497 -0.9053  0.8583
 5604SOL    HW228275   1.156   3.047   1.433 -0.9364 -0.6961 -2.5107
 5605SOL     OW28276   2.478   3.173   0.690 -0.5795  0.2627 -1.1494
 5605SOL    HW128277   2.408   3.124   0.733  2.4840 -2.9811  0.1862
 5605SOL    HW228278   2.554   3.116   0.702 -1.1558 -0.2135  0.2319
 5606SOL     OW28279   0.624   1.967   2.124  0.5261 -0.3912 -0.6619
 5606SOL    HW128280   0.607   1.980   2.031 -1.9927 -0.3221 -0.1877
 5606SOL    HW228281   0.709   2.011   2.125 -0.3971  1.3594  1.5151
 5607SOL     OW28282   3.113   1.905   3.329 -0.4676  0.3328  0.3580
 5607SOL    HW128283   3.046   1.950   3.278  0.5350  0.8215 -0.5140
 5607SOL    HW228284   3.166   1.860   3.263 -1.9956  0.0884 -0.6835
 5608SOL     OW28285   2.605   1.527   8.024 -1.1749  0.0773 -0.3995
 5608SOL    HW128286   2.654   1.489   8.097 -1.9519 -2.3578 -1.1495
 5608SOL    HW228287   2.633   1.617   8.041 -0.9820 -0.5217  2.3972
 5609SOL     OW28288   1.949   2.144   4.828  0.4331 -0.1729  0.3970
 5609SOL    HW128289   1.971   2.101   4.745 -2.5850  0.3383 -0.6731
 5609SOL    HW228290   1.974   2.230   4.796 -2.9615  1.3819  1.8839
 5610SOL     OW28291   3.246   0.198   3.082  0.2769 -0.0348 -0.0942
 5610SOL    HW128292   3.294   0.271   3.121  2.6775 -1.3846 -0.5101
 5610SOL    HW228293   3.266   0.132   3.149 -3.4572 -1.2903 -0.1912
 5611SOL     OW28294   0.188   3.503   6.428  0.8968  0.3728  0.1432
 5611SOL    HW128295   0.106   3.488   6.475  0.3589  0.3386 -0.8030
 5611SOL    HW228296   0.233   3.551   6.497  0.2440  0.2953  0.6290
 5612SOL     OW28297   1.919   0.849   4.162 -0.6340  0.1428  0.4083
 5612SOL    HW128298   1.862   0.816   4.233 -0.5818 -1.3494 -0.2377
 5612SOL    HW228299   1.957   0.930   4.195  1.2723 -1.1166  1.2956
 5613SOL     OW28300   3.223   1.923   6.033 -0.5421  0.0150  0.4501
 5613SOL    HW128301   3.255   1.901   6.121 -1.7553  0.1517  0.9356
 5613SOL    HW228302   3.215   2.018   6.033 -1.2069 -0.0393 -0.1086
 5614SOL     OW28303   1.230   0.348   2.844  0.2983  0.3016  0.5047
 5614SOL    HW128304   1.277   0.286   2.900  0.3236 -0.1869 -0.0567
 5614SOL    HW228305   1.287   0.357   2.767 -0.5826  1.4088 -0.0188
 5615SOL     OW28306   2.292   0.141   5.118 -0.1414 -0.0128  0.3264
 5615SOL    HW128307   2.270   0.177   5.204  1.7505 -1.4244  1.3897
 5615SOL    HW228308   2.207   0.123   5.077  0.3142  2.8694 -1.9193
 5616SOL     OW28309   0.962   0.246   5.523 -0.2921 -0.6889 -0.0336
 5616SOL    HW128310   1.004   0.247   5.609  0.7170  0.8259 -0.5483
 5616SOL    HW228311   0.898   0.177   5.537 -1.6689  0.4922 -0.5000
 5617SOL     OW28312   3.823   4.226   8.566  0.0755  0.1791  0.7775
 5617SOL    HW128313   3.887   4.157   8.582 -1.5597 -1.6070 -0.3867
 5617SOL    HW228314   3.870   4.307   8.582 -1.0113  1.1888 -1.1113
 5618SOL     OW28315   3.548   0.150   7.453 -0.0569 -0.8087 -0.2384
 5618SOL    HW128316   3.511   0.102   7.528 -0.3813 -0.1297  0.0394
 5618SOL    HW228317   3.486   0.218   7.427  2.8379  1.7015 -0.6016
 5619SOL     OW28318   2.310   2.803   0.727 -0.0839  0.3154 -0.4726
 5619SOL    HW128319   2.307   2.898   0.736 -1.5600  0.1957  0.2472
 5619SOL    HW228320   2.279   2.783   0.816  2.4524 -1.6074  0.0053
 5620SOL     OW28321   1.871   0.274   7.695 -0.1437  0.7783  0.9556
 5620SOL    HW128322   1.907   0.260   7.607 -1.0867  2.1609  0.3503
 5620SOL    HW228323   1.915   0.352   7.727  0.0911  0.5089  1.2845
 5621SOL     OW28324   3.945   1.777   1.318  0.5683 -0.0219 -0.4485
 5621SOL    HW128325   3.883   1.815   1.380  1.7407  0.7605  0.2516
 5621SOL    HW228326   3.971   1.692   1.355  0.6723  0.9427  1.7316
 5622SOL     OW28327   2.238   4.340   9.053  0.6224  0.8382 -0.3161
 5622SOL    HW128328   2.213   4.386   9.133 -0.4322 -1.8744  0.9220
 5622SOL    HW228329   2.327   4.317   9.080  0.2653  1.0968  1.0892
 5623SOL     OW28330   0.403   4.674   8.360  0.4353  0.0348  0.0409
 5623SOL    HW128331   0.394   4.705   8.270 -0.3141  1.5392  0.6386
 5623SOL    HW228332   0.457   0.026   8.400  1.3509 -0.3471 -0.5267
 5624SOL     OW28333   4.467   1.233   5.861 -0.5737  0.0109 -0.6804
 5624SOL    HW128334   4.525   1.158   5.871 -1.6323 -0.7601 -0.3190
 5624SOL    HW228335   4.521   1.311   5.844 -0.5529  0.0375 -0.4869
 5625SOL     OW28336   0.457   4.034   1.615  0.2014 -0.0947 -0.2348
 5625SOL    HW128337   0.416   3.948   1.630 -1.4257  0.5654 -0.8836
 5625SOL    HW228338   0.388   4.074   1.562  0.5122 -1.6639 -1.8315
 5626SOL     OW28339   0.977   2.995   8.428 -0.2887 -0.5524 -0.1105
 5626SOL    HW128340   0.883   2.986   8.445 -0.6167 -2.2329 -2.6475
 5626SOL    HW228341   0.997   3.052   8.502 -0.2161  0.6953 -1.1030
 5627SOL     OW28342   1.897   3.158   1.208 -0.0856 -0.2854  0.0566
 5627SOL    HW128343   1.900   3.149   1.113  1.4670 -1.0832  0.1771
 5627SOL    HW228344   1.961   3.091   1.232 -0.1213 -0.2247  0.3169
 5628SOL     OW28345   1.061   2.733   9.165  0.0690  1.0155 -0.2116
 5628SOL    HW128346   0.984   2.686   9.133  0.9771  1.5380 -3.1303
 5628SOL    HW228347   1.101   2.766   9.085  0.1409 -0.6511 -0.8580
 5629SOL     OW28348   3.334   1.593   3.028 -0.0608  0.2657 -0.0189
 5629SOL    HW128349   3.428   1.593   3.045 -0.0983 -3.6965  0.1783
 5629SOL    HW228350   3.296   1.663   3.082 -1.1839 -0.4058  0.0601
 5630SOL     OW28351   3.704   3.111   3.734  0.0882  0.2717  0.6199
 5630SOL    HW128352   3.722   3.095   3.826  1.9675  0.8466  0.3632
 5630SOL    HW228353   3.778   3.062   3.698  0.4656  1.4182 -0.1953
 5631SOL     OW28354   1.428   2.533   2.209  0.4720  0.4257  0.3664
 5631SOL    HW128355   1.479   2.454   2.195  2.1397  1.8661 -1.6455
 5631SOL    HW228356   1.431   2.576   2.124 -1.0503 -0.4394 -0.1190
 5632SOL     OW28357   0.811   4.711  11.002  0.0621 -0.5964  0.3071
 5632SOL    HW128358   0.847   4.683  11.087 -1.0249  0.9253  1.2648
 5632SOL    HW228359   0.880   4.686  10.941 -1.7476 -2.7993 -0.8820
 5633SOL     OW28360   3.664   0.736   1.489 -0.0209 -0.2769  0.0510
 5633SOL    HW128361   3.591   0.796   1.500 -0.5377 -0.8382 -0.3151
 5633SOL    HW228362   3.733   0.790   1.528 -0.6337  0.4862  0.0961
 5634SOL     OW28363   2.051   4.441   3.766 -0.0208 -0.3251 -0.2007
 5634SOL    HW128364   2.058   4.428   3.672 -1.3683  0.0723 -0.3581
 5634SOL    HW228365   2.033   4.535   3.762  0.0315 -0.1783  2.5290
 5635SOL     OW28366   3.224   2.530   2.910 -0.2396  0.0659 -0.0900
 5635SOL    HW128367   3.274   2.465   2.862 -0.7824 -0.6793  0.3512
 5635SOL    HW228368   3.135   2.513   2.878  0.2983 -1.8991 -0.5260
 5636SOL     OW28369   1.300   0.435   3.451  0.3654  0.0734  0.0114
 5636SOL    HW128370   1.242   0.360   3.438  0.1399 -0.3444  3.3045
 5636SOL    HW228371   1.358   0.397   3.518  0.6300  1.7590  0.7351
 5637SOL     OW28372   2.735   2.339   5.968  0.5562  0.9568  0.2903
 5637SOL    HW128373   2.706   2.274   6.033 -0.9233  0.5604 -0.7676
 5637SOL    HW228374   2.650   2.380   5.955 -0.7261 -1.4397  1.0971
 5638SOL     OW28375   2.112   1.246  13.193  0.1046 -0.0868  0.2163
 5638SOL    HW128376   2.078   1.325  13.152 -0.5830 -0.3609  0.2558
 5638SOL    HW228377   2.096   1.266  13.285  1.1032 -0.0544  0.3816
 5639SOL     OW28378   2.162   2.655   7.044 -0.1804  0.2243  0.3047
 5639SOL    HW128379   2.213   2.713   7.101  2.6659 -0.4486 -1.5518
 5639SOL    HW228380   2.105   2.606   7.103 -1.5096  0.0927 -1.0778
 5640SOL     OW28381   2.815   1.165  16.093 -0.3852 -0.4667  0.1289
 5640SOL    HW128382   2.892   1.177  16.148 -0.6065 -0.8364  0.5163
 5640SOL    HW228383   2.795   1.072  16.089  1.0424 -0.8511  1.8806
 5641SOL     OW28384   3.758   3.678   5.204 -0.1038 -0.1061  0.0193
 5641SOL    HW128385   3.678   3.721   5.233  0.0150  1.2615 -1.6341
 5641SOL    HW228386   3.803   3.749   5.157 -0.6956 -0.4868 -1.1202
 5642SOL     OW28387   4.431   4.708   3.930 -0.0061 -0.1842  0.2202
 5642SOL    HW128388   4.486   0.041   3.991 -0.4435  0.5262  0.0356
 5642SOL    HW228389   4.350   0.041   3.931 -0.4945 -0.9364 -1.1495
 5643SOL     OW28390   3.039   2.767  10.523 -0.0987 -0.3261 -0.3522
 5643SOL    HW128391   3.103   2.836  10.538 -1.4709  1.0756 -0.9019
 5643SOL    HW228392   3.074   2.692  10.572  1.1109  0.6048  0.2060
 5644SOL     OW28393   0.088   3.478   9.356  0.2713 -0.0192 -0.2580
 5644SOL    HW128394   0.095   3.392   9.313  1.7613  0.5974 -1.2358
 5644SOL    HW228395   4.715   3.503   9.335 -0.2511  0.2795  2.2715
 5645SOL     OW28396   2.742   2.503   7.100  0.6492  0.0606 -0.0820
 5645SOL    HW128397   2.793   2.523   7.178  1.3793 -2.2223  0.0139
 5645SOL    HW228398   2.806   2.521   7.031  0.5575 -2.9012 -0.9388
 5646SOL     OW28399   4.650   3.487   1.419 -0.1995  0.2022  0.1824
 5646SOL    HW128400   4.626   3.557   1.358  2.0698  1.8569  1.1807
 5646SOL    HW228401   4.572   3.439   1.447 -0.1765  1.0726  1.7849
 5647SOL     OW28402   0.527   3.866   7.125 -0.4137  0.9096  0.0739
 5647SOL    HW128403   0.606   3.834   7.168  1.0396  3.3750 -0.8006
 5647SOL    HW228404   0.574   3.921   7.063  2.7235 -1.0908  0.6826
 5648SOL     OW28405   2.540   0.164  17.147  0.2833 -0.5052 -0.0235
 5648SOL    HW128406   2.465   0.213  17.181  0.4916 -0.8579  0.9298
 5648SOL    HW228407   2.504   0.075  17.152  0.7361 -0.5971  1.5354
 5649SOL     OW28408   0.148   2.819   2.811  0.6999 -0.1364  0.2071
 5649SOL    HW128409   0.209   2.758   2.851 -0.6497 -1.5629  0.1263
 5649SOL    HW228410   0.193   2.901   2.826 -3.1293  1.7885  1.2995
 5650SOL     OW28411   3.763   0.525   8.925  0.4242 -0.6088  0.4466
 5650SOL    HW128412   3.829   0.463   8.957  0.2355 -0.9674  0.1327
 5650SOL    HW228413   3.693   0.465   8.900 -1.0746  1.0729  0.6502
 5651SOL     OW28414   4.454   0.246  17.460  0.1773 -0.4619 -0.4094
 5651SOL    HW128415   4.392   0.191  17.509 -0.0129  0.0891 -0.0312
 5651SOL    HW228416   4.522   0.184  17.434  0.7084 -0.2824  0.5494
 5652SOL     OW28417   0.606   4.109   3.024 -0.4640 -0.3706  0.4346
 5652SOL    HW128418   0.517   4.086   3.049 -1.3635  0.4201 -2.0379
 5652SOL    HW228419   0.594   4.182   2.964 -0.2173 -1.4967 -0.9843
 5653SOL     OW28420   0.744   2.441  10.116 -0.5917 -0.1171  0.3034
 5653SOL    HW128421   0.670   2.501  10.121 -0.5791 -0.1880  1.4671
 5653SOL    HW228422   0.773   2.442  10.208 -0.0714  0.4762  0.1329
 5654SOL     OW28423   0.881   0.703  17.128 -0.8573  0.2855 -0.1694
 5654SOL    HW128424   0.907   0.757  17.203 -0.7747  0.0761 -0.0467
 5654SOL    HW228425   0.912   0.622  17.169 -1.4513  0.4762  0.6688
 5655SOL     OW28426   0.710   3.586   3.961 -0.1130  0.2007 -0.5069
 5655SOL    HW128427   0.735   3.677   3.950  0.8581 -0.1150 -0.8963
 5655SOL    HW228428   0.668   3.583   4.047  1.4622 -0.5050  0.2470
 5656SOL     OW28429   3.747   3.122   2.808  0.5171  0.3869  0.6618
 5656SOL    HW128430   3.658   3.122   2.773 -0.0029 -0.9654  1.9725
 5656SOL    HW228431   3.739   3.193   2.871 -1.8334  2.2650 -1.7200
 5657SOL     OW28432   4.577   2.811   5.073  0.2537  0.3594  0.1427
 5657SOL    HW128433   4.583   2.786   4.981 -0.7782  0.3385  0.0875
 5657SOL    HW228434   4.492   2.854   5.079 -1.1387 -1.9797 -2.8259
 5658SOL     OW28435   2.851   2.791   5.062 -0.0316  0.1397  0.3732
 5658SOL    HW128436   2.888   2.879   5.078 -1.2989  1.0036 -1.4502
 5658SOL    HW228437   2.775   2.811   5.008 -0.8789  1.1648  1.9540
 5659SOL     OW28438   4.025   2.422   1.117 -0.3646 -0.2687  0.0584
 5659SOL    HW128439   3.949   2.407   1.174 -0.2500 -0.4069  0.1745
 5659SOL    HW228440   4.091   2.371   1.164  0.3816  2.5633  2.1037
 5660SOL     OW28441   3.303   2.140   1.023  0.0355  0.1939 -0.0461
 5660SOL    HW128442   3.227   2.110   1.074  0.4919  2.4248  1.9661
 5660SOL    HW228443   3.268   2.163   0.937  0.1423  0.3344 -0.0521
 5661SOL     OW28444   0.976   0.196  12.141  0.2268  0.5891 -0.5867
 5661SOL    HW128445   0.967   0.264  12.074 -0.0886 -1.5880 -2.7778
 5661SOL    HW228446   1.050   0.221  12.196 -0.0312 -1.2507  0.5828
 5662SOL     OW28447   2.756   2.589   5.260 -0.2493 -0.1909 -0.3580
 5662SOL    HW128448   2.711   2.524   5.206  2.2091 -2.6316  0.5505
 5662SOL    HW228449   2.775   2.660   5.199 -1.4091  0.0945 -0.4029
 5663SOL     OW28450   4.206   0.128   6.386 -0.0473  0.4833 -0.2576
 5663SOL    HW128451   4.134   0.135   6.449  2.4487  0.6092  2.5769
 5663SOL    HW228452   4.236   0.040   6.406 -1.6747 -0.3454 -1.5054
 5664SOL     OW28453   1.772   3.926  11.885  0.9604 -0.1709 -0.3233
 5664SOL    HW128454   1.688   3.953  11.923 -0.3045 -1.3261 -2.3438
 5664SOL    HW228455   1.760   3.980  11.807  0.9977  0.7203  0.2731
 5665SOL     OW28456   0.787   2.578   4.206 -0.5788  0.4653 -0.7795
 5665SOL    HW128457   0.782   2.530   4.123  1.4716  0.3725 -0.8565
 5665SOL    HW228458   0.735   2.525   4.266 -1.8403  1.6462 -0.8422
 5666SOL     OW28459   0.731   4.208   3.500 -0.8042  0.4100 -0.2843
 5666SOL    HW128460   0.696   4.205   3.411  1.6330  2.4838 -1.3068
 5666SOL    HW228461   0.656   4.211   3.559  0.2997 -1.7406  1.2391
 5667SOL     OW28462   1.728   0.861   3.871 -0.3538  0.4847  0.1547
 5667SOL    HW128463   1.711   0.946   3.913 -2.2680  0.1255  0.1123
 5667SOL    HW228464   1.685   0.878   3.787 -1.3068 -1.3259  0.2859
 5668SOL     OW28465   2.947   1.723  13.166 -0.0129 -0.4547 -0.3722
 5668SOL    HW128466   2.929   1.814  13.142 -0.2292 -0.5002 -0.3832
 5668SOL    HW228467   3.016   1.730  13.232  1.0499  1.3280 -1.6957
 5669SOL     OW28468   2.594   1.580   9.500  0.2528 -0.1284  0.1285
 5669SOL    HW128469   2.662   1.607   9.562 -0.3729 -0.1293  0.8247
 5669SOL    HW228470   2.639   1.518   9.442  1.6292  0.8623  0.1490
 5670SOL     OW28471   3.746   0.985   1.868  0.0245  0.4970 -0.2112
 5670SOL    HW128472   3.834   0.954   1.851  0.5343  1.0130  1.4919
 5670SOL    HW228473   3.726   1.005   1.776 -1.8931 -0.4896 -0.0076
 5671SOL     OW28474   4.120   3.184   7.890  0.1711 -0.1196  0.2187
 5671SOL    HW128475   4.060   3.111   7.874  0.7397 -0.3531 -0.8531
 5671SOL    HW228476   4.072   3.211   7.968  2.0720  1.3977  0.8617
 5672SOL     OW28477   4.161   1.473   3.214  1.0308 -0.0323  0.0196
 5672SOL    HW128478   4.162   1.551   3.158  2.3252  0.8046  1.2180
 5672SOL    HW228479   4.071   1.469   3.247 -0.2688 -0.4734 -3.5030
 5673SOL     OW28480   0.051   0.729   6.868 -0.0767  0.5177  0.7753
 5673SOL    HW128481   0.094   0.765   6.945 -2.7203  0.1749  2.4192
 5673SOL    HW228482   0.119   0.675   6.827 -0.7598 -0.7758  1.3361
 5674SOL     OW28483   1.713   1.947  13.005 -0.2451 -0.0490 -0.3465
 5674SOL    HW128484   1.724   1.879  13.072  0.8801 -0.6608 -1.1559
 5674SOL    HW228485   1.787   2.005  13.022  0.7477 -1.2414 -0.5524
 5675SOL     OW28486   3.778   2.892   7.524 -0.0563 -0.0131 -0.2303
 5675SOL    HW128487   3.695   2.923   7.561 -0.2826  1.1110 -1.6951
 5675SOL    HW228488   3.763   2.897   7.430  1.4859  0.8161 -0.4229
 5676SOL     OW28489   0.717   2.750   1.736  0.1913  0.0839  0.1672
 5676SOL    HW128490   0.740   2.666   1.697  0.6073 -1.0005  2.7697
 5676SOL    HW228491   0.622   2.747   1.741  0.1021 -1.7688 -2.9781
 5677SOL     OW28492   3.475   2.480   2.688  0.5689 -0.4263 -0.4965
 5677SOL    HW128493   3.398   2.504   2.637  0.1468 -1.0322 -0.1354
 5677SOL    HW228494   3.452   2.389   2.709 -0.6413 -0.4062 -1.7248
 5678SOL     OW28495   2.818   2.049   7.031  0.3767  0.2583  0.1454
 5678SOL    HW128496   2.722   2.053   7.028  0.4530  0.9208 -1.3202
 5678SOL    HW228497   2.837   1.962   7.065 -6.2041 -0.4227  2.0456
 5679SOL     OW28498   0.970   3.838  16.641 -0.2213  0.3109 -0.7731
 5679SOL    HW128499   0.913   3.882  16.577  1.1191  1.2284 -1.3245
 5679SOL    HW228500   1.031   3.794  16.582  2.3034  0.5285  1.6910
 5680SOL     OW28501   1.021   0.097   4.572  0.5429 -0.3815  0.4473
 5680SOL    HW128502   1.008   0.191   4.562  0.0346 -0.4734  0.2402
 5680SOL    HW228503   0.948   0.066   4.518  0.2846 -0.9000  1.0958
 5681SOL     OW28504   2.940   2.520  16.446  0.7554 -0.3287 -0.3701
 5681SOL    HW128505   2.989   2.574  16.508 -0.1797  2.2854 -1.9092
 5681SOL    HW228506   2.867   2.502  16.506  0.4442 -0.2167 -0.7233
 5682SOL     OW28507   0.386   1.965   9.717 -0.2513  0.2614 -0.1753
 5682SOL    HW128508   0.466   1.983   9.767 -0.6967 -0.8537  0.9607
 5682SOL    HW228509   0.324   2.015   9.770  1.1166 -3.4913  5.0036
 5683SOL     OW28510   2.678   3.209   9.818  0.4895 -0.4514 -0.0143
 5683SOL    HW128511   2.703   3.235   9.907 -0.5697  2.9423 -0.7170
 5683SOL    HW228512   2.756   3.165   9.785  0.6872 -0.6973  0.7929
 5684SOL     OW28513   0.019   2.822   2.522  0.6445 -0.8414  0.8173
 5684SOL    HW128514   0.045   2.913   2.535 -0.3454 -0.5731  0.8939
 5684SOL    HW228515   4.701   2.794   2.607 -0.0698 -0.4592  0.6527
 5685SOL     OW28516   1.316   1.147   6.760  0.0153  0.6257 -0.3538
 5685SOL    HW128517   1.345   1.068   6.713  0.1445 -0.4859  1.6228
 5685SOL    HW228518   1.398   1.167   6.806  0.3946 -0.1970 -0.6688
 5686SOL     OW28519   2.428   0.418   1.189  0.9835  0.2538 -0.5323
 5686SOL    HW128520   2.394   0.503   1.162  0.0767 -0.1832 -0.7993
 5686SOL    HW228521   2.520   0.440   1.203  0.1896  2.4069  1.2384
 5687SOL     OW28522   2.505   0.308  12.677  0.0764 -0.0380  0.0208
 5687SOL    HW128523   2.455   0.343  12.752  0.7142  1.8749 -0.4568
 5687SOL    HW228524   2.590   0.344  12.699  0.6749  0.1099 -2.6301
 5688SOL     OW28525   4.431   2.250   9.072 -0.2754 -0.1429  0.3344
 5688SOL    HW128526   4.479   2.170   9.048 -1.0775 -0.1258 -1.2899
 5688SOL    HW228527   4.368   2.238   9.002  3.4438  0.8888 -3.2280
 5689SOL     OW28528   2.118   1.839   3.331  0.1464  0.5180  0.1859
 5689SOL    HW128529   2.171   1.767   3.295 -0.8366  0.9314 -2.0990
 5689SOL    HW228530   2.066   1.860   3.253  0.7655 -4.6257 -1.6348
 5690SOL     OW28531   0.618   0.473  17.436 -0.4041  0.5997 -0.3130
 5690SOL    HW128532   0.541   0.500  17.485  0.8845  3.1156  0.3333
 5690SOL    HW228533   0.605   0.503  17.346  0.8921 -0.9526 -1.0127
 5691SOL     OW28534   3.695   0.262   7.724  0.1808  0.2134  0.5172
 5691SOL    HW128535   3.719   0.172   7.701  1.9477  1.1865 -1.4002
 5691SOL    HW228536   3.715   0.302   7.640 -0.9712  0.0904  0.1815
 5692SOL     OW28537   1.011   3.070   4.185  0.1125  0.0505  0.7489
 5692SOL    HW128538   0.942   3.003   4.190 -1.6078  1.8051  0.7794
 5692SOL    HW228539   1.068   3.044   4.257  0.7574 -1.0603 -0.1609
 5693SOL     OW28540   1.282   3.348   4.835  0.3247  0.4117  0.2715
 5693SOL    HW128541   1.246   3.289   4.769 -2.4096  1.8651  0.4587
 5693SOL    HW228542   1.300   3.421   4.776  0.8889 -0.5413 -0.7366
 5694SOL     OW28543   0.909   1.225   6.977  0.0185  0.4211  0.6214
 5694SOL    HW128544   0.878   1.316   6.970  0.6009  0.7057  1.7538
 5694SOL    HW228545   0.917   1.196   6.886  0.7177  1.3743  0.3764
 5695SOL     OW28546   1.904   1.221   2.661 -0.6144  0.4452 -0.4090
 5695SOL    HW128547   1.832   1.274   2.694  0.0048  1.2764 -0.3902
 5695SOL    HW228548   1.861   1.137   2.671  0.9330 -0.2116  0.7530
 5696SOL     OW28549   3.481   4.062  10.347 -0.2585 -1.1053 -0.5039
 5696SOL    HW128550   3.507   3.971  10.338 -0.2769 -1.1962  0.3106
 5696SOL    HW228551   3.567   4.094  10.374  0.2406 -0.7678 -2.5235
 5697SOL     OW28552   2.923   2.119   4.920 -0.3285  0.0225 -0.0472
 5697SOL    HW128553   3.007   2.075   4.906 -0.0763 -0.3050  2.3940
 5697SOL    HW228554   2.948   2.210   4.908 -0.5512  0.0761 -0.1010
 5698SOL     OW28555   4.162   2.459   3.514 -0.2626  0.5294 -0.8956
 5698SOL    HW128556   4.205   2.476   3.598 -1.2472 -3.3872  0.4301
 5698SOL    HW228557   4.117   2.542   3.498 -1.5733  0.1543  0.7313
 5699SOL     OW28558   2.544   0.142   5.543 -0.2650 -0.6991  0.2362
 5699SOL    HW128559   2.491   0.196   5.484 -0.5047 -1.5939 -0.3771
 5699SOL    HW228560   2.632   0.172   5.519  0.1801 -1.7725  0.5426
 5700SOL     OW28561   4.176   4.558   3.520  0.1755  0.1645  0.3258
 5700SOL    HW128562   4.172   4.471   3.559  2.6077 -0.1857 -0.2367
 5700SOL    HW228563   4.083   4.583   3.519  0.3098  0.6675  0.1770
 5701SOL     OW28564   1.612   2.767  10.465 -0.3761  0.2286 -1.0703
 5701SOL    HW128565   1.532   2.716  10.473 -0.5676  0.6048 -0.5718
 5701SOL    HW228566   1.585   2.839  10.523 -3.0474 -2.2075  0.6858
 5702SOL     OW28567   4.143   0.077   1.299  0.0323  0.7518 -0.2305
 5702SOL    HW128568   4.085   0.085   1.224 -2.7002 -2.7234  1.4996
 5702SOL    HW228569   4.226   0.089   1.253 -0.0261  1.0960 -0.2410
 5703SOL     OW28570   1.773   4.369   8.861 -0.3828 -0.5300  0.2678
 5703SOL    HW128571   1.680   4.384   8.842 -0.6092 -1.0256  1.0045
 5703SOL    HW228572   1.784   4.399   8.951 -0.8700 -0.0159  0.1553
 5704SOL     OW28573   2.445   4.703   7.371  0.6233 -0.0239 -0.1426
 5704SOL    HW128574   2.420   0.078   7.365  0.4486  0.0245  1.3985
 5704SOL    HW228575   2.522   4.710   7.428  0.2765 -0.5957  0.3976
 5705SOL     OW28576   4.021   2.908   1.833 -0.0104  0.0617  0.1582
 5705SOL    HW128577   4.059   2.992   1.808 -1.2090  0.4886 -0.2076
 5705SOL    HW228578   3.951   2.911   1.768 -0.7023 -2.4483  0.7763
 5706SOL     OW28579   2.906   4.201   8.437  0.2676  0.0242 -0.4819
 5706SOL    HW128580   2.833   4.216   8.496  0.3747 -0.6147 -0.1876
 5706SOL    HW228581   2.873   4.131   8.380  1.1350 -0.7763 -0.0092
 5707SOL     OW28582   0.533   0.948  13.192 -0.3994 -0.1088  0.4248
 5707SOL    HW128583   0.550   0.950  13.097  0.2818  1.5470  0.5728
 5707SOL    HW228584   0.470   0.877  13.198  1.1269 -1.4199  0.7598
 5708SOL     OW28585   1.352   1.864   3.702  0.1159 -0.0906 -0.2454
 5708SOL    HW128586   1.436   1.906   3.717 -0.0628 -1.3835  4.4012
 5708SOL    HW228587   1.375   1.775   3.676 -0.6474 -0.4632  0.3660
 5709SOL     OW28588   1.965   3.085   6.976 -1.5104  0.1273 -0.1480
 5709SOL    HW128589   1.994   3.161   7.028  1.0273 -0.0464 -1.2807
 5709SOL    HW228590   2.045   3.035   6.959 -1.8519 -0.6839  0.6092
 5710SOL     OW28591   3.838   0.904   4.337  0.2700 -0.1361 -0.0296
 5710SOL    HW128592   3.772   0.948   4.285  1.0661  0.7172 -0.3274
 5710SOL    HW228593   3.880   0.842   4.278  1.1352  2.0310 -1.6592
 5711SOL     OW28594   0.444   1.785  15.910  0.4381  0.1068  0.2610
 5711SOL    HW128595   0.446   1.850  15.841  1.3103 -2.8469 -2.4976
 5711SOL    HW228596   0.531   1.788  15.951 -0.0635 -1.4344  1.4628
 5712SOL     OW28597   3.994   1.723   8.696  0.5705 -0.4278  0.1884
 5712SOL    HW128598   4.045   1.700   8.773  1.3596 -0.5353 -0.3669
 5712SOL    HW228599   3.927   1.782   8.730  1.2328  0.6079 -0.3022
 5713SOL     OW28600   3.539   4.173   3.152  0.4198  0.1840  0.4413
 5713SOL    HW128601   3.576   4.160   3.064 -0.6556  0.4820 -0.0533
 5713SOL    HW228602   3.482   4.097   3.154  0.2065  0.3623  0.9668
 5714SOL     OW28603   1.837   0.521  13.035  0.1706 -0.1910 -0.1146
 5714SOL    HW128604   1.913   0.475  13.000 -0.3741 -1.9295  0.9725
 5714SOL    HW228605   1.851   0.603  12.988  2.6875 -1.3174 -1.3387
 5715SOL     OW28606   4.372   0.868   6.670 -0.6998 -0.4082  0.6224
 5715SOL    HW128607   4.343   0.806   6.736 -1.3312  0.0932  0.8199
 5715SOL    HW228608   4.330   0.947   6.704 -2.5720 -0.2153 -2.0912
 5716SOL     OW28609   1.605   3.885   9.689  1.0057  0.1737 -0.2684
 5716SOL    HW128610   1.532   3.921   9.639  0.3996 -0.5202  0.1166
 5716SOL    HW228611   1.593   3.793   9.668 -2.5030  0.8769 -1.1933
 5717SOL     OW28612   2.455   1.900   1.101  0.7910  0.2116  0.1186
 5717SOL    HW128613   2.397   1.838   1.145  1.0502 -0.5145 -0.5629
 5717SOL    HW228614   2.521   1.925   1.166 -1.0838  0.8442  1.7844
 5718SOL     OW28615   2.637   4.388   4.123  0.1027  0.3347 -0.3586
 5718SOL    HW128616   2.662   4.474   4.157  0.4616 -0.6899  1.9854
 5718SOL    HW228617   2.668   4.394   4.032 -1.4268 -3.5096 -1.1242
 5719SOL     OW28618   0.949   0.043   5.933  0.0119  0.4397  0.7809
 5719SOL    HW128619   1.002   0.086   5.866  1.0473 -1.4228  0.3974
 5719SOL    HW228620   0.925   0.120   5.984 -0.5642  1.9636 -1.7830
 5720SOL     OW28621   2.495   0.671   2.989 -0.3292 -0.0718  0.0526
 5720SOL    HW128622   2.568   0.732   2.977 -0.3844 -0.0379 -0.1154
 5720SOL    HW228623   2.424   0.734   2.999  0.6827  1.2709 -1.2227
 5721SOL     OW28624   4.052   0.997   2.852 -0.4510  0.1377  0.0567
 5721SOL    HW128625   4.024   0.937   2.783  0.8648  0.7949 -1.0540
 5721SOL    HW228626   3.975   0.990   2.908 -0.4482  0.2036  0.0688
 5722SOL     OW28627   0.324   2.076   6.230 -0.5698 -0.2966  0.3457
 5722SOL    HW128628   0.418   2.086   6.219 -0.7193  3.3798  2.1117
 5722SOL    HW228629   0.304   2.162   6.268 -2.2242 -1.4816  2.1338
 5723SOL     OW28630   3.080   3.413   5.282  0.9426  0.6789  0.1883
 5723SOL    HW128631   3.033   3.492   5.257  1.0323  0.1082 -1.7973
 5723SOL    HW228632   3.125   3.403   5.198 -0.6435 -0.3153 -0.5345
 5724SOL     OW28633   2.968   1.553  17.568 -0.3466  0.2981 -0.3386
 5724SOL    HW128634   2.905   1.546  17.496  2.1838 -0.7454 -2.4392
 5724SOL    HW228635   2.955   1.467  17.606 -0.4980  0.6105  0.3049
 5725SOL     OW28636   3.578   2.168   0.556  0.3409 -0.2760 -0.5863
 5725SOL    HW128637   3.582   2.073   0.558  0.5457 -0.2454  0.2800
 5725SOL    HW228638   3.565   2.188   0.649  1.9568 -2.1175  0.0176
 5726SOL     OW28639   4.278   1.020   2.157  0.2080  0.8641  0.3995
 5726SOL    HW128640   4.338   1.095   2.153  0.5678  0.7224  3.4739
 5726SOL    HW228641   4.345   0.952   2.153 -0.7636  0.0398 -2.2462
 5727SOL     OW28642   1.370   0.543   2.411  0.8460 -0.1390  0.5299
 5727SOL    HW128643   1.360   0.561   2.318  1.0895  1.6320  0.8292
 5727SOL    HW228644   1.342   0.452   2.420  0.7640 -0.1410  0.2620
 5728SOL     OW28645   1.570   1.125   2.413  0.1342 -0.2991 -0.6717
 5728SOL    HW128646   1.594   1.063   2.482 -1.4459  1.1371  1.1898
 5728SOL    HW228647   1.517   1.182   2.469 -0.9129 -0.8505 -1.0989
 5729SOL     OW28648   3.965   1.489   7.658  0.4071 -0.1982  0.5422
 5729SOL    HW128649   3.979   1.582   7.645  2.3707 -0.5072  0.4314
 5729SOL    HW228650   3.883   1.488   7.707 -0.1294  0.4444 -0.3421
 5730SOL     OW28651   0.697   1.741   6.956  0.2413  0.7714 -0.2184
 5730SOL    HW128652   0.666   1.749   7.046 -0.0309 -0.7869 -0.1764
 5730SOL    HW228653   0.621   1.779   6.911 -2.3595 -3.1413  0.9510
 5731SOL     OW28654   4.540   1.515   7.535  0.3700 -0.1394 -0.0450
 5731SOL    HW128655   4.579   1.490   7.618  2.2719  2.0761 -0.2620
 5731SOL    HW228656   4.573   1.446   7.477 -2.3567 -2.5069  1.2672
 5732SOL     OW28657   4.415   1.262   4.100 -0.1844 -0.1379 -0.0686
 5732SOL    HW128658   4.345   1.296   4.156  0.4601  1.1981 -0.0660
 5732SOL    HW228659   4.387   1.295   4.015  0.0839 -0.8067 -0.4146
 5733SOL     OW28660   2.369   3.742   6.124  0.0580  0.2561 -0.0999
 5733SOL    HW128661   2.355   3.742   6.219  2.6506  0.7023  0.2778
 5733SOL    HW228662   2.279   3.712   6.111  0.2555 -0.8505  1.0217
 5734SOL     OW28663   3.005   3.336   2.865  0.2614  0.0300 -0.0619
 5734SOL    HW128664   2.965   3.422   2.880  0.9678  0.2875  0.3594
 5734SOL    HW228665   2.982   3.326   2.772 -1.9758  2.6032  0.1888
 5735SOL     OW28666   0.288   2.525   5.694  0.4286  0.0519  0.1062
 5735SOL    HW128667   0.378   2.555   5.709  0.0808  1.0886  0.1056
 5735SOL    HW228668   0.283   2.549   5.601 -1.3373 -4.1855 -0.8690
 5736SOL     OW28669   0.640   0.367  12.721  0.2580  0.5692  0.0637
 5736SOL    HW128670   0.654   0.294  12.780 -1.6865  1.1408  1.2491
 5736SOL    HW228671   0.594   0.322  12.650  0.4654 -0.8031  0.7977
 5737SOL     OW28672   2.557   0.616  17.212 -0.5880 -0.1416 -0.3483
 5737SOL    HW128673   2.487   0.592  17.151 -0.9540 -0.9141  0.3758
 5737SOL    HW228674   2.579   0.704  17.180 -1.1166 -0.6045 -2.0131
 5738SOL     OW28675   0.240   1.240   5.905  0.1088 -0.4109  0.0126
 5738SOL    HW128676   0.184   1.267   5.978 -0.5729 -0.7392 -0.3813
 5738SOL    HW228677   0.286   1.316   5.870  0.3857 -1.3806 -1.7498
 5739SOL     OW28678   0.068   0.679  15.381 -0.0485 -0.2100 -0.1178
 5739SOL    HW128679   4.699   0.668  15.341  1.0874 -2.2509 -1.9641
 5739SOL    HW228680   0.073   0.609  15.446  0.6795  0.4579  0.5546
 5740SOL     OW28681   2.789   4.013   6.764 -0.6946 -0.1239 -0.9277
 5740SOL    HW128682   2.853   3.967   6.818 -2.3122 -0.9039  0.3026
 5740SOL    HW228683   2.798   3.962   6.684 -1.5011 -1.5027 -0.1291
 5741SOL     OW28684   2.587   0.788  13.731 -0.2755 -0.1864 -0.2610
 5741SOL    HW128685   2.669   0.812  13.690 -1.0596  2.9555  0.0146
 5741SOL    HW228686   2.606   0.746  13.815 -1.8844 -0.2515  0.0790
 5742SOL     OW28687   2.160   0.616   6.880  0.3663 -0.5965 -0.0552
 5742SOL    HW128688   2.134   0.701   6.915  0.3706 -0.7266  0.2668
 5742SOL    HW228689   2.124   0.561   6.949 -0.1634  0.4706  0.5017
 5743SOL     OW28690   2.873   4.156   6.503  0.0850 -0.0545 -0.0458
 5743SOL    HW128691   2.924   4.132   6.426 -0.4640  0.5050 -0.5877
 5743SOL    HW228692   2.918   4.115   6.577  1.5460  2.0871  0.2330
 5744SOL     OW28693   3.681   0.221  13.506  0.4941  0.0329  0.1258
 5744SOL    HW128694   3.741   0.295  13.521 -1.2701  1.0336  2.2381
 5744SOL    HW228695   3.737   0.160  13.554  2.8664  1.8597 -0.3121
 5745SOL     OW28696   3.397   1.189  13.845  0.2660  0.0366  0.0506
 5745SOL    HW128697   3.444   1.141  13.913 -0.4985 -1.7817 -0.7018
 5745SOL    HW228698   3.342   1.241  13.904  2.1056 -0.0592  1.8521
 5746SOL     OW28699   4.026   4.377   7.459  0.1705  0.1413 -0.3553
 5746SOL    HW128700   4.107   4.413   7.496 -0.1402 -0.8778  1.3154
 5746SOL    HW228701   4.066   4.340   7.380  0.8335  1.9517 -0.8673
 5747SOL     OW28702   0.058   2.934   9.014  0.7155 -0.3505  0.1422
 5747SOL    HW128703   0.048   2.926   9.109 -0.8607  0.9671  0.0962
 5747SOL    HW228704   0.028   2.846   8.990  0.6318 -0.0357 -0.8971
 5748SOL     OW28705   2.584   0.484   2.460  0.1928 -0.4367 -0.0298
 5748SOL    HW128706   2.678   0.498   2.471  0.1788  0.8481 -1.5725
 5748SOL    HW228707   2.572   0.420   2.531 -1.1231 -0.0256  0.1177
 5749SOL     OW28708   3.534   4.034   6.166 -0.2560 -0.5014 -0.1804
 5749SOL    HW128709   3.488   4.024   6.249 -1.4649 -1.1073 -0.9191
 5749SOL    HW228710   3.470   3.984   6.115  0.2169 -0.5610 -0.7152
 5750SOL     OW28711   4.424   0.681   1.586  0.1785  0.2476  0.3059
 5750SOL    HW128712   4.480   0.758   1.593  1.7042 -0.6741 -1.5757
 5750SOL    HW228713   4.483   0.632   1.528  1.9415  0.6190  1.7890
 5751SOL     OW28714   0.279   3.527   8.960 -0.0137 -0.1366  0.6251
 5751SOL    HW128715   0.335   3.450   8.966  0.4589  0.2628  1.4165
 5751SOL    HW228716   0.215   3.506   8.892 -0.0162  0.9756  0.2859
 5752SOL     OW28717   0.329   0.756  13.230  0.3847 -0.2986 -0.2219
 5752SOL    HW128718   0.238   0.759  13.260  0.5690 -0.7084  0.3817
 5752SOL    HW228719   0.351   0.669  13.263  0.0133  0.1399  1.1824
 5753SOL     OW28720   2.324   3.882   3.199 -0.0269 -0.3281  0.2229
 5753SOL    HW128721   2.256   3.871   3.266  1.1383 -0.1557  1.4262
 5753SOL    HW228722   2.395   3.928   3.244  1.1403 -0.0335 -1.9462
 5754SOL     OW28723   0.878   3.084   0.432 -0.3059  0.0176  0.3566
 5754SOL    HW128724   0.881   3.091   0.337  1.0333  3.8857  0.6945
 5754SOL    HW228725   0.969   3.110   0.447 -0.2542 -1.0424  1.9032
 5755SOL     OW28726   3.116   0.037   5.389 -0.4919  0.2843 -0.0234
 5755SOL    HW128727   3.191   0.003   5.437  0.0697 -1.4637 -2.1202
 5755SOL    HW228728   3.051   4.684   5.394 -0.5175  0.2542 -0.7687
 5756SOL     OW28729   1.655   0.318  13.832 -0.7138 -0.1826 -0.0357
 5756SOL    HW128730   1.749   0.304  13.839 -0.8310 -0.5740  0.8184
 5756SOL    HW228731   1.633   0.321  13.925  2.1768  1.4647  0.5978
 5757SOL     OW28732   1.952   1.891   0.774  0.2033 -0.5239  0.1012
 5757SOL    HW128733   1.980   1.812   0.728 -1.2257 -1.0753  0.1734
 5757SOL    HW228734   1.901   1.931   0.702  2.3859 -0.2463 -1.2791
 5758SOL     OW28735   1.219   2.532  11.470  0.3013 -0.0422 -0.0264
 5758SOL    HW128736   1.262   2.460  11.425 -2.0093 -0.9486 -0.8075
 5758SOL    HW228737   1.169   2.495  11.543 -0.5503  0.3860 -0.3930
 5759SOL     OW28738   1.003   2.695  15.957  0.7042 -0.0248 -0.4107
 5759SOL    HW128739   0.983   2.778  15.999  0.6452  0.9251 -2.2931
 5759SOL    HW228740   1.006   2.637  16.033  0.1986  1.2128  0.5611
 5760SOL     OW28741   0.270   0.894   6.589 -0.2616 -0.4969  0.0378
 5760SOL    HW128742   0.301   0.905   6.500 -1.3107 -1.2520 -0.4219
 5760SOL    HW228743   0.346   0.854   6.631  0.7764  3.3441  1.8446
 5761SOL     OW28744   4.408   0.279   0.860  0.4397 -0.1415  0.5780
 5761SOL    HW128745   4.431   0.239   0.943  1.2822 -0.0315  0.4029
 5761SOL    HW228746   4.498   0.286   0.828  0.0126  0.6317 -0.4854
 5762SOL     OW28747   3.614   1.122  15.000  0.1351  0.0900  0.0891
 5762SOL    HW128748   3.632   1.163  15.084 -0.0049  3.2172 -1.3785
 5762SOL    HW228749   3.520   1.109  15.012 -0.0471 -0.6339 -1.9941
 5763SOL     OW28750   1.363   2.539   2.744  0.2649  0.1625  0.1030
 5763SOL    HW128751   1.330   2.552   2.655  0.2052 -0.1991  0.0728
 5763SOL    HW228752   1.346   2.624   2.785  0.7813 -0.3274  1.3353
 5764SOL     OW28753   2.503   1.483   7.748  0.2022  0.3790  0.2226
 5764SOL    HW128754   2.554   1.476   7.829 -2.2495 -0.0988  1.7115
 5764SOL    HW228755   2.498   1.392   7.719  0.4149 -0.0310  1.4465
 5765SOL     OW28756   1.245   2.708  16.937  0.1253  0.7404  0.0375
 5765SOL    HW128757   1.177   2.662  16.888 -0.9524 -0.3349  2.5536
 5765SOL    HW228758   1.323   2.663  16.904  0.5399  1.4104  0.0893
 5766SOL     OW28759   4.435   1.826   7.336  0.0123  0.3466 -0.0056
 5766SOL    HW128760   4.527   1.799   7.334  0.3948  1.6020  0.4994
 5766SOL    HW228761   4.432   1.866   7.423  0.0991  0.2665  0.0351
 5767SOL     OW28762   3.005   3.157  10.437  0.0317  0.2433  0.0251
 5767SOL    HW128763   2.947   3.108  10.380  0.3713  0.8446 -0.8415
 5767SOL    HW228764   2.944   3.205  10.492  0.2972  0.7824 -0.1491
 5768SOL     OW28765   1.973   0.516   8.356 -0.4528 -0.2502  0.3594
 5768SOL    HW128766   1.925   0.500   8.437 -0.1384 -0.5329  0.4889
 5768SOL    HW228767   2.024   0.435   8.361 -0.0270  0.0739  1.1843
 5769SOL     OW28768   1.767   2.955   6.785 -0.4512 -0.8792  0.6876
 5769SOL    HW128769   1.786   2.864   6.760  1.6919 -0.6815  1.6324
 5769SOL    HW228770   1.842   2.984   6.836  1.2327 -0.4434 -2.0542
 5770SOL     OW28771   3.826   0.517   4.301 -0.3888 -0.4998  0.5339
 5770SOL    HW128772   3.899   0.566   4.264 -0.4601 -1.0569 -0.3639
 5770SOL    HW228773   3.810   0.568   4.380  3.2078  2.2344 -0.5432
 5771SOL     OW28774   2.239   2.207   7.509 -0.0901 -0.2824 -0.0102
 5771SOL    HW128775   2.276   2.121   7.527  1.1910 -0.1417 -2.0777
 5771SOL    HW228776   2.270   2.215   7.420 -1.8698 -0.0726 -0.6211
 5772SOL     OW28777   4.041   3.062  11.974 -0.2772  0.1729  0.3323
 5772SOL    HW128778   4.089   3.139  11.946  0.8589 -1.1047 -1.2545
 5772SOL    HW228779   3.977   3.046  11.904  0.5898  0.1693 -0.4549
 5773SOL     OW28780   0.943   4.337   3.658 -0.5095  0.1854 -0.2707
 5773SOL    HW128781   0.872   4.301   3.606 -0.6430  1.2577 -0.8209
 5773SOL    HW228782   1.021   4.329   3.603 -1.4001 -2.4428 -1.1373
 5774SOL     OW28783   2.915   3.595   7.833 -0.3563 -0.3089 -0.2691
 5774SOL    HW128784   2.891   3.660   7.767 -0.7547 -0.9471 -0.7447
 5774SOL    HW228785   2.995   3.634   7.869  0.2947 -0.9571 -1.0082
 5775SOL     OW28786   0.296   0.770   4.157 -0.1675 -0.1337  0.0637
 5775SOL    HW128787   0.356   0.724   4.098 -0.6594 -0.5946 -0.0770
 5775SOL    HW228788   0.360   0.807   4.217 -1.4709  1.1044  0.6921
 5776SOL     OW28789   1.416   1.084   2.196  0.3197 -0.1638 -0.0045
 5776SOL    HW128790   1.465   1.111   2.273 -1.7896 -2.8727  2.2768
 5776SOL    HW228791   1.374   1.166   2.169 -0.3591 -0.6106 -0.3244
 5777SOL     OW28792   4.699   1.921   0.708 -0.0813 -0.1444  0.2471
 5777SOL    HW128793   0.005   2.012   0.691 -0.0737 -0.2802 -0.4852
 5777SOL    HW228794   4.639   1.940   0.780  1.0939 -0.1611  1.2133
 5778SOL     OW28795   3.285   2.101  11.047  0.1713 -0.5674 -0.4551
 5778SOL    HW128796   3.230   2.082  11.123  0.7530  0.5878  0.2359
 5778SOL    HW228797   3.350   2.161  11.082  0.6589 -0.4082 -1.6282
 5779SOL     OW28798   1.164   3.225   8.416  0.3033 -0.2581 -0.1339
 5779SOL    HW128799   1.221   3.253   8.488 -0.0683 -1.9447  0.8330
 5779SOL    HW228800   1.076   3.256   8.440  0.5077  0.4109 -0.2793
 5780SOL     OW28801   3.322   2.668   6.931 -0.4248 -0.0773  0.4468
 5780SOL    HW128802   3.232   2.653   6.960 -0.8870 -1.3268 -1.6709
 5780SOL    HW228803   3.364   2.583   6.938  1.3730  1.0789  3.7503
 5781SOL     OW28804   1.292   3.490   0.976  0.0162 -0.2338  0.3458
 5781SOL    HW128805   1.244   3.573   0.981  2.3469  1.0472  1.5588
 5781SOL    HW228806   1.222   3.431   0.948 -1.7301  1.0420  2.0311
 5782SOL     OW28807   4.368   2.110   7.077 -0.3866  0.1539 -0.1435
 5782SOL    HW128808   4.429   2.176   7.110  1.6688 -1.3045 -1.0762
 5782SOL    HW228809   4.418   2.030   7.087 -1.9166 -0.7310  0.3979
 5783SOL     OW28810   0.507   0.250  15.861 -0.3833  0.1345  0.3657
 5783SOL    HW128811   0.529   0.327  15.912  0.7190  0.9923 -1.3915
 5783SOL    HW228812   0.563   0.180  15.895 -1.9861 -1.5716 -0.4644
 5784SOL     OW28813   1.358   4.483   2.868 -1.1780  0.0018  0.2931
 5784SOL    HW128814   1.441   4.476   2.822 -0.6578 -2.7527  1.6239
 5784SOL    HW228815   1.322   4.565   2.833 -0.8132 -0.6458 -1.5844
 5785SOL     OW28816   3.067   2.889   9.273  0.3390 -0.2764  0.5617
 5785SOL    HW128817   3.046   2.869   9.182  4.1665  0.1252 -0.3908
 5785SOL    HW228818   3.115   2.811   9.301 -0.3595 -0.6645  0.6903
 5786SOL     OW28819   0.457   3.161   0.896  0.0383  0.1991 -0.0596
 5786SOL    HW128820   0.444   3.255   0.911  1.3840  0.4417 -0.4242
 5786SOL    HW228821   0.366   3.134   0.888  0.1175  0.1581 -0.8501
 5787SOL     OW28822   1.116   4.174  10.330  0.0342 -0.3763 -0.5433
 5787SOL    HW128823   1.093   4.116  10.258  0.5347  0.1894 -1.1574
 5787SOL    HW228824   1.180   4.237  10.298  2.8389 -1.7878  2.2505
 5788SOL     OW28825   2.463   2.150   4.568 -0.0572  0.0892  0.5104
 5788SOL    HW128826   2.472   2.138   4.474 -0.1677 -0.0732  0.5208
 5788SOL    HW228827   2.555   2.157   4.590 -0.2175 -0.5249  1.3502
 5789SOL     OW28828   3.894   4.714  10.595 -0.2387  0.1120  0.0851
 5789SOL    HW128829   3.922   4.693  10.506  0.6097  0.9320  0.1630
 5789SOL    HW228830   3.807   4.674  10.603  0.9691 -2.3258  0.9119
 5790SOL     OW28831   3.689   2.986  16.348  0.5459  0.2372 -0.0518
 5790SOL    HW128832   3.748   3.057  16.325 -0.1466  1.0489  0.6921
 5790SOL    HW228833   3.625   3.028  16.406  1.2921  0.3153  0.7124
 5791SOL     OW28834   3.485   1.904   3.283  0.1140 -0.5215  0.3444
 5791SOL    HW128835   3.579   1.916   3.268  0.2534 -1.3896  0.5082
 5791SOL    HW228836   3.446   1.945   3.207 -1.4442 -0.0836  1.3824
 5792SOL     OW28837   0.159   1.490   0.758 -0.4174 -0.1980  0.1929
 5792SOL    HW128838   0.241   1.486   0.709 -1.1562 -3.1010 -0.8006
 5792SOL    HW228839   0.164   1.582   0.782 -0.4235 -0.2572  0.4139
 5793SOL     OW28840   2.302   0.572   2.158 -0.1490  0.9868 -0.1480
 5793SOL    HW128841   2.228   0.522   2.124  0.0988  0.3011  0.3136
 5793SOL    HW228842   2.264   0.659   2.147 -2.0021 -0.0167 -1.5741
 5794SOL     OW28843   2.954   4.420   2.838 -0.6686 -0.3977 -0.0380
 5794SOL    HW128844   2.882   4.357   2.847 -0.3430 -0.6471  0.7601
 5794SOL    HW228845   2.933   4.485   2.905 -0.3981  0.3721 -0.7037
 5795SOL     OW28846   1.168   1.365   7.795 -0.2091  0.2475 -0.3858
 5795SOL    HW128847   1.209   1.384   7.711 -1.2886  2.4133 -0.4125
 5795SOL    HW228848   1.249   1.385   7.840  0.2275 -0.9738 -0.6169
 5796SOL     OW28849   1.618   2.937  12.459 -0.2716  0.3018 -0.2616
 5796SOL    HW128850   1.690   2.997  12.439 -1.1747  1.1273 -1.0025
 5796SOL    HW228851   1.620   2.885  12.379  0.1466  1.4863 -1.0285
 5797SOL     OW28852   3.900   1.984   9.602 -0.6013 -0.1649 -0.0723
 5797SOL    HW128853   3.970   2.041   9.633  0.9543 -1.6915 -0.7258
 5797SOL    HW228854   3.828   2.029   9.645 -0.5422  0.6571 -0.8491
 5798SOL     OW28855   0.735   3.502   5.309  0.4092 -0.3479  0.0095
 5798SOL    HW128856   0.794   3.510   5.233 -1.9988  2.3612 -1.5958
 5798SOL    HW228857   0.660   3.554   5.279  1.0207 -1.1748 -2.9316
 5799SOL     OW28858   4.317   4.317   2.722 -0.7951 -0.1384 -0.6799
 5799SOL    HW128859   4.275   4.401   2.743  2.1816  1.4446 -1.1602
 5799SOL    HW228860   4.369   4.337   2.645 -1.7226  0.2638 -1.2092
 5800SOL     OW28861   4.545   3.384   3.911 -0.4491 -0.7027  0.6319
 5800SOL    HW128862   4.593   3.430   3.980  0.5782  1.0163 -1.2226
 5800SOL    HW228863   4.531   3.460   3.855 -1.8020 -1.1542  0.3738
 5801SOL     OW28864   2.654   3.428   2.674 -0.1336 -0.4788  0.2316
 5801SOL    HW128865   2.731   3.416   2.618 -0.8272 -0.0835 -0.8002
 5801SOL    HW228866   2.632   3.335   2.671  0.0914 -0.4426 -2.1413
 5802SOL     OW28867   3.791   4.380   5.384 -0.5633  0.0344  0.0702
 5802SOL    HW128868   3.790   4.319   5.458  2.4658  0.2659  0.3148
 5802SOL    HW228869   3.884   4.401   5.379 -0.7669  0.2121 -2.8107
 5803SOL     OW28870   4.358   1.675   4.217  0.2381  0.4419  0.0654
 5803SOL    HW128871   4.351   1.722   4.134  1.4297  4.3458  2.1812
 5803SOL    HW228872   4.343   1.750   4.275  0.9775  1.4818 -1.0748
 5804SOL     OW28873   2.295   3.456   4.426 -0.5655 -0.1279  0.0610
 5804SOL    HW128874   2.299   3.360   4.434 -1.5121 -0.4096 -2.9722
 5804SOL    HW228875   2.226   3.460   4.360 -1.4274 -1.2368  0.8950
 5805SOL     OW28876   2.413   0.444  16.465 -0.3799 -0.0244  0.5830
 5805SOL    HW128877   2.435   0.535  16.444  1.3482 -0.9161 -1.4204
 5805SOL    HW228878   2.356   0.422  16.392  1.4544 -0.5236 -0.6784
 5806SOL     OW28879   1.353   3.916   3.210  0.4225  0.1626  0.4443
 5806SOL    HW128880   1.300   3.856   3.263  2.5720 -3.4064 -1.4724
 5806SOL    HW228881   1.342   3.995   3.263  0.2747 -0.9448  2.0971
 5807SOL     OW28882   4.118   2.825  12.318 -0.3801  0.0847 -0.2226
 5807SOL    HW128883   4.174   2.810  12.241 -0.1832 -1.1325  0.1622
 5807SOL    HW228884   4.185   2.858  12.378  0.0986  0.3073 -0.8787
 5808SOL     OW28885   2.072   1.742   8.607 -0.4121  0.0636  0.3019
 5808SOL    HW128886   2.112   1.659   8.632 -2.8404 -0.8651  1.1476
 5808SOL    HW228887   2.076   1.745   8.511 -0.3212 -1.1983  0.2567
 5809SOL     OW28888   3.989   4.129   8.250  0.6460 -0.5399  0.3027
 5809SOL    HW128889   3.913   4.149   8.196  1.2840  1.5416  0.1933
 5809SOL    HW228890   3.965   4.038   8.267 -1.8555 -0.1674 -1.2564
 5810SOL     OW28891   4.666   4.365   4.220  0.1670 -0.1714 -0.2826
 5810SOL    HW128892   4.675   4.421   4.143  0.7955 -3.2417 -2.4339
 5810SOL    HW228893   4.587   4.316   4.198 -1.6523  2.6786 -0.1006
 5811SOL     OW28894   0.046   3.787   3.593 -0.3502 -0.6313 -0.6106
 5811SOL    HW128895   0.056   3.730   3.669  0.9505  1.1115  0.5422
 5811SOL    HW228896   0.086   3.872   3.613 -3.2700  0.2679  1.5031
 5812SOL     OW28897   3.691   3.603   8.142 -0.6395 -0.4518  0.0498
 5812SOL    HW128898   3.705   3.590   8.236  0.9232  2.1094  0.1611
 5812SOL    HW228899   3.738   3.524   8.114 -0.3318  0.0016 -0.7135
 5813SOL     OW28900   1.281   4.035   4.588  0.2992 -0.0684  0.7078
 5813SOL    HW128901   1.250   4.125   4.572 -0.9288 -0.5352  0.4606
 5813SOL    HW228902   1.265   4.037   4.683 -1.6314  2.0353  0.3545
 5814SOL     OW28903   4.321   2.133   3.975 -0.0706  0.3406 -0.3577
 5814SOL    HW128904   4.304   2.065   4.039 -0.5198  2.3920  1.7054
 5814SOL    HW228905   4.409   2.167   3.992 -1.6273  2.3309  3.6325
 5815SOL     OW28906   0.053   4.353   7.272  0.1536 -0.8293  0.4172
 5815SOL    HW128907   0.095   4.307   7.200  2.2755 -0.0606  1.1593
 5815SOL    HW228908   0.006   4.278   7.308 -0.8805  0.6178  2.1145
 5816SOL     OW28909   3.891   4.106   4.497  0.3633  0.3729  0.7655
 5816SOL    HW128910   3.852   4.019   4.492  1.1626  0.0570  0.0611
 5816SOL    HW228911   3.975   4.088   4.539  0.4990  0.8739  0.7090
 5817SOL     OW28912   2.785   0.383   6.487  0.0050 -0.1384  0.6467
 5817SOL    HW128913   2.728   0.307   6.480 -0.7834  0.6500 -1.4214
 5817SOL    HW228914   2.870   0.343   6.471  0.3542  0.2807  1.4021
 5818SOL     OW28915   0.680   3.238   6.876  0.6067  0.0357 -0.7970
 5818SOL    HW128916   0.643   3.215   6.961 -1.0440  0.7473 -1.3282
 5818SOL    HW228917   0.610   3.260   6.815 -0.3722 -1.7046 -0.2702
 5819SOL     OW28918   2.129   3.339   4.667 -0.6135  1.0249  0.4472
 5819SOL    HW128919   2.043   3.327   4.627 -0.1580  1.8180 -0.7682
 5819SOL    HW228920   2.179   3.271   4.621 -0.4343 -1.2187  3.9209
 5820SOL     OW28921   1.154   3.048   3.502  0.3193 -0.4085 -0.2852
 5820SOL    HW128922   1.198   3.126   3.538  0.3916 -1.9022  2.8923
 5820SOL    HW228923   1.165   2.986   3.574 -0.3064 -0.4267 -0.2081
 5821SOL     OW28924   2.205   2.326   5.891  0.8181 -0.1444 -0.1465
 5821SOL    HW128925   2.122   2.277   5.889 -0.5815  2.1940  0.2370
 5821SOL    HW228926   2.257   2.267   5.837 -1.6636 -3.6409  1.2760
 5822SOL     OW28927   0.331   3.798   3.711 -0.1119  0.0694  0.2178
 5822SOL    HW128928   0.342   3.851   3.632 -1.6877 -1.1323 -0.8207
 5822SOL    HW228929   0.358   3.713   3.676  0.5686 -0.2654  1.5542
 5823SOL     OW28930   1.801   1.645   7.018  0.6251 -0.7098 -0.4298
 5823SOL    HW128931   1.726   1.704   7.029  0.7130 -1.0149  1.6982
 5823SOL    HW228932   1.821   1.668   6.927  1.6823 -1.5091 -0.3981
 5824SOL     OW28933   2.842   3.193  13.503 -0.0443 -0.1546 -0.5351
 5824SOL    HW128934   2.867   3.233  13.420 -2.1858  0.6394 -0.8008
 5824SOL    HW228935   2.818   3.271  13.553  1.5791  1.0144 -1.5823
 5825SOL     OW28936   1.848   2.592   4.141 -0.2589  0.1172 -0.1571
 5825SOL    HW128937   1.786   2.533   4.183 -1.6318  0.7301 -1.3289
 5825SOL    HW228938   1.789   2.650   4.094  0.7284  2.0490  1.0196
 5826SOL     OW28939   3.754   1.912   3.190  0.2210  0.0352  0.1937
 5826SOL    HW128940   3.766   2.001   3.222 -0.1552  0.6360 -1.3155
 5826SOL    HW228941   3.820   1.909   3.121 -0.6103 -0.4614 -0.5863
 5827SOL     OW28942   4.244   0.673   6.796  0.6865  0.3811 -0.1067
 5827SOL    HW128943   4.204   0.620   6.865 -1.9759  0.9344 -1.2069
 5827SOL    HW228944   4.247   0.605   6.730 -0.7660  1.8744 -1.7057
 5828SOL     OW28945   3.167   0.594   9.203 -0.0891 -0.0306 -0.0472
 5828SOL    HW128946   3.122   0.656   9.145  2.5416  0.0460 -1.9801
 5828SOL    HW228947   3.252   0.584   9.160  0.3378  1.5534  0.4261
 5829SOL     OW28948   2.303   3.981  11.127  0.1120 -0.4139 -0.4462
 5829SOL    HW128949   2.252   4.023  11.197 -2.8992 -1.8835 -1.7499
 5829SOL    HW228950   2.263   4.033  11.057 -2.6123 -0.3525  1.1213
 5830SOL     OW28951   0.409   4.551   5.085  0.4512  0.7958 -0.1387
 5830SOL    HW128952   0.409   4.517   5.174 -1.5409  2.4421  0.4671
 5830SOL    HW228953   0.319   4.532   5.058  0.4635  1.7084 -0.8048
 5831SOL     OW28954   1.307   0.805   5.241 -0.1417 -0.2558  0.2732
 5831SOL    HW128955   1.348   0.764   5.317  1.1775  0.7362  0.1047
 5831SOL    HW228956   1.254   0.740   5.195  0.7199 -2.4571  2.4264
 5832SOL     OW28957   3.670   3.021  10.824  0.1459 -0.4483 -0.3694
 5832SOL    HW128958   3.675   3.021  10.728 -0.1240  0.8448 -0.3773
 5832SOL    HW228959   3.579   3.049  10.834 -0.1763 -1.3908 -0.6304
 5833SOL     OW28960   3.898   1.074  10.210  0.3203  0.0471  0.0493
 5833SOL    HW128961   3.962   1.142  10.187  2.1827 -1.6985  0.0500
 5833SOL    HW228962   3.918   1.075  10.304  3.6624 -0.9699 -0.6366
 5834SOL     OW28963   2.734   4.623   8.850 -1.2622 -0.0799  0.6236
 5834SOL    HW128964   2.813   4.576   8.875 -1.7243 -1.4090 -0.4037
 5834SOL    HW228965   2.675   4.548   8.844  0.1316 -1.1528  0.4413
 5835SOL     OW28966   2.871   3.659   2.301 -0.8134  0.6954 -0.0269
 5835SOL    HW128967   2.965   3.658   2.283 -0.5051  1.6537  1.4873
 5835SOL    HW228968   2.873   3.713   2.381 -1.1557  0.5117  0.1065
 5836SOL     OW28969   4.411   4.263   7.714  0.1438 -0.2740  0.4962
 5836SOL    HW128970   4.476   4.199   7.687  2.0264  0.8615  2.3247
 5836SOL    HW228971   4.329   4.213   7.713  0.6548 -1.0271 -1.6618
 5837SOL     OW28972   4.342   2.539  16.999  0.5622  0.2783 -0.6203
 5837SOL    HW128973   4.353   2.520  17.092 -2.7203 -1.3573 -0.5700
 5837SOL    HW228974   4.434   2.550  16.974  0.6399  0.5357 -0.2214
 5838SOL     OW28975   4.190   4.022   7.359 -0.4460 -0.1968  0.4165
 5838SOL    HW128976   4.261   4.086   7.364  0.6621 -1.6881  3.8723
 5838SOL    HW228977   4.198   3.993   7.268  1.4406 -1.3869  0.9541
 5839SOL     OW28978   4.077   0.254  13.730  0.1843 -0.2596 -0.2438
 5839SOL    HW128979   4.138   0.215  13.793  0.5873  0.1590 -0.3725
 5839SOL    HW228980   4.049   0.328  13.783  1.1293  0.2427 -0.4511
 5840SOL     OW28981   2.214   1.886   7.043 -0.3847  0.0667 -0.3765
 5840SOL    HW128982   2.256   1.802   7.024  0.9298  0.2833  1.6242
 5840SOL    HW228983   2.169   1.877   7.127 -1.6842  1.0003 -0.9585
 5841SOL     OW28984   3.957   0.746   8.895  0.0532 -0.0979 -0.7281
 5841SOL    HW128985   3.949   0.833   8.935  0.5769  0.4602 -1.8326
 5841SOL    HW228986   3.867   0.714   8.902 -0.1995  0.6099 -0.6404
 5842SOL     OW28987   2.770   3.952   4.126  0.5106 -0.1356  1.0600
 5842SOL    HW128988   2.742   4.025   4.180 -0.6038 -0.3653  0.7947
 5842SOL    HW228989   2.844   3.993   4.081  1.1793 -3.0472 -0.5224
 5843SOL     OW28990   4.204   4.315  15.005 -0.0871  0.3717 -0.2567
 5843SOL    HW128991   4.286   4.353  14.974 -0.2520  1.0012  0.0639
 5843SOL    HW228992   4.186   4.373  15.079 -1.8836  0.5818 -0.8394
 5844SOL     OW28993   2.336   0.757   3.792  0.2141 -0.0664 -0.3084
 5844SOL    HW128994   2.260   0.784   3.844 -0.1408 -1.1883 -0.2370
 5844SOL    HW228995   2.400   0.720   3.852  0.5214 -0.3675 -0.8215
 5845SOL     OW28996   3.385   0.591   6.973 -0.1358  0.3891  0.6526
 5845SOL    HW128997   3.380   0.687   6.972  1.3848  0.4696  0.5777
 5845SOL    HW228998   3.298   0.583   7.012  0.2609  0.0861  1.4735
 5846SOL     OW28999   1.162   2.464   7.656  0.1500  0.5583  0.1381
 5846SOL    HW129000   1.184   2.390   7.599  1.7418  1.7571 -0.8078
 5846SOL    HW229001   1.171   2.529   7.586 -0.6272  1.4087  0.8360
 5847SOL     OW29002   1.522   1.889   4.029  0.6220  0.2701  0.6397
 5847SOL    HW129003   1.535   1.919   4.119 -0.2952  1.8830  0.2308
 5847SOL    HW229004   1.587   1.940   3.981 -0.1316 -0.2587 -0.9372
 5848SOL     OW29005   4.160   2.244   9.905 -0.6079  0.4805  0.0259
 5848SOL    HW129006   4.140   2.334   9.931  2.0635  1.0516  0.0071
 5848SOL    HW229007   4.197   2.211   9.987  1.0778 -0.3063 -1.0515
 5849SOL     OW29008   1.629   2.141  14.504 -0.2421  0.2309  0.0731
 5849SOL    HW129009   1.681   2.081  14.451 -0.9299 -0.0175 -0.3111
 5849SOL    HW229010   1.617   2.214  14.443  0.3901  2.7157  2.9005
 5850SOL     OW29011   3.564   3.161  16.519  0.1936  0.1519 -0.4070
 5850SOL    HW129012   3.516   3.243  16.514 -0.7639 -0.3884  0.1035
 5850SOL    HW229013   3.547   3.137  16.610 -0.7337  0.9831 -0.3603
 5851SOL     OW29014   0.114   1.106  15.360 -0.0404 -0.4605 -0.1525
 5851SOL    HW129015   0.066   1.049  15.300 -1.2987  0.7590 -0.3131
 5851SOL    HW229016   0.143   1.039  15.422  1.3176 -0.4561 -0.7839
 5852SOL     OW29017   0.593   2.510  14.053  0.2498  0.5202  0.4679
 5852SOL    HW129018   0.650   2.506  14.130  1.1202 -0.2902 -0.2167
 5852SOL    HW229019   0.504   2.524  14.085  0.8844  0.5337  2.2519
 5853SOL     OW29020   1.848   1.127   5.875 -0.2368 -0.3068 -0.3833
 5853SOL    HW129021   1.874   1.037   5.893  2.4661  0.5950  0.2150
 5853SOL    HW229022   1.761   1.135   5.914 -0.7345 -1.3982 -1.2607
 5854SOL     OW29023   2.631   2.222   6.379  0.2143 -0.8677  0.3779
 5854SOL    HW129024   2.582   2.225   6.461 -0.1095 -0.5253  0.1743
 5854SOL    HW229025   2.698   2.160   6.407 -1.2235 -2.0998  1.0332
 5855SOL     OW29026   3.818   2.288   6.393  0.0691  0.6835  0.3725
 5855SOL    HW129027   3.804   2.200   6.428 -2.0843  0.7106 -0.4353
 5855SOL    HW229028   3.892   2.279   6.333 -1.2735 -0.9226 -1.0332
 5856SOL     OW29029   3.857   0.632   5.310  0.0011 -0.5113  0.2728
 5856SOL    HW129030   3.920   0.563   5.330 -0.4874 -1.4703 -1.5198
 5856SOL    HW229031   3.786   0.600   5.367 -1.1351  0.2282 -0.7310
 5857SOL     OW29032   2.149   1.580  15.940 -0.9642 -0.9342  0.1291
 5857SOL    HW129033   2.195   1.545  15.864 -0.8483  0.2139 -0.3345
 5857SOL    HW229034   2.173   1.669  15.915 -1.8659 -0.5163  0.7529
 5858SOL     OW29035   2.782   3.922  11.672  0.4946 -0.2163 -0.2684
 5858SOL    HW129036   2.734   3.989  11.625  1.6882  0.8221  0.0082
 5858SOL    HW229037   2.712   3.889  11.729  0.9909  2.7068  2.0456
 5859SOL     OW29038   1.641   2.863   7.258 -0.1776  0.1974  0.6128
 5859SOL    HW129039   1.728   2.843   7.224 -0.6280  0.7743 -0.8807
 5859SOL    HW229040   1.622   2.917   7.180  2.0455  1.2073  0.7837
 5860SOL     OW29041   0.613   3.844   7.976 -0.1417 -0.2339  0.5984
 5860SOL    HW129042   0.599   3.913   8.041  1.0836 -0.3403  0.9620
 5860SOL    HW229043   0.677   3.879   7.915 -2.1139  2.7466  0.2106
 5861SOL     OW29044   0.215   4.091   4.375  0.1980 -0.5652 -0.2041
 5861SOL    HW129045   0.207   4.006   4.331  0.0788  0.0078 -1.2850
 5861SOL    HW229046   0.297   4.112   4.332 -0.6716  0.6260 -1.2895
 5862SOL     OW29047   2.539   1.601   8.910 -0.3295 -0.2873 -0.8518
 5862SOL    HW129048   2.542   1.595   9.006  1.8698 -0.4580 -0.9357
 5862SOL    HW229049   2.517   1.514   8.876  0.9118 -0.4830 -1.1591
 5863SOL     OW29050   4.535   0.553   1.148  0.0069 -0.2759  0.2212
 5863SOL    HW129051   4.572   0.639   1.133  0.2421 -0.0160  2.2453
 5863SOL    HW229052   4.560   0.533   1.238  4.9988 -0.8212 -1.3108
 5864SOL     OW29053   4.481   0.031   8.304 -0.5568  0.0114  0.6349
 5864SOL    HW129054   4.485   4.657   8.337 -1.8132 -0.2599  0.0436
 5864SOL    HW229055   4.484   0.078   8.387  0.2414  1.7088 -0.3518
 5865SOL     OW29056   4.217   1.415  16.900  0.2251 -0.5166  0.3338
 5865SOL    HW129057   4.257   1.407  16.814 -0.3108  1.6913 -0.1160
 5865SOL    HW229058   4.127   1.434  16.873  0.0080  1.0256  2.1119
 5866SOL     OW29059   4.278   2.760   7.937  0.1092 -0.6792  0.0893
 5866SOL    HW129060   4.361   2.763   7.890  1.7025 -3.1221  2.7932
 5866SOL    HW229061   4.276   2.669   7.968  0.6690 -0.1878  1.5206
 5867SOL     OW29062   2.158   2.958   4.946 -0.2278  0.3285  0.0629
 5867SOL    HW129063   2.239   3.004   4.968  0.1076  1.4578 -3.4031
 5867SOL    HW229064   2.185   2.914   4.865  1.9228 -0.4810  1.2569
 5868SOL     OW29065   3.796   1.212   9.657  0.4103 -0.3899 -0.1584
 5868SOL    HW129066   3.807   1.201   9.752  1.3549 -0.1516 -0.2481
 5868SOL    HW229067   3.784   1.307   9.649  0.6920 -0.6413 -3.2536
 5869SOL     OW29068   2.727   0.440  15.550 -0.1412  0.1971 -0.3797
 5869SOL    HW129069   2.633   0.458  15.547 -0.2799 -0.4521  0.2365
 5869SOL    HW229070   2.760   0.527  15.525 -0.3424  1.2515  3.0512
 5870SOL     OW29071   4.080   4.477  14.626  0.3644  0.4298 -0.6806
 5870SOL    HW129072   4.068   4.425  14.705  1.0872  2.3052  0.6825
 5870SOL    HW229073   4.070   4.564  14.666 -2.6542 -0.9186  1.4891
 5871SOL     OW29074   1.199   0.194   3.400 -0.5492 -0.4133  0.0801
 5871SOL    HW129075   1.262   0.122   3.401  1.2427  1.1225 -1.2887
 5871SOL    HW229076   1.151   0.169   3.321 -4.0584 -1.3518  2.5483
 5872SOL     OW29077   3.496   1.460   2.672  0.8094 -0.3900  0.2327
 5872SOL    HW129078   3.574   1.445   2.617  0.0163 -1.4108 -0.6085
 5872SOL    HW229079   3.530   1.521   2.737 -1.8887  0.5612  0.7320
 5873SOL     OW29080   1.240   0.649  14.675 -0.1176  0.2940 -0.2143
 5873SOL    HW129081   1.224   0.724  14.731 -0.1812 -1.3004  1.9099
 5873SOL    HW229082   1.192   0.579  14.719 -0.1145  0.3058 -0.1925
 5874SOL     OW29083   1.810   2.153   4.224  0.4475  0.5214  0.0498
 5874SOL    HW129084   1.856   2.073   4.199  0.9973  0.7886  0.1938
 5874SOL    HW229085   1.785   2.140   4.315 -0.9886  2.7382 -0.0244
 5875SOL     OW29086   2.442   3.985   4.043  0.7759  0.4144  0.1467
 5875SOL    HW129087   2.518   3.927   4.053  1.5427  1.7264  1.9816
 5875SOL    HW229088   2.434   3.973   3.948  1.5963  1.2920 -0.0417
 5876SOL     OW29089   1.972   3.825  17.293  0.3824  0.1657  0.2673
 5876SOL    HW129090   2.038   3.853  17.357 -0.2190 -1.3358  1.5545
 5876SOL    HW229091   1.948   3.911  17.258  1.9108 -0.9549 -3.5654
 5877SOL     OW29092   1.431   4.520   1.462  0.3972 -0.0555 -0.1303
 5877SOL    HW129093   1.385   4.578   1.523  0.3445 -0.4434  0.1934
 5877SOL    HW229094   1.402   4.430   1.472  0.0877  0.4327  3.2739
 5878SOL     OW29095   2.371   0.340   3.695 -0.4310  0.5793  0.2126
 5878SOL    HW129096   2.410   0.314   3.778  0.7128  0.7450 -0.2716
 5878SOL    HW229097   2.300   0.281   3.668 -1.1341  0.8793  1.4090
 5879SOL     OW29098   1.855   0.643   2.955  0.6017 -0.5775  0.2261
 5879SOL    HW129099   1.843   0.560   3.001  0.3985 -0.5696  0.1876
 5879SOL    HW229100   1.942   0.629   2.917  0.0619  1.1395 -1.6562
 5880SOL     OW29101   1.092   2.271   8.250 -0.1485 -0.6944  0.2042
 5880SOL    HW129102   1.138   2.192   8.275  3.3986  0.4928 -2.4585
 5880SOL    HW229103   1.088   2.321   8.331  1.0059  2.3217 -1.5804
 5881SOL     OW29104   2.135   0.113   8.202 -0.1929  0.2780  0.3705
 5881SOL    HW129105   2.159   0.041   8.260 -0.7031  1.0716  1.5611
 5881SOL    HW229106   2.157   0.188   8.258  0.4515  2.1225 -2.3441
 5882SOL     OW29107   1.454   3.859   6.940  0.0956 -0.3156 -0.0815
 5882SOL    HW129108   1.451   3.814   6.855  0.5593  0.3459 -0.4464
 5882SOL    HW229109   1.450   3.952   6.919 -3.5017  0.3459  3.4999
 5883SOL     OW29110   1.418   2.973  12.655  0.1585  0.0999 -0.1146
 5883SOL    HW129111   1.501   2.961  12.608  0.5841  1.3263  0.3376
 5883SOL    HW229112   1.355   2.962  12.583  0.2791 -1.3619 -0.0024
 5884SOL     OW29113   0.534   0.751   8.141  0.4546 -0.7085  0.7320
 5884SOL    HW129114   0.482   0.761   8.221 -1.1848  1.0331 -0.5359
 5884SOL    HW229115   0.472   0.711   8.079  3.5093 -0.3043 -2.5753
 5885SOL     OW29116   2.361   3.572  10.130  0.1882  0.5098 -0.1433
 5885SOL    HW129117   2.358   3.556  10.036  1.4527 -0.5711 -0.0067
 5885SOL    HW229118   2.270   3.590  10.152 -0.4141 -3.1921  0.4640
 5886SOL     OW29119   0.207   0.752   3.490 -0.3213  0.2238  0.4633
 5886SOL    HW129120   0.136   0.777   3.431 -0.8992 -0.2867  0.9488
 5886SOL    HW229121   0.232   0.842   3.513 -0.0733  0.2012  0.2823
 5887SOL     OW29122   0.283   0.372  15.325  0.1054 -0.1103 -0.5877
 5887SOL    HW129123   0.301   0.285  15.361  2.1230  1.0319  1.1660
 5887SOL    HW229124   0.267   0.424  15.404 -0.5700 -1.3757  0.0994
 5888SOL     OW29125   2.106   0.529   6.603  0.1527 -0.4662 -0.1410
 5888SOL    HW129126   2.099   0.465   6.674 -0.7461 -0.5419 -0.2910
 5888SOL    HW229127   2.156   0.603   6.638  1.0779 -1.4411  0.6017
 5889SOL     OW29128   2.409   0.708   5.736 -0.3983  0.7400 -0.2557
 5889SOL    HW129129   2.368   0.623   5.717  2.6508 -0.8279  0.1608
 5889SOL    HW229130   2.352   0.732   5.809  1.5000  0.4878  1.3172
 5890SOL     OW29131   0.287   2.237   6.531 -0.5750 -0.1867 -0.3124
 5890SOL    HW129132   0.367   2.291   6.535  0.0025 -1.0995  0.5264
 5890SOL    HW229133   0.225   2.296   6.574  0.8723 -0.3873  2.0422
 5891SOL     OW29134   1.152   1.404   2.039  0.0203  0.3337 -0.0985
 5891SOL    HW129135   1.103   1.481   2.069  0.2813  1.1329 -1.7307
 5891SOL    HW229136   1.122   1.401   1.948  0.6360 -3.6099 -0.1407
 5892SOL     OW29137   4.574   1.168  12.683  0.5256  0.2992 -0.4730
 5892SOL    HW129138   4.493   1.189  12.635 -0.2364 -0.9457  0.2474
 5892SOL    HW229139   4.543   1.113  12.755  2.1847  2.6100  1.9998
 5893SOL     OW29140   0.480   1.636   2.590 -0.1416  0.3055 -0.2742
 5893SOL    HW129141   0.551   1.572   2.580  1.2703  1.8175  0.1759
 5893SOL    HW229142   0.518   1.698   2.652  0.2543  0.6642 -0.8843
 5894SOL     OW29143   1.326   0.586   6.436 -0.4996  0.0248 -0.1588
 5894SOL    HW129144   1.270   0.614   6.507 -0.5426 -1.1914  0.2872
 5894SOL    HW229145   1.400   0.543   6.479 -1.6709 -1.9057 -0.1221
 5895SOL     OW29146   2.673   0.944  15.997 -0.4277 -0.3120  0.6423
 5895SOL    HW129147   2.632   0.983  15.920 -0.9559  0.2735  1.2233
 5895SOL    HW229148   2.718   0.872  15.954  0.4985  1.4570 -1.3196
 5896SOL     OW29149   2.974   0.873   6.363  0.5620  0.2498  0.7759
 5896SOL    HW129150   2.990   0.795   6.310 -3.4235 -0.4184  0.5943
 5896SOL    HW229151   2.911   0.831   6.421 -1.1854 -0.0691 -1.3408
 5897SOL     OW29152   4.282   0.499   3.254  0.0480  0.1055 -0.1361
 5897SOL    HW129153   4.359   0.549   3.227  0.6806 -0.7485  0.1058
 5897SOL    HW229154   4.225   0.520   3.180  1.8226 -1.5581 -1.9729
 5898SOL     OW29155   2.624   4.027   6.312 -0.4165 -0.1191 -0.1544
 5898SOL    HW129156   2.713   4.003   6.335 -0.1226  2.9714  1.9671
 5898SOL    HW229157   2.590   4.069   6.391  0.2645  3.3457 -1.7155
 5899SOL     OW29158   1.247   2.564   0.597  0.1598 -0.0209  1.1475
 5899SOL    HW129159   1.196   2.584   0.675  1.3274  1.8209  1.4304
 5899SOL    HW229160   1.331   2.597   0.630  0.5871  0.2958 -0.2627
 5900SOL     OW29161   3.164   1.043   7.695  0.0582 -0.6556 -0.8574
 5900SOL    HW129162   3.141   1.125   7.652 -0.0110 -0.4147 -0.3707
 5900SOL    HW229163   3.244   1.016   7.651  1.1892  0.6236  0.4054
 5901SOL     OW29164   0.335   4.009   4.955  0.4095  0.7199 -0.2821
 5901SOL    HW129165   0.425   4.037   4.971  0.7349 -0.1768 -0.5599
 5901SOL    HW229166   0.309   4.044   4.870  1.1868 -1.9557 -1.6129
 5902SOL     OW29167   4.035   4.447   4.667  0.2781  0.0204  0.4605
 5902SOL    HW129168   3.947   4.456   4.704 -0.0321 -0.0999 -0.2600
 5902SOL    HW229169   4.039   4.536   4.633 -0.8129  0.9806  2.8157
 5903SOL     OW29170   3.479   2.144   3.710 -0.4844 -0.5966  0.2018
 5903SOL    HW129171   3.463   2.143   3.804 -1.1415 -1.2866  0.0841
 5903SOL    HW229172   3.507   2.235   3.704 -0.2792 -0.9291 -3.7332
 5904SOL     OW29173   4.427   3.552  12.671  0.2793  0.2081  0.1415
 5904SOL    HW129174   4.347   3.601  12.651 -0.5478 -0.9429  0.6396
 5904SOL    HW229175   4.442   3.575  12.763 -2.6728  0.1334  0.6188
 5905SOL     OW29176   0.564   4.413   9.005 -0.0852 -0.0681  0.2296
 5905SOL    HW129177   0.623   4.349   8.966  0.0224 -0.1212  0.4799
 5905SOL    HW229178   0.592   4.491   8.957  0.4638  0.1009  0.8054
 5906SOL     OW29179   4.412   1.283   2.210 -0.1086 -0.6451 -0.1795
 5906SOL    HW129180   4.354   1.339   2.158 -0.7872 -0.5377  0.7054
 5906SOL    HW229181   4.494   1.291   2.161  0.5219 -1.0695  0.8097
 5907SOL     OW29182   3.124   2.809   2.166 -0.0733 -0.3754  0.1235
 5907SOL    HW129183   3.212   2.844   2.178 -0.6422  1.1301 -0.1019
 5907SOL    HW229184   3.080   2.844   2.244 -0.7718 -0.7181 -0.1120
 5908SOL     OW29185   4.581   0.426   8.246 -0.1776  0.1162 -0.3527
 5908SOL    HW129186   4.594   0.390   8.159  0.0491  0.5393 -0.4921
 5908SOL    HW229187   4.547   0.352   8.296 -0.9328 -0.9691 -2.4752
 5909SOL     OW29188   2.988   4.404   5.646 -0.4820  0.7193  0.1311
 5909SOL    HW129189   2.968   4.496   5.664 -1.8411  0.0502  2.0894
 5909SOL    HW229190   3.011   4.400   5.553  1.1418  2.5607  0.4469
 5910SOL     OW29191   3.303   4.642   5.586  0.5042  0.1890  0.4379
 5910SOL    HW129192   3.274   4.648   5.677 -0.4117 -2.9456  0.3839
 5910SOL    HW229193   3.394   4.613   5.600  1.1041  1.2148 -1.4033
 5911SOL     OW29194   3.389   4.709   4.857  0.1643  0.1990  0.0918
 5911SOL    HW129195   3.465   4.690   4.803  0.9355  3.2863  0.0984
 5911SOL    HW229196   3.324   4.652   4.817  0.0034  1.8167 -1.9420
 5912SOL     OW29197   4.011   4.417   2.226  0.1854  0.0549 -0.0620
 5912SOL    HW129198   3.923   4.408   2.189  0.1211 -0.3245  0.1870
 5912SOL    HW229199   4.052   4.370   2.153 -0.4598 -2.5656  1.2434
 5913SOL     OW29200   1.013   0.659   8.004 -0.3666  0.6940 -0.2955
 5913SOL    HW129201   1.045   0.722   8.068  0.8919  0.5055 -0.7382
 5913SOL    HW229202   0.920   0.670   8.023 -0.5804  0.1267 -1.0132
 5914SOL     OW29203   2.023   1.817   1.090 -0.3267  0.3603  0.1430
 5914SOL    HW129204   2.022   1.889   1.026  0.7328 -0.7185 -1.0641
 5914SOL    HW229205   1.956   1.840   1.154  1.3725  1.7950  1.3962
 5915SOL     OW29206   2.814   3.552   2.872  0.8202  0.3534 -0.2355
 5915SOL    HW129207   2.795   3.645   2.876 -0.0439  0.1674  0.0989
 5915SOL    HW229208   2.758   3.528   2.798 -0.1379  1.0040  0.2716
 5916SOL     OW29209   1.424   3.340   5.275 -0.6897 -0.5516 -0.0405
 5916SOL    HW129210   1.489   3.299   5.331 -2.7560 -1.5330  1.6536
 5916SOL    HW229211   1.450   3.326   5.184 -0.9057  1.0625 -0.3537
 5917SOL     OW29212   2.359   4.642   5.581 -0.0114  0.9590  0.3100
 5917SOL    HW129213   2.433   4.700   5.599  2.1571 -1.1151 -1.8054
 5917SOL    HW229214   2.289   4.707   5.570 -0.9731 -0.2256 -0.5657
 5918SOL     OW29215   2.964   0.008   7.746 -0.0478  0.6277  0.0997
 5918SOL    HW129216   3.011   4.698   7.824  0.1458 -0.9612 -0.5600
 5918SOL    HW229217   2.874   4.707   7.772  0.5122 -2.1614  0.0786
 5919SOL     OW29218   1.690   3.113  11.426  0.0560 -0.7266 -1.2881
 5919SOL    HW129219   1.784   3.125  11.439  0.1177 -1.0858 -1.4213
 5919SOL    HW229220   1.654   3.185  11.478  0.7788  0.4652 -2.4437
 5920SOL     OW29221   0.763   3.051   1.726 -0.4027 -0.3725  0.1886
 5920SOL    HW129222   0.736   2.961   1.710 -3.0913  0.7089 -1.2730
 5920SOL    HW229223   0.676   3.082   1.752  0.1769  0.1064  1.5501
 5921SOL     OW29224   2.359   1.680  15.641 -0.0864  0.0002  0.3516
 5921SOL    HW129225   2.326   1.732  15.715  0.5912 -1.5692  1.7683
 5921SOL    HW229226   2.329   1.597  15.678  2.9060 -1.0909  0.2642
 5922SOL     OW29227   0.830   3.512   3.697  0.3954  0.3623  0.1531
 5922SOL    HW129228   0.786   3.528   3.780 -0.4095 -1.1226  0.0113
 5922SOL    HW229229   0.849   3.418   3.698  1.8496  0.6494  0.3439
 5923SOL     OW29230   0.333   2.644   7.313 -0.0375  0.3075  0.2854
 5923SOL    HW129231   0.318   2.653   7.407 -0.8005  0.6879  0.1325
 5923SOL    HW229232   0.244   2.666   7.284  0.3182 -1.0776 -1.8938
 5924SOL     OW29233   0.541   2.765  16.643  0.3111  0.2811  0.2848
 5924SOL    HW129234   0.496   2.687  16.676  2.7467 -0.7221  1.2193
 5924SOL    HW229235   0.485   2.836  16.676 -0.7301 -1.0671  1.3862
 5925SOL     OW29236   3.717   2.913   5.006  0.4014  0.3189 -0.6119
 5925SOL    HW129237   3.707   2.846   5.073 -2.6077  0.4069 -0.9706
 5925SOL    HW229238   3.676   2.992   5.040  0.6603  0.5890 -0.9299
 5926SOL     OW29239   0.683   3.248   8.858  0.3361 -0.2106 -0.4701
 5926SOL    HW129240   0.756   3.275   8.914  0.5004 -0.4760 -0.5554
 5926SOL    HW229241   0.708   3.173   8.804  0.6278 -0.5247  0.1011
 5927SOL     OW29242   3.652   0.414   8.553 -0.3879  0.5758 -0.2469
 5927SOL    HW129243   3.747   0.412   8.553 -0.3693  1.6030  0.0736
 5927SOL    HW229244   3.627   0.415   8.645 -0.7477 -1.1583 -0.3334
 5928SOL     OW29245   2.855   1.756   2.600  0.5319  0.0669 -0.2578
 5928SOL    HW129246   2.761   1.746   2.591  0.3937 -0.9911  2.5482
 5928SOL    HW229247   2.895   1.690   2.543  1.9883  0.2223  0.5921
 5929SOL     OW29248   3.029   1.071  16.252 -0.5274  0.0602  0.2300
 5929SOL    HW129249   3.056   1.135  16.318 -0.6891  0.9793 -0.6015
 5929SOL    HW229250   3.022   0.990  16.302 -1.5886 -0.7308 -1.2139
 5930SOL     OW29251   0.304   0.114  15.376 -0.4219 -0.1938  0.3237
 5930SOL    HW129252   0.210   0.098  15.380 -0.1141 -2.3355 -0.9786
 5930SOL    HW229253   0.336   0.027  15.352  0.4651  0.0662  0.5369
 5931SOL     OW29254   0.149   0.226   3.433  0.5706  0.2258  0.4546
 5931SOL    HW129255   0.231   0.178   3.446  0.4230 -0.1486 -0.0059
 5931SOL    HW229256   0.179   0.315   3.450  0.7546  0.2193  0.1672
 5932SOL     OW29257   3.980   1.500   8.187  0.3604 -0.0816  0.2783
 5932SOL    HW129258   3.933   1.566   8.238 -1.8459 -1.5432  0.1050
 5932SOL    HW229259   3.986   1.558   8.111 -1.8202  0.6058  0.6485
 5933SOL     OW29260   0.243   1.185   9.395 -0.2254 -0.2092 -0.0072
 5933SOL    HW129261   0.201   1.202   9.479 -1.5208  1.7682 -1.0603
 5933SOL    HW229262   0.233   1.090   9.402 -0.6095 -0.1352  0.4120
 5934SOL     OW29263   3.090   3.509   4.187 -0.2660  0.3783  0.4028
 5934SOL    HW129264   3.127   3.596   4.179  0.7522 -0.0519  0.4134
 5934SOL    HW229265   3.025   3.521   4.257 -0.3907 -1.1316  0.5481
 5935SOL     OW29266   0.711   2.637   4.681 -0.1044 -0.0601  0.2143
 5935SOL    HW129267   0.687   2.671   4.767 -2.6545  1.0261 -0.9148
 5935SOL    HW229268   0.636   2.581   4.659  1.5337 -2.0440 -0.2485
 5936SOL     OW29269   0.409   2.227   3.269 -0.2498  0.5402 -0.0124
 5936SOL    HW129270   0.483   2.205   3.213 -0.0297  0.1491  0.4302
 5936SOL    HW229271   0.451   2.277   3.339 -0.5029  0.5459  0.1366
 5937SOL     OW29272   1.969   4.006  14.626  0.0221  0.2818  0.0286
 5937SOL    HW129273   1.934   4.094  14.616  0.6200  0.6855  1.4293
 5937SOL    HW229274   1.897   3.960  14.583  1.8553 -0.9776 -1.6992
 5938SOL     OW29275   2.064   3.132   1.500 -0.4575  0.1773  0.3112
 5938SOL    HW129276   1.978   3.173   1.494 -0.0945  0.7931 -0.6955
 5938SOL    HW229277   2.064   3.071   1.426 -0.6597 -1.1587  1.4210
 5939SOL     OW29278   1.873   4.364   2.057 -0.3210  0.0999  0.0325
 5939SOL    HW129279   1.789   4.322   2.044 -0.8890  0.9340  0.9705
 5939SOL    HW229280   1.873   4.390   2.150  0.5416 -2.9533  0.8821
 5940SOL     OW29281   2.911   0.277   8.666  0.6374 -0.1341 -0.2102
 5940SOL    HW129282   2.867   0.263   8.750  0.3320  0.9388 -0.1973
 5940SOL    HW229283   2.874   0.197   8.628 -0.6745  1.2484 -1.8174
 5941SOL     OW29284   1.293   4.592   3.379  0.1416 -0.0934  0.1909
 5941SOL    HW129285   1.301   4.502   3.347 -0.3004 -0.4068  0.9431
 5941SOL    HW229286   1.313   4.637   3.298 -1.1990  1.8488  0.9236
 5942SOL     OW29287   1.683   1.008  17.519  0.6473  0.5011  0.1675
 5942SOL    HW129288   1.732   0.931  17.488 -1.3475 -1.0199  0.8222
 5942SOL    HW229289   1.614   1.004  17.453 -1.2462  0.1074  2.1976
 5943SOL     OW29290   4.421   3.665   3.544  0.1334  0.2538  0.2244
 5943SOL    HW129291   4.508   3.648   3.579 -0.6788 -0.6485  1.8009
 5943SOL    HW229292   4.399   3.578   3.511 -1.1808 -0.0829  1.9868
 5944SOL     OW29293   0.646   1.795   6.463 -0.1210 -0.3100  0.2780
 5944SOL    HW129294   0.637   1.771   6.555 -2.1107 -2.8170 -0.5799
 5944SOL    HW229295   0.594   1.727   6.420  0.6142 -2.5764  2.9995
 5945SOL     OW29296   0.133   2.340   4.431  0.2692  0.6727 -0.0475
 5945SOL    HW129297   0.045   2.364   4.400  1.0816  1.9957 -1.3026
 5945SOL    HW229298   0.147   2.411   4.493  2.5490  0.1452  0.0099
 5946SOL     OW29299   4.607   4.018   7.115 -0.2259 -0.1691 -0.4680
 5946SOL    HW129300   4.627   4.085   7.181 -0.2536  1.5546 -2.2079
 5946SOL    HW229301   4.593   3.944   7.174  0.0440  0.0777 -0.0882
 5947SOL     OW29302   3.661   3.227  14.373 -0.0330  0.5195  0.1512
 5947SOL    HW129303   3.577   3.198  14.409  0.5183  1.2433  2.0231
 5947SOL    HW229304   3.697   3.285  14.439  1.1684  0.2457 -0.2553
 5948SOL     OW29305   2.169   1.015  13.056  0.9659  0.1610  0.0639
 5948SOL    HW129306   2.102   0.998  12.989  1.6402 -0.8830 -0.3394
 5948SOL    HW229307   2.147   1.099  13.097  1.4635 -0.6553  2.0111
 5949SOL     OW29308   4.491   3.872   9.371  0.2571 -0.8677 -0.6844
 5949SOL    HW129309   4.559   3.853   9.306  0.7512 -0.5019 -0.2791
 5949SOL    HW229310   4.514   3.961   9.398  0.8965 -1.1477 -0.2994
 5950SOL     OW29311   3.699   0.319  10.098 -0.2482 -0.3472 -0.0316
 5950SOL    HW129312   3.772   0.290  10.152  0.0792  1.2197  0.3799
 5950SOL    HW229313   3.735   0.294  10.013  0.1731 -0.0028  0.0426
 5951SOL     OW29314   4.340   0.768   9.423  0.0184  0.1735 -0.5424
 5951SOL    HW129315   4.321   0.700   9.359  4.1809 -1.4667 -0.0497
 5951SOL    HW229316   4.414   0.733   9.472  0.5398  2.1639  0.0996
 5952SOL     OW29317   0.164   3.288   3.921  0.4416  0.2824  0.1224
 5952SOL    HW129318   0.236   3.347   3.943 -0.5844  1.5889 -0.0184
 5952SOL    HW229319   0.191   3.252   3.837 -0.0728 -0.9644  0.4913
 5953SOL     OW29320   2.225   2.456   2.829  0.2196 -0.2873  0.2050
 5953SOL    HW129321   2.319   2.466   2.819  0.3457  0.5784  2.1641
 5953SOL    HW229322   2.218   2.362   2.809  0.5042 -0.0230 -1.0960
 5954SOL     OW29323   1.694   1.139   5.172 -0.0357 -0.7555  0.2129
 5954SOL    HW129324   1.751   1.199   5.124 -1.5597  1.7720  1.6076
 5954SOL    HW229325   1.718   1.065   5.116  1.3590  0.6318 -1.0111
 5955SOL     OW29326   0.012   0.028   3.644  0.6268  0.0347  0.2508
 5955SOL    HW129327   0.081   0.019   3.710  1.3562  0.0778 -0.4897
 5955SOL    HW229328   0.045   0.104   3.595 -3.2512  0.8272 -1.0938
 5956SOL     OW29329   1.825   1.919   1.271  0.2683 -0.1189 -0.0683
 5956SOL    HW129330   1.744   1.867   1.272 -0.1509  0.4888 -1.7967
 5956SOL    HW229331   1.841   1.934   1.364  0.3575 -0.0025 -0.1028
 5957SOL     OW29332   0.482   3.702  14.760  0.4295  0.2897 -0.9777
 5957SOL    HW129333   0.526   3.773  14.712  0.0029  1.1748 -0.0743
 5957SOL    HW229334   0.427   3.660  14.693 -0.4836 -1.4267  0.8540
 5958SOL     OW29335   1.000   1.419  10.544 -0.0233 -0.4333  0.7778
 5958SOL    HW129336   1.094   1.417  10.565  0.0985  0.5420  0.2865
 5958SOL    HW229337   0.957   1.463  10.617 -0.6110 -2.7405  1.8184
 5959SOL     OW29338   3.003   1.130   8.260  0.1479  0.1826 -0.0584
 5959SOL    HW129339   2.938   1.116   8.192  0.4443  0.4369 -0.3908
 5959SOL    HW229340   2.991   1.053   8.317  0.1873 -0.2561 -0.6436
 5960SOL     OW29341   0.784   3.851  12.120 -0.4414 -0.3032  0.4175
 5960SOL    HW129342   0.792   3.757  12.104  0.8022 -0.4233  1.7671
 5960SOL    HW229343   0.871   3.885  12.144 -0.6531  1.4332 -1.2664
 5961SOL     OW29344   1.787   3.454  10.499  0.1024  0.2942 -0.3915
 5961SOL    HW129345   1.825   3.436  10.413 -0.1823 -0.7983 -0.2967
 5961SOL    HW229346   1.857   3.458  10.564  1.2583 -2.5911 -1.4578
 5962SOL     OW29347   1.818   1.710   2.349  0.0720 -0.4990  0.4670
 5962SOL    HW129348   1.822   1.615   2.342  2.3542 -0.2782 -1.1021
 5962SOL    HW229349   1.795   1.701   2.442 -3.2681  0.0834 -0.2984
 5963SOL     OW29350   2.462   1.228   7.077 -0.2635  0.3877 -0.4762
 5963SOL    HW129351   2.522   1.169   7.031  1.3270  0.9969  0.8498
 5963SOL    HW229352   2.518   1.298   7.111 -1.4374  0.3297  1.5507
 5964SOL     OW29353   1.881   0.226  13.144  0.0397 -0.5417 -0.0532
 5964SOL    HW129354   1.810   0.195  13.088  0.0556  1.6872 -1.3178
 5964SOL    HW229355   1.950   0.238  13.079 -0.5734  1.1684 -0.3871
 5965SOL     OW29356   3.892   3.762   7.791  0.2754 -0.1173 -0.1784
 5965SOL    HW129357   3.937   3.809   7.721 -0.0638  1.7117  0.8238
 5965SOL    HW229358   3.940   3.789   7.869 -2.5832  3.4999  0.2868
 5966SOL     OW29359   1.744   3.260   4.129 -0.4955 -0.7092 -0.1977
 5966SOL    HW129360   1.810   3.289   4.066 -1.2730  0.8563 -0.2980
 5966SOL    HW229361   1.754   3.336   4.186 -3.4338 -0.7476  0.3641
 5967SOL     OW29362   4.514   0.597   7.090 -0.6682  0.3682  0.2382
 5967SOL    HW129363   4.440   0.608   7.150 -1.6255  0.8102 -1.0016
 5967SOL    HW229364   4.481   0.529   7.030 -2.9252  2.1820 -0.5922
 5968SOL     OW29365   0.412   1.004   8.680  0.1215  0.2621 -0.1458
 5968SOL    HW129366   0.425   1.070   8.748  0.9252 -0.4115  0.3664
 5968SOL    HW229367   0.327   1.031   8.646  0.0230 -0.1081 -0.2012
 5969SOL     OW29368   1.830   4.376   1.732 -0.2189 -0.3563  0.2041
 5969SOL    HW129369   1.841   4.332   1.816  1.2517 -0.4788 -0.0655
 5969SOL    HW229370   1.804   4.465   1.757  1.3382 -0.4181  2.0189
 5970SOL     OW29371   4.532   1.810   0.260 -0.4002  0.1883  0.3517
 5970SOL    HW129372   4.456   1.780   0.311 -1.7825  2.1566 -0.5373
 5970SOL    HW229373   4.488   1.817   0.176 -2.0991  0.6807  1.2720
 5971SOL     OW29374   0.236   0.264  15.861  0.2704 -0.3800 -0.6368
 5971SOL    HW129375   0.205   0.204  15.793 -0.7686 -0.9806  0.3639
 5971SOL    HW229376   0.330   0.261  15.842  0.3769 -0.6577 -0.0467
 5972SOL     OW29377   4.148   0.503   4.958  0.1891 -0.5159  0.2923
 5972SOL    HW129378   4.064   0.534   4.922  0.8901  1.2063  0.1301
 5972SOL    HW229379   4.199   0.487   4.878  2.4175 -2.3085  2.0984
 5973SOL     OW29380   4.714   4.311   6.768 -0.3595 -0.3444 -0.4992
 5973SOL    HW129381   4.670   4.296   6.684 -0.5956  0.6646 -0.5564
 5973SOL    HW229382   0.085   4.313   6.730 -1.0693  1.7937 -1.9903
 5974SOL     OW29383   4.221   0.379   8.002  0.2616 -0.2229  0.1307
 5974SOL    HW129384   4.275   0.305   8.027  1.1791  0.4096  0.0359
 5974SOL    HW229385   4.217   0.357   7.909 -0.0652  3.3523 -0.7133
 5975SOL     OW29386   2.392   3.820  14.977 -0.0107  0.2734 -0.0646
 5975SOL    HW129387   2.413   3.742  15.030 -2.9397 -0.2980  0.2475
 5975SOL    HW229388   2.470   3.871  15.001  1.1914 -1.6590  0.1345
 5976SOL     OW29389   1.860   3.304   9.000  0.5431 -0.4260 -0.2014
 5976SOL    HW129390   1.861   3.299   9.095 -1.1627 -1.2005 -0.2104
 5976SOL    HW229391   1.764   3.305   8.994  0.5044 -2.6657  0.1320
 5977SOL     OW29392   3.190   0.154   4.610 -0.4898 -0.0837  0.1480
 5977SOL    HW129393   3.130   0.106   4.553 -0.5823  1.2896 -0.9140
 5977SOL    HW229394   3.194   0.095   4.686  1.8148  0.6648  0.6123
 5978SOL     OW29395   4.616   4.104   3.902  0.1468  0.3215 -0.0741
 5978SOL    HW129396   4.604   4.026   3.849 -0.8828  1.5868 -1.6867
 5978SOL    HW229397   4.633   4.178   3.845  1.3502  0.6506  0.7019
 5979SOL     OW29398   4.698   2.581  16.071 -0.0205  0.2804 -0.4754
 5979SOL    HW129399   0.041   2.619  16.005  0.3148 -4.4973 -2.9119
 5979SOL    HW229400   4.671   2.652  16.130 -3.4130  1.2986 -3.2448
 5980SOL     OW29401   4.659   0.047   0.790 -0.1359  0.7045 -0.2303
 5980SOL    HW129402   0.025   0.070   0.833  0.3905 -3.9674  1.2673
 5980SOL    HW229403   4.626   0.132   0.761 -2.4740  0.6720  2.2887
 5981SOL     OW29404   0.250   0.853  10.926  0.2320  0.2306 -0.1454
 5981SOL    HW129405   0.220   0.870  11.015 -1.3239  0.3894 -0.7099
 5981SOL    HW229406   0.344   0.858  10.941  0.2939 -0.3366 -0.3257
 5982SOL     OW29407   4.035   0.882   6.194 -0.1129 -0.1290 -0.5236
 5982SOL    HW129408   3.976   0.868   6.268 -1.1092  2.4611 -0.8206
 5982SOL    HW229409   4.000   0.964   6.157 -0.4820 -0.7562 -1.5530
 5983SOL     OW29410   0.803   3.481   1.026 -0.8314  0.3002 -0.1154
 5983SOL    HW129411   0.875   3.443   1.077  0.8946  1.1940 -1.8770
 5983SOL    HW229412   0.853   3.517   0.953 -1.4518 -2.6841 -2.0366
 5984SOL     OW29413   1.523   4.407   4.747  0.1788  0.3616  0.2786
 5984SOL    HW129414   1.538   4.359   4.666  3.3295  0.0416  1.0759
 5984SOL    HW229415   1.606   4.389   4.790  1.4090  0.6980 -1.9630
 5985SOL     OW29416   3.891   1.664   0.526  0.5365 -0.1854 -0.3118
 5985SOL    HW129417   3.872   1.654   0.619  0.3505 -1.2016 -0.4616
 5985SOL    HW229418   3.854   1.750   0.505 -0.1187 -0.6881 -1.2169
 5986SOL     OW29419   0.793   4.433  10.026  0.0734  0.6467 -0.7052
 5986SOL    HW129420   0.790   4.523  10.059 -1.8230  0.1076  0.6251
 5986SOL    HW229421   0.722   4.401  10.082  1.2429 -0.0970  0.3509
 5987SOL     OW29422   3.802   4.300   7.305  0.0331  0.3034  0.0893
 5987SOL    HW129423   3.720   4.291   7.354 -0.0076 -0.2069 -0.0726
 5987SOL    HW229424   3.853   4.338   7.377 -1.5051  0.0028  1.3288
 5988SOL     OW29425   1.984   3.272   3.269  0.2651  1.0907  0.3675
 5988SOL    HW129426   1.922   3.345   3.269 -1.5097 -0.4244  3.1584
 5988SOL    HW229427   1.958   3.223   3.190 -0.6064  0.4213  1.0757
 5989SOL     OW29428   3.535   1.077   9.702  0.5505 -0.5411 -0.0794
 5989SOL    HW129429   3.621   1.108   9.733  0.1376  0.8202 -0.2911
 5989SOL    HW229430   3.550   1.079   9.608 -0.4137  0.8266 -0.2107
 5990SOL     OW29431   2.177   1.409   6.326  0.3289 -0.5358 -0.1747
 5990SOL    HW129432   2.106   1.347   6.342 -1.0318  1.5970  1.9117
 5990SOL    HW229433   2.157   1.473   6.393  1.5966 -1.2189  0.8610
 5991SOL     OW29434   0.781   3.820   7.511  0.7804  0.0997  0.1293
 5991SOL    HW129435   0.809   3.847   7.423  0.4343 -0.6525 -0.2096
 5991SOL    HW229436   0.862   3.825   7.562 -0.9004 -1.4377  2.9296
 5992SOL     OW29437   4.093   0.214  13.451 -0.5897 -0.3708  0.3056
 5992SOL    HW129438   4.054   0.206  13.537 -1.7167 -2.6649 -0.4324
 5992SOL    HW229439   4.176   0.256  13.472 -0.5320 -0.6566  0.6494
 5993SOL     OW29440   0.869   4.368  14.060  0.4004  0.2462 -0.7654
 5993SOL    HW129441   0.795   4.335  14.009 -0.1558  0.2700  0.0452
 5993SOL    HW229442   0.840   4.459  14.068  1.7091  0.6797 -0.9221
 5994SOL     OW29443   2.649   3.881  13.053  0.0202 -0.0326 -0.2084
 5994SOL    HW129444   2.631   3.822  12.980  0.9297  0.5315 -0.8941
 5994SOL    HW229445   2.744   3.877  13.055  0.0279 -1.4846 -3.0074
 5995SOL     OW29446   0.828   4.501   8.001  0.1427  0.2616  0.1650
 5995SOL    HW129447   0.857   4.414   8.030 -0.7916 -0.7436 -1.9227
 5995SOL    HW229448   0.746   4.465   7.967  0.5799 -1.0437  0.4674
 5996SOL     OW29449   4.224   1.376  17.169  0.1704  0.0906  0.1085
 5996SOL    HW129450   4.206   1.381  17.075 -2.9692  1.9989  0.8332
 5996SOL    HW229451   4.164   1.307  17.196  1.1389  0.2289  2.6279
 5997SOL     OW29452   2.765   3.117   3.572  0.3144 -0.1054  0.3987
 5997SOL    HW129453   2.793   3.090   3.659  1.1707  0.1738  0.2071
 5997SOL    HW229454   2.778   3.035   3.523  2.9078  0.3872  0.2392
 5998SOL     OW29455   2.514   3.497   8.359  0.1984 -0.5633 -0.0051
 5998SOL    HW129456   2.600   3.491   8.318 -0.9561  0.3791 -2.5415
 5998SOL    HW229457   2.504   3.591   8.344 -1.2077 -0.8435 -0.8613
 5999SOL     OW29458   3.714   3.338   8.056  0.2632 -0.7241  0.4094
 5999SOL    HW129459   3.696   3.335   7.962  1.6202  0.8603  0.1077
 5999SOL    HW229460   3.807   3.317   8.064  0.5190  0.1278 -0.3917
 6000SOL     OW29461   1.197   0.080   7.067  0.0553  0.0256 -0.3982
 6000SOL    HW129462   1.200   0.060   7.160 -1.4978  1.5341 -0.0239
 6000SOL    HW229463   1.290   0.088   7.046  0.1131 -1.4476 -0.6836
 6001SOL     OW29464   2.541   3.038  10.841  0.5454  0.6951 -0.3535
 6001SOL    HW129465   2.473   3.058  10.777  1.0995  1.6934 -0.6380
 6001SOL    HW229466   2.584   2.959  10.807 -0.5231  0.4862 -1.2393
 6002SOL     OW29467   3.496   1.847   8.179 -0.0155  0.5381 -0.2245
 6002SOL    HW129468   3.424   1.871   8.237 -1.4150 -1.8223 -0.9587
 6002SOL    HW229469   3.566   1.855   8.243  0.9172  1.3793 -1.3480
 6003SOL     OW29470   3.220   3.664   3.896 -0.6919 -0.7979 -0.5535
 6003SOL    HW129471   3.128   3.658   3.921 -0.7515 -0.9864 -0.8134
 6003SOL    HW229472   3.234   3.570   3.881  3.1857 -0.5543  1.6063
 6004SOL     OW29473   1.257   2.898   0.037  0.1054  0.3806 -0.2910
 6004SOL    HW129474   1.228   2.807   0.043  0.8629  0.0596 -1.5867
 6004SOL    HW229475   1.329   2.904  17.643 -0.9816 -0.6852 -1.5930
 6005SOL     OW29476   1.222   4.689   6.569  0.1190  0.1580 -0.0016
 6005SOL    HW129477   1.148   4.676   6.511 -1.0887  1.8028  1.1714
 6005SOL    HW229478   1.184   0.050   6.611 -0.9611  0.3303 -1.3229
 6006SOL     OW29479   1.726   2.012   9.492  0.2403  0.2017 -0.1906
 6006SOL    HW129480   1.796   2.078   9.488  0.3863  0.1321  1.2804
 6006SOL    HW229481   1.665   2.049   9.428  1.8589 -0.2977 -2.0276
 6007SOL     OW29482   0.064   4.265   2.840  0.3488 -0.1353  0.6557
 6007SOL    HW129483   0.002   4.193   2.838 -0.6653  0.7178  1.7677
 6007SOL    HW229484   4.712   4.331   2.841  0.8674  0.4075  0.8301
 6008SOL     OW29485   4.516   4.087   4.152  0.1087 -0.4658 -0.3936
 6008SOL    HW129486   4.506   3.992   4.161 -2.2897  0.0193  2.0723
 6008SOL    HW229487   4.563   4.092   4.069  0.6808  0.2720 -0.0234
 6009SOL     OW29488   0.452   0.541  12.672  0.3138 -0.2777 -0.0061
 6009SOL    HW129489   0.520   0.479  12.698  1.1379 -0.0518 -1.6633
 6009SOL    HW229490   0.503   0.620  12.656  0.3017 -0.5398 -1.3449
 6010SOL     OW29491   1.947   3.244   2.183  0.0262  0.4516  0.1994
 6010SOL    HW129492   1.857   3.274   2.197  0.3645  0.8739  1.4716
 6010SOL    HW229493   1.982   3.311   2.123  1.0330 -1.1502 -0.9898
 6011SOL     OW29494   0.105   1.428   2.005  0.0278 -0.4948 -0.2436
 6011SOL    HW129495   0.160   1.403   2.080 -0.5499  0.0763  0.3648
 6011SOL    HW229496   0.101   1.523   2.014 -1.5544 -0.5879  0.0661
 6012SOL     OW29497   3.302   0.911  14.183  0.3634  0.0420  0.0762
 6012SOL    HW129498   3.380   0.951  14.144  0.0223  3.0794  2.4763
 6012SOL    HW229499   3.346   0.833  14.217  0.1816 -0.8978 -1.8038
 6013SOL     OW29500   3.928   3.190   0.591 -0.2207 -0.0541 -0.4071
 6013SOL    HW129501   3.879   3.219   0.514 -0.7147 -1.4044 -0.5880
 6013SOL    HW229502   3.933   3.272   0.640  1.2415  0.1391 -0.8655
 6014SOL     OW29503   1.574   1.734   0.847  0.4934  0.4464 -0.4929
 6014SOL    HW129504   1.565   1.827   0.828 -1.3811  0.3747  0.0312
 6014SOL    HW229505   1.646   1.744   0.909 -0.9741  0.3364  1.2379
 6015SOL     OW29506   4.234   2.939   6.710  0.0334  0.1676 -0.1246
 6015SOL    HW129507   4.148   2.961   6.747  0.0679 -1.0454  0.6519
 6015SOL    HW229508   4.254   2.863   6.764  0.8125  1.5023  1.4724
 6016SOL     OW29509   1.327   1.372   5.706 -0.5226  0.4614  0.6902
 6016SOL    HW129510   1.418   1.388   5.680 -0.2456 -1.8937  0.1947
 6016SOL    HW229511   1.277   1.443   5.666 -0.6001 -0.5401 -1.0138
 6017SOL     OW29512   0.824   2.877   4.143 -0.6132 -0.6604  0.1565
 6017SOL    HW129513   0.764   2.823   4.196  0.1979 -0.0830  1.6618
 6017SOL    HW229514   0.758   2.905   4.080 -0.9422 -0.1407  0.7288
 6018SOL     OW29515   2.861   1.406   8.840  0.0588  0.1491 -0.4517
 6018SOL    HW129516   2.955   1.396   8.855  0.0198 -1.7535 -1.4799
 6018SOL    HW229517   2.816   1.365   8.914 -1.5145 -0.7350 -1.8802
 6019SOL     OW29518   2.693   0.723   8.522 -0.0719 -0.4847  0.3278
 6019SOL    HW129519   2.639   0.741   8.445  1.2540  0.3193 -0.4192
 6019SOL    HW229520   2.628   0.725   8.592 -0.6669  0.0418 -0.2344
 6020SOL     OW29521   1.553   1.822  14.517  0.6562 -0.0189  0.0681
 6020SOL    HW129522   1.587   1.738  14.486  1.5538  0.6796 -0.8102
 6020SOL    HW229523   1.633   1.873  14.527  0.8291  0.2815 -3.0269
 6021SOL     OW29524   0.592   0.606   4.291 -0.2411  0.0624  0.0883
 6021SOL    HW129525   0.573   0.636   4.379  0.3503  1.7239 -0.3601
 6021SOL    HW229526   0.679   0.567   4.303 -1.0012 -1.0185  2.0715
 6022SOL     OW29527   0.789   3.366   7.098 -0.0992 -0.4187  0.7610
 6022SOL    HW129528   0.848   3.429   7.138  2.0479 -3.0481  1.7777
 6022SOL    HW229529   0.781   3.395   7.007 -0.3980  0.1651  0.9753
 6023SOL     OW29530   0.058   1.951   6.120  0.2046 -0.3846  0.1703
 6023SOL    HW129531   0.076   2.039   6.087  0.0169 -0.6040 -0.5078
 6023SOL    HW229532   0.052   1.972   6.213 -0.3365  0.2367 -0.0063
 6024SOL     OW29533   3.339   0.148   5.082 -0.0195  0.3187  0.0088
 6024SOL    HW129534   3.354   0.078   5.146  0.8657  0.6972  0.2180
 6024SOL    HW229535   3.367   0.101   5.004  0.9751  0.0099  0.5460
 6025SOL     OW29536   1.551   3.195   8.479  0.1946  0.0387 -0.2004
 6025SOL    HW129537   1.568   3.212   8.386  2.0558  0.1195  0.1561
 6025SOL    HW229538   1.519   3.105   8.478  2.2998 -0.7134 -0.6771
 6026SOL     OW29539   4.586   0.959   1.893 -0.3725 -0.3275 -0.3188
 6026SOL    HW129540   4.511   1.003   1.851  0.0671  0.2719 -0.4765
 6026SOL    HW229541   4.554   0.946   1.983  0.6201 -1.2930 -0.1126
 6027SOL     OW29542   1.309   0.073  16.185  0.3703 -0.1560 -0.0436
 6027SOL    HW129543   1.403   0.056  16.182  0.8469  2.1239  2.1279
 6027SOL    HW229544   1.293   0.011  16.256  1.5730 -1.2182 -0.7112
 6028SOL     OW29545   0.503   2.417   8.540  0.0745 -0.1720  0.0176
 6028SOL    HW129546   0.569   2.422   8.610 -1.2741  5.2520  0.8976
 6028SOL    HW229547   0.527   2.488   8.479 -0.3349  0.4677  0.5998
 6029SOL     OW29548   3.934   0.825  16.296  0.3394 -0.0686  0.2769
 6029SOL    HW129549   4.009   0.884  16.302  1.3831 -1.3897  0.0764
 6029SOL    HW229550   3.977   0.746  16.265  0.6365 -0.1199  0.8272
 6030SOL     OW29551   1.992   2.051   5.152 -0.3508 -0.5746 -0.5039
 6030SOL    HW129552   2.015   2.143   5.163  0.8370 -0.8133 -0.9557
 6030SOL    HW229553   1.960   2.050   5.062  0.8284  0.3007 -0.9357
 6031SOL     OW29554   3.519   1.165  16.650 -0.3092  0.1663 -0.2771
 6031SOL    HW129555   3.604   1.148  16.610  0.7862  0.1180  2.0657
 6031SOL    HW229556   3.539   1.211  16.731  1.3579  0.4401 -0.8513
 6032SOL     OW29557   3.689   2.464  17.181  0.0629 -0.2974 -0.2001
 6032SOL    HW129558   3.663   2.523  17.110  0.1395 -0.9789 -0.7937
 6032SOL    HW229559   3.775   2.434  17.153  1.1923  0.2317  2.7345
 6033SOL     OW29560   1.463   0.645   3.436 -0.1015 -0.0272 -0.0019
 6033SOL    HW129561   1.391   0.582   3.432  0.7102 -0.9721  0.1416
 6033SOL    HW229562   1.419   0.726   3.411  1.9172  1.0973  0.0654
 6034SOL     OW29563   3.330   2.058  11.753  0.4061  0.1020  0.4615
 6034SOL    HW129564   3.417   2.089  11.727  0.4800 -0.5873 -0.1053
 6034SOL    HW229565   3.282   2.140  11.766 -1.2808 -0.8104 -0.0060
 6035SOL     OW29566   3.273   1.817  13.898 -0.3705  0.1080 -0.9400
 6035SOL    HW129567   3.213   1.744  13.885 -0.8669  0.1830  0.8551
 6035SOL    HW229568   3.223   1.871  13.959  0.9275 -0.4279  0.6372
 6036SOL     OW29569   2.069   3.755   9.163 -0.3373  0.2328 -0.2000
 6036SOL    HW129570   2.017   3.696   9.108 -0.2501 -0.3262  0.3168
 6036SOL    HW229571   2.012   3.830   9.180 -1.0919 -0.6730  1.3180
 6037SOL     OW29572   3.896   0.585   2.176  0.2931  0.1289 -0.0522
 6037SOL    HW129573   3.963   0.650   2.155  0.0097  0.2747 -0.4951
 6037SOL    HW229574   3.828   0.647   2.202  0.3245  0.9357 -1.8811
 6038SOL     OW29575   3.676   3.623   2.586 -0.4946  0.0730 -0.4955
 6038SOL    HW129576   3.697   3.715   2.599 -3.4171  0.3074  2.4594
 6038SOL    HW229577   3.742   3.595   2.522  0.5632  0.1839  0.5534
 6039SOL     OW29578   4.329   2.300   7.673  0.2623 -0.5946  0.0999
 6039SOL    HW129579   4.353   2.245   7.747 -2.0373 -3.3924 -1.2234
 6039SOL    HW229580   4.415   2.334   7.648  0.5146 -1.4342 -0.1809
 6040SOL     OW29581   3.344   3.884  11.100  0.0965  0.2709  0.3655
 6040SOL    HW129582   3.387   3.874  11.015  0.6830  0.4072  0.6463
 6040SOL    HW229583   3.253   3.913  11.093 -0.2373 -0.9078 -0.1302
 6041SOL     OW29584   4.310   0.914   8.405  0.1786  0.0041  0.4828
 6041SOL    HW129585   4.220   0.897   8.377 -0.0478  1.5812  0.2449
 6041SOL    HW229586   4.310   1.005   8.437  1.6312 -0.5848  2.1610
 6042SOL     OW29587   1.255   2.207   5.500 -0.4098 -0.3392 -0.0153
 6042SOL    HW129588   1.198   2.283   5.485  0.1907 -0.0476 -0.7649
 6042SOL    HW229589   1.249   2.171   5.412  1.4515  2.1574 -1.1416
 6043SOL     OW29590   1.076   1.124   7.187  0.4873 -0.1207 -0.4575
 6043SOL    HW129591   1.006   1.059   7.194 -0.9393  1.3489 -0.9463
 6043SOL    HW229592   1.035   1.165   7.110 -2.9341  0.5884  1.7480
 6044SOL     OW29593   1.988   0.359  11.614 -0.3961 -0.0149  0.4189
 6044SOL    HW129594   2.026   0.336  11.699 -1.9986 -1.1647  0.8351
 6044SOL    HW229595   1.943   0.279  11.587 -1.2245  0.2321  1.0598
 6045SOL     OW29596   2.387   4.274   4.788  0.3869 -0.1014  0.8041
 6045SOL    HW129597   2.297   4.252   4.814  0.3351  0.8575  1.4155
 6045SOL    HW229598   2.368   4.348   4.731  1.6788 -0.3184  0.0788
 6046SOL     OW29599   1.370   3.774  11.000  0.0462 -0.2961  0.3012
 6046SOL    HW129600   1.397   3.687  10.971  1.2045 -0.3139  1.4193
 6046SOL    HW229601   1.402   3.782  11.091  0.1768 -0.0186  0.2318
 6047SOL     OW29602   1.909   0.481  16.079 -0.2692 -0.1019  0.2196
 6047SOL    HW129603   1.874   0.393  16.093 -0.8236  0.1910  0.6912
 6047SOL    HW229604   1.934   0.504  16.169 -0.5557  2.3447 -0.3412
 6048SOL     OW29605   2.011   3.693  13.084 -0.1393 -0.7968 -0.1157
 6048SOL    HW129606   1.973   3.726  13.165  1.6507 -0.0979  0.4272
 6048SOL    HW229607   1.985   3.752  13.014  0.8706  0.6874  0.7769
 6049SOL     OW29608   2.444   3.089   9.782  0.3755 -0.2251  0.1025
 6049SOL    HW129609   2.429   3.039   9.862 -0.4829 -2.1899 -1.3004
 6049SOL    HW229610   2.510   3.154   9.806 -2.1244  3.1825 -2.2892
 6050SOL     OW29611   0.750   0.561   4.828  0.0937 -0.5035  0.1714
 6050SOL    HW129612   0.678   0.622   4.810  1.2712  0.8898  0.1210
 6050SOL    HW229613   0.728   0.539   4.918 -2.7790  0.1255 -0.3698
 6051SOL     OW29614   2.533   1.291  13.726 -0.1471 -0.1800  0.0938
 6051SOL    HW129615   2.497   1.380  13.726  0.8746  0.2407 -1.7135
 6051SOL    HW229616   2.461   1.246  13.681  0.1201 -2.2583  1.7399
 6052SOL     OW29617   3.641   0.913   8.135  0.4969  0.2684 -0.0246
 6052SOL    HW129618   3.717   0.898   8.192  0.6036  1.3813  0.1136
 6052SOL    HW229619   3.675   0.885   8.050  3.2219  2.2699  0.4374
 6053SOL     OW29620   4.201   4.097   7.736 -0.2042 -0.0946 -0.0699
 6053SOL    HW129621   4.244   4.032   7.793 -1.6667 -0.1820  0.9279
 6053SOL    HW229622   4.144   4.035   7.693 -1.3146  0.7118  0.2490
 6054SOL     OW29623   0.595   1.072   3.320 -0.1299  0.1985 -0.2258
 6054SOL    HW129624   0.594   0.979   3.342 -1.8309 -0.1708 -1.8758
 6054SOL    HW229625   0.664   1.073   3.253 -0.9422 -1.3881 -1.0798
 6055SOL     OW29626   3.453   4.151  12.300  0.3390 -0.5941 -0.1737
 6055SOL    HW129627   3.424   4.201  12.377  2.3782  0.9297 -0.3873
 6055SOL    HW229628   3.378   4.100  12.269  0.6253 -0.1163 -1.6842
 6056SOL     OW29629   2.250   2.988   3.571 -0.1296 -0.1074 -0.4513
 6056SOL    HW129630   2.265   2.965   3.663  0.3740  1.5734 -0.1055
 6056SOL    HW229631   2.253   3.083   3.559 -0.9520  0.0755  0.7393
 6057SOL     OW29632   4.479   0.476   3.655  0.4353  0.4806 -0.1143
 6057SOL    HW129633   4.425   0.407   3.693 -0.0379  0.5548 -0.6597
 6057SOL    HW229634   4.543   0.483   3.726 -1.6697  0.2359  1.7712
 6058SOL     OW29635   1.406   1.467   7.953  0.8401  0.3966 -0.2950
 6058SOL    HW129636   1.452   1.551   7.942 -0.1559  0.7412 -1.7204
 6058SOL    HW229637   1.469   1.417   7.900  1.5715  0.1092  0.8442
 6059SOL     OW29638   0.034   3.214   9.511  0.0429  0.0391 -0.2685
 6059SOL    HW129639   0.030   3.221   9.607  1.6038  0.4929 -0.2311
 6059SOL    HW229640   4.663   3.251   9.502  0.6130  0.7924 -2.4975
 6060SOL     OW29641   3.963   1.874   9.900  0.3149 -0.4075  0.2499
 6060SOL    HW129642   4.022   1.870   9.825  1.0935  0.4436  0.8073
 6060SOL    HW229643   4.011   1.822   9.965  1.6677  0.5837  0.0561
 6061SOL     OW29644   3.941   0.484  11.556  0.4553 -0.2727 -0.5161
 6061SOL    HW129645   3.917   0.574  11.532 -0.6192 -1.2462 -3.0646
 6061SOL    HW229646   3.874   0.439  11.505  0.4009 -0.6583 -0.1066
 6062SOL     OW29647   1.174   2.270   2.640  0.2582  0.7745  0.0194
 6062SOL    HW129648   1.200   2.310   2.557  2.2040  0.3378  0.4061
 6062SOL    HW229649   1.132   2.346   2.679  2.6764  0.8603  2.4574
 6063SOL     OW29650   2.074   4.447   1.274  0.5073 -0.0518 -0.0041
 6063SOL    HW129651   2.137   4.400   1.329 -0.8245 -2.4004 -0.4357
 6063SOL    HW229652   2.002   4.466   1.335  1.6866 -3.2143  2.3574
 6064SOL     OW29653   1.704   4.038  16.675  0.3010  0.4113 -0.2989
 6064SOL    HW129654   1.726   3.992  16.756  2.3444 -0.4572 -1.3348
 6064SOL    HW229655   1.788   4.057  16.634  0.7259 -0.2703  0.2580
 6065SOL     OW29656   2.968   3.364   2.610  0.4169  0.1258  0.0705
 6065SOL    HW129657   3.016   3.446   2.615 -1.4481  1.1621  0.9031
 6065SOL    HW229658   2.918   3.381   2.530 -0.0057  0.9664  0.5080
 6066SOL     OW29659   3.117   1.657   8.047 -0.5542  0.0633  0.8120
 6066SOL    HW129660   3.084   1.710   8.119 -0.5120  1.5474 -0.2779
 6066SOL    HW229661   3.083   1.569   8.065 -0.7185  0.2461  1.4138
 6067SOL     OW29662   3.816   4.607  17.563 -0.1322  0.4585 -0.0653
 6067SOL    HW129663   3.750   4.676  17.570  0.0626  0.6248  0.1250
 6067SOL    HW229664   3.895   4.655  17.587  2.0907 -3.1582 -0.2600
 6068SOL     OW29665   0.867   1.244   4.198  0.2495  0.3985 -0.0365
 6068SOL    HW129666   0.906   1.281   4.119  1.2789  0.2363  0.3908
 6068SOL    HW229667   0.932   1.257   4.267  2.3574  1.4050 -2.1960
 6069SOL     OW29668   4.175   3.778   5.091 -0.2576  0.6660 -0.0666
 6069SOL    HW129669   4.217   3.805   5.172 -1.1945 -0.0397  0.6600
 6069SOL    HW229670   4.254   3.770   5.037 -0.4661  0.0407 -0.2811
 6070SOL     OW29671   4.093   0.897   3.501  0.2982 -0.2151  0.1520
 6070SOL    HW129672   4.040   0.976   3.515  2.8381  1.7886 -1.4216
 6070SOL    HW229673   4.136   0.927   3.420  2.0666 -0.0113  1.1675
 6071SOL     OW29674   2.149   4.009   7.304  0.0418  0.6938  0.0335
 6071SOL    HW129675   2.163   4.102   7.323  0.8168  0.2778  1.5007
 6071SOL    HW229676   2.169   3.972   7.390 -1.3088  0.9665  0.4719
 6072SOL     OW29677   4.278   0.955   8.744 -0.1313  0.0383  0.6797
 6072SOL    HW129678   4.265   0.929   8.835 -1.0664 -1.7246  0.0263
 6072SOL    HW229679   4.299   0.873   8.701  1.3266  2.3622 -3.0304
 6073SOL     OW29680   2.511   1.903   5.697 -0.4012  0.1529 -0.3110
 6073SOL    HW129681   2.514   1.923   5.604 -0.5645  1.2825 -0.0698
 6073SOL    HW229682   2.583   1.953   5.735 -1.2131 -0.0052  1.4628
 6074SOL     OW29683   0.340   3.929   2.741  0.0214 -0.7468 -0.0372
 6074SOL    HW129684   0.333   3.889   2.654  0.7309  0.2911 -0.5817
 6074SOL    HW229685   0.435   3.932   2.748 -0.0859  1.7766  0.6216
 6075SOL     OW29686   2.909   4.148   0.007 -0.0215  0.6346 -0.0149
 6075SOL    HW129687   2.993   4.166   0.050 -0.0220 -1.3157  0.8003
 6075SOL    HW229688   2.913   4.209  17.604  4.0757 -0.0711 -0.3590
 6076SOL     OW29689   4.524   3.639   2.585  0.5729 -0.1282 -0.4171
 6076SOL    HW129690   4.548   3.549   2.606  0.3087 -0.6938 -2.5257
 6076SOL    HW229691   4.612   3.673   2.567  0.1125 -0.2512 -2.9323
 6077SOL     OW29692   1.153   2.728   6.915  0.0138 -0.4747 -0.5347
 6077SOL    HW129693   1.129   2.815   6.883  3.7588  0.1528 -1.6253
 6077SOL    HW229694   1.133   2.669   6.842 -0.4364 -1.2994  0.2487
 6078SOL     OW29695   1.313   4.275  11.841 -0.7922  0.4433  0.2214
 6078SOL    HW129696   1.241   4.324  11.804 -0.4791  2.5447  2.3856
 6078SOL    HW229697   1.350   4.225  11.768 -2.1628 -0.6129  0.2610
 6079SOL     OW29698   4.414   0.313   7.616 -0.2310  0.6293  0.1848
 6079SOL    HW129699   4.381   0.302   7.527 -0.7151  0.8129  0.3419
 6079SOL    HW229700   4.505   0.285   7.614 -0.7716 -0.9556 -2.0605
 6080SOL     OW29701   2.474   1.162   3.541  0.0203 -0.2320  0.5264
 6080SOL    HW129702   2.511   1.109   3.611 -0.4696  0.3525  1.2190
 6080SOL    HW229703   2.384   1.139   3.561 -0.0150 -1.2108 -0.7319
 6081SOL     OW29704   2.448   2.289  14.630 -0.3341  0.0110  0.0179
 6081SOL    HW129705   2.524   2.347  14.627 -2.2608  2.5176  0.0452
 6081SOL    HW229706   2.382   2.343  14.587  0.5659  2.1042  1.2799
 6082SOL     OW29707   4.142   1.303   7.795 -0.0570 -0.2218 -0.2450
 6082SOL    HW129708   4.109   1.378   7.746 -0.2960 -0.7978 -0.9612
 6082SOL    HW229709   4.071   1.239   7.799 -0.9305  0.7068 -0.8646
 6083SOL     OW29710   3.892   0.610   6.871 -0.4687 -0.0846  0.7095
 6083SOL    HW129711   3.893   0.639   6.963  1.4487 -0.6598  0.8554
 6083SOL    HW229712   3.814   0.661   6.848  0.7614  0.9401 -1.1904
 6084SOL     OW29713   2.452   4.088  15.093  0.4119 -0.1254  0.3604
 6084SOL    HW129714   2.412   4.063  15.176  0.2844  0.0987  0.3656
 6084SOL    HW229715   2.471   4.179  15.115 -0.2960  0.0574  0.2172
 6085SOL     OW29716   0.767   4.247   8.893  0.1074 -0.4064 -0.2515
 6085SOL    HW129717   0.817   4.178   8.937 -0.0676 -0.5673 -0.3054
 6085SOL    HW229718   0.808   4.251   8.806  1.9765 -0.6376  0.6095
 6086SOL     OW29719   1.694   4.260  11.195 -0.1798 -0.3394  0.2014
 6086SOL    HW129720   1.611   4.257  11.147 -0.7159 -0.5728  1.1376
 6086SOL    HW229721   1.758   4.251  11.125  0.2120 -0.6925  0.6071
 6087SOL     OW29722   1.580   0.982   3.159  0.0009 -0.3962  0.0130
 6087SOL    HW129723   1.486   0.998   3.146  0.0291 -1.6813 -1.6928
 6087SOL    HW229724   1.588   0.900   3.110  1.5647 -0.6851  0.7744
 6088SOL     OW29725   2.191   3.825  16.181 -0.4236  0.5024  0.4349
 6088SOL    HW129726   2.269   3.789  16.139 -0.4980 -0.3763  1.0457
 6088SOL    HW229727   2.141   3.745  16.196 -0.8942  0.9417  1.1867
 6089SOL     OW29728   3.649   3.725   7.900  0.0169 -0.3406  0.1798
 6089SOL    HW129729   3.659   3.692   7.989 -0.3231  0.8411  0.6557
 6089SOL    HW229730   3.739   3.734   7.868 -0.1207 -0.1299 -0.1549
 6090SOL     OW29731   4.046   2.328  10.331  0.0402 -0.1292  0.0360
 6090SOL    HW129732   4.106   2.402  10.324 -2.8125  2.1857  0.4613
 6090SOL    HW229733   3.984   2.355  10.264  0.8624  4.0376  0.9971
 6091SOL     OW29734   0.865   3.031  16.504 -0.2874 -0.3027  0.1891
 6091SOL    HW129735   0.957   3.018  16.480  1.0742  3.1469  3.5156
 6091SOL    HW229736   0.826   2.947  16.479 -0.7296 -0.3869  1.1500
 6092SOL     OW29737   3.691   1.645   8.793 -0.3442  1.2599  0.3079
 6092SOL    HW129738   3.620   1.583   8.812 -0.2216  1.1320  0.3475
 6092SOL    HW229739   3.691   1.640   8.697 -0.2538 -2.1209  0.4711
 6093SOL     OW29740   2.780   1.647   9.672 -0.1659 -0.2655 -0.0657
 6093SOL    HW129741   2.864   1.625   9.712 -1.4324 -1.4859  1.9068
 6093SOL    HW229742   2.761   1.718   9.734 -1.0901 -0.2889 -0.3234
 6094SOL     OW29743   2.083   0.843   7.594 -0.5915  0.3716 -0.0639
 6094SOL    HW129744   2.063   0.923   7.545 -0.2256  0.4293 -0.1189
 6094SOL    HW229745   2.006   0.843   7.652 -0.1778 -1.5207  0.4974
 6095SOL     OW29746   0.092   0.620  17.557  0.2261  0.3590 -0.2297
 6095SOL    HW129747   0.155   0.553  17.584 -0.1947 -0.6041 -1.6419
 6095SOL    HW229748   0.005   0.594  17.589  0.0221 -1.3078 -2.0981
 6096SOL     OW29749   2.350   2.298  15.764  0.3588  0.0645 -0.1070
 6096SOL    HW129750   2.295   2.300  15.843 -0.1647  0.5549 -0.4861
 6096SOL    HW229751   2.309   2.221  15.724 -0.3376 -0.0114  0.7677
 6097SOL     OW29752   1.120   2.292   1.602 -0.5943 -0.4143 -1.1556
 6097SOL    HW129753   1.156   2.363   1.656  0.9650 -1.8520 -0.2627
 6097SOL    HW229754   1.053   2.337   1.551 -1.5866 -0.2316  0.3060
 6098SOL     OW29755   2.518   3.110   7.234  0.1175 -0.4050 -0.6488
 6098SOL    HW129756   2.516   3.140   7.144  1.3153 -2.2295 -1.2813
 6098SOL    HW229757   2.424   3.118   7.251 -0.1362  0.6807 -2.5946
 6099SOL     OW29758   0.924   0.133   2.168 -0.0261  0.2611 -0.1463
 6099SOL    HW129759   0.980   0.185   2.110  2.7831 -0.9714  1.4371
 6099SOL    HW229760   0.944   0.172   2.254 -1.7887 -1.0536  0.8518
 6100SOL     OW29761   0.726   3.275   7.355  0.0694 -0.3744  0.6422
 6100SOL    HW129762   0.806   3.239   7.392  0.1533 -0.3845  0.4494
 6100SOL    HW229763   0.747   3.277   7.262  1.7397 -1.1987  1.0085
 6101SOL     OW29764   3.941   3.473   6.728  0.0900 -0.0341 -0.0912
 6101SOL    HW129765   3.986   3.428   6.800  2.2669  0.0820 -1.3671
 6101SOL    HW229766   4.000   3.549   6.724 -1.1344  0.9528  0.6805
 6102SOL     OW29767   4.715   2.583  12.224 -0.3789 -0.1947  0.1377
 6102SOL    HW129768   0.078   2.580  12.169 -0.8094 -3.4421 -0.3410
 6102SOL    HW229769   4.649   2.620  12.165 -0.5995 -1.5944 -0.4985
 6103SOL     OW29770   2.351   3.311   0.452 -0.0268  0.4643 -0.1938
 6103SOL    HW129771   2.314   3.222   0.455 -0.1619  0.5257 -0.0512
 6103SOL    HW229772   2.415   3.293   0.521 -0.3714 -1.5958 -0.3841
 6104SOL     OW29773   3.045   2.393  14.466 -0.1932 -0.0514 -0.3817
 6104SOL    HW129774   2.956   2.375  14.437  0.0383 -1.7047 -0.0674
 6104SOL    HW229775   3.055   2.488  14.458  4.4457 -0.7277 -3.0342
 6105SOL     OW29776   2.141   2.541   2.472  0.6284  0.2890  0.2710
 6105SOL    HW129777   2.196   2.609   2.432  1.2842 -0.6534 -0.4658
 6105SOL    HW229778   2.081   2.534   2.398  0.0798  0.4496  0.7104
 6106SOL     OW29779   2.651   0.099   2.639  0.0122 -0.1515  0.4321
 6106SOL    HW129780   2.609   0.185   2.647 -1.3075 -0.4619 -3.0481
 6106SOL    HW229781   2.683   0.107   2.549 -0.0163 -1.2469  0.3304
 6107SOL     OW29782   3.570   1.575   7.624  0.0596  0.1648 -0.3291
 6107SOL    HW129783   3.637   1.534   7.679 -0.9000 -0.3777  0.4141
 6107SOL    HW229784   3.599   1.666   7.632  1.6599 -0.2893 -0.7786
 6108SOL     OW29785   0.454   2.649   6.635  0.0621  0.0622 -0.1317
 6108SOL    HW129786   0.544   2.682   6.643 -0.0305  0.7721 -2.0955
 6108SOL    HW229787   0.485   2.559   6.623  0.6261 -0.2297  3.4125
 6109SOL     OW29788   2.369   0.847   0.380  0.0414 -0.0318  0.1403
 6109SOL    HW129789   2.393   0.802   0.460  1.4948  1.0741  0.3351
 6109SOL    HW229790   2.286   0.889   0.403  0.8347  1.0012  1.1438
 6110SOL     OW29791   3.943   1.974  13.902 -0.6595  1.1754 -0.1578
 6110SOL    HW129792   3.877   1.918  13.864 -0.1173  0.2447  0.2716
 6110SOL    HW229793   3.889   2.052  13.917 -1.6055  0.5011 -0.1017
 6111SOL     OW29794   3.111   1.847  10.099  0.2327  0.0317  0.1037
 6111SOL    HW129795   3.151   1.779  10.153  0.3838 -0.2214 -0.3344
 6111SOL    HW229796   3.075   1.900  10.171  0.7476 -1.0070  1.1337
 6112SOL     OW29797   2.369   0.875   9.434  0.3328  0.2401 -0.5316
 6112SOL    HW129798   2.278   0.889   9.461 -0.3732 -1.2827 -2.0829
 6112SOL    HW229799   2.399   0.965   9.442  3.2415 -0.8296  0.6815
 6113SOL     OW29800   1.415   0.041   4.692 -0.0271 -0.2304  0.7728
 6113SOL    HW129801   1.404   4.678   4.744 -1.7871  0.6363  1.7213
 6113SOL    HW229802   1.438   0.004   4.607  1.2405 -0.3033  1.1610
 6114SOL     OW29803   2.419   3.277   5.499 -0.3028  0.2221 -0.4721
 6114SOL    HW129804   2.503   3.233   5.515  0.4948  1.5116 -1.1306
 6114SOL    HW229805   2.354   3.206   5.497  0.1903 -0.3202  2.3030
 6115SOL     OW29806   0.938   1.089   2.697  0.2149  0.9183 -0.0603
 6115SOL    HW129807   0.850   1.120   2.718  0.1271  0.4967  0.1990
 6115SOL    HW229808   0.960   1.151   2.628 -1.4271  1.6419  0.0676
 6116SOL     OW29809   0.892   3.868  10.912 -0.5777 -0.1952  0.6290
 6116SOL    HW129810   0.854   3.934  10.971 -0.3015  0.5010  0.0297
 6116SOL    HW229811   0.987   3.878  10.916 -0.5817 -0.2257  0.8315
 6117SOL     OW29812   3.338   4.700   5.871 -0.3564 -0.9356 -0.0417
 6117SOL    HW129813   3.308   0.074   5.870  1.9053 -0.1932 -1.1101
 6117SOL    HW229814   3.421   4.714   5.916 -0.7257 -1.8293  0.8968
 6118SOL     OW29815   0.352   3.106  17.460  0.0644 -0.0114  0.1820
 6118SOL    HW129816   0.403   3.051  17.520  0.6999  1.1750  0.7343
 6118SOL    HW229817   0.284   3.039  17.449 -0.4598  0.3126  1.5306
 6119SOL     OW29818   0.975   2.914  16.116  0.2043  0.2583 -0.3665
 6119SOL    HW129819   0.974   2.997  16.068 -1.9988 -0.0612 -0.8702
 6119SOL    HW229820   0.887   2.913  16.154 -0.2644 -0.4195 -1.4764
 6120SOL     OW29821   2.119   0.594  15.416  0.3478 -0.0169 -0.1714
 6120SOL    HW129822   2.078   0.572  15.500  1.0592 -0.1783  0.1407
 6120SOL    HW229823   2.039   0.608  15.367 -0.6655 -1.3035  1.1118
 6121SOL     OW29824   3.759   0.913   0.623  0.5537  0.0121 -0.2519
 6121SOL    HW129825   3.839   0.880   0.583  1.0306 -0.1533  0.8613
 6121SOL    HW229826   3.708   0.833   0.611  0.5918 -0.0610  0.0913
 6122SOL     OW29827   3.038   3.656  10.423 -0.0427 -0.2847  0.1687
 6122SOL    HW129828   3.130   3.633  10.411 -0.0573  0.1200 -0.7780
 6122SOL    HW229829   3.009   3.683  10.335 -0.5029  0.7924  0.6512
 6123SOL     OW29830   2.199   3.268   1.847  0.3496  0.5924  0.4171
 6123SOL    HW129831   2.167   3.355   1.870  1.2591  1.7384 -2.7658
 6123SOL    HW229832   2.125   3.235   1.795 -0.4088  0.8403  1.3362
 6124SOL     OW29833   1.941   3.056  11.667  0.1435 -0.0713  0.1691
 6124SOL    HW129834   1.983   3.140  11.684  0.6892 -0.5538  1.1992
 6124SOL    HW229835   1.933   3.054  11.571  0.1614  1.8450  0.1373
 6125SOL     OW29836   3.630   4.284   4.787 -0.4948 -0.6092 -0.6230
 6125SOL    HW129837   3.587   4.272   4.702  1.7773  2.1766 -2.1513
 6125SOL    HW229838   3.562   4.241   4.839  0.1359  0.2813  0.9027
 6126SOL     OW29839   2.954   3.016   5.125 -0.4961  0.5697 -0.0068
 6126SOL    HW129840   2.939   3.080   5.195  0.7957  1.4251 -0.5018
 6126SOL    HW229841   3.021   3.066   5.078 -0.0418 -0.4266 -0.4026
 6127SOL     OW29842   2.206   3.837   7.931 -0.1179 -0.1135 -0.0033
 6127SOL    HW129843   2.119   3.876   7.940 -0.6303 -0.9520 -1.4933
 6127SOL    HW229844   2.185   3.745   7.918  1.0545 -0.2356 -1.0621
 6128SOL     OW29845   2.433   1.323   8.279 -0.0919 -0.3428 -0.0205
 6128SOL    HW129846   2.361   1.263   8.260  0.3246 -0.0355 -2.5637
 6128SOL    HW229847   2.395   1.407   8.253  0.8191 -0.3534 -1.4073
 6129SOL     OW29848   0.010   2.384   1.577 -0.3242 -0.4442  0.1998
 6129SOL    HW129849   0.073   2.346   1.638  2.5193  2.2759 -1.0340
 6129SOL    HW229850   0.052   2.381   1.491 -0.6764  0.6809 -0.0136
 6130SOL     OW29851   0.965   2.228  16.258 -0.2373 -0.1434  0.2401
 6130SOL    HW129852   1.027   2.178  16.205  0.1668  0.4255  0.1723
 6130SOL    HW229853   1.014   2.304  16.288  1.3721 -0.9482 -0.3485
 6131SOL     OW29854   3.799   1.665  11.033  0.3890 -0.3479  0.0874
 6131SOL    HW129855   3.850   1.700  10.960  1.5484 -0.0877  1.0377
 6131SOL    HW229856   3.787   1.743  11.086 -0.0288 -0.5891  0.3596
 6132SOL     OW29857   3.726   0.774   8.625 -0.1953  0.3383 -0.0786
 6132SOL    HW129858   3.700   0.830   8.697 -0.1574 -0.2749  0.4124
 6132SOL    HW229859   3.809   0.814   8.600 -0.1647 -0.5281 -1.3934
 6133SOL     OW29860   0.977   0.822   4.457  0.4068  0.4060  0.3962
 6133SOL    HW129861   0.995   0.856   4.369  0.6756 -0.5216  0.0832
 6133SOL    HW229862   1.011   0.889   4.515  1.7448  0.2289 -0.1766
 6134SOL     OW29863   2.115   3.415   5.618 -0.1864 -0.2125  0.3268
 6134SOL    HW129864   2.056   3.421   5.544 -0.4566 -1.1609  0.4616
 6134SOL    HW229865   2.192   3.447   5.571  0.3690 -2.3540 -0.2384
 6135SOL     OW29866   2.481   1.769   0.166  0.4361 -0.4821 -0.8103
 6135SOL    HW129867   2.477   1.773   0.070  3.6968  0.6399 -0.8892
 6135SOL    HW229868   2.394   1.804   0.185  0.8808 -1.0658  2.3075
 6136SOL     OW29869   0.107   2.778  10.088 -0.1710 -0.0413 -0.7658
 6136SOL    HW129870   0.133   2.793  10.179 -1.8860  0.9119 -0.4414
 6136SOL    HW229871   0.190   2.740  10.057  0.9349  1.8983 -0.1902
 6137SOL     OW29872   4.110   2.179   9.651 -0.0407 -0.2420 -0.4238
 6137SOL    HW129873   4.143   2.184   9.741 -2.4142  0.2787  0.4140
 6137SOL    HW229874   4.138   2.268   9.630 -0.7585 -0.5601 -2.7482
 6138SOL     OW29875   3.634   4.055   5.004  0.4740  0.1030  0.1406
 6138SOL    HW129876   3.668   4.071   5.092  1.0235  0.8556 -0.2135
 6138SOL    HW229877   3.711   4.079   4.953  0.4666 -1.0355 -0.4026
 6139SOL     OW29878   3.046   4.665   7.479  0.0654  0.1416 -0.3554
 6139SOL    HW129879   3.122   4.618   7.514 -1.3328 -0.1939  2.2236
 6139SOL    HW229880   3.018   0.014   7.542  0.8663  1.1060 -1.0065
 6140SOL     OW29881   4.378   0.514   1.823 -0.0570 -0.1037 -0.2437
 6140SOL    HW129882   4.458   0.565   1.829  0.9255 -1.8601  1.5882
 6140SOL    HW229883   4.347   0.532   1.734 -0.9883  0.6685  0.2406
 6141SOL     OW29884   0.231   1.698   5.525  0.1541 -0.0614  0.6540
 6141SOL    HW129885   0.320   1.661   5.524  0.3623  0.4812 -0.6987
 6141SOL    HW229886   0.240   1.792   5.536  1.4521  0.1212 -1.9885
 6142SOL     OW29887   2.975   3.248   3.124 -0.2637 -0.0284  0.2423
 6142SOL    HW129888   2.981   3.290   3.038  0.4978 -2.0691 -0.7053
 6142SOL    HW229889   3.068   3.241   3.146 -0.5220 -0.1943  1.3002
 6143SOL     OW29890   4.629   3.911   5.054  0.3022 -0.6844  0.3373
 6143SOL    HW129891   4.695   3.848   5.024  0.7167  0.2895 -0.7881
 6143SOL    HW229892   4.669   3.925   5.140 -0.3427 -2.1337  0.8707
 6144SOL     OW29893   3.555   1.665   1.508 -0.0051 -0.3804  0.0109
 6144SOL    HW129894   3.628   1.612   1.538 -1.0989 -2.5129 -1.0293
 6144SOL    HW229895   3.488   1.644   1.573 -0.0896  0.8239  0.3123
 6145SOL     OW29896   3.483   4.230   7.900  0.4350  0.5347 -0.0413
 6145SOL    HW129897   3.423   4.218   7.974 -1.6969 -0.8926 -1.9945
 6145SOL    HW229898   3.503   4.138   7.880 -0.1007  0.4191 -0.0560
 6146SOL     OW29899   1.125   1.951  17.319 -0.2981  0.0604  0.3723
 6146SOL    HW129900   1.184   1.960  17.394  1.7710  1.5489 -1.4372
 6146SOL    HW229901   1.102   2.043  17.307  0.7914  0.4652  1.4722
 6147SOL     OW29902   1.573   1.423   6.740  0.4824  0.4444 -0.0208
 6147SOL    HW129903   1.598   1.330   6.738  2.9050  1.0730  0.7413
 6147SOL    HW229904   1.603   1.462   6.822 -0.0786  0.0082  0.3878
 6148SOL     OW29905   3.371   2.666  14.285 -0.0965 -0.3545 -0.0400
 6148SOL    HW129906   3.406   2.746  14.246  0.5566 -0.8517 -0.4656
 6148SOL    HW229907   3.415   2.598  14.236  0.2222  0.3981 -0.8012
 6149SOL     OW29908   2.228   3.793   6.944  0.1591  0.1559 -0.2320
 6149SOL    HW129909   2.137   3.774   6.967  0.4634 -0.8323  0.1424
 6149SOL    HW229910   2.269   3.809   7.028 -0.6880 -1.4161  0.4743
 6150SOL     OW29911   0.944   0.307   4.915 -0.2974 -0.3447  0.2574
 6150SOL    HW129912   0.888   0.229   4.912  0.6312 -1.0286  0.8306
 6150SOL    HW229913   0.938   0.326   4.821  0.4447  0.0181  0.2812
 6151SOL     OW29914   3.628   2.389   6.168  0.2393  0.7741 -0.4096
 6151SOL    HW129915   3.686   2.430   6.104 -1.1458  1.3747 -1.2771
 6151SOL    HW229916   3.693   2.351   6.228  0.0465  1.1961  0.0718
 6152SOL     OW29917   3.233   3.327  10.425 -0.2758  0.1293  0.1311
 6152SOL    HW129918   3.255   3.304  10.516 -0.9592  0.8790  0.4848
 6152SOL    HW229919   3.154   3.279  10.401  0.7052 -1.7516  0.6077
 6153SOL     OW29920   0.652   1.390   4.316  0.0981 -0.2211 -0.0208
 6153SOL    HW129921   0.734   1.392   4.266  1.5065  0.5247  2.3008
 6153SOL    HW229922   0.655   1.303   4.356 -2.5068  0.6862  2.1211
 6154SOL     OW29923   0.656   3.496   0.407  0.1490 -0.0911 -0.2834
 6154SOL    HW129924   0.569   3.468   0.379 -0.1526 -1.3364  1.9168
 6154SOL    HW229925   0.652   3.583   0.367  1.3066  0.3990  0.6486
 6155SOL     OW29926   1.108   0.780  10.281 -0.0252 -0.0712 -0.3260
 6155SOL    HW129927   1.199   0.805  10.298 -0.2305  1.3615 -1.3260
 6155SOL    HW229928   1.078   0.844  10.216 -1.9619 -0.9417 -0.2997
 6156SOL     OW29929   1.883   4.493   6.189  0.3470  0.3359 -0.1290
 6156SOL    HW129930   1.787   4.489   6.188  0.3771 -0.5742  1.8004
 6156SOL    HW229931   1.909   4.495   6.097 -0.2766  1.3436 -0.2940
 6157SOL     OW29932   0.579   2.533  12.791  0.4193  0.0154 -0.1342
 6157SOL    HW129933   0.520   2.463  12.764 -1.2013  2.0218 -1.7390
 6157SOL    HW229934   0.588   2.596  12.720  0.0047  0.8734  0.5693
 6158SOL     OW29935   4.247   4.012  13.667 -0.1119 -0.6936 -0.5838
 6158SOL    HW129936   4.295   3.930  13.654 -2.6334 -2.4844  1.4992
 6158SOL    HW229937   4.227   3.997  13.760  1.6625 -0.4806 -0.1733
 6159SOL     OW29938   2.764   4.145  15.134 -0.0604 -0.3116 -0.4488
 6159SOL    HW129939   2.716   4.213  15.181  0.4028  0.9362 -1.7602
 6159SOL    HW229940   2.823   4.115  15.203  0.3543 -1.8546 -1.4618
 6160SOL     OW29941   0.096   0.139  11.097  0.1340 -0.2530 -0.0369
 6160SOL    HW129942   0.068   0.172  11.012 -2.3046 -0.1729  0.8075
 6160SOL    HW229943   0.190   0.134  11.082 -0.1840  0.3023 -2.3063
 6161SOL     OW29944   4.537   3.099   7.224 -0.2550  0.0207  0.3104
 6161SOL    HW129945   4.481   3.080   7.300  0.3331 -0.7816  0.5485
 6161SOL    HW229946   4.587   3.172   7.260 -0.8066  0.6394 -0.1824
 6162SOL     OW29947   2.168   2.530  12.827 -0.8581  0.5651 -0.0300
 6162SOL    HW129948   2.211   2.473  12.892 -0.5179  0.7443 -0.0967
 6162SOL    HW229949   2.194   2.619  12.853  0.0473  0.3841 -0.3115
 6163SOL     OW29950   1.192   0.989  12.481  0.0082  0.4523 -0.3474
 6163SOL    HW129951   1.151   1.073  12.459  0.2965  0.9022  0.7822
 6163SOL    HW229952   1.227   1.018  12.566  2.9247  0.4495 -1.5177
 6164SOL     OW29953   1.527   4.657   8.548  0.2316  0.2963  0.0260
 6164SOL    HW129954   1.568   4.707   8.478  1.3376 -0.5225  0.0943
 6164SOL    HW229955   1.440   4.644   8.510  1.0923 -0.8904 -1.5385
 6165SOL     OW29956   0.519   4.428   7.577 -0.1439  0.2714 -0.1709
 6165SOL    HW129957   0.439   4.476   7.599 -1.5416 -3.0002  1.8799
 6165SOL    HW229958   0.481   4.366   7.514 -0.3973 -0.2240  0.4640
 6166SOL     OW29959   2.673   1.592  14.759 -0.4353  0.0558  0.4551
 6166SOL    HW129960   2.584   1.576  14.790 -1.0866  1.2802 -0.7613
 6166SOL    HW229961   2.707   1.520  14.811  0.2197  0.4527  0.5788
 6167SOL     OW29962   0.276   3.164  16.999  0.0832  0.0650  0.6590
 6167SOL    HW129963   0.276   3.176  17.094 -1.1145 -1.0318  0.7898
 6167SOL    HW229964   0.354   3.207  16.964  0.0446  0.5186  1.1328
 6168SOL     OW29965   0.448   0.750   6.759 -0.4218  0.4707  0.4823
 6168SOL    HW129966   0.529   0.787   6.793  0.2077 -1.7638  1.4134
 6168SOL    HW229967   0.424   0.695   6.834  0.6943 -1.5580 -0.6549
 6169SOL     OW29968   2.271   4.246  15.432  0.4597 -0.6135  0.3891
 6169SOL    HW129969   2.296   4.220  15.520  0.0825  0.5676  0.8439
 6169SOL    HW229970   2.312   4.178  15.377 -1.5273 -1.0986 -0.4736
 6170SOL     OW29971   3.912   3.460   0.716  0.7889  0.4786  0.1172
 6170SOL    HW129972   3.970   3.478   0.641 -0.6347 -0.4207 -1.1892
 6170SOL    HW229973   3.984   3.448   0.779 -0.2777  0.5134  1.3364
 6171SOL     OW29974   3.760   0.059   9.094 -0.4721 -0.1285  0.4714
 6171SOL    HW129975   3.684   0.000   9.096 -0.7845  0.2200 -2.2330
 6171SOL    HW229976   3.732   0.116   9.166  1.9281 -0.1916  1.4591
 6172SOL     OW29977   0.250   0.894   8.941 -0.0364 -0.0140  0.1923
 6172SOL    HW129978   0.344   0.892   8.963  0.3628 -1.5283 -1.5829
 6172SOL    HW229979   0.230   0.835   9.013 -0.7874  0.3329  0.2612
 6173SOL     OW29980   4.473   2.947   3.200 -0.2177 -0.1165  0.7300
 6173SOL    HW129981   4.516   2.970   3.282  1.4254 -0.7119  0.0582
 6173SOL    HW229982   4.509   3.016   3.144 -0.9803 -0.5173 -0.2611
 6174SOL     OW29983   0.598   3.156   5.057 -0.1181 -0.6606 -0.3254
 6174SOL    HW129984   0.656   3.222   5.021  1.3575 -2.7261 -1.6748
 6174SOL    HW229985   0.638   3.123   5.138 -2.7571 -2.0255  0.4227
 6175SOL     OW29986   3.268   0.749   8.524 -0.0597 -0.1244 -0.0225
 6175SOL    HW129987   3.348   0.705   8.497 -1.3078 -1.7840 -1.0350
 6175SOL    HW229988   3.222   0.763   8.441  0.1796  0.2834 -0.0891
 6176SOL     OW29989   3.476   2.196   2.547  0.6572 -0.7884 -1.4067
 6176SOL    HW129990   3.382   2.197   2.533  0.5158  1.7770 -0.3592
 6176SOL    HW229991   3.487   2.193   2.642  0.2015 -1.0672 -1.3629
 6177SOL     OW29992   4.272   0.823   7.267  0.1505 -0.3672  0.5508
 6177SOL    HW129993   4.294   0.738   7.303  0.8967 -0.0127  0.9330
 6177SOL    HW229994   4.282   0.874   7.348 -0.6108  0.1155  0.3465
 6178SOL     OW29995   4.233   1.660   8.281 -0.9183  0.4605 -0.6786
 6178SOL    HW129996   4.139   1.669   8.294 -0.9452  0.5552 -0.9458
 6178SOL    HW229997   4.254   1.566   8.290 -0.6092  0.6957  1.1873
 6179SOL     OW29998   2.667   3.393   3.604 -0.2577  0.9653 -0.0402
 6179SOL    HW129999   2.724   3.332   3.559 -3.8345  0.0590 -3.3769
 6179SOL    HW230000   2.584   3.345   3.607 -0.6211  1.5406 -1.0632
 6180SOL     OW30001   2.150   1.000  14.380  0.6036  0.2862 -0.2619
 6180SOL    HW130002   2.170   1.073  14.321 -1.3398  0.2232 -1.0038
 6180SOL    HW230003   2.235   0.962  14.357  1.3131  0.1191  2.7376
 6181SOL     OW30004   2.128   0.762   0.524  0.3870 -0.3381  1.1767
 6181SOL    HW130005   2.064   0.812   0.575  0.1699 -0.8289  1.3863
 6181SOL    HW230006   2.204   0.756   0.581  1.0628 -1.5668  0.1565
 6182SOL     OW30007   2.039   1.500   3.451  0.0783  0.5411 -0.1712
 6182SOL    HW130008   1.965   1.440   3.442  0.0433  0.7350 -1.2109
 6182SOL    HW230009   2.010   1.577   3.402 -1.6538  1.2037  1.9129
 6183SOL     OW30010   2.787   0.779   4.238 -0.9050  0.3357 -0.3644
 6183SOL    HW130011   2.812   0.869   4.218 -0.2749  0.6460  1.7264
 6183SOL    HW230012   2.807   0.739   4.153 -1.7615  0.8919 -0.8187
 6184SOL     OW30013   1.873   0.757   7.128 -0.3031 -0.1575 -0.6803
 6184SOL    HW130014   1.967   0.777   7.124 -0.3010 -0.0111  0.1245
 6184SOL    HW230015   1.873   0.678   7.074  2.9832 -1.3354  1.0492
 6185SOL     OW30016   3.528   4.084   1.573 -0.0008  0.0199 -0.1789
 6185SOL    HW130017   3.459   4.051   1.515  0.1706  0.1380 -0.4526
 6185SOL    HW230018   3.496   4.055   1.658  2.5696 -0.0696  0.7702
 6186SOL     OW30019   1.921   3.204  15.980 -0.2005  0.4435  0.4688
 6186SOL    HW130020   1.884   3.117  15.967  1.7847 -0.2941 -0.1729
 6186SOL    HW230021   1.900   3.235  15.892 -0.5777 -0.9754  0.0613
 6187SOL     OW30022   2.241   0.388  16.839 -0.3616 -0.0248 -0.4140
 6187SOL    HW130023   2.244   0.311  16.783 -2.6371  0.1622 -0.7818
 6187SOL    HW230024   2.161   0.429  16.808 -1.7386 -2.9207 -0.6843
 6188SOL     OW30025   4.138   4.644  12.609  0.3911  0.0284  0.2388
 6188SOL    HW130026   4.195   4.681  12.541  1.9778 -1.6164  0.6946
 6188SOL    HW230027   4.141   4.551  12.587 -1.5150 -0.0613  0.3688
 6189SOL     OW30028   0.646   0.643  11.121 -0.5480  0.0526 -0.4125
 6189SOL    HW130029   0.736   0.619  11.101  0.0485  1.8283  0.2088
 6189SOL    HW230030   0.624   0.604  11.205  1.6042  0.2675  0.2366
 6190SOL     OW30031   4.105   1.204  16.186  0.1578  0.0111 -0.3920
 6190SOL    HW130032   4.157   1.182  16.109  0.7598 -1.0024  0.3093
 6190SOL    HW230033   4.125   1.136  16.249  0.1683 -1.1158 -1.6194
 6191SOL     OW30034   0.483   1.132   0.563 -0.0691 -0.1856 -0.0058
 6191SOL    HW130035   0.448   1.201   0.619 -0.9758 -0.6099 -0.0338
 6191SOL    HW230036   0.517   1.182   0.489 -1.0879  1.6137  0.7588
 6192SOL     OW30037   3.248   3.080   7.883  0.6563 -0.2716  0.3203
 6192SOL    HW130038   3.167   3.060   7.930  0.8302 -3.1740 -0.6121
 6192SOL    HW230039   3.284   2.995   7.855  4.0771  1.2521  0.1357
 6193SOL     OW30040   3.336   1.997   1.938  0.3373  0.0878 -0.4905
 6193SOL    HW130041   3.430   1.982   1.947  0.7847  2.5260 -1.1937
 6193SOL    HW230042   3.313   1.981   2.030 -0.8697 -1.8882 -1.1321
 6194SOL     OW30043   4.519   2.005   8.536 -0.5825 -0.8115 -0.5781
 6194SOL    HW130044   4.482   1.927   8.495 -0.0407 -1.1054 -0.5081
 6194SOL    HW230045   4.609   1.981   8.514 -0.5798  0.0002 -1.4790
 6195SOL     OW30046   0.844   3.658   1.676 -0.1862 -0.1834 -0.9748
 6195SOL    HW130047   0.878   3.733   1.627 -0.1971 -1.1191 -2.4374
 6195SOL    HW230048   0.797   3.690   1.753 -0.0975 -2.0521 -0.1327
 6196SOL     OW30049   2.496   2.487   5.947 -0.2557  0.4323  0.6822
 6196SOL    HW130050   2.421   2.546   5.960  0.0876  1.0534 -0.2016
 6196SOL    HW230051   2.566   2.551   5.931  1.1294 -0.7228  2.0890
 6197SOL     OW30052   0.751   4.453   4.563  0.0006  0.2421 -0.5290
 6197SOL    HW130053   0.796   4.474   4.645 -3.0429 -0.0921  1.2702
 6197SOL    HW230054   0.669   4.497   4.588  1.3732  1.8369  1.0915
 6198SOL     OW30055   0.666   3.292   5.795 -0.2683  0.1817  0.4117
 6198SOL    HW130056   0.705   3.331   5.716  1.6657 -0.6906  0.9157
 6198SOL    HW230057   0.590   3.244   5.763  0.6030 -0.9518  0.0149
 6199SOL     OW30058   0.251   2.305   4.183  0.4433 -0.2088  0.1334
 6199SOL    HW130059   0.167   2.341   4.155  1.0957  0.6146 -0.7819
 6199SOL    HW230060   0.237   2.302   4.278 -1.6795  0.4135 -0.1531
 6200SOL     OW30061   1.367   4.434   7.025 -0.2134 -0.3540  0.4988
 6200SOL    HW130062   1.334   4.378   6.955  2.7858 -0.1814 -1.0165
 6200SOL    HW230063   1.428   4.492   6.980 -1.3614  0.6896  0.2776
 6201SOL     OW30064   1.101   4.521   1.195  0.2528 -0.6924  0.0510
 6201SOL    HW130065   1.081   4.463   1.269 -1.3271 -0.0607  0.1106
 6201SOL    HW230066   1.126   4.600   1.243  2.1281 -0.0620 -1.9630
 6202SOL     OW30067   1.600   4.239   7.057 -0.0131  0.5510  0.0278
 6202SOL    HW130068   1.521   4.286   7.081 -0.5418  0.3026 -1.1991
 6202SOL    HW230069   1.669   4.306   7.064  0.1008  0.5334 -0.8431
 6203SOL     OW30070   0.111   1.209   3.303 -0.3928 -0.6349  0.1127
 6203SOL    HW130071   0.108   1.121   3.265 -0.5264 -1.1813  1.3898
 6203SOL    HW230072   0.161   1.194   3.383 -1.7616 -1.3141  0.8376
 6204SOL     OW30073   2.472   1.683   3.584 -0.3622 -0.4294  0.2082
 6204SOL    HW130074   2.516   1.680   3.669  0.5294 -1.6735 -0.2994
 6204SOL    HW230075   2.400   1.623   3.602  0.1450 -0.7579  1.1389
 6205SOL     OW30076   0.533   1.178   5.720  0.0546 -0.6742  0.2330
 6205SOL    HW130077   0.589   1.113   5.762 -0.8569 -1.2526  0.5634
 6205SOL    HW230078   0.456   1.125   5.743 -0.5611  0.3537  0.5401
 6206SOL     OW30079   2.077   0.782   5.116  0.1577  0.1654  0.7474
 6206SOL    HW130080   2.159   0.824   5.143  0.3627 -0.7639  1.5627
 6206SOL    HW230081   2.088   0.716   5.185  1.5399 -0.9205 -0.5186
 6207SOL     OW30082   0.590   1.996   5.044  0.5693  0.5783  0.3059
 6207SOL    HW130083   0.547   2.045   4.974 -1.5325  0.9785  1.9084
 6207SOL    HW230084   0.524   2.001   5.112 -1.6352  2.8772 -2.0112
 6208SOL     OW30085   1.206   0.618   5.750 -0.1353  0.3660  0.3559
 6208SOL    HW130086   1.250   0.703   5.741  0.7335 -0.0670  0.4668
 6208SOL    HW230087   1.233   0.586   5.663 -0.8608 -1.5478  0.8307
 6209SOL     OW30088   2.316   4.594   4.137  0.2299 -0.5031  0.5565
 6209SOL    HW130089   2.307   4.634   4.050 -0.7855  2.2265  1.9045
 6209SOL    HW230090   2.247   4.648   4.175  0.1942  0.0444 -0.2838
 6210SOL     OW30091   4.585   0.952  16.626  0.3978 -0.2817 -0.4341
 6210SOL    HW130092   4.674   0.928  16.653  0.5721 -1.5423 -2.1489
 6210SOL    HW230093   4.559   0.873  16.578  1.7047 -2.1114  1.8760
 6211SOL     OW30094   1.323   3.615  13.663 -0.0314 -0.4145 -0.1341
 6211SOL    HW130095   1.365   3.546  13.612 -3.5877 -0.2820 -3.2324
 6211SOL    HW230096   1.397   3.675  13.666 -0.5206  0.1175  1.0363
 6212SOL     OW30097   0.167   3.879   4.741 -0.0775 -0.5982 -0.4477
 6212SOL    HW130098   0.209   3.955   4.699 -0.7910  0.2819  0.4278
 6212SOL    HW230099   0.084   3.890   4.694  0.4204  1.3245 -0.9046
 6213SOL     OW30100   1.183   4.085   3.838 -0.0682  0.0374  0.0426
 6213SOL    HW130101   1.263   4.091   3.890  0.8704  2.7464 -1.7107
 6213SOL    HW230102   1.219   4.052   3.756 -1.3490  0.7690 -0.8192
 6214SOL     OW30103   1.551   2.731   8.920  0.1835  0.7350 -0.0800
 6214SOL    HW130104   1.570   2.640   8.941 -2.2122  0.5229  1.2165
 6214SOL    HW230105   1.539   2.763   9.010 -1.4673  0.7447 -0.2889
 6215SOL     OW30106   3.378   4.682   8.856 -0.2143 -0.4230 -0.4560
 6215SOL    HW130107   3.402   4.629   8.780  1.5793  1.0876 -0.9496
 6215SOL    HW230108   3.306   4.626   8.882 -0.4812  0.8323  1.5255
 6216SOL     OW30109   4.590   2.955   8.260 -0.3915  0.6714 -0.1718
 6216SOL    HW130110   4.504   2.996   8.269 -1.9382 -2.6516  0.3555
 6216SOL    HW230111   4.639   3.008   8.323 -0.3421  0.7301 -0.2607
 6217SOL     OW30112   4.602   2.529  14.299  0.7053 -0.2785  0.3703
 6217SOL    HW130113   4.598   2.434  14.315  0.3902 -0.2995  0.1648
 6217SOL    HW230114   4.604   2.574  14.383 -1.0493 -0.1706  0.3592
 6218SOL     OW30115   2.328   2.993   6.107 -0.1875 -0.3695  0.4771
 6218SOL    HW130116   2.337   2.900   6.124  1.6929 -0.1244  0.8396
 6218SOL    HW230117   2.383   3.033   6.175 -0.3486  1.1443 -0.2818
 6219SOL     OW30118   4.577   1.266   1.932 -0.5744 -0.3596  0.3577
 6219SOL    HW130119   4.637   1.191   1.930 -0.1335  0.0656 -2.2954
 6219SOL    HW230120   4.645   1.332   1.948 -0.2298 -0.1482 -1.9683
 6220SOL     OW30121   0.897   2.936   3.410  0.0474 -0.5763  0.1845
 6220SOL    HW130122   0.945   2.870   3.361 -0.1375 -0.2467 -0.4455
 6220SOL    HW230123   0.969   2.992   3.438 -0.9201 -1.2689  3.9765
 6221SOL     OW30124   2.717   2.207   1.546 -1.0440  0.2121 -0.7845
 6221SOL    HW130125   2.664   2.175   1.473 -1.8999  2.4288 -1.1275
 6221SOL    HW230126   2.723   2.118   1.580  1.4170  0.3111 -0.9138
 6222SOL     OW30127   4.205   2.844   0.608 -0.0421 -0.1985 -0.7194
 6222SOL    HW130128   4.173   2.853   0.518 -2.8480  0.7348  0.3694
 6222SOL    HW230129   4.189   2.932   0.642  0.2400  0.0688 -1.2792
 6223SOL     OW30130   0.359   1.412   3.264  0.2468  0.8583  0.3440
 6223SOL    HW130131   0.299   1.485   3.254  0.4240  0.9787  0.1539
 6223SOL    HW230132   0.360   1.361   3.183  0.3688  2.0695 -0.4265
 6224SOL     OW30133   0.654   0.022   7.031 -0.3823 -0.0365  0.3718
 6224SOL    HW130134   0.743   4.702   7.034  0.4946  2.1343  0.3582
 6224SOL    HW230135   0.664   0.117   7.039  0.1059  0.1570 -2.5791
 6225SOL     OW30136   1.353   2.717  16.230 -0.0156  0.3395 -0.2735
 6225SOL    HW130137   1.397   2.703  16.314 -0.5519 -2.0828 -0.3664
 6225SOL    HW230138   1.405   2.665  16.168  0.2642 -1.7092  1.6607
 6226SOL     OW30139   4.038   3.906   3.404  0.0644 -0.1509  0.3529
 6226SOL    HW130140   4.070   3.837   3.462  1.7399  1.4928  1.4017
 6226SOL    HW230141   3.956   3.932   3.446  0.5335 -3.5868  3.4522
 6227SOL     OW30142   2.452   0.200  14.406  0.5291 -0.6575  0.4175
 6227SOL    HW130143   2.389   0.137  14.371  0.9334 -0.4379 -0.6928
 6227SOL    HW230144   2.538   0.162  14.389  0.6007 -0.7326  0.9600
 6228SOL     OW30145   1.212   4.413   2.332  0.8592 -0.0935 -0.0499
 6228SOL    HW130146   1.299   4.376   2.323 -1.1395 -4.6687 -0.2843
 6228SOL    HW230147   1.208   4.416   2.428  0.5932 -0.7894 -0.0441
 6229SOL     OW30148   2.562   3.436   0.780 -0.4811 -0.1207 -0.0091
 6229SOL    HW130149   2.497   3.433   0.851 -1.4114 -0.9289 -0.8790
 6229SOL    HW230150   2.526   3.359   0.736  0.6496  0.5367 -2.0683
 6230SOL     OW30151   4.248   2.918   3.936 -0.0359  0.1630  0.2793
 6230SOL    HW130152   4.186   2.985   3.909 -0.9795  0.5693  3.4658
 6230SOL    HW230153   4.263   2.874   3.852  2.4689  1.9379 -0.1965
 6231SOL     OW30154   4.083   3.835  10.136  0.5864 -0.0312 -0.1537
 6231SOL    HW130155   4.072   3.889  10.058 -2.0478  0.2336  0.3974
 6231SOL    HW230156   4.021   3.770  10.104  1.1926 -1.2993  1.2503
 6232SOL     OW30157   4.103   1.082  16.630 -0.2606  0.1829 -0.3862
 6232SOL    HW130158   4.043   1.142  16.674 -1.1948 -2.4209  1.8457
 6232SOL    HW230159   4.187   1.098  16.674  0.1793 -0.0775 -1.1325
 6233SOL     OW30160   0.932   2.451   9.928 -0.5952  0.3755 -0.2040
 6233SOL    HW130161   0.943   2.360   9.901 -0.5467  0.0538  0.8706
 6233SOL    HW230162   0.858   2.443   9.988  2.2026  0.0212  3.2022
 6234SOL     OW30163   0.763   2.244  12.036 -0.4111 -0.6925 -0.7250
 6234SOL    HW130164   0.835   2.180  12.036 -0.7768 -1.1139  2.2870
 6234SOL    HW230165   0.693   2.185  12.009 -0.6693 -0.1059 -1.3228
 6235SOL     OW30166   1.433   1.612   6.577  0.4084  0.1013  0.1651
 6235SOL    HW130167   1.474   1.539   6.623 -1.5948 -2.2726 -1.8028
 6235SOL    HW230168   1.505   1.642   6.522  0.5287 -3.4645 -1.6697
 6236SOL     OW30169   0.300   3.341  17.636 -0.1594  0.3178  0.2267
 6236SOL    HW130170   0.205   3.339  17.648 -0.3166  0.2614 -1.0639
 6236SOL    HW230171   0.322   3.248  17.633 -2.5845 -0.1914 -1.3923
 6237SOL     OW30172   0.204   3.981   1.831  0.3204 -0.1267  0.1398
 6237SOL    HW130173   0.139   3.913   1.848 -1.2411  1.3594  0.2339
 6237SOL    HW230174   0.222   3.956   1.741 -2.6566  1.8700 -1.0302
 6238SOL     OW30175   3.006   4.664   5.737  0.3280 -0.0630  0.4228
 6238SOL    HW130176   3.018   4.716   5.817 -3.7246 -1.9591  2.2373
 6238SOL    HW230177   3.059   0.004   5.680 -1.8112 -0.2164 -1.7181
 6239SOL     OW30178   2.547   3.695   1.051  0.0395  0.1222  1.1086
 6239SOL    HW130179   2.504   3.747   0.983 -0.7841  1.4325  2.6267
 6239SOL    HW230180   2.528   3.606   1.023 -1.1419  1.6326 -2.8382
 6240SOL     OW30181   1.170   2.537   7.958 -0.1514 -0.3550 -0.2514
 6240SOL    HW130182   1.194   2.476   7.888 -0.5432 -0.6407 -0.1371
 6240SOL    HW230183   1.211   2.490   8.031 -2.6268 -0.4019  1.0899
 6241SOL     OW30184   2.076   3.341   0.399 -0.2503  0.6795  0.1965
 6241SOL    HW130185   2.161   3.317   0.436 -0.8098  0.0602  1.0732
 6241SOL    HW230186   2.072   3.432   0.429 -0.4591  0.5658  0.5104
 6242SOL     OW30187   1.481   2.561   3.064  0.2618  0.1019 -0.0359
 6242SOL    HW130188   1.515   2.620   2.997 -2.1384  2.3216  0.6995
 6242SOL    HW230189   1.490   2.604   3.150 -5.4297  1.5093 -0.1439
 6243SOL     OW30190   2.547   2.918  16.035 -0.8141 -0.1704  0.2249
 6243SOL    HW130191   2.512   3.003  16.008 -2.0986 -1.1852 -1.3208
 6243SOL    HW230192   2.523   2.918  16.128  0.6951 -0.3284  0.6152
 6244SOL     OW30193   0.170   3.266   3.279 -0.8876  0.5138 -0.5303
 6244SOL    HW130194   0.180   3.199   3.212 -0.8937 -2.1895  2.1318
 6244SOL    HW230195   0.120   3.324   3.222 -0.2490 -2.1318 -3.7857
 6245SOL     OW30196   4.144   2.778   4.237  0.0923  0.3317  0.3676
 6245SOL    HW130197   4.176   2.803   4.150 -1.1506 -2.0336 -0.7641
 6245SOL    HW230198   4.056   2.759   4.205  0.2047 -0.7602  0.7105
 6246SOL     OW30199   4.499   2.122   5.557  0.0591  0.0377  0.4388
 6246SOL    HW130200   4.554   2.050   5.527 -0.4716 -0.2575  0.1755
 6246SOL    HW230201   4.422   2.122   5.500  1.0358  0.5301 -0.8980
 6247SOL     OW30202   2.264   0.164  16.695  0.6711  0.4889  0.1400
 6247SOL    HW130203   2.216   0.151  16.614 -2.3066  2.3709  1.5892
 6247SOL    HW230204   2.301   0.076  16.692 -0.2084  0.1153  0.1220
 6248SOL     OW30205   2.947   0.516  12.495 -0.0030 -0.0492  0.0605
 6248SOL    HW130206   3.037   0.486  12.500  0.2347  0.5693 -0.4936
 6248SOL    HW230207   2.926   0.508  12.588  1.8129 -0.7026  0.4176
 6249SOL     OW30208   3.841   3.316  13.474 -0.7186 -0.2495  0.1495
 6249SOL    HW130209   3.873   3.266  13.400 -0.0432 -0.9374  0.9064
 6249SOL    HW230210   3.856   3.406  13.446  0.4474 -0.8305 -1.0801
 6250SOL     OW30211   2.737   1.523   3.506 -0.3450 -0.7787  1.1722
 6250SOL    HW130212   2.727   1.618   3.514  0.2328 -0.4365 -2.2126
 6250SOL    HW230213   2.659   1.490   3.552 -1.8044  1.7907  0.5303
 6251SOL     OW30214   4.715   0.843   3.362  0.0965 -0.5612 -0.4963
 6251SOL    HW130215   4.682   0.756   3.384 -2.6839  0.4771 -0.4750
 6251SOL    HW230216   4.637   0.900   3.367 -0.8728 -2.0260  1.0604
 6252SOL     OW30217   3.375   4.285  17.033  0.1998  0.6722 -0.2300
 6252SOL    HW130218   3.439   4.314  17.099  0.3920 -1.3575  0.4865
 6252SOL    HW230219   3.360   4.370  16.992  0.5168  0.9594  0.2480
 6253SOL     OW30220   2.958   4.348  16.173  0.4418 -0.0460 -0.7841
 6253SOL    HW130221   2.922   4.428  16.211 -1.2262 -1.7336  1.1799
 6253SOL    HW230222   3.035   4.378  16.125 -0.6487  1.9564 -1.2911
 6254SOL     OW30223   3.045   3.982  10.730 -0.3196 -0.2607 -0.0059
 6254SOL    HW130224   3.066   3.923  10.657  1.7415  0.3394  0.0874
 6254SOL    HW230225   3.129   3.990  10.777 -0.1185  1.8761 -0.7532
 6255SOL     OW30226   1.368   2.490   5.383 -0.0682 -0.1749  0.0749
 6255SOL    HW130227   1.453   2.500   5.340 -0.7919 -2.4867 -1.8742
 6255SOL    HW230228   1.345   2.401   5.357  1.0021 -0.5944  0.5582
 6256SOL     OW30229   3.978   4.396  14.861  0.3253 -0.0968  0.0151
 6256SOL    HW130230   4.047   4.359  14.916  1.5089 -0.9077 -2.0384
 6256SOL    HW230231   3.921   4.443  14.922  2.0395  0.3969  1.2509
 6257SOL     OW30232   0.571   2.134   3.802  0.0594 -0.4485 -0.0852
 6257SOL    HW130233   0.567   2.041   3.779 -0.4563 -0.0596 -1.5747
 6257SOL    HW230234   0.658   2.142   3.840  0.5878  1.7098 -1.7325
 6258SOL     OW30235   0.251   2.798  15.145 -0.0495  0.4155 -0.1984
 6258SOL    HW130236   0.188   2.727  15.132 -1.3854  1.4520  0.6622
 6258SOL    HW230237   0.215   2.836  15.225  1.5879  1.3774  0.0840
 6259SOL     OW30238   2.849   0.490  13.017 -0.2330 -0.6877 -0.2122
 6259SOL    HW130239   2.888   0.503  12.930  1.7872  1.2332  1.0160
 6259SOL    HW230240   2.762   0.452  13.002 -0.0507 -1.2926  0.2850
 6260SOL     OW30241   0.891   2.922   7.883  0.0946 -0.1036 -0.3142
 6260SOL    HW130242   0.832   2.996   7.896  0.9571  0.8075 -1.7075
 6260SOL    HW230243   0.918   2.905   7.973  1.4681  0.7490 -0.5698
 6261SOL     OW30244   2.790   4.634   4.074  0.2634  0.1304  0.3210
 6261SOL    HW130245   2.878   4.672   4.075  1.6021 -2.9017  0.8399
 6261SOL    HW230246   2.734   4.703   4.038 -0.4451 -1.0268 -0.8054
 6262SOL     OW30247   1.596   4.515  17.212  0.4732 -0.5631  0.7326
 6262SOL    HW130248   1.634   4.433  17.180  1.6419  0.5396 -0.6628
 6262SOL    HW230249   1.666   4.574  17.239  0.1619 -0.7930  2.0548
 6263SOL     OW30250   0.867   3.256   2.882  0.5381  0.3647 -0.0582
 6263SOL    HW130251   0.839   3.275   2.971  0.5424  0.2812 -0.0386
 6263SOL    HW230252   0.892   3.164   2.876 -1.6305 -0.1252 -1.4224
 6264SOL     OW30253   2.869   1.902   0.717 -0.6669 -0.1982  0.3291
 6264SOL    HW130254   2.952   1.863   0.744 -0.8849 -1.4342 -0.7639
 6264SOL    HW230255   2.846   1.954   0.794 -0.3084 -0.5053  0.6410
 6265SOL     OW30256   1.972   4.128  11.503 -0.8556 -0.5344  0.0556
 6265SOL    HW130257   2.031   4.057  11.527 -1.5783 -0.9827  0.4919
 6265SOL    HW230258   1.994   4.131  11.410 -0.0052  0.5827  0.2956
 6266SOL     OW30259   2.910   2.903  10.329 -0.5233 -0.4753 -0.9656
 6266SOL    HW130260   2.949   2.852  10.258 -0.1715 -2.1810  0.4484
 6266SOL    HW230261   2.945   2.841  10.393 -0.7374 -0.0184 -0.4055
 6267SOL     OW30262   0.420   0.918  15.248 -0.5121  0.4602  0.1630
 6267SOL    HW130263   0.420   0.987  15.181 -2.7614  0.6312  0.3151
 6267SOL    HW230264   0.487   0.858  15.214 -2.1717 -1.1970 -0.2232
 6268SOL     OW30265   0.988   0.953  10.087  0.1968 -0.4028 -0.6004
 6268SOL    HW130266   0.926   0.910  10.028 -0.3305  0.7745 -0.8960
 6268SOL    HW230267   0.935   1.017  10.134 -1.5503 -2.7187  0.5722
 6269SOL     OW30268   1.944   4.068   1.347 -0.6415 -0.1760 -0.2451
 6269SOL    HW130269   1.972   4.058   1.438  1.7189  0.4948 -0.8962
 6269SOL    HW230270   2.025   4.037   1.306 -0.3939 -0.4407  0.4525
 6270SOL     OW30271   4.678   0.225   9.528 -0.1768 -0.1418 -0.1468
 6270SOL    HW130272   4.651   0.141   9.489 -1.4916 -0.2761  1.0524
 6270SOL    HW230273   4.713   0.204   9.615 -0.8041  2.1825  0.6500
 6271SOL     OW30274   2.075   4.088   8.008  0.2916 -0.0507 -0.0399
 6271SOL    HW130275   2.061   4.019   8.073  3.6486 -1.3552 -0.7002
 6271SOL    HW230276   1.990   4.108   7.968  0.1060  1.6451  1.1516
 6272SOL     OW30277   2.141   0.305   6.770  0.3911  0.2102  0.8639
 6272SOL    HW130278   2.174   0.264   6.851 -1.9410 -3.4744 -0.0344
 6272SOL    HW230279   2.190   0.248   6.711 -2.0779  2.6371 -3.4438
 6273SOL     OW30280   0.194   3.760  10.183 -0.3585 -0.5118 -0.2707
 6273SOL    HW130281   0.116   3.813  10.169  0.2801  0.0584 -1.6908
 6273SOL    HW230282   0.178   3.744  10.276  1.8682  1.2587  0.4491
 6274SOL     OW30283   4.575   4.526   5.899 -0.1157 -0.0666 -0.3479
 6274SOL    HW130284   4.503   4.515   5.961  0.3918  0.0007  0.2493
 6274SOL    HW230285   4.647   4.548   5.958 -0.3915 -0.3162  0.0849
 6275SOL     OW30286   2.294   3.885  11.932  0.5647  0.3420  0.0087
 6275SOL    HW130287   2.307   3.792  11.913  0.2910  0.1433  0.8084
 6275SOL    HW230288   2.201   3.879  11.951  0.7331  1.3553  1.0862
 6276SOL     OW30289   1.799   1.187  13.591 -0.0942  0.0637 -0.2997
 6276SOL    HW130290   1.800   1.116  13.655 -0.4720 -0.1370 -0.5195
 6276SOL    HW230291   1.725   1.160  13.537 -1.3400  0.3800  1.2254
 6277SOL     OW30292   4.490   2.968   2.011 -0.1666  0.2444 -0.2199
 6277SOL    HW130293   4.533   3.054   2.017  0.1168  0.1808 -1.3690
 6277SOL    HW230294   4.467   2.949   1.920  0.8561  0.3631 -0.5078
 6278SOL     OW30295   1.415   3.592   2.919 -0.5363  0.2923  0.0072
 6278SOL    HW130296   1.388   3.510   2.877  0.7074 -0.2573  0.2754
 6278SOL    HW230297   1.335   3.644   2.910  0.8050  1.9799 -2.1233
 6279SOL     OW30298   2.910   1.968   3.164  0.1259 -0.1696  0.1013
 6279SOL    HW130299   2.872   1.881   3.157 -0.8604  0.3301 -0.6721
 6279SOL    HW230300   2.828   2.016   3.157  1.2349  1.8237  0.8664
 6280SOL     OW30301   0.706   1.570   4.869 -0.0117  0.4448  0.5715
 6280SOL    HW130302   0.729   1.508   4.801 -0.3752  0.3207  0.5629
 6280SOL    HW230303   0.667   1.643   4.820 -2.1747 -1.2478 -0.1945
 6281SOL     OW30304   2.407   1.089   2.752 -0.1649 -0.1554  0.6084
 6281SOL    HW130305   2.476   1.026   2.731  0.5268  0.5943  0.6357
 6281SOL    HW230306   2.459   1.132   2.820  1.9991 -1.0921 -0.4299
 6282SOL     OW30307   3.264   3.886   6.607 -0.0600  0.0351 -0.5093
 6282SOL    HW130308   3.199   3.954   6.626  2.3185  1.7296  1.6223
 6282SOL    HW230309   3.347   3.934   6.616  0.4431 -1.2809  1.9202
 6283SOL     OW30310   2.256   0.014  12.599 -0.5453  0.3217 -0.0582
 6283SOL    HW130311   2.263   4.687  12.684  0.4061 -0.7889 -0.7190
 6283SOL    HW230312   2.221   0.095  12.637 -0.2516 -0.2381  1.4125
 6284SOL     OW30313   2.328   0.266   0.465 -0.0041  0.1766 -0.0581
 6284SOL    HW130314   2.249   0.286   0.415 -1.0181 -2.0769  0.6704
 6284SOL    HW230315   2.319   0.336   0.530 -1.0479  2.6955 -2.9025
 6285SOL     OW30316   0.182   3.942   2.254 -0.3087  0.2575  0.3762
 6285SOL    HW130317   0.169   4.000   2.179 -1.4721  1.0990  1.2346
 6285SOL    HW230318   0.136   3.866   2.219  1.0545 -0.1715 -0.5080
 6286SOL     OW30319   3.051   0.980  13.630 -0.5931  0.1473 -0.2378
 6286SOL    HW130320   2.996   0.934  13.694  0.4723  2.5388  2.3988
 6286SOL    HW230321   2.990   0.975  13.557 -1.0720 -0.5478  0.2083
 6287SOL     OW30322   1.493   0.829  12.986  0.8624 -0.1208  0.1293
 6287SOL    HW130323   1.470   0.910  12.939  0.3868  0.9425  2.1846
 6287SOL    HW230324   1.480   0.848  13.079  1.2993  0.2716  0.1134
 6288SOL     OW30325   3.767   1.446  11.191 -0.2281  0.2096  0.3733
 6288SOL    HW130326   3.767   1.515  11.126  0.6184 -0.2634 -0.1265
 6288SOL    HW230327   3.764   1.489  11.276  1.2027  1.5626 -0.2808
 6289SOL     OW30328   1.001   3.443   6.675 -0.4252 -0.3263 -0.0560
 6289SOL    HW130329   0.921   3.494   6.664 -0.2930 -0.4266 -1.4870
 6289SOL    HW230330   1.028   3.436   6.583  3.8478  1.2364  1.0849
 6290SOL     OW30331   3.892   0.004   2.911  0.1317 -0.7203  0.6561
 6290SOL    HW130332   3.911   4.640   2.959 -1.0479 -0.4032  1.6606
 6290SOL    HW230333   3.867   4.683   2.826 -0.2445  1.3522 -0.1347
 6291SOL     OW30334   1.891   3.457   5.954  0.3661  0.4074  0.0505
 6291SOL    HW130335   1.866   3.387   6.014  3.5510 -0.6210  0.1528
 6291SOL    HW230336   1.985   3.455   5.969  0.3969  0.0020 -0.1895
 6292SOL     OW30337   3.134   2.872   9.683  0.1059  0.5940  0.6055
 6292SOL    HW130338   3.096   2.802   9.631 -0.8255  1.9036 -0.4804
 6292SOL    HW230339   3.072   2.945   9.679  1.2624  1.4925 -1.0468
 6293SOL     OW30340   2.662   0.746  16.812 -0.2644  0.2726  0.1460
 6293SOL    HW130341   2.716   0.667  16.798  1.1644  1.5115 -1.3908
 6293SOL    HW230342   2.582   0.695  16.819  0.4502 -0.8184  0.4846
 6294SOL     OW30343   3.711   2.035  13.645 -0.5476 -0.4000 -0.3551
 6294SOL    HW130344   3.693   2.097  13.716  3.7528  0.2595  0.1929
 6294SOL    HW230345   3.696   1.954  13.694  1.1693 -0.2089  0.4842
 6295SOL     OW30346   2.584   0.378  16.665  0.1285  0.0687 -0.3292
 6295SOL    HW130347   2.529   0.331  16.727  1.4059 -1.7424 -0.5469
 6295SOL    HW230348   2.536   0.400  16.585 -1.0546  0.3538  0.4709
 6296SOL     OW30349   1.241   3.640   8.894  0.7714 -0.6912 -0.2119
 6296SOL    HW130350   1.192   3.630   8.812 -0.4136 -0.0240  0.4169
 6296SOL    HW230351   1.248   3.546   8.912  0.7246 -0.6332  0.1095
 6297SOL     OW30352   2.182   0.142   3.636 -0.4256  0.1398 -0.1230
 6297SOL    HW130353   2.246   0.081   3.599 -0.1736  0.7331 -0.6768
 6297SOL    HW230354   2.104   0.123   3.585  1.7076 -1.8078 -2.6364
 6298SOL     OW30355   1.351   2.165   3.764  0.0137  0.2395  0.7730
 6298SOL    HW130356   1.430   2.139   3.718  0.3474  1.5695  0.5706
 6298SOL    HW230357   1.384   2.167   3.854 -0.4649  0.4531  0.9461
 6299SOL     OW30358   0.472   3.121   8.016 -0.2765 -0.3266  0.1001
 6299SOL    HW130359   0.427   3.173   7.950 -1.9139 -1.8971 -0.0212
 6299SOL    HW230360   0.400   3.071   8.056  0.4024 -1.5575 -0.2126
 6300SOL     OW30361   2.529   1.691   7.087  0.1396 -0.1711 -0.4400
 6300SOL    HW130362   2.504   1.775   7.127 -0.2758 -0.5352  0.0580
 6300SOL    HW230363   2.451   1.655   7.044  0.9831 -1.0987 -1.1828
 6301SOL     OW30364   0.771   3.528   3.022  0.1271 -0.5157 -0.2102
 6301SOL    HW130365   0.806   3.447   3.058 -1.5649 -0.6990  1.0139
 6301SOL    HW230366   0.835   3.592   3.053  0.7802 -0.4115 -1.7955
 6302SOL     OW30367   1.369   2.257  17.509  0.0571  0.0757  0.4573
 6302SOL    HW130368   1.426   2.332  17.493  0.4841  0.3034  3.1490
 6302SOL    HW230369   1.431   2.184  17.502 -1.8764 -1.4081 -1.2595
 6303SOL     OW30370   2.107   4.213   5.017  0.4533  0.0089 -0.0612
 6303SOL    HW130371   2.103   4.271   5.094  1.2181  0.1937 -0.1653
 6303SOL    HW230372   2.196   4.187   5.042  0.4109 -0.7562 -0.7091
 6304SOL     OW30373   0.491   1.369   6.249 -0.0504 -0.3152  0.1761
 6304SOL    HW130374   0.542   1.289   6.266 -0.1679 -0.3559  0.3376
 6304SOL    HW230375   0.563   1.431   6.238 -0.9855  0.4547 -1.5833
 6305SOL     OW30376   0.035   4.349   9.948  0.2168 -0.1344  0.0959
 6305SOL    HW130377   0.080   4.379   9.869 -0.3713 -1.3999 -0.7288
 6305SOL    HW230378   0.051   4.420  10.009  2.3510  0.5860 -1.2772
 6306SOL     OW30379   2.210   3.112  17.094 -0.0633  0.1634  0.0766
 6306SOL    HW130380   2.197   3.183  17.156 -0.8677  0.3123 -0.2619
 6306SOL    HW230381   2.245   3.046  17.154 -0.8010 -0.0233  0.3109
 6307SOL     OW30382   2.043   0.021  13.680  0.2112  0.1180 -0.1420
 6307SOL    HW130383   2.111   0.089  13.678 -1.7315  2.0067 -2.0727
 6307SOL    HW230384   1.989   0.034  13.601 -1.6134 -0.0747  1.0712
 6308SOL     OW30385   2.524   1.072   2.453  0.4190  0.2954 -0.0234
 6308SOL    HW130386   2.550   0.999   2.397  1.3823  0.9201 -0.3881
 6308SOL    HW230387   2.547   1.028   2.536  0.6512 -0.9018 -0.7256
 6309SOL     OW30388   2.998   3.699  12.543  0.1258  0.2026  0.4958
 6309SOL    HW130389   2.970   3.720  12.633 -3.7552  2.7646 -1.2851
 6309SOL    HW230390   3.041   3.783  12.523 -0.1461  0.0568 -0.6756
 6310SOL     OW30391   1.886   1.449   2.386  0.2046 -0.4595  0.8418
 6310SOL    HW130392   1.951   1.420   2.450  2.3292 -0.5103 -1.3613
 6310SOL    HW230393   1.874   1.366   2.340 -0.7412  1.3246 -2.0970
 6311SOL     OW30394   2.999   1.717  17.325  0.3080  0.6263  0.4848
 6311SOL    HW130395   3.042   1.667  17.395  1.6200  1.9570  0.6441
 6311SOL    HW230396   3.068   1.714  17.259 -1.3106 -1.8400 -1.0663
 6312SOL     OW30397   1.092   0.784  16.650  0.5152  0.0978 -0.1541
 6312SOL    HW130398   1.030   0.751  16.715  1.7344 -1.4791  0.2115
 6312SOL    HW230399   1.178   0.758  16.685 -0.1971 -2.0948 -0.0540
 6313SOL     OW30400   1.714   2.029   0.257 -0.4353  0.4731  0.2789
 6313SOL    HW130401   1.625   1.994   0.265 -0.5370  1.2272  2.5875
 6313SOL    HW230402   1.701   2.107   0.311 -1.3004  0.0576  0.6640
 6314SOL     OW30403   4.195   3.626   7.740  0.3631 -0.3068  0.3219
 6314SOL    HW130404   4.211   3.537   7.709  0.0881  0.6192 -2.4961
 6314SOL    HW230405   4.112   3.619   7.787  0.4402  1.3509  0.7006
 6315SOL     OW30406   4.577   2.997   3.476  0.6062  0.0693 -0.2703
 6315SOL    HW130407   4.560   3.056   3.549  1.5518  0.0417 -0.0413
 6315SOL    HW230408   4.584   2.912   3.519 -0.5177 -0.5293 -1.2468
 6316SOL     OW30409   0.283   4.225   2.704 -0.5039 -0.1557 -0.0721
 6316SOL    HW130410   0.302   4.134   2.728  1.3397  0.7360  1.7980
 6316SOL    HW230411   0.210   4.241   2.763  0.3998  2.1937  0.3778
 6317SOL     OW30412   4.629   2.083   7.409  0.0674 -0.4869 -0.1804
 6317SOL    HW130413   4.631   2.000   7.456 -2.4621 -0.3634  0.1268
 6317SOL    HW230414   4.545   2.121   7.433 -0.6420 -1.6225 -0.8548
 6318SOL     OW30415   0.262   3.810  11.111  0.4723  0.1917 -0.1628
 6318SOL    HW130416   0.310   3.797  11.029  2.2393  2.2184  0.5604
 6318SOL    HW230417   0.326   3.772  11.171  3.5123  1.7427 -2.4228
 6319SOL     OW30418   4.449   1.129  14.649  0.2413 -0.1449 -0.2684
 6319SOL    HW130419   4.381   1.174  14.600 -1.9869 -2.5384  0.6355
 6319SOL    HW230420   4.475   1.197  14.711  0.5387  1.0635 -1.7448
 6320SOL     OW30421   0.056   4.040   0.775  0.8852  0.6462 -0.1814
 6320SOL    HW130422   0.014   3.959   0.747 -0.5345  0.1825  3.2706
 6320SOL    HW230423   0.149   4.028   0.758  0.6046 -1.9583  0.2066
 6321SOL     OW30424   1.343   0.892   6.592  0.1499  0.0501 -0.4514
 6321SOL    HW130425   1.324   0.810   6.637  0.9336  0.0830 -0.0612
 6321SOL    HW230426   1.257   0.903   6.552  1.2682 -1.2829 -3.2380
 6322SOL     OW30427   3.942   3.806  10.711  0.3512  0.0125  0.2964
 6322SOL    HW130428   3.915   3.715  10.702  2.4941 -0.3331 -2.5452
 6322SOL    HW230429   3.995   3.806  10.791 -0.2105 -0.0245  0.6660
 6323SOL     OW30430   3.192   4.472   8.818  0.7330  0.6818 -0.1406
 6323SOL    HW130431   3.211   4.394   8.767 -0.7613  0.3893 -0.2469
 6323SOL    HW230432   3.195   4.531   8.743  0.5833 -0.3065 -0.9161
 6324SOL     OW30433   1.831   3.444   0.127  0.3702  0.1084  0.0175
 6324SOL    HW130434   1.811   3.503   0.201  0.8971  1.1451 -0.6604
 6324SOL    HW230435   1.884   3.371   0.159  0.6847  1.0424  1.6615
 6325SOL     OW30436   4.582   3.596   9.347 -0.3848  0.5788 -0.2411
 6325SOL    HW130437   4.504   3.607   9.292  0.6128  0.7855 -1.6137
 6325SOL    HW230438   4.585   3.678   9.397  1.0822  0.6427 -0.4450
 6326SOL     OW30439   3.401   0.520   7.405 -0.5934 -0.0065  0.3637
 6326SOL    HW130440   3.353   0.540   7.486  1.0313 -0.9968  1.5506
 6326SOL    HW230441   3.376   0.432   7.378 -0.3909 -0.0739  0.3960
 6327SOL     OW30442   3.824   2.117   9.950  0.8673 -0.0673 -0.3092
 6327SOL    HW130443   3.885   2.049   9.923 -0.7651 -1.9083  0.7029
 6327SOL    HW230444   3.785   2.142   9.866 -0.4494 -1.2692 -0.0375
 6328SOL     OW30445   0.951   2.799  11.659 -0.0606 -0.4691  0.0505
 6328SOL    HW130446   0.915   2.881  11.624 -1.4991 -2.1098 -2.2772
 6328SOL    HW230447   0.966   2.826  11.750 -0.8409 -0.5534  0.2039
 6329SOL     OW30448   4.629   0.950   6.790 -0.0955  0.0855  0.2406
 6329SOL    HW130449   4.578   0.911   6.718  0.5236  0.6145 -0.4845
 6329SOL    HW230450   4.660   0.871   6.833 -1.2332 -1.6192 -2.0511
 6330SOL     OW30451   4.147   1.799  11.486  0.0737  0.0667 -0.1635
 6330SOL    HW130452   4.197   1.775  11.408  0.6734 -0.2805  0.3333
 6330SOL    HW230453   4.204   1.854  11.539  0.8421 -1.8907  1.0793
 6331SOL     OW30454   3.122   1.747   6.414  0.2790  0.3574 -0.1365
 6331SOL    HW130455   3.174   1.827   6.426  1.3406 -0.8737  3.5650
 6331SOL    HW230456   3.193   1.683   6.403  0.6679  0.7374  0.1346
 6332SOL     OW30457   3.383   1.272   9.955 -0.0779  0.2004  0.5915
 6332SOL    HW130458   3.421   1.195   9.997  1.9087  1.3147  0.9028
 6332SOL    HW230459   3.468   1.314   9.938 -0.9477  1.6059 -0.2581
 6333SOL     OW30460   0.681   3.291   1.553 -0.5297 -0.1458 -0.0067
 6333SOL    HW130461   0.706   3.214   1.604  0.6437  0.6849  0.6707
 6333SOL    HW230462   0.754   3.353   1.551  0.1157 -0.8559  2.3732
 6334SOL     OW30463   3.047   1.771   1.322 -0.5309  0.3349  0.6630
 6334SOL    HW130464   3.073   1.776   1.414 -1.4708  2.5620  0.7979
 6334SOL    HW230465   3.058   1.679   1.298  1.7757  0.2385  2.0978
 6335SOL     OW30466   4.711   3.702   3.322  0.1786 -0.4624 -0.2330
 6335SOL    HW130467   4.628   3.743   3.298  1.7465  1.5068 -2.3216
 6335SOL    HW230468   4.713   3.731   3.414 -1.0834  1.9318 -0.9461
 6336SOL     OW30469   3.918   0.600   0.729 -0.2484 -0.2711  0.2773
 6336SOL    HW130470   3.989   0.609   0.665 -0.9308  3.4490  0.0183
 6336SOL    HW230471   3.925   0.679   0.783  2.1235  0.4437 -1.0763
 6337SOL     OW30472   0.220   4.267  14.159  0.2984  0.1949  0.1622
 6337SOL    HW130473   0.298   4.268  14.105 -0.4754 -0.7398 -0.9712
 6337SOL    HW230474   0.217   4.350  14.207 -0.9505  0.2843 -0.0593
 6338SOL     OW30475   2.846   2.086   7.714  0.2673  0.0535  0.8806
 6338SOL    HW130476   2.785   2.022   7.751 -0.7058  1.0000  0.9205
 6338SOL    HW230477   2.911   2.022   7.685 -0.7164 -0.7841  0.5303
 6339SOL     OW30478   3.150   3.876   4.185  0.0213  0.4854 -0.3683
 6339SOL    HW130479   3.179   3.960   4.149 -2.8613  0.6922 -2.2810
 6339SOL    HW230480   3.160   3.897   4.277  0.5881  1.1141 -0.5745
 6340SOL     OW30481   2.299   3.565  17.669 -0.3659 -0.1100 -0.9870
 6340SOL    HW130482   2.209   3.594   0.011 -0.5135 -1.0785  0.2982
 6340SOL    HW230483   2.354   3.644  17.660  0.5107 -0.4322  1.5568
 6341SOL     OW30484   0.439   3.695   8.479  0.0575 -0.1990  0.4754
 6341SOL    HW130485   0.459   3.629   8.546  0.9518 -1.4475 -1.0179
 6341SOL    HW230486   0.511   3.758   8.478 -0.2340  0.1391  0.8284
 6342SOL     OW30487   3.429   2.976   3.718 -0.4770 -0.0157  0.7289
 6342SOL    HW130488   3.400   3.028   3.793 -0.6659 -1.0304  1.3538
 6342SOL    HW230489   3.525   2.983   3.721 -0.5924  1.1531  1.7926
 6343SOL     OW30490   1.379   4.323  16.907 -0.1283 -0.3429  0.5722
 6343SOL    HW130491   1.316   4.282  16.848  2.2822 -2.6764 -0.4014
 6343SOL    HW230492   1.390   4.407  16.862  1.4074 -1.3188 -0.8744
 6344SOL     OW30493   0.145   0.222   3.082 -0.0412  0.4848  0.0419
 6344SOL    HW130494   0.125   0.137   3.122 -1.5175  0.6530 -0.3394
 6344SOL    HW230495   0.236   0.218   3.055 -0.4739  0.2379 -1.3831
 6345SOL     OW30496   1.784   4.154   8.002  0.0748 -0.0139  0.3862
 6345SOL    HW130497   1.699   4.143   7.960 -1.0899 -1.3501  3.1285
 6345SOL    HW230498   1.785   4.249   8.015 -0.3021  0.0044  0.2715
 6346SOL     OW30499   0.985   2.045  13.000  0.2035 -0.2553  0.3924
 6346SOL    HW130500   1.013   2.096  13.076  0.6287  1.5476 -0.9872
 6346SOL    HW230501   1.064   2.059  12.949  0.3807 -0.6904  0.5454
 6347SOL     OW30502   0.107   1.619   9.370  0.5436 -0.0441  0.1951
 6347SOL    HW130503   0.054   1.616   9.291  1.8915 -2.5595 -0.6191
 6347SOL    HW230504   0.195   1.597   9.338  0.1330 -1.5442  0.1043
 6348SOL     OW30505   3.692   1.722   2.589 -0.0022 -0.2654 -0.1929
 6348SOL    HW130506   3.751   1.796   2.577  1.0775 -1.1342 -0.2357
 6348SOL    HW230507   3.750   1.647   2.574  0.3904 -0.0346  0.1872
 6349SOL     OW30508   0.410   4.047   7.710 -0.1669 -0.3894 -0.1341
 6349SOL    HW130509   0.499   4.077   7.693 -0.2399  0.1430  0.4302
 6349SOL    HW230510   0.395   4.060   7.804  0.5860  2.8243 -0.4762
 6350SOL     OW30511   0.283   2.731   0.083  0.2090 -0.3431 -0.1173
 6350SOL    HW130512   0.314   2.694   0.166  0.8822 -0.1341 -0.2746
 6350SOL    HW230513   0.273   2.650   0.034 -4.1436  0.0997  0.0564
 6351SOL     OW30514   1.702   4.123   5.014  0.0327  0.2920 -0.0953
 6351SOL    HW130515   1.724   4.143   5.105  2.0772  1.2318 -0.7744
 6351SOL    HW230516   1.767   4.180   4.972 -0.8363  1.1429 -0.2891
 6352SOL     OW30517   3.357   4.146   7.586  0.4063 -0.1983  0.2490
 6352SOL    HW130518   3.451   4.136   7.600  0.4926 -0.5978 -0.6077
 6352SOL    HW230519   3.312   4.144   7.670 -2.5602 -1.0110 -1.3889
 6353SOL     OW30520   2.518   3.800  15.838 -0.0506  0.2351  0.2370
 6353SOL    HW130521   2.454   3.734  15.811  0.3806 -0.0411 -0.0951
 6353SOL    HW230522   2.600   3.760  15.809  0.0202 -0.5630  1.4958
 6354SOL     OW30523   0.497   0.562  15.312  0.0585 -0.1431  0.0487
 6354SOL    HW130524   0.506   0.545  15.406  0.6328 -1.3409 -0.2234
 6354SOL    HW230525   0.405   0.540  15.298 -0.1204  1.6308 -1.5029
 6355SOL     OW30526   3.719   2.915   6.410  0.7360 -0.7980  0.8181
 6355SOL    HW130527   3.628   2.897   6.435  0.8394  0.0310  1.7884
 6355SOL    HW230528   3.765   2.886   6.489 -1.4817 -0.6903  2.1550
 6356SOL     OW30529   2.326   2.193  11.348  0.0592 -0.2473  0.3421
 6356SOL    HW130530   2.314   2.147  11.265  1.5417  1.0607 -0.5877
 6356SOL    HW230531   2.241   2.186  11.391  0.3044  0.7614  0.9796
 6357SOL     OW30532   1.777   4.065   3.381  0.1085  0.1312  0.3297
 6357SOL    HW130533   1.769   3.988   3.323  0.0234 -0.0379  0.5680
 6357SOL    HW230534   1.762   4.130   3.312  2.2108 -0.5402 -0.7669
 6358SOL     OW30535   3.255   3.267   3.189 -0.6050  0.3880 -0.0885
 6358SOL    HW130536   3.335   3.277   3.137  0.4543 -2.0821  1.0110
 6358SOL    HW230537   3.260   3.176   3.218  1.1392  0.9613  1.4576
 6359SOL     OW30538   2.789   1.216  13.664 -0.2297  0.5749  0.2645
 6359SOL    HW130539   2.760   1.138  13.617 -2.3034  0.6604  1.4204
 6359SOL    HW230540   2.707   1.246  13.703 -0.3731  1.2224 -0.5386
 6360SOL     OW30541   4.277   4.589   1.776 -0.0781 -0.3526  0.6759
 6360SOL    HW130542   4.238   4.560   1.859 -2.5606 -0.5909 -0.5484
 6360SOL    HW230543   4.275   4.684   1.789 -2.3335 -0.3130  0.1842
 6361SOL     OW30544   4.606   2.745   2.105  0.0040 -0.1211 -0.1917
 6361SOL    HW130545   4.546   2.680   2.069  1.3048 -0.6966 -1.3458
 6361SOL    HW230546   4.558   2.824   2.083  0.0329  0.2029  0.9355
 6362SOL     OW30547   1.301   1.023   3.132  0.5069  0.7658 -0.3555
 6362SOL    HW130548   1.241   0.955   3.101  0.6914  0.9730 -1.1693
 6362SOL    HW230549   1.261   1.105   3.102  0.5882  1.0916  0.4066
 6363SOL     OW30550   0.411   4.518   1.728 -0.3265 -0.4126  0.0383
 6363SOL    HW130551   0.447   4.606   1.714 -1.9361  0.2176 -0.1971
 6363SOL    HW230552   0.375   4.512   1.640  0.4204 -0.3907 -0.2635
 6364SOL     OW30553   1.861   1.296   5.037 -0.2997 -0.6186  0.3783
 6364SOL    HW130554   1.900   1.382   5.053 -1.2448 -0.0366 -0.4621
 6364SOL    HW230555   1.816   1.316   4.955  0.5457  1.3282  0.3732
 6365SOL     OW30556   0.482   0.864   2.411  0.0036  0.3384  0.7439
 6365SOL    HW130557   0.432   0.925   2.465  1.1796  2.3088 -0.3843
 6365SOL    HW230558   0.513   0.796   2.470  0.7063  1.4986  1.6996
 6366SOL     OW30559   3.800   2.214   3.562  0.1104 -0.4574  0.2023
 6366SOL    HW130560   3.844   2.147   3.615 -0.7169 -0.8613  0.3788
 6366SOL    HW230561   3.788   2.174   3.476 -0.3229 -3.9954  1.8965
 6367SOL     OW30562   2.629   2.312   5.661 -0.8134 -0.3320 -0.0423
 6367SOL    HW130563   2.662   2.255   5.592  0.6181  0.5229 -0.0604
 6367SOL    HW230564   2.693   2.384   5.659  2.2780 -3.0957  0.4641
 6368SOL     OW30565   3.068   3.204   3.705  0.1496 -0.2922  0.2229
 6368SOL    HW130566   2.996   3.229   3.764 -1.0892  1.1836 -1.8808
 6368SOL    HW230567   3.041   3.112   3.710 -0.8323 -0.1151 -1.5458
 6369SOL     OW30568   3.111   0.918   4.800 -0.0802 -0.0574 -0.2476
 6369SOL    HW130569   3.163   0.870   4.735  0.9042  0.3285  0.2440
 6369SOL    HW230570   3.173   0.989   4.818  0.6736 -0.8735  0.4305
 6370SOL     OW30571   0.259   1.591  13.006 -0.6554  0.0816  0.4388
 6370SOL    HW130572   0.255   1.637  13.090 -3.6470  1.0570 -0.2342
 6370SOL    HW230573   0.171   1.556  12.994 -0.2637 -1.1572  1.0933
 6371SOL     OW30574   2.253   3.488  11.148 -0.2747 -0.5065  0.0733
 6371SOL    HW130575   2.343   3.491  11.180  0.6603 -0.4149 -2.5572
 6371SOL    HW230576   2.261   3.559  11.085 -1.5634 -0.5788 -0.1693
 6372SOL     OW30577   0.895   4.587   0.950 -0.2102  0.2270 -0.2477
 6372SOL    HW130578   0.900   4.548   1.037 -0.7916 -0.5204 -0.5453
 6372SOL    HW230579   0.922   4.677   0.969 -0.6887  0.0494  1.2389
 6373SOL     OW30580   1.549   0.884  14.393 -0.1098  0.5864 -0.2035
 6373SOL    HW130581   1.557   0.952  14.326 -0.5270  1.6615  0.8358
 6373SOL    HW230582   1.521   0.933  14.471  1.0405  0.2145  0.4509
 6374SOL     OW30583   3.050   0.467   8.518 -0.5681 -0.7835 -0.0743
 6374SOL    HW130584   2.996   0.392   8.542  0.6657 -2.2049 -1.6865
 6374SOL    HW230585   3.134   0.424   8.503 -0.2524 -0.4197  0.6427
 6375SOL     OW30586   1.236   2.520   4.076  0.3365 -0.1913  0.4236
 6375SOL    HW130587   1.188   2.601   4.058 -0.1904 -0.2239  1.6893
 6375SOL    HW230588   1.176   2.460   4.120  2.6246 -0.5235  3.0795
 6376SOL     OW30589   3.947   0.818   0.449 -0.3639 -0.4814  0.0756
 6376SOL    HW130590   3.960   0.730   0.485  1.0258 -0.4638 -0.3631
 6376SOL    HW230591   3.963   0.798   0.356  2.5095  1.4793  0.1605
 6377SOL     OW30592   4.272   1.193   7.545  0.5519  0.2392  0.1230
 6377SOL    HW130593   4.262   1.201   7.639 -0.6647  1.2006 -0.0905
 6377SOL    HW230594   4.332   1.264   7.523  1.2506 -0.6160 -0.7639
 6378SOL     OW30595   2.735   4.553  13.140  0.0096 -0.2924  0.2617
 6378SOL    HW130596   2.701   4.511  13.219 -0.5223  0.9840  0.7233
 6378SOL    HW230597   2.684   4.508  13.073 -0.0300  0.0198  0.0828
 6379SOL     OW30598   1.777   2.956  15.951  0.1773  0.1978  0.0180
 6379SOL    HW130599   1.724   2.993  15.880  1.8584  0.9884 -0.8561
 6379SOL    HW230600   1.798   2.871  15.911  0.2423  0.6227 -0.8661
 6380SOL     OW30601   3.379   2.150   7.015  0.7889  0.3353 -0.4264
 6380SOL    HW130602   3.349   2.142   6.925 -4.0394 -0.3089  1.2694
 6380SOL    HW230603   3.415   2.238   7.001  1.7318 -0.1498 -1.0430
 6381SOL     OW30604   2.973   1.325   4.950 -0.4023 -0.6203  0.1033
 6381SOL    HW130605   2.893   1.357   4.990  1.1121  0.1097  2.5182
 6381SOL    HW230606   3.019   1.403   4.919  0.2920 -0.2045  2.2139
 6382SOL     OW30607   4.366   2.176   7.905 -0.0278 -0.2316 -0.1236
 6382SOL    HW130608   4.418   2.102   7.936 -0.7985 -1.6569 -2.2588
 6382SOL    HW230609   4.291   2.173   7.965  1.9064  1.8871  2.3788
 6383SOL     OW30610   1.489   2.985  10.099 -0.1630 -0.0942  0.1774
 6383SOL    HW130611   1.413   2.943  10.059 -0.4965  2.4335 -1.8982
 6383SOL    HW230612   1.448   3.064  10.134  0.3435  1.1861 -2.0891
 6384SOL     OW30613   1.113   4.052   0.281 -0.4250 -0.5996 -0.2768
 6384SOL    HW130614   1.047   4.079   0.344 -0.8333 -2.8015  0.2473
 6384SOL    HW230615   1.059   4.026   0.206  0.2049 -1.7201 -0.3488
 6385SOL     OW30616   3.937   4.682   3.433 -0.1083 -0.0760  0.0147
 6385SOL    HW130617   3.861   0.007   3.394  0.6556 -2.4753 -3.9830
 6385SOL    HW230618   3.979   4.650   3.353  1.4606 -0.3101  0.9196
 6386SOL     OW30619   3.183   0.407   4.515  0.5775  0.2645  0.1844
 6386SOL    HW130620   3.186   0.314   4.539 -4.2509  0.3797  1.2001
 6386SOL    HW230621   3.183   0.450   4.600 -0.7750  0.0497  0.2855
 6387SOL     OW30622   1.027   4.055   9.824 -0.5163 -0.2866 -0.3074
 6387SOL    HW130623   1.040   4.076   9.731  0.0546  1.8887  0.2862
 6387SOL    HW230624   1.048   3.962   9.833  1.3325  0.2586  1.0234
 6388SOL     OW30625   3.224   2.274  14.732  0.0447  0.2850 -0.2727
 6388SOL    HW130626   3.291   2.233  14.787  0.1047  2.0052  0.9668
 6388SOL    HW230627   3.150   2.289  14.790 -0.9768 -0.9967 -1.2606
 6389SOL     OW30628   4.173   3.516   4.421  0.3208  0.1596 -0.2744
 6389SOL    HW130629   4.110   3.551   4.484 -1.9731 -2.2662 -1.2337
 6389SOL    HW230630   4.251   3.507   4.475 -0.2970 -0.6691  0.4581
 6390SOL     OW30631   2.483   3.746   4.913  0.4326  0.0747 -0.4908
 6390SOL    HW130632   2.445   3.696   4.841 -1.7773  0.9649  0.0629
 6390SOL    HW230633   2.410   3.774   4.968  0.3907 -0.5429 -0.2316
 6391SOL     OW30634   3.743   1.892   0.884  0.0084  0.4609  0.0455
 6391SOL    HW130635   3.660   1.867   0.925  0.6467  1.1960  1.7577
 6391SOL    HW230636   3.793   1.916   0.962 -0.0174 -0.0107  0.2058
 6392SOL     OW30637   3.807   2.323   9.145  0.6178 -0.3944 -0.4904
 6392SOL    HW130638   3.876   2.369   9.192 -0.0226 -1.2023  1.2156
 6392SOL    HW230639   3.812   2.243   9.197 -1.3454  0.5064  1.0875
 6393SOL     OW30640   2.333   3.616  11.933  0.2780 -0.3196  0.0435
 6393SOL    HW130641   2.338   3.544  11.996 -1.0379 -3.4050 -3.3301
 6393SOL    HW230642   2.293   3.574  11.856 -0.3895  3.6639 -1.7756
 6394SOL     OW30643   2.553   3.272   1.468 -0.2789 -0.1267  0.1088
 6394SOL    HW130644   2.641   3.307   1.481  0.4018 -1.0888 -1.9768
 6394SOL    HW230645   2.526   3.235   1.552 -0.4085  1.0576  0.5870
 6395SOL     OW30646   1.211   3.531   0.488 -0.3866  0.2792 -0.2026
 6395SOL    HW130647   1.263   3.544   0.408  0.8590 -1.5611  0.3038
 6395SOL    HW230648   1.163   3.613   0.499  2.9390  2.2070 -0.1010
 6396SOL     OW30649   4.598   1.176   6.402  0.2207  0.8428 -0.3109
 6396SOL    HW130650   4.513   1.156   6.441  0.3863  1.9115  0.5861
 6396SOL    HW230651   4.643   1.092   6.403 -1.2617  0.0369 -1.1501
 6397SOL     OW30652   2.122   4.223   6.666 -0.3826  0.0070 -0.1024
 6397SOL    HW130653   2.038   4.265   6.645  0.3987  1.4448 -0.3167
 6397SOL    HW230654   2.144   4.197   6.577 -2.5078  0.5945 -0.7919
 6398SOL     OW30655   1.486   3.730   6.470 -0.0102  0.8598 -0.4247
 6398SOL    HW130656   1.464   3.758   6.381  0.3722 -0.6537 -0.9984
 6398SOL    HW230657   1.403   3.746   6.513 -0.1431  0.4583 -0.5339
 6399SOL     OW30658   2.160   2.523   8.925  0.9410 -0.2781  0.7274
 6399SOL    HW130659   2.240   2.526   8.978  0.6068 -1.3495  1.2895
 6399SOL    HW230660   2.161   2.618   8.911 -1.6452 -0.2873  0.5004
 6400SOL     OW30661   3.412   0.836  15.133  0.2342  0.4872  0.2560
 6400SOL    HW130662   3.406   0.742  15.147 -0.4685  0.3982 -0.5911
 6400SOL    HW230663   3.502   0.857  15.158  0.8279 -0.1410 -1.3631
 6401SOL     OW30664   2.054   2.430   9.171  0.0492 -0.3285 -0.2885
 6401SOL    HW130665   2.096   2.471   9.096 -0.0443 -2.1645 -1.3479
 6401SOL    HW230666   2.041   2.336   9.155  1.4352 -0.1653 -2.4432
 6402SOL     OW30667   0.282   3.523  12.777  0.5465 -0.1306 -0.6455
 6402SOL    HW130668   0.304   3.525  12.870  0.7635  0.6857 -0.7159
 6402SOL    HW230669   0.359   3.475  12.748 -0.6398 -1.4400 -1.6053
 6403SOL     OW30670   0.578   0.316   3.689 -0.3139  0.0071  0.7018
 6403SOL    HW130671   0.599   0.229   3.723  1.2667  0.0733 -0.1032
 6403SOL    HW230672   0.484   0.330   3.688 -0.3145 -0.0915 -0.9956
 6404SOL     OW30673   3.794   0.875   2.943 -0.0343  0.3671  0.4552
 6404SOL    HW130674   3.731   0.943   2.966  1.4760  1.0149  2.6658
 6404SOL    HW230675   3.748   0.792   2.953  0.6093  0.0828  0.9832
 6405SOL     OW30676   3.685   2.662  16.978 -0.5668 -0.1335  0.3263
 6405SOL    HW130677   3.749   2.659  16.907  0.1324 -1.3088  0.9934
 6405SOL    HW230678   3.732   2.710  17.046  1.7331 -0.9284 -0.7081
 6406SOL     OW30679   0.727   2.321  13.862 -0.2629 -0.2255  0.8546
 6406SOL    HW130680   0.693   2.382  13.927 -0.1984 -0.7855  1.4164
 6406SOL    HW230681   0.653   2.265  13.839 -0.2918  0.2847 -0.2704
 6407SOL     OW30682   3.983   1.165   3.498  0.3711  0.2145  0.1636
 6407SOL    HW130683   4.019   1.233   3.556 -0.5878 -0.5658  1.6646
 6407SOL    HW230684   4.035   1.185   3.420  1.1334  0.5384  0.7566
 6408SOL     OW30685   2.778   0.165   7.223 -0.4982 -0.4026  0.6593
 6408SOL    HW130686   2.719   0.089   7.216 -2.0214  0.6337  2.3407
 6408SOL    HW230687   2.865   0.134   7.197  0.3040 -0.0243  2.9260
 6409SOL     OW30688   4.305   2.962  12.513  0.0889 -0.3805  0.6043
 6409SOL    HW130689   4.278   3.026  12.580 -0.4227  0.8863 -0.8145
 6409SOL    HW230690   4.303   2.886  12.571  2.5695  0.4261  1.7534
 6410SOL     OW30691   3.840   4.204  12.717  0.4826 -0.2958 -0.2505
 6410SOL    HW130692   3.794   4.121  12.706 -1.1738  0.5800  0.0516
 6410SOL    HW230693   3.913   4.174  12.772  3.3519  0.7420 -3.4647
 6411SOL     OW30694   0.765   2.115   6.938  0.3919 -0.4002  0.5765
 6411SOL    HW130695   0.688   2.059   6.953 -0.0112  0.3999  1.5161
 6411SOL    HW230696   0.847   2.066   6.949 -0.1784 -1.5059 -0.1306
 6412SOL     OW30697   2.792   2.878  12.629  0.0298 -0.4447 -0.6030
 6412SOL    HW130698   2.741   2.950  12.594  1.2310  1.0590  0.7503
 6412SOL    HW230699   2.801   2.818  12.555  1.2721  0.3966 -1.1240
 6413SOL     OW30700   2.201   1.704   6.005 -0.1264  0.1234 -0.1965
 6413SOL    HW130701   2.226   1.793   5.979 -1.6248 -0.2367 -2.8801
 6413SOL    HW230702   2.283   1.679   6.049  0.0472  1.6915  0.3822
 6414SOL     OW30703   2.077   1.486   5.587 -1.2314 -0.1780  0.2960
 6414SOL    HW130704   2.169   1.488   5.613 -1.9246  2.8208  2.5037
 6414SOL    HW230705   2.050   1.578   5.590 -0.2009  0.1217  0.3784
 6415SOL     OW30706   2.294   2.725  10.756  0.2361 -0.1095 -0.2858
 6415SOL    HW130707   2.341   2.645  10.782  0.5971  0.4680  0.8475
 6415SOL    HW230708   2.333   2.750  10.672 -2.5333  1.3035 -1.1402
 6416SOL     OW30709   3.472   0.939   0.273  0.3312  0.0725 -0.0536
 6416SOL    HW130710   3.477   0.844   0.288  0.4440 -0.3544 -2.8632
 6416SOL    HW230711   3.382   0.954   0.303 -0.5130 -2.7498 -1.2094
 6417SOL     OW30712   0.601   4.065   3.804 -0.1148  0.1104  0.2699
 6417SOL    HW130713   0.627   3.986   3.756  0.5405  1.0448 -0.8759
 6417SOL    HW230714   0.561   4.123   3.740  0.0588 -0.9092 -0.7720
 6418SOL     OW30715   2.232   0.613   9.363 -0.5217 -0.5999  0.4723
 6418SOL    HW130716   2.280   0.604   9.281 -1.0102  1.4548 -0.0567
 6418SOL    HW230717   2.218   0.708   9.374  2.6982  0.1502 -1.9681
 6419SOL     OW30718   3.461   0.154   0.634  0.5166 -0.0642 -0.3518
 6419SOL    HW130719   3.490   0.064   0.621 -1.5245 -0.6805 -0.5530
 6419SOL    HW230720   3.529   0.192   0.689  0.6174  0.0463 -0.5522
 6420SOL     OW30721   3.606   3.022  15.284 -0.5381  0.3760 -0.1007
 6420SOL    HW130722   3.629   2.957  15.217  1.0686 -0.4806  1.2746
 6420SOL    HW230723   3.545   3.085  15.248 -2.5249 -1.3163  0.2707
 6421SOL     OW30724   3.808   3.386   4.925  0.2455  0.6230 -0.6334
 6421SOL    HW130725   3.716   3.371   4.903 -0.1043  2.6451 -0.6098
 6421SOL    HW230726   3.860   3.323   4.876  3.1285  0.9760  1.9481
 6422SOL     OW30727   3.100   3.536   7.022 -0.5670  0.2719 -0.1841
 6422SOL    HW130728   3.091   3.442   7.007 -2.4439  0.2952  0.6880
 6422SOL    HW230729   3.171   3.554   6.961 -1.9249  1.5703 -1.3747
 6423SOL     OW30730   0.389   0.197   5.993 -0.1170  0.0985  0.4872
 6423SOL    HW130731   0.312   0.242   5.959 -0.9364 -1.8558 -0.1997
 6423SOL    HW230732   0.455   0.199   5.924 -1.1987 -1.5368 -0.5962
 6424SOL     OW30733   0.555   0.877   3.554  0.1435  0.4953 -0.0373
 6424SOL    HW130734   0.460   0.872   3.545  0.1291 -1.6058  1.2485
 6424SOL    HW230735   0.568   0.931   3.633 -1.5490 -0.1324  0.6649
 6425SOL     OW30736   4.248   1.377  11.739 -0.6230  0.3029  0.1202
 6425SOL    HW130737   4.178   1.315  11.718 -0.3898  0.0058  0.2173
 6425SOL    HW230738   4.321   1.320  11.719 -0.3503  1.1638 -1.3411
 6426SOL     OW30739   2.316   3.831   7.202  0.0342  0.1011 -0.5561
 6426SOL    HW130740   2.244   3.891   7.220 -0.0769 -0.5255  1.1624
 6426SOL    HW230741   2.370   3.852   7.278  0.0452 -0.0221 -0.5293
 6427SOL     OW30742   0.025   2.706   7.406 -0.5671 -0.2680 -0.7873
 6427SOL    HW130743   4.669   2.762   7.434 -1.4125 -2.3645  1.2907
 6427SOL    HW230744   0.071   2.699   7.490 -0.2337 -1.1312 -1.0406
 6428SOL     OW30745   0.428   1.911   7.240  0.2478 -0.0266 -0.0299
 6428SOL    HW130746   0.444   1.994   7.195  1.2587  0.5745  1.4449
 6428SOL    HW230747   0.393   1.859   7.167  1.1848 -0.1105 -0.4225
 6429SOL     OW30748   2.251   0.806   3.006  0.0023 -0.2848  0.0731
 6429SOL    HW130749   2.255   0.900   3.026 -1.3588  0.1045 -1.5025
 6429SOL    HW230750   2.207   0.801   2.922 -0.9783  3.3307  0.3814
 6430SOL     OW30751   4.016   1.805  14.092 -0.5832  0.4574  0.3506
 6430SOL    HW130752   4.088   1.767  14.041  0.5276  1.7019  0.9828
 6430SOL    HW230753   3.994   1.875  14.031 -2.0115 -0.8912 -0.6802
 6431SOL     OW30754   0.651   1.328  15.025 -0.2790  0.0967  0.0622
 6431SOL    HW130755   0.653   1.362  15.115 -0.6146 -0.4864  0.2872
 6431SOL    HW230756   0.635   1.416  14.991  0.1832  0.3124  0.3970
 6432SOL     OW30757   3.938   2.902   4.579  0.3178  0.0918  0.3419
 6432SOL    HW130758   4.026   2.923   4.612  1.2280 -0.7633 -1.5307
 6432SOL    HW230759   3.930   2.977   4.520  0.5488 -0.8652 -0.9005
 6433SOL     OW30760   4.623   0.095   5.501  0.1706 -0.2481 -0.3348
 6433SOL    HW130761   4.688   0.026   5.516  0.2303  0.1244  1.0530
 6433SOL    HW230762   4.576   0.098   5.584 -0.3105  3.2315 -0.7228
 6434SOL     OW30763   1.523   2.934   4.083  0.0931 -0.5391  0.3207
 6434SOL    HW130764   1.448   2.892   4.126 -0.9431  0.8053 -0.1954
 6434SOL    HW230765   1.471   2.979   4.017 -0.6227 -0.6302  0.8276
 6435SOL     OW30766   2.179   1.099   4.668  0.3902  0.4909  0.3046
 6435SOL    HW130767   2.219   1.028   4.617 -1.9170 -2.1094  2.1496
 6435SOL    HW230768   2.193   1.077   4.760  0.2539  0.6889  0.3737
 6436SOL     OW30769   1.068   3.213  10.705 -0.1952  0.2905  0.1879
 6436SOL    HW130770   1.057   3.263  10.624  0.8970 -1.6074 -1.1104
 6436SOL    HW230771   1.152   3.241  10.741  0.4533 -1.2838 -0.1093
 6437SOL     OW30772   3.561   2.192   5.804 -0.1447 -0.0665 -0.5025
 6437SOL    HW130773   3.466   2.178   5.811 -0.0293 -0.3348  0.4553
 6437SOL    HW230774   3.558   2.285   5.828  1.6576 -0.2105  0.2763
 6438SOL     OW30775   1.514   1.203   4.737 -0.2933  1.0074  0.3686
 6438SOL    HW130776   1.509   1.161   4.823  2.7898 -2.4536 -1.1197
 6438SOL    HW230777   1.595   1.253   4.751  0.4983  0.8806 -3.7543
 6439SOL     OW30778   3.862   2.509  16.088  0.5315 -0.1709  0.2049
 6439SOL    HW130779   3.911   2.511  16.006  0.9861  1.4518  0.5101
 6439SOL    HW230780   3.896   2.587  16.133  1.8501 -0.1904 -0.7864
 6440SOL     OW30781   4.578   0.665   6.326 -0.4420  0.4288 -0.1833
 6440SOL    HW130782   4.644   0.601   6.352  0.8558  0.3436 -3.6613
 6440SOL    HW230783   4.570   0.640   6.234 -0.3048  0.0897 -0.1000
 6441SOL     OW30784   2.683   0.074  10.089  0.2385  0.0301  0.0187
 6441SOL    HW130785   2.715   0.028  10.011 -0.1370 -3.7952  2.1152
 6441SOL    HW230786   2.596   0.038  10.106  0.8579 -0.9058  1.2077
 6442SOL     OW30787   4.656   2.692   8.333  0.6691  0.4157 -0.6321
 6442SOL    HW130788   4.630   2.778   8.301 -0.4430  0.0472 -0.6953
 6442SOL    HW230789   4.585   2.680   8.396  2.3929 -0.7503  1.1027
 6443SOL     OW30790   4.445   0.966   0.259  0.3610  0.3595  0.3616
 6443SOL    HW130791   4.356   0.987   0.230  0.2798  3.2053  2.7047
 6443SOL    HW230792   4.491   0.972   0.175 -2.0936 -0.9067 -1.0643
 6444SOL     OW30793   3.889   3.791  11.626 -0.4263 -0.5960 -0.3011
 6444SOL    HW130794   3.802   3.820  11.649 -0.6944 -1.9366  0.3810
 6444SOL    HW230795   3.946   3.867  11.635  0.0664 -0.9794 -0.1485
 6445SOL     OW30796   0.153   0.159   2.509  0.1705  0.3870  0.4691
 6445SOL    HW130797   0.222   0.111   2.462 -2.7655 -2.0253 -1.3304
 6445SOL    HW230798   0.145   0.099   2.583 -0.5848  1.7239  1.4584
 6446SOL     OW30799   1.252   0.123   7.574  0.0653 -0.0061  0.4477
 6446SOL    HW130800   1.210   0.144   7.657  1.2019  1.8493  0.5676
 6446SOL    HW230801   1.276   0.213   7.550 -0.9599  0.9926  3.2285
 6447SOL     OW30802   0.783   3.048  14.619  1.0716 -0.1601  0.3160
 6447SOL    HW130803   0.782   3.063  14.713  0.3127 -1.7220  0.5659
 6447SOL    HW230804   0.875   3.069  14.608  0.8232  0.8004  0.0563
 6448SOL     OW30805   1.000   2.621  16.525 -0.0839 -0.1065  0.3354
 6448SOL    HW130806   0.924   2.579  16.485 -0.0867 -1.4351  1.7469
 6448SOL    HW230807   0.961   2.686  16.584  0.7434  1.2723 -0.6133
 6449SOL     OW30808   4.323   0.605  11.766  0.3818  0.5785 -0.1394
 6449SOL    HW130809   4.398   0.564  11.809 -0.9491 -2.1066 -0.3759
 6449SOL    HW230810   4.274   0.525  11.746 -1.2078  1.8892 -1.4502
 6450SOL     OW30811   4.493   1.431  14.512  0.4003  1.0586 -0.1154
 6450SOL    HW130812   4.480   1.347  14.468  3.1338 -0.2902  1.6119
 6450SOL    HW230813   4.475   1.403  14.602  1.9643 -0.2823 -0.2129
 6451SOL     OW30814   3.899   4.364  10.536 -0.1664 -0.4095 -0.5876
 6451SOL    HW130815   3.829   4.420  10.567  0.6628 -0.6526  1.7710
 6451SOL    HW230816   3.949   4.422  10.479  0.9502 -0.2663  0.5254
 6452SOL     OW30817   1.302   1.642   5.953 -0.0477  0.4785  0.1560
 6452SOL    HW130818   1.280   1.645   6.046  0.2106 -2.3622  0.2956
 6452SOL    HW230819   1.386   1.686   5.964  0.8607 -1.0532 -0.7051
 6453SOL     OW30820   0.230   1.869   3.671  0.0778 -0.5626  0.1612
 6453SOL    HW130821   0.218   1.781   3.706  1.0247 -0.5307  0.5644
 6453SOL    HW230822   0.254   1.847   3.581  1.0873 -0.5601  0.4259
 6454SOL     OW30823   2.218   0.383   4.399 -0.0502  0.0793  0.1799
 6454SOL    HW130824   2.144   0.425   4.354 -0.9182 -1.9510 -0.2925
 6454SOL    HW230825   2.178   0.383   4.486 -0.9742 -0.4479 -0.2384
 6455SOL     OW30826   2.023   4.654   7.248 -0.0964  0.2814 -0.1241
 6455SOL    HW130827   2.070   4.645   7.165  0.8269  0.6473  0.3630
 6455SOL    HW230828   2.053   4.584   7.307 -1.8475 -0.3360  0.0364
 6456SOL     OW30829   4.159   1.247   9.531  0.1785  0.3492 -0.0890
 6456SOL    HW130830   4.171   1.151   9.531  1.1421  0.4667 -1.0816
 6456SOL    HW230831   4.208   1.277   9.455  0.1241 -1.6423 -0.9141
 6457SOL     OW30832   0.385   3.256   7.300 -0.3070 -0.2519 -0.6471
 6457SOL    HW130833   0.420   3.167   7.299  0.4558  0.0522 -0.7720
 6457SOL    HW230834   0.374   3.264   7.205 -0.7948 -2.0484 -0.7502
 6458SOL     OW30835   3.903   2.337   7.955 -0.4214  0.3375  0.2172
 6458SOL    HW130836   3.947   2.302   7.878  0.4856  1.0666  0.4089
 6458SOL    HW230837   3.888   2.428   7.927 -1.7373  0.3833  1.0364
 6459SOL     OW30838   4.447   3.779   3.248 -0.8078  0.1959  0.0737
 6459SOL    HW130839   4.466   3.709   3.186  0.8454 -0.4393  1.2915
 6459SOL    HW230840   4.398   3.728   3.313 -1.6102  0.0669 -0.6435
 6460SOL     OW30841   0.992   0.472   6.913 -0.2062 -0.1082  0.3128
 6460SOL    HW130842   0.971   0.382   6.939 -0.5604 -0.1415 -0.1020
 6460SOL    HW230843   1.087   0.465   6.920 -0.2876 -0.7526  0.9143
 6461SOL     OW30844   2.576   0.645   7.569  0.0869  0.3776 -0.0169
 6461SOL    HW130845   2.597   0.726   7.616 -1.1139  0.1945  0.8388
 6461SOL    HW230846   2.660   0.614   7.537  0.7820  2.8491 -0.5880
 6462SOL     OW30847   2.124   1.304   8.207  0.0853  0.5989 -0.1300
 6462SOL    HW130848   2.039   1.334   8.238 -0.6062 -2.4778  0.9686
 6462SOL    HW230849   2.169   1.379   8.168 -2.1213  1.3581 -1.1769
 6463SOL     OW30850   3.363   2.744   4.092 -0.5415  0.4258 -0.4047
 6463SOL    HW130851   3.453   2.716   4.112 -1.0482 -0.5934  0.4391
 6463SOL    HW230852   3.344   2.819   4.148  2.3158  2.4166 -2.0771
 6464SOL     OW30853   0.382   1.991   5.881  0.3199  0.5030 -0.2893
 6464SOL    HW130854   0.407   1.927   5.813 -0.5083 -1.4903  1.2924
 6464SOL    HW230855   0.376   2.059   5.813 -1.5189  1.0181  0.4070
 6465SOL     OW30856   4.406   1.122   5.506 -0.3669  0.4083  0.2310
 6465SOL    HW130857   4.334   1.062   5.524 -0.1284 -0.3569 -1.4258
 6465SOL    HW230858   4.461   1.099   5.581 -0.2405 -1.1581 -0.3651
 6466SOL     OW30859   1.015   2.874  11.918  0.6445  0.5393  0.3535
 6466SOL    HW130860   0.939   2.900  11.969  0.0921 -1.6637  0.6322
 6466SOL    HW230861   1.070   2.951  11.931  0.2577  0.9615 -0.5018
 6467SOL     OW30862   3.368   4.198  16.129  0.1864  0.3626  0.1480
 6467SOL    HW130863   3.403   4.144  16.058  0.6544  1.7450 -0.6696
 6467SOL    HW230864   3.304   4.260  16.095  0.5144  0.0636 -1.0012
 6468SOL     OW30865   4.331   3.259   4.041  0.1118  0.1115 -0.3896
 6468SOL    HW130866   4.295   3.225   3.960 -0.2243  1.4351 -0.7990
 6468SOL    HW230867   4.397   3.319   4.007  0.6329  0.4183  1.1509
 6469SOL     OW30868   4.203   2.269  12.563 -0.1299 -0.1085 -0.0984
 6469SOL    HW130869   4.288   2.226  12.551  0.3132  1.1092 -1.3214
 6469SOL    HW230870   4.228   2.355  12.530  0.4030 -0.3162 -0.2465
 6470SOL     OW30871   1.532   4.255   8.002 -0.2428 -0.4653  0.2348
 6470SOL    HW130872   1.503   4.321   7.939  0.7451  0.2869  0.5591
 6470SOL    HW230873   1.529   4.315   8.076 -2.5644 -0.3055 -0.0152
 6471SOL     OW30874   4.148   3.361   3.515  0.1257  0.1604 -0.2196
 6471SOL    HW130875   4.103   3.296   3.463 -0.9298 -0.4410  1.4536
 6471SOL    HW230876   4.110   3.445   3.487  0.4971 -0.0540 -1.3727
 6472SOL     OW30877   3.574   2.628  13.307 -0.4510  0.0604  0.4102
 6472SOL    HW130878   3.492   2.673  13.287 -0.2183  0.9014  1.3331
 6472SOL    HW230879   3.638   2.666  13.248 -1.5678  2.0486  0.4503
 6473SOL     OW30880   2.880   1.274   4.308  0.1115 -0.0992 -0.0629
 6473SOL    HW130881   2.932   1.346   4.271 -2.0362  1.1951 -0.5826
 6473SOL    HW230882   2.886   1.288   4.403  0.0179  4.0260 -0.6663
 6474SOL     OW30883   0.354   0.731  15.985  0.3529  1.0956  0.0746
 6474SOL    HW130884   0.288   0.662  16.000  1.6215  0.3985  2.4115
 6474SOL    HW230885   0.366   0.730  15.890  1.8283  0.8396  0.2713
 6475SOL     OW30886   3.272   1.701  17.159 -0.6371 -0.1852  0.3278
 6475SOL    HW130887   3.271   1.656  17.074 -0.0553  1.4528 -0.5515
 6475SOL    HW230888   3.364   1.702  17.184 -0.6821  0.3536  0.4591
 6476SOL     OW30889   4.327   2.525   3.239 -0.0611 -0.6110  0.7397
 6476SOL    HW130890   4.236   2.533   3.265 -0.2432 -1.7513  0.4550
 6476SOL    HW230891   4.336   2.434   3.207  0.3354 -0.1808 -0.3924
 6477SOL     OW30892   3.206   3.602   7.855  0.2536  0.0798 -0.4014
 6477SOL    HW130893   3.193   3.509   7.837 -0.5199 -0.0998  1.0854
 6477SOL    HW230894   3.276   3.626   7.794  1.5393 -0.1170  1.0304
 6478SOL     OW30895   1.757   3.656   5.806  0.4925  0.1646 -0.3064
 6478SOL    HW130896   1.815   3.606   5.864 -3.2380 -2.7415  0.8928
 6478SOL    HW230897   1.697   3.703   5.864  0.9046  0.3972 -0.0668
 6479SOL     OW30898   2.089   1.787   7.497 -0.0909  0.0814 -0.0188
 6479SOL    HW130899   2.020   1.852   7.515 -1.3705 -0.9430 -1.1655
 6479SOL    HW230900   2.081   1.774   7.402  1.3774  0.1637 -0.1527
 6480SOL     OW30901   3.198   1.651   3.793 -0.7398  0.2684  0.3176
 6480SOL    HW130902   3.132   1.583   3.776 -1.1607  0.6296  0.5216
 6480SOL    HW230903   3.154   1.733   3.773 -1.5730 -0.4992 -1.0188
 6481SOL     OW30904   4.499   2.388  16.037 -1.0022  0.2843  0.1426
 6481SOL    HW130905   4.564   2.453  16.060 -0.8368  0.3822 -0.5793
 6481SOL    HW230906   4.540   2.321  15.982 -1.7959 -0.3674  0.3392
 6482SOL     OW30907   3.526   0.478  16.863  0.3345 -0.4147 -0.3586
 6482SOL    HW130908   3.579   0.450  16.789 -0.3524  1.0562 -1.4135
 6482SOL    HW230909   3.437   0.493  16.831  0.6887  1.9863 -0.2362
 6483SOL     OW30910   0.610   2.149  15.873 -0.0196  0.5138 -0.7620
 6483SOL    HW130911   0.663   2.176  15.798  1.3852 -1.1615 -0.3679
 6483SOL    HW230912   0.650   2.207  15.938 -0.2704 -0.0324 -0.1277
 6484SOL     OW30913   1.771   0.721   5.890 -0.4667 -0.1762  0.2575
 6484SOL    HW130914   1.843   0.677   5.845 -0.7997  0.1427 -0.5887
 6484SOL    HW230915   1.813   0.799   5.927 -0.2599 -0.6716  1.0638
 6485SOL     OW30916   4.509   4.266   1.727  0.1374  0.3345  0.2070
 6485SOL    HW130917   4.452   4.270   1.804 -0.6649  2.0492 -0.4863
 6485SOL    HW230918   4.462   4.197   1.680  1.2609 -2.1426  2.6626
 6486SOL     OW30919   0.235   3.328   5.799 -0.4981 -0.7260  0.0921
 6486SOL    HW130920   0.185   3.255   5.836 -0.7299 -0.9664 -0.7019
 6486SOL    HW230921   0.318   3.282   5.786  0.0461 -0.6795  3.2972
 6487SOL     OW30922   0.711   1.025  12.088 -0.2455 -0.3856 -0.3209
 6487SOL    HW130923   0.711   1.054  11.996 -0.4367  2.2753  0.5076
 6487SOL    HW230924   0.765   0.948  12.076  0.2976 -0.4163  2.4504
 6488SOL     OW30925   0.553   4.665   1.998 -0.5711 -0.3883  0.3871
 6488SOL    HW130926   0.623   4.672   2.063 -0.6781 -1.7549  0.6301
 6488SOL    HW230927   0.490   4.600   2.029 -1.9742  0.6449 -0.2979
 6489SOL     OW30928   1.751   2.125   6.241 -0.2355  0.4829  0.0910
 6489SOL    HW130929   1.812   2.062   6.278  0.4221  2.0634  1.7167
 6489SOL    HW230930   1.714   2.065   6.176  1.6457 -0.2019 -0.3382
 6490SOL     OW30931   4.628   3.066   4.746 -0.4462  0.1845 -0.5344
 6490SOL    HW130932   4.558   3.052   4.809 -0.4663  2.6820  0.0007
 6490SOL    HW230933   4.684   3.128   4.793  1.3969 -1.2894 -0.7705
 6491SOL     OW30934   3.320   3.300   8.408  0.0771 -0.3750 -0.1370
 6491SOL    HW130935   3.404   3.331   8.374 -1.8432  2.1356 -2.6091
 6491SOL    HW230936   3.276   3.276   8.326  1.4033 -0.2639 -0.8773
 6492SOL     OW30937   0.501   3.871  10.102  0.0286 -0.2579  0.2853
 6492SOL    HW130938   0.556   3.932  10.053  0.6951  0.1598  1.5672
 6492SOL    HW230939   0.410   3.900  10.094  0.5250  0.9077 -1.0876
 6493SOL     OW30940   2.615   1.734   4.524 -0.2135 -0.4213  0.1743
 6493SOL    HW130941   2.668   1.746   4.603 -0.2995  2.6905 -0.2589
 6493SOL    HW230942   2.687   1.711   4.466  0.0844 -0.7512  0.6707
 6494SOL     OW30943   0.857   2.228   8.705 -0.3374  0.0770  0.4367
 6494SOL    HW130944   0.855   2.161   8.774  0.0775 -1.9458 -1.5038
 6494SOL    HW230945   0.864   2.173   8.627  0.2487  1.1894 -0.2934
 6495SOL     OW30946   1.545   0.993  10.084 -0.0308 -0.3895  0.3457
 6495SOL    HW130947   1.571   0.948  10.004 -0.4749  0.2602 -0.1600
 6495SOL    HW230948   1.451   0.978  10.079 -0.4120  1.8798  0.9143
 6496SOL     OW30949   4.450   0.010   8.985 -0.2346  0.5647 -0.1720
 6496SOL    HW130950   4.459   0.051   8.900  1.8041 -2.2795 -1.3371
 6496SOL    HW230951   4.437   4.636   8.954  1.3571  0.8516 -1.6428
 6497SOL     OW30952   3.734   1.459   5.193 -0.3523  0.0787 -0.3583
 6497SOL    HW130953   3.655   1.404   5.193  1.6256 -2.7790 -0.2163
 6497SOL    HW230954   3.776   1.423   5.271 -1.0391  0.4428  0.1712
 6498SOL     OW30955   1.927   3.407  11.470  0.5315  0.2369 -0.4785
 6498SOL    HW130956   1.993   3.471  11.443 -0.6293  1.1214 -1.2189
 6498SOL    HW230957   1.980   3.366  11.539 -1.2485  0.2326  0.8767
 6499SOL     OW30958   4.176   4.658  10.685  0.4399  0.0465 -0.2086
 6499SOL    HW130959   4.208   4.586  10.631  3.9728 -0.9847  3.2938
 6499SOL    HW230960   4.086   4.676  10.656  1.2259 -0.8279 -3.1401
 6500SOL     OW30961   0.136   0.474  15.587  0.3235 -0.8644  0.0289
 6500SOL    HW130962   0.198   0.411  15.625  3.6059  1.6997 -1.0879
 6500SOL    HW230963   0.071   0.451  15.653  1.6058  1.0949  1.9517
 6501SOL     OW30964   2.966   4.107   4.000 -0.2382  0.3780  0.4452
 6501SOL    HW130965   3.035   4.172   4.008 -0.4106  0.2887  2.6412
 6501SOL    HW230966   2.937   4.136   3.913  1.1312  1.0820  0.2310
 6502SOL     OW30967   0.235   2.618  12.112 -0.0958  0.2240 -0.2950
 6502SOL    HW130968   0.218   2.625  12.018 -1.2562 -2.1385 -0.2671
 6502SOL    HW230969   0.315   2.566  12.103  1.3857  2.3102  0.9110
 6503SOL     OW30970   3.912   1.109   5.772 -0.1348 -0.5629  0.0067
 6503SOL    HW130971   3.936   1.027   5.815  0.6375 -0.0010  0.6508
 6503SOL    HW230972   4.001   1.144   5.760  0.4677 -1.7210  1.1292
 6504SOL     OW30973   0.126   3.937   5.968 -0.0850  0.1274 -0.5104
 6504SOL    HW130974   0.045   3.916   5.921  0.0204  1.0055 -1.0921
 6504SOL    HW230975   0.170   3.855   5.947  0.6380  1.1588 -2.9768
 6505SOL     OW30976   2.551   2.093   0.771 -0.1386  0.2383 -0.2680
 6505SOL    HW130977   2.544   1.999   0.754 -0.7320  0.9209 -3.7581
 6505SOL    HW230978   2.633   2.097   0.821  0.2538  1.0170 -0.9724
 6506SOL     OW30979   0.948   0.080   4.041  0.0614  0.2991 -0.4820
 6506SOL    HW130980   0.877   0.144   4.039 -0.2181  0.1760  3.8466
 6506SOL    HW230981   0.944   0.052   3.950 -1.0808 -1.3033  0.0722
 6507SOL     OW30982   0.762   2.180  11.507 -0.3855  0.1453  0.2422
 6507SOL    HW130983   0.755   2.228  11.425 -0.2924 -0.3410 -0.0481
 6507SOL    HW230984   0.674   2.200  11.541 -0.7000  0.2520 -0.6516
 6508SOL     OW30985   4.207   3.846   2.490  0.3714  0.7675  0.0916
 6508SOL    HW130986   4.276   3.906   2.519 -0.6050  1.0339  1.9171
 6508SOL    HW230987   4.251   3.811   2.412  1.0565  3.3651 -0.6795
 6509SOL     OW30988   2.341   1.658   1.186 -0.2906  0.5971  0.4639
 6509SOL    HW130989   2.275   1.624   1.126 -1.3322  1.2581  1.2571
 6509SOL    HW230990   2.297   1.663   1.270 -2.0653  3.0153 -0.6228
 6510SOL     OW30991   3.904   3.448   7.779  0.3925 -0.4211 -0.6194
 6510SOL    HW130992   3.966   3.437   7.851  0.7740 -1.4715 -1.1061
 6510SOL    HW230993   3.884   3.541   7.786  1.8307 -0.2193  0.8877
 6511SOL     OW30994   2.787   1.023   1.081 -0.6200  0.4589  0.1627
 6511SOL    HW130995   2.693   1.044   1.090 -0.7291  0.1226 -0.2281
 6511SOL    HW230996   2.823   1.105   1.115  0.0219 -0.2986  1.3212
 6512SOL     OW30997   0.949   1.274   2.446  0.3223 -0.1292  0.5382
 6512SOL    HW130998   0.997   1.237   2.371 -1.9417 -2.0280 -0.0170
 6512SOL    HW230999   0.971   1.367   2.446  0.2415 -0.1053 -0.0770
 6513SOL     OW31000   3.695   2.141   9.707 -0.2689 -1.1938  0.1330
 6513SOL    HW131001   3.636   2.210   9.679 -1.2152 -0.9996  2.5669
 6513SOL    HW231002   3.630   2.072   9.693 -3.8353  2.6835 -2.3264
 6514SOL     OW31003   2.282   3.457  14.814  0.1514  0.1277 -0.1900
 6514SOL    HW131004   2.263   3.426  14.725 -0.1809  0.7373 -0.3303
 6514SOL    HW231005   2.304   3.546  14.788  0.9198 -0.7986 -2.7670
 6515SOL     OW31006   3.996   0.815   2.629  0.1173 -0.9763 -0.2069
 6515SOL    HW131007   4.076   0.763   2.633 -0.0751 -1.2053  0.6098
 6515SOL    HW231008   3.992   0.820   2.533 -0.2379  1.2483 -0.0670
 6516SOL     OW31009   0.470   3.712  16.511  0.0554  0.4955 -0.7267
 6516SOL    HW131010   0.495   3.745  16.425  0.2272  1.2419 -0.3860
 6516SOL    HW231011   0.518   3.630  16.524  3.1760  2.3352 -0.7761
 6517SOL     OW31012   0.623   1.270   7.053  0.0964  0.5754  0.2722
 6517SOL    HW131013   0.531   1.279   7.027  0.2209 -4.5588 -1.9535
 6517SOL    HW231014   0.667   1.278   6.969 -0.9535 -1.2393 -0.4581
 6518SOL     OW31015   1.438   2.112   3.031  0.0299 -0.0382  0.0108
 6518SOL    HW131016   1.351   2.079   3.053  0.1435  1.0532  2.0552
 6518SOL    HW231017   1.436   2.107   2.935 -2.9319  0.9204  0.0162
 6519SOL     OW31018   3.488   4.147   8.906 -0.3104  0.6676 -0.1460
 6519SOL    HW131019   3.480   4.053   8.924  3.4434  0.6816  1.5059
 6519SOL    HW231020   3.495   4.183   8.995  1.6011  0.4837 -0.2287
 6520SOL     OW31021   0.387   3.243  11.158 -0.0962 -0.5226  0.4269
 6520SOL    HW131022   0.442   3.217  11.232 -2.0992 -0.8040  1.8197
 6520SOL    HW231023   0.331   3.167  11.146  0.4079 -1.0006  1.1526
 6521SOL     OW31024   4.415   3.561   7.428  0.0215  0.5104 -0.2764
 6521SOL    HW131025   4.443   3.543   7.518  0.7882 -1.3977 -0.8959
 6521SOL    HW231026   4.465   3.488   7.391 -3.4428 -2.2420  0.5075
 6522SOL     OW31027   2.522   3.439  11.182 -0.0949 -0.8226  0.9610
 6522SOL    HW131028   2.560   3.362  11.139 -0.9133  0.0675 -1.3625
 6522SOL    HW231029   2.559   3.511  11.132 -1.3588 -1.1766 -0.4894
 6523SOL     OW31030   0.098   2.586   4.107 -0.3012  0.4158  0.1931
 6523SOL    HW131031   0.042   2.535   4.049 -0.6200  1.6438 -0.5875
 6523SOL    HW231032   0.181   2.573   4.061 -0.4125  1.9710 -0.4807
 6524SOL     OW31033   1.945   2.784   3.386 -0.2137 -0.1484  0.7167
 6524SOL    HW131034   1.929   2.772   3.479 -0.4909  1.5058  0.8899
 6524SOL    HW231035   1.945   2.695   3.352 -1.3557 -0.3293  1.2038
 6525SOL     OW31036   3.086   2.976   3.965 -0.0748  0.0972 -0.0288
 6525SOL    HW131037   3.087   2.882   3.982  1.1856 -0.2053 -1.8047
 6525SOL    HW231038   3.005   2.990   4.015  1.0942  3.2402  0.9999
 6526SOL     OW31039   2.841   1.662   3.859 -0.2412  0.0013  0.4568
 6526SOL    HW131040   2.756   1.621   3.842 -0.3942  0.9125 -1.0115
 6526SOL    HW231041   2.890   1.583   3.881  0.9026  0.9672  1.3912
 6527SOL     OW31042   4.509   2.442  10.012  0.4348  0.2556 -0.3988
 6527SOL    HW131043   4.462   2.417   9.932 -0.2918 -1.0615  0.4385
 6527SOL    HW231044   4.432   2.466  10.065  0.8490 -0.8809  0.6942
 6528SOL     OW31045   0.905   2.797   0.088 -0.1531 -0.4113  0.3586
 6528SOL    HW131046   0.997   2.777   0.107  0.8433  1.6284 -2.3162
 6528SOL    HW231047   0.909   2.889   0.113  0.5763 -0.5189  0.6600
 6529SOL     OW31048   1.395   0.828   5.744 -0.4238 -0.1435 -0.5004
 6529SOL    HW131049   1.410   0.758   5.807  1.6620  1.0249  0.2973
 6529SOL    HW231050   1.391   0.897   5.811 -3.0083  0.2950 -1.0994
 6530SOL     OW31051   1.631   4.693   3.938 -0.0201 -0.2740  0.5452
 6530SOL    HW131052   1.647   0.071   3.947 -0.1824 -0.2346  0.4351
 6530SOL    HW231053   1.606   4.669   3.849  0.0797  1.5696  0.0068
 6531SOL     OW31054   2.469   4.612   4.861  0.0708  0.1395  0.0381
 6531SOL    HW131055   2.443   4.674   4.793 -2.2281 -1.6105 -0.7082
 6531SOL    HW231056   2.383   4.589   4.897 -0.1467  0.5716 -0.2040
 6532SOL     OW31057   1.924   2.451   9.497  0.1981 -0.0344  0.3236
 6532SOL    HW131058   1.843   2.488   9.533  0.8463  0.6137  1.1113
 6532SOL    HW231059   1.994   2.509   9.527  0.6779  0.3397 -1.4831
 6533SOL     OW31060   2.708   2.004  16.590 -0.0624 -0.6012 -0.0869
 6533SOL    HW131061   2.727   2.087  16.634  1.7654 -1.1333  0.1461
 6533SOL    HW231062   2.793   1.961  16.593 -0.3034 -1.0140  0.9523
 6534SOL     OW31063   3.278   4.065   6.944  0.5654 -0.3694 -0.0095
 6534SOL    HW131064   3.365   4.073   6.906  0.6507  1.4169  0.5324
 6534SOL    HW231065   3.248   4.155   6.932 -2.7296 -1.4137  0.4215
 6535SOL     OW31066   1.463   2.001   0.304  0.3915  0.0073 -0.9300
 6535SOL    HW131067   1.433   2.092   0.306  1.4026  0.3188  0.3364
 6535SOL    HW231068   1.403   1.966   0.238 -0.9336  1.0515 -0.2686
 6536SOL     OW31069   1.417   2.467  14.586 -0.0450 -0.7860  0.3386
 6536SOL    HW131070   1.429   2.409  14.662 -0.0970 -0.7239  0.3938
 6536SOL    HW231071   1.497   2.468  14.533 -1.1716  3.0924 -1.2641
 6537SOL     OW31072   1.122   0.021   6.139  0.3801  0.0898 -0.9021
 6537SOL    HW131073   1.059   0.015   6.066  0.2561  0.2935 -0.8122
 6537SOL    HW231074   1.075   4.704   6.215 -0.5922 -0.6602 -1.8197
 6538SOL     OW31075   4.683   3.978   6.519  0.5323  0.5489 -0.6998
 6538SOL    HW131076   4.648   4.037   6.452  3.3299  1.6815 -1.1498
 6538SOL    HW231077   0.053   4.012   6.542  1.7398 -2.5939 -0.4943
 6539SOL     OW31078   3.221   3.390   3.563 -0.2193 -0.5626 -0.0076
 6539SOL    HW131079   3.306   3.351   3.580  0.7486  1.4013 -0.3597
 6539SOL    HW231080   3.161   3.325   3.600 -1.6985  1.6713  1.5067
 6540SOL     OW31081   3.612   2.633   2.898  0.5014 -0.0116  0.2606
 6540SOL    HW131082   3.578   2.574   2.831 -2.5335 -0.9619  2.6893
 6540SOL    HW231083   3.554   2.707   2.881  0.2167 -0.2218  0.3362
 6541SOL     OW31084   0.869   0.573   6.060 -0.1101  0.0384  0.9783
 6541SOL    HW131085   0.926   0.523   6.002  1.7598  3.2256  0.0469
 6541SOL    HW231086   0.942   0.612   6.109 -0.7450  0.7057  1.3999
 6542SOL     OW31087   0.886   0.519   5.602  0.3717  0.9907  0.2630
 6542SOL    HW131088   0.946   0.569   5.657  0.8629 -0.1982  0.8108
 6542SOL    HW231089   0.948   0.458   5.563 -1.6383 -0.1505 -1.1772
 6543SOL     OW31090   3.971   1.562  16.822 -0.0779 -0.0481 -0.2861
 6543SOL    HW131091   4.048   1.588  16.772 -0.2108  0.7694 -0.0713
 6543SOL    HW231092   3.993   1.595  16.909 -0.3846  0.8689 -0.5613
 6544SOL     OW31093   4.015   1.184   7.437  0.0431 -0.2315 -0.7034
 6544SOL    HW131094   4.107   1.187   7.462  0.2330 -1.6900 -1.1875
 6544SOL    HW231095   3.985   1.122   7.503  1.8598  0.8232  1.1126
 6545SOL     OW31096   4.414   1.798   8.408 -0.1451 -0.7105 -0.5070
 6545SOL    HW131097   4.486   1.769   8.352  0.0152  0.4842 -0.9181
 6545SOL    HW231098   4.343   1.751   8.366  0.3105 -2.0159  0.1801
 6546SOL     OW31099   3.827   1.185   2.527  0.3527  0.1305  0.0817
 6546SOL    HW131100   3.789   1.133   2.457 -2.5596  3.2243 -0.6321
 6546SOL    HW231101   3.777   1.142   2.596  1.5507  0.5396  1.2164
 6547SOL     OW31102   4.447   2.733   8.517 -0.3352  0.8973  0.2976
 6547SOL    HW131103   4.391   2.811   8.511  1.6714  2.3311  0.2833
 6547SOL    HW231104   4.372   2.673   8.514  0.2283  0.2841 -1.6325
 6548SOL     OW31105   4.397   2.590   9.789  0.2929 -0.4325  0.6269
 6548SOL    HW131106   4.344   2.668   9.772  0.8201 -0.1853  0.0876
 6548SOL    HW231107   4.484   2.630   9.781 -1.8423  4.4868  1.7955
 6549SOL     OW31108   0.395   4.142   7.995 -0.1334 -0.0772 -0.3825
 6549SOL    HW131109   0.324   4.173   8.051 -0.8039 -1.9809 -0.1652
 6549SOL    HW231110   0.457   4.110   8.060 -1.1304  0.0733  0.6494
 6550SOL     OW31111   2.261   2.703   7.793 -0.2677  0.0484 -0.0378
 6550SOL    HW131112   2.353   2.699   7.768 -0.1150 -2.6818  1.0069
 6550SOL    HW231113   2.260   2.726   7.886  1.7103 -1.2109  0.2860
 6551SOL     OW31114   3.392   1.912   2.193 -0.1525  0.7800  0.2612
 6551SOL    HW131115   3.387   1.981   2.259 -1.8385 -0.0838  1.0258
 6551SOL    HW231116   3.304   1.876   2.207  0.0270  0.6715  1.0999
 6552SOL     OW31117   1.417   2.691   9.233 -0.3852 -0.2126 -0.4709
 6552SOL    HW131118   1.508   2.716   9.216  0.1501 -1.5459  0.4150
 6552SOL    HW231119   1.426   2.635   9.310  0.7285 -2.4087 -2.1836
 6553SOL     OW31120   2.485   1.941   7.195 -0.3205 -0.4111 -0.2729
 6553SOL    HW131121   2.554   1.984   7.245 -0.0219 -0.9947 -0.1773
 6553SOL    HW231122   2.495   1.971   7.104  1.0924 -0.8725 -0.2639
 6554SOL     OW31123   1.854   0.091  13.454  0.6324  0.1283  0.0110
 6554SOL    HW131124   1.864   0.075  13.360  2.0564  1.3419 -0.0435
 6554SOL    HW231125   1.771   0.046  13.470  0.7058  0.1677  0.5149
 6555SOL     OW31126   2.425   2.591   9.720  0.8137  0.1795 -0.6326
 6555SOL    HW131127   2.364   2.575   9.791 -0.3738  2.0579 -1.2415
 6555SOL    HW231128   2.365   2.597   9.645 -0.4126  2.2620  0.5224
 6556SOL     OW31129   2.293   2.390   8.730  0.0252 -0.4192 -0.0036
 6556SOL    HW131130   2.249   2.446   8.794 -1.7403 -1.5684 -0.2385
 6556SOL    HW231131   2.355   2.337   8.780 -1.9826 -0.6080  2.2871
 6557SOL     OW31132   2.961   4.364   8.062  0.3183 -0.3889 -0.0744
 6557SOL    HW131133   3.000   4.358   8.149  0.4163  0.6633 -0.0532
 6557SOL    HW231134   2.943   4.271   8.046 -0.9208 -0.0599 -0.6184
 6558SOL     OW31135   1.398   3.860   6.249 -0.6181  0.4617  0.5167
 6558SOL    HW131136   1.461   3.844   6.179 -1.3773 -1.2454  0.2318
 6558SOL    HW231137   1.324   3.888   6.195 -1.2493 -2.7296 -0.2538
 6559SOL     OW31138   2.472   1.149  10.126  0.1987  0.1946 -0.0906
 6559SOL    HW131139   2.528   1.124  10.199  0.5006 -3.1085 -1.4455
 6559SOL    HW231140   2.429   1.066  10.107 -0.8721  0.7638 -0.1251
 6560SOL     OW31141   2.191   3.256   6.885  0.4042  0.2414  0.0708
 6560SOL    HW131142   2.225   3.171   6.911  0.5030  1.0661  2.6456
 6560SOL    HW231143   2.255   3.302   6.939  1.4763  0.4281 -1.3752
 6561SOL     OW31144   0.591   1.142   5.289  0.6828 -0.0180 -0.0940
 6561SOL    HW131145   0.506   1.185   5.292 -0.3945 -2.1382  0.4852
 6561SOL    HW231146   0.574   1.067   5.348 -0.1515 -0.0777 -0.4193
 6562SOL     OW31147   3.518   0.662   8.460 -0.6343 -0.5232 -0.6154
 6562SOL    HW131148   3.533   0.568   8.450  0.4283 -0.5522  1.3052
 6562SOL    HW231149   3.602   0.686   8.500 -2.2581  0.2687  2.3636
 6563SOL     OW31150   0.032   1.779  12.038  0.0897 -0.1929 -0.5202
 6563SOL    HW131151   0.050   1.778  12.132 -0.6897  0.2580 -0.3641
 6563SOL    HW231152   0.040   1.686  12.018 -3.3913 -0.5576 -0.2020
 6564SOL     OW31153   2.508   4.462  14.440 -0.1092  0.5981  0.2316
 6564SOL    HW131154   2.478   4.373  14.460  0.2244 -0.3029 -3.2515
 6564SOL    HW231155   2.565   4.449  14.364  0.7544 -1.4880  1.2399
 6565SOL     OW31156   3.285   2.259   5.685 -0.0464 -0.0171  0.2066
 6565SOL    HW131157   3.343   2.247   5.610 -1.6910 -0.5391 -0.9641
 6565SOL    HW231158   3.204   2.275   5.637 -2.2682  1.4058  4.3978
 6566SOL     OW31159   1.553   2.056  16.007 -0.2892  0.4096  0.2521
 6566SOL    HW131160   1.508   2.118  15.950  2.0707  2.2808  0.4075
 6566SOL    HW231161   1.643   2.089  16.004 -0.5889  1.2379  0.5086
 6567SOL     OW31162   4.097   1.267   5.501 -0.3936 -0.0307  0.2436
 6567SOL    HW131163   4.140   1.205   5.443 -0.9289 -1.0962  0.9703
 6567SOL    HW231164   4.134   1.244   5.587  1.4650 -0.7349 -0.7581
 6568SOL     OW31165   0.390   3.143   2.602 -0.3586 -0.2816  0.4014
 6568SOL    HW131166   0.382   3.190   2.685 -3.1158 -0.7366  0.3786
 6568SOL    HW231167   0.419   3.057   2.634  0.7225  0.0587  0.3375
 6569SOL     OW31168   0.378   0.558   5.735  0.5171  0.3255  0.0972
 6569SOL    HW131169   0.384   0.622   5.664 -3.9946 -0.3468 -0.8859
 6569SOL    HW231170   0.444   0.502   5.694 -1.9382 -0.7908 -2.3051
 6570SOL     OW31171   1.977   2.251   3.035  0.2346 -0.2865 -0.3228
 6570SOL    HW131172   2.063   2.213   3.056 -0.0055 -0.5925  0.1087
 6570SOL    HW231173   1.923   2.229   3.111 -0.0227  0.0833 -0.4003
 6571SOL     OW31174   1.275   2.976   8.386 -0.1807  0.2437 -0.0222
 6571SOL    HW131175   1.216   3.048   8.406  0.2098  0.0816  1.7307
 6571SOL    HW231176   1.214   2.920   8.339 -0.3746  0.1906  0.2994
 6572SOL     OW31177   1.662   0.398   7.374  0.0391 -0.5793 -0.4431
 6572SOL    HW131178   1.674   0.352   7.291  2.4008 -1.9118  0.6302
 6572SOL    HW231179   1.619   0.480   7.349  0.4703  0.5740  2.5577
 6573SOL     OW31180   4.038   4.413  15.849  0.0132 -0.2563  0.5874
 6573SOL    HW131181   3.943   4.400  15.859 -0.0803 -0.7380 -0.9496
 6573SOL    HW231182   4.039   4.503  15.882 -1.1232 -0.5621  1.4663
 6574SOL     OW31183   3.326   2.579  11.653  0.3879  0.0189  0.0784
 6574SOL    HW131184   3.293   2.667  11.635 -0.1526 -0.6104 -1.9532
 6574SOL    HW231185   3.398   2.605  11.711  0.6075  2.6921 -1.4053
 6575SOL     OW31186   0.428   1.338   0.705 -0.8639  0.0470  0.3031
 6575SOL    HW131187   0.445   1.329   0.799 -0.6791  0.4891  0.3127
 6575SOL    HW231188   0.493   1.408   0.695 -0.4569 -0.6417 -1.8727
 6576SOL     OW31189   4.475   4.202   5.864 -0.3310 -0.3820 -1.0046
 6576SOL    HW131190   4.446   4.235   5.778  0.4861  0.5044 -0.9411
 6576SOL    HW231191   4.398   4.210   5.921  0.7177  3.0758 -0.1280
 6577SOL     OW31192   3.777   1.018   1.350  0.2034 -0.1043  0.5244
 6577SOL    HW131193   3.794   1.071   1.272  4.3297 -3.5795 -0.9168
 6577SOL    HW231194   3.706   0.966   1.311  0.9033 -0.0971 -0.7569
 6578SOL     OW31195   2.587   3.878   8.465  0.2025 -0.0380  0.0147
 6578SOL    HW131196   2.582   3.885   8.369  0.2065 -1.2583 -0.0708
 6578SOL    HW231197   2.502   3.842   8.490 -0.3174  0.3274 -1.1905
 6579SOL     OW31198   4.715   3.539  12.239  0.5724  0.2096 -0.1172
 6579SOL    HW131199   0.035   3.451  12.251 -0.1134 -0.1379 -0.5250
 6579SOL    HW231200   4.677   3.549  12.327  1.3843 -0.0433  0.2632
 6580SOL     OW31201   0.536   2.754  15.765  0.0289  0.1442  0.5923
 6580SOL    HW131202   0.542   2.850  15.761 -1.0865  0.1941  0.0730
 6580SOL    HW231203   0.563   2.738  15.675  1.0946 -1.6109  1.2399
 6581SOL     OW31204   4.398   0.610   8.335 -0.3585 -0.0323  0.6726
 6581SOL    HW131205   4.482   0.581   8.300 -0.6496 -2.7255  2.1649
 6581SOL    HW231206   4.388   0.690   8.284 -0.5655  0.8940  2.1657
 6582SOL     OW31207   3.193   1.006   6.429 -0.1004 -0.5606  0.8298
 6582SOL    HW131208   3.115   0.958   6.398  1.1281 -2.4040  0.5801
 6582SOL    HW231209   3.260   0.971   6.371  3.1775  1.8424  3.2078
 6583SOL     OW31210   2.132   2.679   9.296 -0.0425  0.7103  0.0052
 6583SOL    HW131211   2.160   2.753   9.243  1.9767 -0.6606 -0.8775
 6583SOL    HW231212   2.131   2.599   9.243 -1.0471  0.8238 -0.1519
 6584SOL     OW31213   2.689   2.541   8.665 -0.5138  0.1361 -1.0828
 6584SOL    HW131214   2.759   2.524   8.601  0.8366 -0.5061  0.5539
 6584SOL    HW231215   2.617   2.510   8.612 -1.1732  1.4793 -0.9737
 6585SOL     OW31216   3.033   1.423   0.554 -1.2199  0.1716  0.7647
 6585SOL    HW131217   2.939   1.443   0.558 -1.4542 -0.5330 -1.3891
 6585SOL    HW231218   3.067   1.510   0.531 -1.9291  0.6428  1.4770
 6586SOL     OW31219   1.897   1.956   8.162 -0.2271 -0.4909  0.1830
 6586SOL    HW131220   1.830   2.024   8.169 -1.0950 -1.0438 -2.5713
 6586SOL    HW231221   1.969   2.015   8.142 -0.9008  0.4836  0.6342
 6587SOL     OW31222   2.106   2.232   6.142  0.7725  0.0408  0.1730
 6587SOL    HW131223   2.078   2.156   6.092 -0.8919  0.4922  0.4077
 6587SOL    HW231224   2.046   2.300   6.112  1.9912 -0.3657 -3.1330
 6588SOL     OW31225   1.345   4.063   0.922 -0.1394 -0.4070  0.1804
 6588SOL    HW131226   1.294   4.135   0.961 -2.4990 -1.9979  0.0422
 6588SOL    HW231227   1.342   3.994   0.988  0.7355  0.0359  0.6875
 6589SOL     OW31228   4.690   0.533  17.076  0.4412 -0.1542 -0.5561
 6589SOL    HW131229   4.617   0.550  17.015  0.1336  0.9580  0.1186
 6589SOL    HW231230   0.045   0.587  17.042  1.6263 -1.0805  0.5062
 6590SOL     OW31231   1.271   2.789  13.783 -0.0084 -0.5330  0.2192
 6590SOL    HW131232   1.188   2.758  13.819 -0.5213 -0.6460 -1.0461
 6590SOL    HW231233   1.266   2.761  13.692 -1.4107 -2.8209  0.9872
 6591SOL     OW31234   2.169   1.364   6.869  0.1785 -0.1898  0.3046
 6591SOL    HW131235   2.107   1.383   6.939 -0.9594  1.4946 -1.1598
 6591SOL    HW231236   2.137   1.424   6.801  0.2873  0.4213  0.7874
 6592SOL     OW31237   1.581   2.963   7.009 -0.4142  0.7543 -0.9687
 6592SOL    HW131238   1.543   2.883   6.973 -1.1784  0.8221 -0.3281
 6592SOL    HW231239   1.644   2.984   6.940  1.2604  1.1923  0.6950
 6593SOL     OW31240   0.817   1.530   7.460 -0.0386  0.3635 -0.1878
 6593SOL    HW131241   0.759   1.494   7.394 -0.0629 -0.3014  0.1966
 6593SOL    HW231242   0.756   1.556   7.529 -0.3427  1.8148 -1.0033
 6594SOL     OW31243   0.089   0.624   7.466  0.1021 -0.1657  0.0529
 6594SOL    HW131244   0.016   0.685   7.475  0.7110  0.5083  0.5269
 6594SOL    HW231245   0.078   0.574   7.546 -1.3949 -1.8081 -1.2035
 6595SOL     OW31246   1.739   1.322  15.989 -0.1403  0.1830  0.1635
 6595SOL    HW131247   1.690   1.337  16.070 -1.6960  0.3281 -0.8037
 6595SOL    HW231248   1.732   1.227  15.988 -1.2345  0.2701 -0.3949
 6596SOL     OW31249   0.682   2.488   3.416  0.2059  0.6108 -0.0359
 6596SOL    HW131250   0.598   2.483   3.461  0.3377  0.2182  0.1661
 6596SOL    HW231251   0.708   2.396   3.422  0.0356  0.6008  0.5988
 6597SOL     OW31252   3.112   2.510  13.169 -0.5562 -0.3874 -0.2600
 6597SOL    HW131253   3.134   2.432  13.219 -0.9215 -0.5171 -0.2989
 6597SOL    HW231254   3.037   2.545  13.217  0.3434 -2.0054  2.3301
 6598SOL     OW31255   2.635   3.517  16.611 -0.1610  0.2646 -0.5214
 6598SOL    HW131256   2.600   3.605  16.600 -1.1114 -0.2667 -1.8069
 6598SOL    HW231257   2.597   3.486  16.693  0.3083 -0.2931 -0.5039
 6599SOL     OW31258   0.656   4.317   1.514  0.3275 -0.2783  0.1320
 6599SOL    HW131259   0.713   4.242   1.530 -0.4272 -0.6867  0.9191
 6599SOL    HW231260   0.681   4.368   1.591  1.8403 -0.9414  0.0631
 6600SOL     OW31261   2.349   4.210   2.670  0.2785 -0.0571 -0.0472
 6600SOL    HW131262   2.408   4.208   2.594 -0.2771 -0.2698 -0.4758
 6600SOL    HW231263   2.314   4.299   2.662 -1.6072 -0.7901  0.0634
 6601SOL     OW31264   1.676   1.036   6.139  0.3693 -0.0526  0.1578
 6601SOL    HW131265   1.606   1.086   6.097  1.8629  0.3027 -1.9438
 6601SOL    HW231266   1.679   1.075   6.226  1.2304  2.2048 -0.8704
 6602SOL     OW31267   0.867   3.844  15.209  0.3417 -0.0037 -0.3385
 6602SOL    HW131268   0.962   3.848  15.221  0.5736  0.2925 -2.1859
 6602SOL    HW231269   0.846   3.752  15.227  0.6394  0.3044  1.4895
 6603SOL     OW31270   4.229   0.321   7.333 -0.0420 -0.0162 -0.4228
 6603SOL    HW131271   4.176   0.341   7.410  0.9787 -0.9745  0.5261
 6603SOL    HW231272   4.205   0.229   7.320 -0.7755  0.0705  0.3208
 6604SOL     OW31273   2.785   0.201   5.801 -0.1522 -0.5540 -0.0047
 6604SOL    HW131274   2.869   0.160   5.823  0.3621  0.4290 -0.1153
 6604SOL    HW231275   2.722   0.134   5.827 -0.5081 -0.0898  0.3251
 6605SOL     OW31276   0.386   3.030   4.201 -0.3691  0.2948 -0.3132
 6605SOL    HW131277   0.417   3.117   4.175 -0.9792  0.4670 -0.4629
 6605SOL    HW231278   0.296   3.016   4.174 -0.1944 -1.0779 -0.1554
 6606SOL     OW31279   4.015   0.418   5.438  0.1675  0.4728 -0.2614
 6606SOL    HW131280   3.983   0.331   5.462 -0.2234  0.6117 -0.2684
 6606SOL    HW231281   4.098   0.419   5.485 -1.0967 -2.3449  2.0765
 6607SOL     OW31282   1.932   0.036   4.449 -0.1749  0.5001 -0.2619
 6607SOL    HW131283   1.957   4.701   4.373  2.2480  2.3153 -0.7063
 6607SOL    HW231284   1.930   4.683   4.516 -1.4964  0.0449 -0.7773
 6608SOL     OW31285   0.191   4.715  11.542  0.1533 -0.1721 -0.1046
 6608SOL    HW131286   0.230   4.679  11.621  0.4893  1.3900  0.4333
 6608SOL    HW231287   0.216   4.651  11.475 -0.0317  0.4564 -0.7705
 6609SOL     OW31288   3.878   0.423   4.843 -0.2615 -0.4928  0.1989
 6609SOL    HW131289   3.882   0.509   4.800 -0.3257 -0.4324  0.3142
 6609SOL    HW231290   3.792   0.421   4.884  0.2199 -0.7375  1.1852
 6610SOL     OW31291   2.911   2.397   5.751 -0.3791 -0.3711 -0.7508
 6610SOL    HW131292   2.855   2.383   5.826  0.9868  0.3571  0.4112
 6610SOL    HW231293   2.891   2.485   5.720  1.6031  0.4790  0.3560
 6611SOL     OW31294   0.742   0.161  10.491  0.3538  0.2141 -0.2896
 6611SOL    HW131295   0.736   0.177  10.397  1.1334 -1.9959 -0.7088
 6611SOL    HW231296   0.827   0.201  10.511  0.8572 -2.3445  2.7831
 6612SOL     OW31297   1.075   2.180  14.711 -0.0651  0.1478 -0.1839
 6612SOL    HW131298   1.074   2.244  14.640  0.9359 -1.1764 -1.4089
 6612SOL    HW231299   1.163   2.142  14.698  0.0155  0.9714 -2.1288
 6613SOL     OW31300   2.930   0.998  13.390  0.1726  0.7692  0.3066
 6613SOL    HW131301   2.984   1.071  13.358  0.2522  0.2728 -0.6832
 6613SOL    HW231302   2.936   0.921  13.333  1.4724  0.9321  0.2160
 6614SOL     OW31303   3.709   3.484  17.135  0.0472  0.7879  0.0049
 6614SOL    HW131304   3.679   3.509  17.047  0.2937  2.1723  0.3092
 6614SOL    HW231305   3.778   3.420  17.116 -0.6203  0.4631 -1.3131
 6615SOL     OW31306   3.539   3.348   7.594 -0.1447  0.4137  0.3185
 6615SOL    HW131307   3.496   3.433   7.603  0.6166  0.8871 -0.4797
 6615SOL    HW231308   3.516   3.305   7.677  0.6488 -1.4305 -0.4043
 6616SOL     OW31309   1.215   4.168   2.797  0.2087 -0.1297 -0.1092
 6616SOL    HW131310   1.234   4.086   2.843 -1.7886  0.0226  0.9914
 6616SOL    HW231311   1.231   4.226   2.872  1.1281 -0.7977  0.2119
 6617SOL     OW31312   1.893   3.488   7.220  0.2770 -0.3143  0.0777
 6617SOL    HW131313   1.837   3.438   7.278 -0.7991  0.8123  0.0199
 6617SOL    HW231314   1.960   3.423   7.200  0.9200  0.8239 -1.4755
 6618SOL     OW31315   3.945   1.069   9.487  0.0699  0.2459  0.0532
 6618SOL    HW131316   3.877   1.107   9.542  0.5596  2.3297 -0.7656
 6618SOL    HW231317   4.023   1.125   9.497  0.3985 -0.1052 -0.4988
 6619SOL     OW31318   4.649   3.763   8.906  0.0399 -0.0147 -0.1502
 6619SOL    HW131319   4.625   3.855   8.914 -0.9861 -0.3311  0.3977
 6619SOL    HW231320   0.027   3.775   8.911 -0.0636  0.4878  0.6245
 6620SOL     OW31321   1.138   1.630   3.373 -0.0244  0.9214  0.1275
 6620SOL    HW131322   1.210   1.693   3.376  2.6514 -2.0795 -1.8384
 6620SOL    HW231323   1.072   1.685   3.416 -1.1857 -1.0448  0.8917
 6621SOL     OW31324   2.902   0.466   3.618 -0.3436  0.4695  0.1069
 6621SOL    HW131325   2.903   0.408   3.543 -0.5850  0.8932 -0.2225
 6621SOL    HW231326   2.807   0.472   3.628 -0.4709 -1.9453  0.3340
 6622SOL     OW31327   0.031   1.444  10.557  0.3324  0.8606 -0.0909
 6622SOL    HW131328   0.021   1.367  10.613  0.7864  0.4634 -0.5553
 6622SOL    HW231329   4.656   1.470  10.560 -0.4765 -2.1434  1.5141
 6623SOL     OW31330   1.522   2.115   8.287  0.0119 -0.5699  0.4819
 6623SOL    HW131331   1.436   2.110   8.246  0.8472  0.6194 -1.3666
 6623SOL    HW231332   1.516   2.196   8.337 -0.4699  0.4010 -1.1729
 6624SOL     OW31333   0.267   1.739   9.165 -0.4163 -0.5180  0.5473
 6624SOL    HW131334   0.192   1.795   9.146 -0.9209 -1.5155 -0.3972
 6624SOL    HW231335   0.266   1.677   9.093 -0.8316  0.6892 -0.4868
 6625SOL     OW31336   0.845   2.111   2.385  0.4924 -0.4050 -0.1492
 6625SOL    HW131337   0.878   2.200   2.392 -2.1171  0.6022 -0.4776
 6625SOL    HW231338   0.756   2.121   2.351  0.3055 -1.1034  0.1238
 6626SOL     OW31339   2.054   2.282   4.047  0.2409 -0.2931  0.5167
 6626SOL    HW131340   2.079   2.202   4.001 -0.3510  0.2639 -0.7608
 6626SOL    HW231341   2.113   2.287   4.122  0.7905  1.3266 -0.0321
 6627SOL     OW31342   1.801   1.310   6.351  0.3210 -0.9610  0.3952
 6627SOL    HW131343   1.886   1.267   6.362  0.6652 -0.0551  1.4298
 6627SOL    HW231344   1.745   1.254   6.404  0.0389 -1.1719 -0.1305
 6628SOL     OW31345   2.245   2.977   3.193 -0.4486 -0.6704 -0.4850
 6628SOL    HW131346   2.211   3.061   3.164  0.2438 -0.3939 -0.4857
 6628SOL    HW231347   2.189   2.922   3.138 -2.4390  0.2523  0.6054
 6629SOL     OW31348   2.541   3.814   6.831 -0.3692 -0.4628 -0.2136
 6629SOL    HW131349   2.597   3.879   6.873 -2.5595  2.6728 -2.1725
 6629SOL    HW231350   2.483   3.869   6.778 -0.9448  0.4228  1.3414
 6630SOL     OW31351   4.529   0.789   8.783 -0.1398 -0.2708  0.1361
 6630SOL    HW131352   4.582   0.854   8.738 -0.8356 -0.1783 -0.5420
 6630SOL    HW231353   4.547   0.796   8.877  0.2868  2.0222 -0.1209
 6631SOL     OW31354   0.397   1.583   7.443 -0.3676  0.4676 -0.4908
 6631SOL    HW131355   0.381   1.493   7.472 -3.2728  1.6189  1.4731
 6631SOL    HW231356   0.438   1.567   7.358 -2.6707 -0.5544 -1.4126
 6632SOL     OW31357   0.946   3.264   3.827  0.1923  0.0514  0.2160
 6632SOL    HW131358   0.913   3.253   3.916 -0.3619 -0.1718 -0.0191
 6632SOL    HW231359   0.894   3.204   3.774 -1.1351  0.6303  0.8877
 6633SOL     OW31360   3.744   2.154   1.243 -0.2754  0.4404 -0.1199
 6633SOL    HW131361   3.666   2.103   1.222 -0.0161  0.3206 -0.7863
 6633SOL    HW231362   3.809   2.105   1.192 -0.9849 -0.6603  0.0324
 6634SOL     OW31363   0.489   1.178  11.365 -0.0410 -0.0403  0.0016
 6634SOL    HW131364   0.581   1.191  11.341 -0.1073  0.7313  0.1626
 6634SOL    HW231365   0.499   1.115  11.437  1.9166 -0.3789 -0.5574
 6635SOL     OW31366   2.793   3.925   8.637  0.1321  0.0453 -0.4464
 6635SOL    HW131367   2.784   4.020   8.627 -1.3115  0.2144  2.6285
 6635SOL    HW231368   2.720   3.900   8.581 -0.3120 -0.2210  0.2617
 6636SOL     OW31369   4.017   1.295  10.094 -0.2234 -0.1986 -0.0517
 6636SOL    HW131370   4.103   1.259  10.073 -0.6200 -1.2016  0.0252
 6636SOL    HW231371   4.025   1.376  10.043  0.4388 -0.5942 -0.5852
 6637SOL     OW31372   1.145   4.098   7.538 -0.8784  0.1892 -0.2013
 6637SOL    HW131373   1.231   4.094   7.581 -0.5934 -1.6830 -0.9598
 6637SOL    HW231374   1.149   4.184   7.494  1.9368 -0.0374 -0.4021
 6638SOL     OW31375   0.257   0.466  12.486 -0.3619  0.1457  0.8142
 6638SOL    HW131376   0.308   0.525  12.430 -0.9428 -1.2486 -1.1684
 6638SOL    HW231377   0.298   0.470  12.573  1.2404  3.3920 -0.1048
 6639SOL     OW31378   4.675   0.625   8.543 -0.5522  0.3965  0.0406
 6639SOL    HW131379   0.048   0.594   8.531  0.4395  2.4224  2.3446
 6639SOL    HW231380   4.660   0.590   8.631  0.2139  1.2122  0.4962
 6640SOL     OW31381   0.702   2.850   1.387 -0.0132  0.4898  0.5040
 6640SOL    HW131382   0.644   2.779   1.359  0.5460 -0.4765  1.8389
 6640SOL    HW231383   0.649   2.928   1.368 -0.4008  0.4594  1.4749
 6641SOL     OW31384   3.020   4.445   8.343 -0.4383 -0.1545  0.3784
 6641SOL    HW131385   3.009   4.354   8.371  0.0591 -0.8249 -1.5939
 6641SOL    HW231386   3.082   4.485   8.404  0.5108  0.7387 -1.1709
 6642SOL     OW31387   2.126   2.783   7.528 -0.7863 -0.0368 -0.5317
 6642SOL    HW131388   2.203   2.781   7.585 -0.1393 -2.2250 -1.4913
 6642SOL    HW231389   2.158   2.734   7.452  1.4875  1.5667 -0.6177
 6643SOL     OW31390   4.112   3.722   5.433  0.4121 -0.0640  0.1000
 6643SOL    HW131391   4.196   3.713   5.388  1.2514  0.5302  1.5363
 6643SOL    HW231392   4.156   3.746   5.515 -1.4209  0.8901  0.8022
 6644SOL     OW31393   4.152   0.168  17.366  0.4430  0.1453 -1.0235
 6644SOL    HW131394   4.181   0.112  17.439  1.5502  0.2561 -1.3900
 6644SOL    HW231395   4.096   0.230  17.413  1.1268 -1.2678  1.7045
 6645SOL     OW31396   0.439   0.020   9.153  0.0207  0.0790  0.2911
 6645SOL    HW131397   0.368   4.693   9.105 -1.0549 -1.3914  3.1840
 6645SOL    HW231398   0.492   0.046   9.078 -1.8394 -0.1302 -1.1086
 6646SOL     OW31399   0.244   0.087   5.365  0.3010 -0.8384  0.1281
 6646SOL    HW131400   0.206   0.037   5.293  1.0905  1.8244 -2.1752
 6646SOL    HW231401   0.227   0.030   5.439  0.8981 -0.9836  0.1532
 6647SOL     OW31402   2.414   2.347   0.247  0.1923  0.2377 -0.3144
 6647SOL    HW131403   2.339   2.302   0.286  0.3080 -0.3785 -0.7857
 6647SOL    HW231404   2.384   2.343   0.156  1.1064 -1.4018 -0.5502
 6648SOL     OW31405   4.218   4.108   5.624  0.2437  0.0694 -0.4563
 6648SOL    HW131406   4.279   4.164   5.575 -0.8093  0.9753 -0.7251
 6648SOL    HW231407   4.227   4.021   5.586  0.7391 -0.3260  0.5565
 6649SOL     OW31408   0.793   4.009   2.827  0.2422 -0.0006 -0.0532
 6649SOL    HW131409   0.878   4.049   2.808 -0.7986  1.3536 -1.9232
 6649SOL    HW231410   0.751   4.053   2.900  0.0639  1.2183 -0.8898
 6650SOL     OW31411   1.898   3.274   6.448 -0.9197 -0.0921 -0.4839
 6650SOL    HW131412   1.858   3.189   6.462 -1.1061  0.1583  0.5590
 6650SOL    HW231413   1.986   3.258   6.481 -1.2206  0.1682  0.4591
 6651SOL     OW31414   1.802   4.016   8.552 -0.3173 -0.3613  0.5002
 6651SOL    HW131415   1.854   4.056   8.482  0.3903 -3.0731 -0.5157
 6651SOL    HW231416   1.842   4.055   8.630  1.5033  2.1427 -1.6988
 6652SOL     OW31417   1.639   2.495   5.229  0.2380  0.1316  0.0902
 6652SOL    HW131418   1.632   2.483   5.134  0.8264  0.2140  0.0380
 6652SOL    HW231419   1.672   2.409   5.253 -1.0452 -0.0550  1.2188
 6653SOL     OW31420   4.551   0.520   5.333 -0.6066  0.0711  0.1148
 6653SOL    HW131421   4.599   0.538   5.253  0.4992  0.1705  0.8133
 6653SOL    HW231422   4.471   0.473   5.308  0.6425 -2.8288  1.4922
 6654SOL     OW31423   0.484   0.348   3.108 -0.3983 -0.0765 -0.0095
 6654SOL    HW131424   0.539   0.421   3.079 -0.6587 -0.8845 -2.4609
 6654SOL    HW231425   0.420   0.398   3.159  0.3193 -0.1076  0.9378
 6655SOL     OW31426   4.481   4.132  17.201  0.0701 -0.2944 -0.0307
 6655SOL    HW131427   4.538   4.129  17.124 -0.8965 -0.9204 -0.7135
 6655SOL    HW231428   4.549   4.157  17.264  0.9744 -1.3706 -0.5722
 6656SOL     OW31429   4.482   3.674   3.944 -0.2237 -0.7703  0.2347
 6656SOL    HW131430   4.428   3.734   3.893 -0.0978 -1.3433 -0.5801
 6656SOL    HW231431   4.447   3.671   4.033  2.7077 -3.3281  1.3060
 6657SOL     OW31432   2.295   3.417   9.604 -0.0726 -0.2689  0.8543
 6657SOL    HW131433   2.233   3.473   9.559  0.1636 -0.2315  0.5718
 6657SOL    HW231434   2.378   3.445   9.564 -0.3702  0.0820  0.4932
 6658SOL     OW31435   2.900   0.072  12.616  0.0977  0.1147  0.2327
 6658SOL    HW131436   2.894   0.147  12.675  0.3011  0.2384  0.0974
 6658SOL    HW231437   2.974   0.029  12.658  0.1630  1.1341  1.1553
 6659SOL     OW31438   1.823   4.598   0.825 -0.1130 -0.5696 -0.4116
 6659SOL    HW131439   1.764   4.531   0.790 -1.0102 -0.1335  0.2863
 6659SOL    HW231440   1.774   4.621   0.904 -0.9866 -0.2437 -1.0559
 6660SOL     OW31441   4.328   0.574   6.238 -0.1943  0.5363  0.2570
 6660SOL    HW131442   4.336   0.652   6.292 -2.2355  0.9701 -0.0676
 6660SOL    HW231443   4.355   0.503   6.297 -0.5927 -0.7459 -1.0982
 6661SOL     OW31444   3.718   0.575   1.290 -0.0284  0.2787  0.1191
 6661SOL    HW131445   3.680   0.635   1.354 -0.9708 -0.9047  0.6863
 6661SOL    HW231446   3.712   0.491   1.335  0.0347 -0.8278 -1.9499
 6662SOL     OW31447   0.649   1.910   5.400 -0.1413 -1.1823  0.2669
 6662SOL    HW131448   0.604   1.884   5.481  1.1250 -0.6352  1.1420
 6662SOL    HW231449   0.628   2.003   5.403  0.7558 -0.9301 -1.4725
 6663SOL     OW31450   1.157   4.548   4.591 -0.5402 -0.2136 -0.7315
 6663SOL    HW131451   1.185   4.611   4.658 -2.3405  0.6192 -0.7416
 6663SOL    HW231452   1.070   4.583   4.569 -1.0714 -1.3732 -0.5043
 6664SOL     OW31453   1.569   4.096  11.416 -0.3359  0.0575  0.2753
 6664SOL    HW131454   1.538   4.035  11.349 -1.5790 -0.5741  1.4479
 6664SOL    HW231455   1.621   4.156  11.363  0.4080 -0.9427 -0.1212
 6665SOL     OW31456   0.063   3.822  15.297 -0.2142  0.4270  0.8009
 6665SOL    HW131457   0.080   3.903  15.345 -1.1279  0.0383  1.7696
 6665SOL    HW231458   0.008   3.852  15.224 -1.6742  0.4186  1.9057
 6666SOL     OW31459   1.066   2.510  14.933 -0.0361  0.0317  0.7404
 6666SOL    HW131460   0.982   2.526  14.890  1.0556  2.7733 -0.3970
 6666SOL    HW231461   1.132   2.501  14.865 -1.5382  0.4203 -0.7625
 6667SOL     OW31462   3.725   0.946  13.981  0.2437  0.1149 -0.2406
 6667SOL    HW131463   3.713   0.851  13.976  0.8247  0.0394 -0.1691
 6667SOL    HW231464   3.815   0.947  14.013  0.3781  2.8871 -0.7437
 6668SOL     OW31465   3.098   2.815   7.967  0.4594  0.3802 -0.2742
 6668SOL    HW131466   3.130   2.725   7.970 -0.5724 -0.0302 -1.6543
 6668SOL    HW231467   3.122   2.841   8.056  0.0202  0.5023 -0.1910
 6669SOL     OW31468   4.444   4.639  16.592  0.9603  0.4443  0.0898
 6669SOL    HW131469   4.369   4.692  16.564 -0.5936 -1.6154  0.3270
 6669SOL    HW231470   4.519   4.677  16.546  0.2096 -1.4097 -2.6634
 6670SOL     OW31471   3.190   2.547  10.097  0.2275  0.7168  0.1898
 6670SOL    HW131472   3.128   2.475  10.099 -0.3543  1.2569  1.9376
 6670SOL    HW231473   3.267   2.508  10.139 -1.1812  0.5464  2.6406
 6671SOL     OW31474   1.019   1.719   9.590 -0.4436  0.6211  0.2661
 6671SOL    HW131475   0.943   1.667   9.563  0.0474 -0.9209  1.9080
 6671SOL    HW231476   1.050   1.681   9.672 -2.0994  0.4604  0.8223
 6672SOL     OW31477   3.106   1.906   7.565  0.7980  0.1333  0.1633
 6672SOL    HW131478   3.169   1.888   7.635  0.2553 -2.3349  0.0401
 6672SOL    HW231479   3.147   1.857   7.493  3.3467 -0.3204  1.9098
 6673SOL     OW31480   3.324   2.231   1.752 -0.2638 -0.2816  0.1836
 6673SOL    HW131481   3.296   2.142   1.730  0.9335 -0.1754 -1.7912
 6673SOL    HW231482   3.260   2.241   1.822  0.3403 -0.5980  0.7817
 6674SOL     OW31483   2.564   1.433  13.373  0.1146  0.2794 -0.1490
 6674SOL    HW131484   2.480   1.408  13.335 -1.0053  0.2342  2.3352
 6674SOL    HW231485   2.540   1.510  13.424  1.7482  1.7206 -1.5657
 6675SOL     OW31486   0.728   0.057  15.801 -0.1171  1.1286  0.2368
 6675SOL    HW131487   0.669   0.066  15.726  1.0198 -2.0225 -1.0510
 6675SOL    HW231488   0.803   0.014  15.761 -1.4081  0.6636 -1.6890
 6676SOL     OW31489   0.286   1.100   7.595  0.7930  0.2421 -0.1366
 6676SOL    HW131490   0.289   1.096   7.691 -2.0733  1.2049 -0.0079
 6676SOL    HW231491   0.326   1.017   7.571 -2.9376 -1.0700 -1.8073
 6677SOL     OW31492   0.828   2.861  10.901 -0.0915  0.2860  0.3650
 6677SOL    HW131493   0.784   2.824  10.977 -0.4042  0.5328  0.3018
 6677SOL    HW231494   0.880   2.784  10.878  1.5033  0.3436  3.6932
 6678SOL     OW31495   0.067   2.608  15.153  0.3557  0.7320  0.4597
 6678SOL    HW131496   0.041   2.520  15.125 -1.6051  1.3469  0.3555
 6678SOL    HW231497   4.710   2.656  15.116  1.2260  1.8326  0.1799
 6679SOL     OW31498   4.065   0.940   8.293 -0.3545  0.0639 -0.0393
 6679SOL    HW131499   4.012   1.016   8.269 -0.6858  0.2893  1.3610
 6679SOL    HW231500   4.032   0.922   8.381  2.3587 -0.5401  0.8566
 6680SOL     OW31501   4.210   2.844  12.032  0.2755  0.2589  0.1612
 6680SOL    HW131502   4.202   2.811  11.942 -1.6750 -0.5200  0.6249
 6680SOL    HW231503   4.153   2.920  12.028  0.2871  0.2910  0.5805
 6681SOL     OW31504   3.729   2.931   6.772 -0.0469 -0.1523  0.0236
 6681SOL    HW131505   3.681   2.857   6.808  1.7986 -1.2029  0.2798
 6681SOL    HW231506   3.662   2.999   6.763  3.0779  3.0927  1.2331
 6682SOL     OW31507   4.167   0.425   1.352  0.2473  0.1369  0.1689
 6682SOL    HW131508   4.147   0.394   1.440 -0.5048  0.0402 -0.0301
 6682SOL    HW231509   4.085   0.401   1.309  0.7025  0.9842 -1.1558
 6683SOL     OW31510   1.966   3.721   2.447 -0.0452 -0.2466 -0.6252
 6683SOL    HW131511   1.913   3.720   2.367 -0.0847 -1.9076 -0.5645
 6683SOL    HW231512   2.005   3.634   2.452  1.0878  0.1309 -2.7403
 6684SOL     OW31513   4.016   0.877   3.151 -0.0272  0.2102 -0.3274
 6684SOL    HW131514   4.100   0.868   3.196  0.0843  0.5216 -0.4766
 6684SOL    HW231515   4.006   0.971   3.136  0.7637  0.6894  2.1057
 6685SOL     OW31516   3.908   1.240   1.105 -0.5506 -0.5174  0.4455
 6685SOL    HW131517   3.823   1.222   1.145 -0.2099  1.1768  1.9724
 6685SOL    HW231518   3.906   1.333   1.081 -0.2719 -1.0746 -1.7513
 6686SOL     OW31519   4.475   2.567   2.525 -0.1409  0.4081  0.4843
 6686SOL    HW131520   4.457   2.532   2.612 -1.2693  1.1980  0.5743
 6686SOL    HW231521   4.463   2.661   2.536 -1.7651  0.2946 -0.2617
 6687SOL     OW31522   4.160   1.142   8.050 -0.0132 -0.0144  0.5038
 6687SOL    HW131523   4.124   1.176   8.132 -0.3237 -3.2593  1.7017
 6687SOL    HW231524   4.119   1.055   8.054  0.9531 -0.4418  1.1797
 6688SOL     OW31525   0.496   1.803   5.718  0.1339 -0.1598  0.4394
 6688SOL    HW131526   0.483   1.746   5.642  0.0204  0.4063  0.0299
 6688SOL    HW231527   0.588   1.830   5.713 -0.3803  0.9593 -3.3912
 6689SOL     OW31528   3.536   4.670   2.841  0.1802  0.2059  0.1387
 6689SOL    HW131529   3.517   0.013   2.769  0.5748  0.7755  0.5079
 6689SOL    HW231530   3.618   4.636   2.807  0.3174  0.5481  0.1368
 6690SOL     OW31531   2.445   4.485   7.611  0.0194  0.4738  0.2238
 6690SOL    HW131532   2.416   4.477   7.520 -0.0469 -0.5480  0.3289
 6690SOL    HW231533   2.456   4.579   7.625  1.2930  0.2984  0.4172
 6691SOL     OW31534   0.314   1.778   3.332 -0.2504  0.0546 -0.1336
 6691SOL    HW131535   0.234   1.726   3.343  0.4915 -1.1221 -0.2480
 6691SOL    HW231536   0.301   1.831   3.253 -0.8003  1.5885  0.9914
 6692SOL     OW31537   2.381   1.072  11.165  0.0585  0.1258  0.2468
 6692SOL    HW131538   2.289   1.087  11.143 -0.1433 -0.3799  0.7593
 6692SOL    HW231539   2.428   1.134  11.108 -1.1267 -1.0363 -2.0066
 6693SOL     OW31540   1.315   1.387   9.691  0.3482  0.3655  0.1837
 6693SOL    HW131541   1.377   1.341   9.748 -0.5388 -0.1208  0.7508
 6693SOL    HW231542   1.341   1.358   9.604 -0.6597  0.5426 -0.1769
 6694SOL     OW31543   1.181   3.380   5.454  0.6853 -0.4224 -0.1215
 6694SOL    HW131544   1.183   3.314   5.523  1.0998 -1.0330 -0.7150
 6694SOL    HW231545   1.274   3.405   5.454  0.6873 -0.4496 -1.8177
 6695SOL     OW31546   1.144   2.690  10.916  0.2529  0.2400  0.1727
 6695SOL    HW131547   1.117   2.672  11.006  1.9464 -0.0927  0.6184
 6695SOL    HW231548   1.238   2.707  10.914  0.3215 -0.1590 -0.0537
 6696SOL     OW31549   2.835   2.066  15.551  0.1611 -0.5733 -0.0567
 6696SOL    HW131550   2.774   2.039  15.482 -0.5604  1.2192 -0.1163
 6696SOL    HW231551   2.810   2.158  15.548  2.0054  0.0118  2.4098
 6697SOL     OW31552   0.154   1.421   1.338 -0.1192 -0.1582  0.5893
 6697SOL    HW131553   0.111   1.335   1.331 -3.3647  1.2299  3.4265
 6697SOL    HW231554   0.091   1.476   1.293  1.9331  2.2243  0.6564
 6698SOL     OW31555   4.640   1.867   3.880  0.3975  0.5858 -0.0128
 6698SOL    HW131556   4.549   1.839   3.872  0.6262  0.2386 -1.3242
 6698SOL    HW231557   4.670   1.872   3.789  1.9795  1.1167  0.5372
 6699SOL     OW31558   0.775   0.872   8.317  0.6729 -0.3363  0.4650
 6699SOL    HW131559   0.758   0.791   8.364  0.2193  0.2054  1.2321
 6699SOL    HW231560   0.708   0.928   8.358 -0.3687 -2.9289  2.2562
 6700SOL     OW31561   2.223   1.093   3.093  0.4222  0.0747  0.6449
 6700SOL    HW131562   2.162   1.086   3.166 -1.2303 -0.5570 -0.7939
 6700SOL    HW231563   2.292   1.128   3.151 -0.4836  0.8741  1.2368
 6701SOL     OW31564   2.316   0.964   2.227  0.3950  0.2324  0.0233
 6701SOL    HW131565   2.275   1.050   2.219 -2.4274 -1.1648 -0.4341
 6701SOL    HW231566   2.322   0.966   2.323  0.1931  0.5203  0.0278
 6702SOL     OW31567   1.789   3.761  11.574 -0.6743 -0.0057 -0.6276
 6702SOL    HW131568   1.797   3.667  11.587 -2.9346  0.4146  3.8384
 6702SOL    HW231569   1.840   3.780  11.654 -0.8328 -0.9603 -0.3057
 6703SOL     OW31570   4.309   0.423  17.616  0.3992  0.2016  0.1654
 6703SOL    HW131571   4.347   0.364  17.551 -1.8713  0.5796 -1.4935
 6703SOL    HW231572   4.374   0.429   0.016  0.5521 -1.2391  0.1514
 6704SOL     OW31573   3.790   0.143   8.233  0.2342  0.4895 -0.1317
 6704SOL    HW131574   3.780   0.175   8.143 -0.1936 -1.1107 -0.6533
 6704SOL    HW231575   3.830   0.059   8.213  0.5399  0.0349  2.4466
 6705SOL     OW31576   0.819   2.121   9.239 -0.0549 -0.4493 -0.8154
 6705SOL    HW131577   0.848   2.205   9.275  0.5406 -1.9714  2.2285
 6705SOL    HW231578   0.814   2.072   9.321  2.1408  1.6315  0.5614
 6706SOL     OW31579   1.634   2.828   4.726  0.1979  0.5655  0.5011
 6706SOL    HW131580   1.610   2.902   4.671  2.1030  0.1057 -0.9577
 6706SOL    HW231581   1.599   2.847   4.813 -0.2099  1.5862  0.1090
 6707SOL     OW31582   2.848   2.474   0.392 -0.1966 -0.0912 -0.1032
 6707SOL    HW131583   2.794   2.397   0.375  0.6429 -0.5118 -0.8415
 6707SOL    HW231584   2.894   2.432   0.466 -2.8005  0.9870  2.1408
 6708SOL     OW31585   4.552   1.172   8.561 -0.4930 -0.5495  0.0958
 6708SOL    HW131586   4.462   1.151   8.537 -1.3841  2.8231  0.5460
 6708SOL    HW231587   4.599   1.091   8.543 -0.6581 -0.1981 -1.9607
 6709SOL     OW31588   1.271   2.278   8.884 -0.0078 -0.2724 -0.0721
 6709SOL    HW131589   1.178   2.291   8.865  0.0296 -0.6066 -0.4819
 6709SOL    HW231590   1.286   2.364   8.924 -2.5396 -0.0575  0.3968
 6710SOL     OW31591   0.111   0.417   3.958  0.2996 -0.2858  0.4354
 6710SOL    HW131592   0.157   0.347   4.003 -1.6447 -1.2647  0.9095
 6710SOL    HW231593   0.139   0.401   3.868 -2.2504 -0.8028 -0.2813
 6711SOL     OW31594   2.664   1.557   5.260 -0.0472 -0.1093  0.2125
 6711SOL    HW131595   2.717   1.610   5.200  1.2661 -0.4233  1.0922
 6711SOL    HW231596   2.581   1.550   5.214 -0.8759  0.1547  1.6775
 6712SOL     OW31597   3.046   2.150   4.347 -0.3819 -0.4615  0.1649
 6712SOL    HW131598   3.134   2.188   4.346 -0.1520 -0.9968 -0.0486
 6712SOL    HW231599   3.044   2.105   4.431 -1.6817  1.8458  1.3398
 6713SOL     OW31600   2.538   4.191   8.434  0.7181 -0.0218 -0.0527
 6713SOL    HW131601   2.560   4.278   8.401  1.7820 -0.6840 -1.1170
 6713SOL    HW231602   2.560   4.129   8.363  0.2749 -0.0474 -0.1664
 6714SOL     OW31603   1.095   3.703   8.153  0.0841  0.0569  0.6596
 6714SOL    HW131604   1.149   3.646   8.208  0.6880 -1.4546 -1.5100
 6714SOL    HW231605   1.059   3.646   8.085 -1.7872  1.2272  0.6677
 6715SOL     OW31606   2.193   4.395  14.557  0.0386  0.2998 -0.0844
 6715SOL    HW131607   2.245   4.474  14.546 -1.1638  0.8427 -1.8363
 6715SOL    HW231608   2.212   4.372  14.648 -0.6895  1.3428  0.3331
 6716SOL     OW31609   3.322   2.766   5.273  0.4040 -0.7711  0.3071
 6716SOL    HW131610   3.254   2.795   5.333  1.2293  0.3345  0.7022
 6716SOL    HW231611   3.405   2.779   5.319 -0.4290 -2.4729  2.3335
 6717SOL     OW31612   4.672   0.303   8.034  0.6880 -0.4917  0.2297
 6717SOL    HW131613   0.026   0.286   8.096  1.8314  0.4845 -0.8005
 6717SOL    HW231614   4.673   0.215   7.996  0.2458 -1.4152  2.3466
 6718SOL     OW31615   3.563   3.283   4.851  0.3515 -0.4014 -0.0712
 6718SOL    HW131616   3.516   3.355   4.810  1.3876  0.3575  0.0613
 6718SOL    HW231617   3.510   3.206   4.833 -1.1180  0.6830 -0.3841
 6719SOL     OW31618   0.458   1.894   6.882  0.5027  0.3926 -0.1136
 6719SOL    HW131619   0.374   1.883   6.926  1.1594 -1.3883  0.7150
 6719SOL    HW231620   0.470   1.989   6.884  0.2928  0.3981  0.8728
 6720SOL     OW31621   1.548   1.968   4.304  0.0175  0.1359  0.1314
 6720SOL    HW131622   1.595   2.041   4.343  1.1290 -1.0704  1.0635
 6720SOL    HW231623   1.603   1.890   4.313  3.0656  2.0084 -2.7395
 6721SOL     OW31624   0.863   0.092   3.387  0.3221  0.0836 -0.1924
 6721SOL    HW131625   0.775   0.130   3.388 -0.6852 -2.2284  2.1120
 6721SOL    HW231626   0.898   0.101   3.299 -1.5282 -1.7513 -1.1411
 6722SOL     OW31627   0.002   2.831  15.314  0.5813 -0.0890 -0.2028
 6722SOL    HW131628   4.689   2.891  15.245  1.6528  1.0278  0.3058
 6722SOL    HW231629   4.652   2.764  15.299  0.8020 -0.2827 -0.3063
 6723SOL     OW31630   0.367   0.791   8.342 -0.9603  0.0048 -0.5585
 6723SOL    HW131631   0.348   0.883   8.360 -2.9327  0.0038 -2.6806
 6723SOL    HW231632   0.285   0.770   8.297 -1.5638 -1.1531  1.1030
 6724SOL     OW31633   1.792   3.210  13.917  0.2258  0.1713  0.3946
 6724SOL    HW131634   1.842   3.204  13.998 -2.4750 -1.3590  1.9427
 6724SOL    HW231635   1.847   3.155  13.862 -2.0003 -1.0463 -0.6108
 6725SOL     OW31636   4.521   4.092   4.795  0.7082 -0.1666 -0.6838
 6725SOL    HW131637   4.548   4.138   4.875  0.0091  1.1261 -1.1922
 6725SOL    HW231638   4.600   4.086   4.741  1.0883  2.2301 -0.4082
 6726SOL     OW31639   1.321   1.330  10.121 -0.2824  0.1814 -0.7412
 6726SOL    HW131640   1.333   1.425  10.130 -0.7047  0.3178 -1.6538
 6726SOL    HW231641   1.257   1.319  10.051  0.9551 -1.9172 -1.5274
 6727SOL     OW31642   0.342   2.572  13.642 -0.6832  0.4947 -0.3040
 6727SOL    HW131643   0.380   2.570  13.554 -0.8705 -0.1104 -0.3750
 6727SOL    HW231644   0.250   2.550  13.625 -1.3981  1.2557  2.5097
 6728SOL     OW31645   2.832   2.544   4.446  0.0349  0.4800  0.4581
 6728SOL    HW131646   2.770   2.598   4.397 -0.8488  0.6044  1.7168
 6728SOL    HW231647   2.798   2.455   4.449  1.7205 -0.1707 -0.0598
 6729SOL     OW31648   4.375   0.334   6.374 -0.3425 -0.3527 -0.4546
 6729SOL    HW131649   4.462   0.314   6.405  0.3299  1.0350 -1.4220
 6729SOL    HW231650   4.323   0.257   6.397  1.0148 -0.8298  0.9768
 6730SOL     OW31651   1.473   2.813  15.224 -0.1108 -0.1573  0.5205
 6730SOL    HW131652   1.457   2.819  15.130  1.7778  0.6665  0.2492
 6730SOL    HW231653   1.466   2.907  15.239 -0.2756 -0.1191  0.2039
 6731SOL     OW31654   4.198   4.339   9.759  0.4321  0.4207  0.3414
 6731SOL    HW131655   4.196   4.434   9.764 -1.3688  0.2290  3.5745
 6731SOL    HW231656   4.245   4.317   9.840  2.3941  1.5913 -0.4873
 6732SOL     OW31657   2.384   0.633  12.486  0.1357  0.4813 -0.0476
 6732SOL    HW131658   2.474   0.601  12.493  0.6143  2.1571  1.2397
 6732SOL    HW231659   2.336   0.550  12.484  1.4808 -0.3046  0.3988
 6733SOL     OW31660   2.042   2.305   5.161 -0.2403  0.4304 -0.0492
 6733SOL    HW131661   2.010   2.370   5.098 -4.5571  0.2309  1.9014
 6733SOL    HW231662   2.131   2.338   5.168 -0.4295  0.6603  1.4125
 6734SOL     OW31663   3.406   3.714   4.223  0.3309  0.5589 -0.5485
 6734SOL    HW131664   3.472   3.782   4.238  0.2362  0.5273  0.0174
 6734SOL    HW231665   3.327   3.757   4.190 -0.3357  0.1484  0.5271
 6735SOL     OW31666   1.647   3.855   4.963  0.0596 -0.4845 -0.3031
 6735SOL    HW131667   1.662   3.881   4.872  0.5190 -0.7537 -0.3019
 6735SOL    HW231668   1.655   3.939   5.008 -0.0594  0.5526 -2.1833
 6736SOL     OW31669   3.937   3.273  10.435 -0.2325 -0.1280  0.1525
 6736SOL    HW131670   3.920   3.240  10.347  0.7827 -0.2933  0.0128
 6736SOL    HW231671   3.977   3.356  10.408 -1.8725  0.1096 -1.5595
 6737SOL     OW31672   4.645   4.700   9.427 -0.0637  0.0399  0.4023
 6737SOL    HW131673   0.022   4.680   9.420 -0.1748 -0.1297 -0.5571
 6737SOL    HW231674   4.599   4.629   9.383 -1.3503  0.6153  0.8182
 6738SOL     OW31675   0.075   3.724   6.958  0.5691  0.1872 -0.1107
 6738SOL    HW131676   0.125   3.702   7.037  1.3775 -1.0317 -0.9689
 6738SOL    HW231677   0.145   3.754   6.899  1.8472 -0.4623  1.0893
 6739SOL     OW31678   1.094   2.414  15.913  0.0362 -0.2657  0.2610
 6739SOL    HW131679   1.135   2.374  15.990  0.6422 -1.8713 -0.8965
 6739SOL    HW231680   1.125   2.505  15.907  0.1846 -0.2344  1.6071
 6740SOL     OW31681   0.265   4.158   2.063  0.2037  0.2154  0.2224
 6740SOL    HW131682   0.315   4.233   2.030 -0.6799  1.5774  1.9659
 6740SOL    HW231683   0.215   4.135   1.984  0.0250  0.9141  0.1297
 6741SOL     OW31684   0.641   0.466   5.060 -0.2835  0.6528  0.1188
 6741SOL    HW131685   0.664   0.386   5.108  0.3302  1.1831  0.7056
 6741SOL    HW231686   0.640   0.525   5.135 -1.5338 -0.3267  0.8927
 6742SOL     OW31687   0.345   1.180   5.085  0.3388 -0.1464 -0.0534
 6742SOL    HW131688   0.285   1.220   5.022  2.5927  0.3346 -1.9034
 6742SOL    HW231689   0.285   1.159   5.156  1.0220 -1.5245  0.1277
 6743SOL     OW31690   3.543   4.207   6.958 -0.2020 -0.0808 -0.4108
 6743SOL    HW131691   3.517   4.288   6.915 -0.4196  1.0979  1.9073
 6743SOL    HW231692   3.637   4.214   6.939 -0.3236 -1.3027 -1.4726
 6744SOL     OW31693   2.963   4.213   9.026 -0.2025 -0.4276 -0.5501
 6744SOL    HW131694   2.870   4.209   9.003 -0.7051  1.3610  1.1600
 6744SOL    HW231695   2.965   4.239   9.118  1.0212 -0.2306 -0.6355
 6745SOL     OW31696   0.598   4.702   8.931 -0.5979 -1.0061  0.2972
 6745SOL    HW131697   0.684   0.004   8.969 -1.5433  1.0382  1.4793
 6745SOL    HW231698   0.618   4.699   8.838 -2.2489  0.2558 -0.1027
 6746SOL     OW31699   1.793   1.722   8.315  0.1717  0.0695  0.0936
 6746SOL    HW131700   1.718   1.750   8.368 -0.8821 -1.2423 -0.6880
 6746SOL    HW231701   1.822   1.803   8.272 -1.6351  0.4296 -0.4520
 6747SOL     OW31702   2.526   2.571   7.233 -0.4309  0.1085 -0.0871
 6747SOL    HW131703   2.537   2.665   7.219  1.7739  0.0121  1.0708
 6747SOL    HW231704   2.576   2.535   7.159  0.3642 -0.1879  0.5962
 6748SOL     OW31705   1.316   3.691   1.876 -0.2508 -0.3388 -0.7370
 6748SOL    HW131706   1.259   3.630   1.923  0.1705 -0.1673 -0.0044
 6748SOL    HW231707   1.346   3.637   1.804 -1.9830 -1.3121 -0.7419
 6749SOL     OW31708   3.543   0.021  13.738 -0.4475 -0.3703  0.1937
 6749SOL    HW131709   3.540   4.647  13.768  0.5826  0.0465  1.5977
 6749SOL    HW231710   3.635   0.030  13.714  0.0335 -2.1993  1.4131
 6750SOL     OW31711   4.675   2.697   8.870 -0.2320  0.0173 -0.0036
 6750SOL    HW131712   4.691   2.745   8.789 -1.0686  0.2193 -0.0460
 6750SOL    HW231713   4.634   2.616   8.840 -1.5421  0.5924  0.2304
 6751SOL     OW31714   2.700   1.575   0.233  0.4032 -0.3321 -0.7861
 6751SOL    HW131715   2.625   1.609   0.185  0.6639 -2.2652 -2.5596
 6751SOL    HW231716   2.713   1.651   0.290 -1.9465 -1.6175  1.4065
 6752SOL     OW31717   3.795   4.595   2.691  0.0457  0.4656 -0.4814
 6752SOL    HW131718   3.718   4.569   2.641  0.0749 -0.3278 -0.1187
 6752SOL    HW231719   3.857   4.545   2.638 -0.9959  0.4710 -1.7201
 6753SOL     OW31720   1.377   3.675   4.806  0.2347  0.5309 -0.2927
 6753SOL    HW131721   1.296   3.660   4.757 -1.0902 -2.2377  2.7517
 6753SOL    HW231722   1.351   3.740   4.872  0.1593 -0.3296  0.5136
 6754SOL     OW31723   4.248   1.095   6.403  0.9550  0.0520  0.4136
 6754SOL    HW131724   4.302   1.030   6.359  0.5255  1.3521 -2.0318
 6754SOL    HW231725   4.187   1.034   6.444 -0.0085  1.0822  0.5132
 6755SOL     OW31726   3.170   2.983  11.410 -0.5820 -0.1422 -0.6246
 6755SOL    HW131727   3.166   2.998  11.315 -2.4634 -1.6674 -0.7995
 6755SOL    HW231728   3.189   3.073  11.437  0.7568 -0.6254  0.0517
 6756SOL     OW31729   0.846   3.483  17.454  0.3606  0.4297  0.1726
 6756SOL    HW131730   0.762   3.439  17.445 -0.1058  1.5197 -0.7631
 6756SOL    HW231731   0.858   3.526  17.369  3.0301  1.3790  1.0267
 6757SOL     OW31732   1.650   2.497   6.025  0.3345 -0.9334 -0.3508
 6757SOL    HW131733   1.588   2.561   5.988  0.2538 -0.5182  0.5223
 6757SOL    HW231734   1.589   2.433   6.062 -0.2296 -0.9201 -1.2367
 6758SOL     OW31735   3.101   4.403   6.574  0.0934  0.1497  0.2205
 6758SOL    HW131736   3.138   4.492   6.569  0.8135 -0.0850  1.5286
 6758SOL    HW231737   3.027   4.419   6.633  0.5757  0.8426  0.6399
 6759SOL     OW31738   2.402   0.397   3.112  0.0191 -0.0880 -0.0155
 6759SOL    HW131739   2.461   0.329   3.080  1.8864  1.2321  0.5984
 6759SOL    HW231740   2.435   0.475   3.068  2.2745 -1.8131 -1.3979
 6760SOL     OW31741   0.671   0.019   7.979  0.2083 -0.2286  0.1423
 6760SOL    HW131742   0.717   0.074   8.041 -1.3169  0.6460  0.4851
 6760SOL    HW231743   0.722   4.655   7.971  1.6329  0.6711  0.1982
 6761SOL     OW31744   1.289   0.160   8.411 -0.8330  0.0137 -0.3810
 6761SOL    HW131745   1.227   0.141   8.481  0.7686  0.0192  1.0359
 6761SOL    HW231746   1.251   0.102   8.345 -0.1768  1.0065 -1.6391
 6762SOL     OW31747   2.573   2.129  13.252  0.4305  0.1545  0.5168
 6762SOL    HW131748   2.556   2.139  13.346  1.0977 -2.0816  0.8868
 6762SOL    HW231749   2.577   2.034  13.238  2.1823  0.2272  0.4316
 6763SOL     OW31750   3.975   0.765   7.352  0.3323  0.4358  0.0891
 6763SOL    HW131751   3.970   0.827   7.425  1.7551  2.1204 -1.2661
 6763SOL    HW231752   4.058   0.724   7.374  0.0097  0.7748  1.9570
 6764SOL     OW31753   0.836   0.898   2.063  0.3169  0.0379  0.3616
 6764SOL    HW131754   0.808   0.899   2.155  0.1972 -1.3776  0.3497
 6764SOL    HW231755   0.749   0.904   2.026 -0.5221 -0.6788  2.1980
 6765SOL     OW31756   3.276   0.292   4.198 -0.4371  0.1848 -0.1860
 6765SOL    HW131757   3.359   0.290   4.149 -0.3351 -0.5387  0.0114
 6765SOL    HW231758   3.304   0.242   4.275  1.2411  1.7559  0.2303
 6766SOL     OW31759   4.179   0.003   8.706 -0.0958 -0.3413 -0.0579
 6766SOL    HW131760   4.274   0.001   8.722 -0.0146  2.5006 -0.2638
 6766SOL    HW231761   4.180   0.032   8.615 -0.4936 -2.8582 -0.8668
 6767SOL     OW31762   0.556   3.788  13.915  0.3586 -0.0437 -0.0262
 6767SOL    HW131763   0.637   3.761  13.957 -0.1305 -3.3987 -1.2023
 6767SOL    HW231764   0.488   3.754  13.973 -0.4334  2.2337  0.3691
 6768SOL     OW31765   1.294   4.113   5.910 -0.1457 -0.3066  0.5775
 6768SOL    HW131766   1.230   4.077   5.849 -0.3101  4.9879 -2.3735
 6768SOL    HW231767   1.364   4.047   5.905 -0.8920 -0.8491 -2.5997
 6769SOL     OW31768   1.313   4.574   7.587 -0.5091 -0.4269  0.1722
 6769SOL    HW131769   1.305   4.661   7.548  1.3870 -0.4939 -0.3499
 6769SOL    HW231770   1.327   4.590   7.681  3.5025 -0.2691 -0.4621
 6770SOL     OW31771   0.957   3.973  17.410  0.1087  0.3695 -0.0627
 6770SOL    HW131772   0.933   4.033  17.340  0.7330 -0.7340 -1.2114
 6770SOL    HW231773   0.988   4.032  17.480  2.2051  2.4789 -2.7536
 6771SOL     OW31774   2.181   1.477   4.858  0.2989 -0.3297 -0.1473
 6771SOL    HW131775   2.172   1.569   4.836  1.5598 -0.0807  0.3363
 6771SOL    HW231776   2.116   1.464   4.927  1.5841  1.5829  1.4342
 6772SOL     OW31777   2.473   2.992   6.621 -0.2272 -0.2783  0.2502
 6772SOL    HW131778   2.389   2.984   6.577  0.6066  1.9749 -1.7174
 6772SOL    HW231779   2.517   2.919   6.577 -0.3118 -1.1038  1.5327
 6773SOL     OW31780   1.818   1.815  13.247 -0.0208 -0.5137  0.9361
 6773SOL    HW131781   1.801   1.766  13.327  1.2162 -1.8035  0.4261
 6773SOL    HW231782   1.901   1.775  13.220 -0.9974 -2.3342  0.5941
 6774SOL     OW31783   0.542   3.653   4.186 -0.4232 -0.3118  0.5550
 6774SOL    HW131784   0.514   3.664   4.277  1.5306 -0.2697  1.1454
 6774SOL    HW231785   0.474   3.600   4.145 -1.2651  0.5060  0.8991
 6775SOL     OW31786   3.034   1.272   7.273 -0.4098 -0.0102  0.0222
 6775SOL    HW131787   3.066   1.275   7.363  1.0861  4.5414 -0.6531
 6775SOL    HW231788   3.005   1.182   7.256  1.5711 -0.3659 -1.5135
 6776SOL     OW31789   1.221   2.775   8.941 -0.2611  0.4266  0.5178
 6776SOL    HW131790   1.219   2.817   8.854 -0.7691  0.7446  0.6857
 6776SOL    HW231791   1.315   2.762   8.953 -0.4740 -0.2441  1.4360
 6777SOL     OW31792   4.376   0.819   4.694 -0.1057 -0.2848  0.6228
 6777SOL    HW131793   4.461   0.856   4.718 -0.6255  1.0609  0.4051
 6777SOL    HW231794   4.337   0.824   4.782 -0.5740  1.1234  0.3430
 6778SOL     OW31795   3.218   1.158   8.823 -0.1157  0.2889 -1.1309
 6778SOL    HW131796   3.176   1.088   8.772 -1.5441 -0.3976  0.9459
 6778SOL    HW231797   3.225   1.108   8.905  0.3002  1.8432 -0.2352
 6779SOL     OW31798   1.730   2.062   3.917 -0.0151  0.5835 -0.3591
 6779SOL    HW131799   1.719   2.156   3.932  2.9916  1.4074 -3.3282
 6779SOL    HW231800   1.804   2.039   3.973 -0.3138 -0.6568 -0.4813
 6780SOL     OW31801   0.652   4.712   4.258 -0.3742 -0.2148  0.0464
 6780SOL    HW131802   0.567   4.671   4.273  0.2520 -1.8490 -0.8890
 6780SOL    HW231803   0.687   4.657   4.189  2.2322  0.1017  1.1140
 6781SOL     OW31804   0.805   2.754   2.007 -0.2401  0.4262  0.0111
 6781SOL    HW131805   0.789   2.742   1.914  1.8949  0.2232 -0.3361
 6781SOL    HW231806   0.724   2.799   2.032  0.0906  1.6454 -1.1202
 6782SOL     OW31807   3.882   3.159   1.693  0.6978 -0.1522 -0.0429
 6782SOL    HW131808   3.867   3.254   1.687  0.6987 -0.1553 -0.0898
 6782SOL    HW231809   3.976   3.143   1.691  0.1255 -3.8586  2.5535
 6783SOL     OW31810   2.392   4.358  15.200 -0.1413 -0.5675 -0.2891
 6783SOL    HW131811   2.346   4.340  15.118 -1.2634  1.5435 -0.1061
 6783SOL    HW231812   2.322   4.359  15.265 -1.4073  0.4459 -1.6674
 6784SOL     OW31813   0.786   4.433  15.717 -0.4242 -0.8541  0.3934
 6784SOL    HW131814   0.860   4.395  15.670  1.1358  2.0713  0.4739
 6784SOL    HW231815   0.719   4.440  15.648 -0.2037 -0.4414  0.2188
 6785SOL     OW31816   2.667   2.100   3.148  0.1294  0.1879  0.1938
 6785SOL    HW131817   2.646   2.186   3.183 -2.7374  0.2623 -1.7389
 6785SOL    HW231818   2.576   2.070   3.143  0.9034 -2.1778  0.0463
 6786SOL     OW31819   3.891   3.316   3.205  0.4515 -0.6677  0.3099
 6786SOL    HW131820   3.953   3.381   3.239 -0.1189 -1.7608  3.4177
 6786SOL    HW231821   3.941   3.235   3.214  1.4982  0.0684  1.2166
 6787SOL     OW31822   3.442   1.738  12.691 -0.0254 -0.2978  0.2895
 6787SOL    HW131823   3.524   1.781  12.669 -0.2394  0.4318  0.9094
 6787SOL    HW231824   3.472   1.652  12.662  0.3199 -0.4944  1.2359
 6788SOL     OW31825   2.702   3.157   5.515 -0.1866  0.2421  0.0422
 6788SOL    HW131826   2.742   3.089   5.461  2.5846  1.9187 -0.0410
 6788SOL    HW231827   2.779   3.212   5.531  1.7896 -2.9804  1.5672
 6789SOL     OW31828   4.543   2.973  16.601 -0.7024 -0.3869 -0.3628
 6789SOL    HW131829   4.619   3.017  16.639 -0.7660 -0.9774  0.4473
 6789SOL    HW231830   4.493   3.052  16.578  1.7918  0.3764 -3.1718
 6790SOL     OW31831   4.468   4.585   2.035 -0.1340  0.6541  0.5905
 6790SOL    HW131832   4.469   4.599   1.940 -0.4989 -1.1484  0.3246
 6790SOL    HW231833   4.558   4.615   2.051  0.6313 -2.1081  1.3989
 6791SOL     OW31834   1.628   0.132   6.745  0.6831 -0.5282 -0.5623
 6791SOL    HW131835   1.601   0.175   6.664 -0.4528 -1.5668 -0.7316
 6791SOL    HW231836   1.723   0.140   6.735  0.6292  0.0216 -0.6196
 6792SOL     OW31837   1.679   2.738   4.010 -0.2035  0.3216  0.7978
 6792SOL    HW131838   1.718   2.789   3.939 -0.9418 -0.8386 -0.4225
 6792SOL    HW231839   1.628   2.814   4.037 -1.1933  0.1558 -0.6207
 6793SOL     OW31840   1.711   3.710   9.148 -0.0854 -0.2616  0.6493
 6793SOL    HW131841   1.774   3.665   9.091 -2.4198 -1.9416 -0.6428
 6793SOL    HW231842   1.640   3.726   9.085  0.4166 -4.1125 -0.9130
 6794SOL     OW31843   0.111   2.001   6.855 -0.3179  0.5453 -0.5832
 6794SOL    HW131844   0.070   2.056   6.788  1.2939  0.4875 -1.6014
 6794SOL    HW231845   0.165   2.069   6.896 -1.3290  0.4662  0.8774
 6795SOL     OW31846   3.923   3.376   9.303 -0.0907  0.2929  0.2768
 6795SOL    HW131847   3.945   3.291   9.341  0.2937  0.6333  0.8288
 6795SOL    HW231848   3.846   3.362   9.249 -1.5724  0.6519  2.3093
 6796SOL     OW31849   3.938   0.468   6.368  0.0079  0.0118 -0.2390
 6796SOL    HW131850   3.968   0.532   6.303  3.7489 -2.1773 -0.6112
 6796SOL    HW231851   3.948   0.521   6.447  2.0327 -0.5228 -0.1479
 6797SOL     OW31852   1.472   2.601   3.893  0.0997  0.2788 -0.1988
 6797SOL    HW131853   1.509   2.660   3.959 -1.1079  0.4053  0.3695
 6797SOL    HW231854   1.442   2.528   3.947 -1.2351 -0.0246 -1.3662
 6798SOL     OW31855   1.375   0.324   7.453 -0.4224  0.1592 -0.5833
 6798SOL    HW131856   1.370   0.387   7.381  2.7604  1.9454  0.7828
 6798SOL    HW231857   1.467   0.298   7.457 -0.3063  0.8562  1.2830
 6799SOL     OW31858   2.785   4.581   5.050 -0.3664 -0.5561 -0.1673
 6799SOL    HW131859   2.715   4.641   5.076  0.6660  0.4918  0.1982
 6799SOL    HW231860   2.857   4.642   5.038 -1.2073  0.7977  1.5925
 6800SOL     OW31861   4.477   1.356   1.671 -0.4766 -0.1837 -0.5016
 6800SOL    HW131862   4.494   1.334   1.763 -0.8513  1.1416 -0.1251
 6800SOL    HW231863   4.566   1.344   1.638  0.3156 -1.4519  2.0262
 6801SOL     OW31864   0.518   2.599  10.119  0.5385  0.3781  0.3255
 6801SOL    HW131865   0.454   2.629  10.055 -0.5883 -1.3819  0.6239
 6801SOL    HW231866   0.511   2.676  10.176 -1.0989 -0.4201  1.2158
 6802SOL     OW31867   4.308   2.940  16.180  0.3472 -0.4440 -0.3453
 6802SOL    HW131868   4.382   2.975  16.131  1.5503  0.8454  2.4071
 6802SOL    HW231869   4.341   2.886  16.252  2.7597 -1.5945 -2.3355
 6803SOL     OW31870   3.529   3.078   6.706  0.0869 -0.2514 -0.7573
 6803SOL    HW131871   3.436   3.080   6.728  0.1535 -3.2242 -0.2302
 6803SOL    HW231872   3.547   3.171   6.722 -2.1028  0.0822 -0.2867
 6804SOL     OW31873   2.036   1.494   5.898 -0.3860 -0.3865  0.1217
 6804SOL    HW131874   1.991   1.547   5.832  0.3739 -0.8190 -0.7321
 6804SOL    HW231875   2.110   1.550   5.920 -1.7449  1.9211 -1.2023
 6805SOL     OW31876   0.189   2.510   3.581 -0.4838 -0.7193 -0.4097
 6805SOL    HW131877   0.161   2.428   3.540 -0.6286 -0.1356 -1.4883
 6805SOL    HW231878   0.140   2.498   3.662 -0.6903 -0.0448 -0.4368
 6806SOL     OW31879   2.942   0.251  12.838  0.1496 -0.1725  0.0765
 6806SOL    HW131880   2.899   0.189  12.896 -0.9699  0.1270 -0.4305
 6806SOL    HW231881   3.021   0.265  12.889  1.2194  0.1545 -1.6619
 6807SOL     OW31882   4.374   2.714  12.640 -0.5994  0.8403  0.5016
 6807SOL    HW131883   4.314   2.711  12.714 -0.5808 -0.8845  0.4511
 6807SOL    HW231884   4.457   2.706  12.687 -0.3072 -0.0252 -0.1482
 6808SOL     OW31885   0.197   3.059   6.852  0.2266 -0.0552  0.1765
 6808SOL    HW131886   0.128   3.115   6.888 -1.2747 -0.7911 -1.5359
 6808SOL    HW231887   0.205   3.002   6.928  1.0440  1.6514  1.3607
 6809SOL     OW31888   3.410   1.233   7.718 -0.1975  0.0169 -0.6814
 6809SOL    HW131889   3.381   1.309   7.668  1.5707  0.5419 -0.9023
 6809SOL    HW231890   3.388   1.258   7.808  0.8348 -0.7422 -0.2275
 6810SOL     OW31891   2.368   4.586   8.458 -0.6561 -0.7640  0.2246
 6810SOL    HW131892   2.306   4.515   8.436 -0.8643 -0.2606 -0.7943
 6810SOL    HW231893   2.385   4.552   8.546 -0.6394 -1.0416  0.1150
 6811SOL     OW31894   4.572   1.152   8.174 -0.2282  0.2052 -0.4241
 6811SOL    HW131895   4.547   1.063   8.147  0.7402 -0.6551  1.5016
 6811SOL    HW231896   4.526   1.197   8.103 -1.6756  0.1641  0.4948
 6812SOL     OW31897   3.800   1.894   4.102  0.2795  0.0443 -0.2362
 6812SOL    HW131898   3.719   1.940   4.078 -1.2022 -1.6136  1.5524
 6812SOL    HW231899   3.819   1.907   4.195 -1.2079 -1.7483  0.3168
 6813SOL     OW31900   0.756   4.202   7.420  0.4944  0.1263 -0.0342
 6813SOL    HW131901   0.686   4.266   7.426 -0.1185 -0.5469  0.0360
 6813SOL    HW231902   0.787   4.177   7.507  0.1404  1.2387  0.4023
 6814SOL     OW31903   1.732   1.803  11.249 -0.1506  0.9296 -0.3749
 6814SOL    HW131904   1.772   1.784  11.334  3.5690  0.0213 -2.2820
 6814SOL    HW231905   1.675   1.727  11.241 -2.2205  2.5495 -0.9560
 6815SOL     OW31906   4.242   0.604   2.071  0.5411  0.8578 -0.1923
 6815SOL    HW131907   4.321   0.608   2.127 -0.1346  2.1657  0.6710
 6815SOL    HW231908   4.284   0.603   1.985  0.6072  0.0250 -0.1534
 6816SOL     OW31909   0.216   0.541   8.564 -0.3448 -0.3468 -0.7605
 6816SOL    HW131910   0.264   0.458   8.555  1.2788  0.3953  1.2842
 6816SOL    HW231911   0.285   0.600   8.593 -0.9282 -0.6100  1.1601
 6817SOL     OW31912   1.397   3.615   0.753  0.4619 -0.7799 -0.2047
 6817SOL    HW131913   1.362   3.574   0.832  1.2434  2.4153  1.8243
 6817SOL    HW231914   1.315   3.656   0.724  0.2495  0.7651  2.4497
 6818SOL     OW31915   3.610   0.869   7.347  0.7130 -0.6208 -0.1301
 6818SOL    HW131916   3.654   0.952   7.367 -0.7209 -0.5378  2.7079
 6818SOL    HW231917   3.649   0.859   7.260 -1.1389  1.7012 -1.2148
 6819SOL     OW31918   4.235   2.456   6.389  0.1510  0.0123 -0.1476
 6819SOL    HW131919   4.325   2.482   6.409 -0.0621 -0.3819  1.3200
 6819SOL    HW231920   4.217   2.375   6.437 -1.4152  0.1829 -0.4478
 6820SOL     OW31921   1.968   3.637  11.752 -0.0591  0.3240 -0.4657
 6820SOL    HW131922   1.970   3.590  11.836  2.7368 -1.1759 -1.4084
 6820SOL    HW231923   2.055   3.607  11.726 -0.0263  0.6030 -0.6763
 6821SOL     OW31924   3.620   2.195  12.758  0.0254  0.5263 -0.3080
 6821SOL    HW131925   3.601   2.167  12.668  0.3425  0.1396 -0.2569
 6821SOL    HW231926   3.612   2.290  12.759 -1.9415  0.3507  0.9469
 6822SOL     OW31927   1.111   4.240   3.424 -0.4629  0.1915 -0.1670
 6822SOL    HW131928   1.047   4.241   3.352 -1.0569 -0.7529  0.3527
 6822SOL    HW231929   1.186   4.207   3.375 -0.4690 -2.1302  1.4022
 6823SOL     OW31930   0.655   0.740   2.811 -0.3385  0.1309  0.4507
 6823SOL    HW131931   0.678   0.700   2.727 -1.2011  2.4545 -0.8977
 6823SOL    HW231932   0.566   0.706   2.822 -2.0622  3.7204 -2.5687
 6824SOL     OW31933   2.325   2.450   5.224  0.1730  0.0938 -0.1326
 6824SOL    HW131934   2.327   2.540   5.192  0.7333  0.7727  1.8161
 6824SOL    HW231935   2.374   2.459   5.306  2.7257  1.7749 -1.8595
 6825SOL     OW31936   3.602   1.028  13.201 -0.5240 -0.4927 -0.5872
 6825SOL    HW131937   3.675   0.971  13.224 -0.2186  0.3415  0.4700
 6825SOL    HW231938   3.572   1.057  13.287 -3.0915  1.1628 -2.0379
 6826SOL     OW31939   3.477   4.005   5.260  0.5331  0.1516 -0.5755
 6826SOL    HW131940   3.493   3.987   5.353 -0.7362  0.4677 -0.2873
 6826SOL    HW231941   3.566   4.005   5.225  0.1611  2.7072 -1.5671
 6827SOL     OW31942   0.091   2.026   5.490 -0.0853  0.5358 -0.1471
 6827SOL    HW131943   0.049   2.042   5.406 -0.3587  3.8576  0.6273
 6827SOL    HW231944   0.027   1.975   5.540  0.5261 -0.6902 -0.6064
 6828SOL     OW31945   2.569   4.331   7.280  0.5474  0.3636 -0.2582
 6828SOL    HW131946   2.639   4.386   7.315  0.8225  0.2045 -0.5611
 6828SOL    HW231947   2.557   4.261   7.344 -2.3602  1.0603 -0.0499
 6829SOL     OW31948   2.743   4.688   2.881 -0.1148 -0.3372  0.3098
 6829SOL    HW131949   2.672   4.641   2.837 -1.4768 -0.1783  2.3438
 6829SOL    HW231950   2.718   0.061   2.859 -0.1783 -0.3007  0.5304
 6830SOL     OW31951   2.288   3.369   8.264  0.2435  0.6697  0.2619
 6830SOL    HW131952   2.377   3.374   8.300  0.3833  1.2439 -0.1555
 6830SOL    HW231953   2.305   3.436   8.198  0.3666  1.6471  1.2836
 6831SOL     OW31954   2.635   2.006   8.408 -0.0679  0.0469 -0.5101
 6831SOL    HW131955   2.651   1.920   8.368  0.1156  1.1596 -2.8069
 6831SOL    HW231956   2.711   2.006   8.467 -1.6769  1.1164  1.5610
 6832SOL     OW31957   0.009   4.318   8.924  0.4927  0.1111  0.4684
 6832SOL    HW131958   0.099   4.341   8.950  0.7580  0.9589 -1.2230
 6832SOL    HW231959   4.673   4.378   8.978  0.7140  1.2294 -0.5544
 6833SOL     OW31960   0.644   0.353   6.603  0.5059  0.2604 -0.2636
 6833SOL    HW131961   0.596   0.435   6.613  0.2029  0.2828 -1.8694
 6833SOL    HW231962   0.688   0.357   6.687 -0.5440 -0.6702  0.3397
 6834SOL     OW31963   1.720   4.648   7.456  0.5892  0.1603  0.9769
 6834SOL    HW131964   1.744   4.571   7.508  2.5351  1.2722  1.7023
 6834SOL    HW231965   1.667   4.692   7.523 -0.2657  0.4446  0.1256
 6835SOL     OW31966   1.612   3.126   9.331  0.1624  0.1690  0.2451
 6835SOL    HW131967   1.596   3.197   9.392 -0.0133 -1.0752  1.6343
 6835SOL    HW231968   1.528   3.081   9.327  0.1347  0.0848  2.0036
 6836SOL     OW31969   1.137   4.069   4.246  0.2737  0.0049  0.0774
 6836SOL    HW131970   1.117   4.157   4.212  0.4585  0.3200  0.7783
 6836SOL    HW231971   1.051   4.057   4.285 -0.1912  1.3242 -0.5176
 6837SOL     OW31972   0.240   3.337   6.222  0.8718  0.1600  0.5763
 6837SOL    HW131973   0.197   3.400   6.280  2.0069  1.7851 -0.3306
 6837SOL    HW231974   0.158   3.304   6.185  1.4891 -0.0287 -0.6035
 6838SOL     OW31975   1.904   3.895   9.651  0.1884 -0.5962  0.3150
 6838SOL    HW131976   1.957   3.972   9.629 -0.4599 -0.4524 -0.7315
 6838SOL    HW231977   1.853   3.878   9.572 -0.4678  2.6701  0.0406
 6839SOL     OW31978   2.188   4.199   6.382 -0.0197 -0.0703  0.8564
 6839SOL    HW131979   2.231   4.140   6.320 -1.2669  0.4226 -0.4986
 6839SOL    HW231980   2.122   4.235   6.322 -1.7491 -2.3346  1.3803
 6840SOL     OW31981   2.744   2.802   6.993  0.2323 -0.2983  0.1291
 6840SOL    HW131982   2.696   2.726   6.961  0.1513 -0.0533 -0.3367
 6840SOL    HW231983   2.689   2.823   7.068 -1.5251 -1.3336 -0.8671
 6841SOL     OW31984   4.105   4.314   3.286  0.5458  0.0686  0.2334
 6841SOL    HW131985   4.055   4.319   3.367  0.1457  0.5568 -0.0391
 6841SOL    HW231986   4.066   4.233   3.252 -3.2471  1.6581  0.7930
 6842SOL     OW31987   1.032   0.072   5.141 -0.2073  0.3199 -0.3573
 6842SOL    HW131988   1.029   0.166   5.128  2.0897  0.7417  2.2373
 6842SOL    HW231989   1.040   0.041   5.051  0.1203 -0.7047  0.0173
 6843SOL     OW31990   2.996   1.529   6.188 -0.1672  0.1404 -0.3060
 6843SOL    HW131991   3.059   1.586   6.144  0.9522 -1.0253 -0.2128
 6843SOL    HW231992   3.011   1.445   6.145 -2.2856 -0.8601  0.9031
 6844SOL     OW31993   1.826   3.309   9.276 -0.1948 -0.4291  0.2799
 6844SOL    HW131994   1.751   3.257   9.304 -1.0468  1.1700  0.9604
 6844SOL    HW231995   1.838   3.352   9.360  2.0816 -2.5071  0.9950
 6845SOL     OW31996   1.719   2.326   7.669  0.5733  0.2995 -0.1493
 6845SOL    HW131997   1.811   2.307   7.649  0.5702  0.3869 -0.2468
 6845SOL    HW231998   1.677   2.245   7.641  0.9309 -1.0306  3.1760
 6846SOL     OW31999   0.392   1.847   7.510 -0.1906  0.2642  0.4462
 6846SOL    HW132000   0.406   1.885   7.424  1.1721  0.3280  0.6999
 6846SOL    HW232001   0.381   1.755   7.486  0.5236 -0.4126  2.6881
 6847SOL     OW32002   2.942   1.930   9.059 -0.5628 -0.1334 -0.0387
 6847SOL    HW132003   2.871   1.875   9.025 -1.8301  1.3444  0.2461
 6847SOL    HW232004   2.903   1.939   9.146  0.5165 -0.0598  0.4274
 6848SOL     OW32005   0.708   0.916   5.107 -0.6426  0.4301  0.3146
 6848SOL    HW132006   0.661   0.890   5.186 -1.0610 -2.0226 -0.7292
 6848SOL    HW232007   0.745   1.000   5.132  0.5840  0.5762 -2.0128
 6849SOL     OW32008   1.534   1.702   0.245  0.3637 -0.5456  0.4167
 6849SOL    HW132009   1.482   1.758   0.302  0.2682 -0.6225  0.4054
 6849SOL    HW232010   1.542   1.633   0.310  1.4991 -0.1437  0.7097
 6850SOL     OW32011   3.253   4.210   6.507 -0.1385 -0.1345 -0.4641
 6850SOL    HW132012   3.285   4.249   6.426 -0.1977  1.2441  0.1654
 6850SOL    HW232013   3.200   4.283   6.541  1.6007  0.9996 -0.1650
 6851SOL     OW32014   3.840   1.574  12.808 -0.4418 -0.4038 -0.1582
 6851SOL    HW132015   3.902   1.594  12.738  0.7058  3.1420  1.8852
 6851SOL    HW232016   3.834   1.661  12.848 -0.4680  0.1652 -1.3995
 6852SOL     OW32017   0.272   0.961   1.809 -0.1531  0.2661 -0.0010
 6852SOL    HW132018   0.274   0.866   1.818 -2.2170  0.3930  1.6947
 6852SOL    HW232019   0.336   0.964   1.737 -0.7632  0.5185 -0.5275
 6853SOL     OW32020   3.902   2.969   9.176  0.1193 -0.1009 -0.1699
 6853SOL    HW132021   3.882   3.016   9.095  1.2530  0.4940 -0.0893
 6853SOL    HW232022   3.882   2.879   9.149  0.3213  0.2202 -1.3611
 6854SOL     OW32023   1.776   2.325   4.020 -0.4464  0.0091  0.3721
 6854SOL    HW132024   1.871   2.324   4.019 -0.4313  0.2409  2.2972
 6854SOL    HW232025   1.756   2.257   4.084  0.0825 -0.2973  0.2100
 6855SOL     OW32026   0.482   1.506  15.943  0.6416  0.0632  0.2036
 6855SOL    HW132027   0.413   1.563  15.977 -0.5517  0.1466 -2.3974
 6855SOL    HW232028   0.476   1.535  15.852 -0.1757  1.0569  0.5821
 6856SOL     OW32029   1.518   1.611  17.113 -0.4803  0.0616  0.6946
 6856SOL    HW132030   1.602   1.593  17.070 -0.4622 -2.0087  1.6154
 6856SOL    HW232031   1.482   1.674  17.051  1.0247  1.1310  0.9065
 6857SOL     OW32032   1.581   0.678   9.564  0.5282 -0.2565  0.6352
 6857SOL    HW132033   1.624   0.716   9.487 -1.0878 -0.3485 -0.3159
 6857SOL    HW232034   1.489   0.679   9.538  0.2032  0.8859  1.8750
 6858SOL     OW32035   1.149   3.192   4.636 -0.1819  0.2871 -0.0131
 6858SOL    HW132036   1.172   3.194   4.543  0.5594 -4.1511  0.0545
 6858SOL    HW232037   1.111   3.104   4.632  0.9096 -0.2242  0.7795
 6859SOL     OW32038   1.708   0.715   3.596 -0.0268  0.7543  0.5513
 6859SOL    HW132039   1.756   0.774   3.537 -0.6381  1.8230  1.1139
 6859SOL    HW232040   1.646   0.675   3.535 -0.9603  1.4897  1.0095
 6860SOL     OW32041   3.309   2.715  13.196 -0.1030 -0.0351  0.2272
 6860SOL    HW132042   3.281   2.792  13.147  0.3890  0.1448  0.2246
 6860SOL    HW232043   3.249   2.651  13.158 -1.1365 -0.5525  2.7042
 6861SOL     OW32044   3.340   4.418   6.758  0.2584 -0.2437 -0.2166
 6861SOL    HW132045   3.423   4.384   6.724  0.8774  1.2337 -0.1612
 6861SOL    HW232046   3.320   4.489   6.697 -0.4101  0.9954  1.4418
 6862SOL     OW32047   0.029   1.274   7.218  0.8035  0.3356  0.2306
 6862SOL    HW132048   0.021   1.209   7.148  2.6695  0.6933 -0.3284
 6862SOL    HW232049   0.120   1.260   7.243  0.7549  0.5078  0.4939
 6863SOL     OW32050   0.397   1.738   6.647  0.1503  0.2189  0.0899
 6863SOL    HW132051   0.412   1.765   6.737  0.1750  1.8939 -0.4141
 6863SOL    HW232052   0.357   1.816   6.609 -3.3015 -0.4555  2.3344
 6864SOL     OW32053   4.667   0.116   7.376  0.3689  0.2916 -0.0138
 6864SOL    HW132054   4.710   0.074   7.302 -1.0290  0.0168 -0.6841
 6864SOL    HW232055   4.667   0.205   7.340  0.6247  0.7999  1.2723
 6865SOL     OW32056   3.097   4.380   3.282 -0.0516  0.6281  0.2872
 6865SOL    HW132057   3.067   4.314   3.220 -1.3272  2.2026 -0.7471
 6865SOL    HW232058   3.067   4.454   3.230 -0.2530 -0.2425 -0.8253
 6866SOL     OW32059   1.853   0.217  16.334  0.2469  0.3867  0.0990
 6866SOL    HW132060   1.766   0.235  16.370  0.3946  0.3699  0.4694
 6866SOL    HW232061   1.837   0.210  16.240 -0.0932 -1.1490  0.2862
 6867SOL     OW32062   2.108   0.899  14.637 -0.3131 -0.6850 -0.2830
 6867SOL    HW132063   2.013   0.905  14.646 -0.0728  0.2449  1.5203
 6867SOL    HW232064   2.116   0.909  14.542 -0.6712 -1.1096 -0.3587
 6868SOL     OW32065   3.301   4.373   8.440 -0.0785 -0.1880 -0.3523
 6868SOL    HW132066   3.298   4.337   8.352 -1.8903 -1.1589  0.0973
 6868SOL    HW232067   3.268   4.299   8.490 -1.7603  2.4279  2.4011
 6869SOL     OW32068   2.034   2.256   7.198 -0.5132 -0.4578  0.5318
 6869SOL    HW132069   2.019   2.264   7.104  1.8336 -2.3703  0.0072
 6869SOL    HW232070   2.129   2.245   7.202 -0.5496 -0.6675  0.8892
 6870SOL     OW32071   4.005   3.271  15.849 -0.1875  0.1425  0.3923
 6870SOL    HW132072   4.049   3.188  15.866 -1.4335 -0.1916  2.0819
 6870SOL    HW232073   4.083   3.326  15.844 -0.2828  0.3273  0.9215
 6871SOL     OW32074   2.785   0.769   1.860  0.0189 -0.1418 -0.0136
 6871SOL    HW132075   2.835   0.790   1.781  1.7727 -0.9529  0.8747
 6871SOL    HW232076   2.696   0.781   1.825  0.9200 -0.3745 -2.4134
 6872SOL     OW32077   2.215   2.984   3.986 -0.1290 -0.6050  0.0146
 6872SOL    HW132078   2.265   3.064   4.005 -1.9808 -0.1547  2.9684
 6872SOL    HW232079   2.217   2.937   4.069 -1.7230  0.7094  0.7839
 6873SOL     OW32080   1.231   3.046  13.892 -0.1337  0.3937 -0.1774
 6873SOL    HW132081   1.209   3.078  13.804  2.4992  0.6105 -0.7709
 6873SOL    HW232082   1.263   2.958  13.871 -1.7672 -0.3843  0.5797
 6874SOL     OW32083   1.951   1.450  13.080 -0.1659 -0.3674  0.0980
 6874SOL    HW132084   1.996   1.526  13.117 -0.9180  0.1186 -0.0102
 6874SOL    HW232085   1.890   1.501  13.028  0.0746 -0.7283 -0.5327
 6875SOL     OW32086   2.875   3.444   4.462 -0.4409  0.7384 -0.6235
 6875SOL    HW132087   2.821   3.523   4.461 -0.3461  0.8088  0.3931
 6875SOL    HW232088   2.811   3.393   4.412 -0.0740  1.4373 -1.8142
 6876SOL     OW32089   1.734   2.463  16.103 -0.1047  0.4012  0.0481
 6876SOL    HW132090   1.749   2.416  16.185 -1.0160 -0.2423 -0.1580
 6876SOL    HW232091   1.737   2.396  16.035  1.4331  1.1193 -0.6169
 6877SOL     OW32092   4.058   2.026  11.327  0.4125  0.2550 -0.0022
 6877SOL    HW132093   4.126   1.966  11.357 -0.0902 -0.2148  0.2195
 6877SOL    HW232094   4.103   2.109  11.340  1.8400 -0.5811  0.4261
 6878SOL     OW32095   0.745   3.865   3.671  1.0888 -0.1331 -0.7465
 6878SOL    HW132096   0.829   3.898   3.638  2.0933  0.4611  2.4024
 6878SOL    HW232097   0.728   3.794   3.610  1.3072 -1.6941  1.0172
 6879SOL     OW32098   2.840   4.038   8.232 -0.3535  0.0542  0.0669
 6879SOL    HW132099   2.755   4.000   8.210 -1.0305  2.8793 -2.2077
 6879SOL    HW232100   2.866   4.074   8.148  1.3815 -0.8442  0.2135
 6880SOL     OW32101   0.971   3.562   7.569 -0.0575 -0.6717 -0.2733
 6880SOL    HW132102   0.959   3.477   7.611 -0.8161 -1.0555 -1.2538
 6880SOL    HW232103   0.896   3.561   7.509  0.0862 -2.5205 -0.4249
 6881SOL     OW32104   3.002   1.416   8.030 -0.7139  0.0280  0.2295
 6881SOL    HW132105   2.918   1.415   8.075 -0.5959 -1.3847  0.4115
 6881SOL    HW232106   3.050   1.370   8.099  0.8895 -2.4927 -2.5194
 6882SOL     OW32107   4.076   2.190  17.514 -0.4571 -0.0219 -0.5102
 6882SOL    HW132108   4.070   2.283  17.536  1.4602  0.3575 -1.5223
 6882SOL    HW232109   4.100   2.192  17.421  2.3447 -1.2678  0.1787
 6883SOL     OW32110   1.802   0.962   2.663 -0.4500  0.5735 -0.2469
 6883SOL    HW132111   1.709   0.954   2.640 -0.3056 -0.1265 -0.5735
 6883SOL    HW232112   1.845   0.902   2.602 -0.6822  0.2256 -0.0628
 6884SOL     OW32113   2.584   3.580   7.524  0.2445 -0.4062  0.7464
 6884SOL    HW132114   2.632   3.657   7.554 -3.9365  2.0872  0.9854
 6884SOL    HW232115   2.633   3.566   7.442  0.7861 -0.8985  1.1559
 6885SOL     OW32116   2.852   1.254   1.804 -0.0259 -0.5294  0.1079
 6885SOL    HW132117   2.901   1.336   1.812  0.1660 -0.5756 -0.5409
 6885SOL    HW232118   2.871   1.213   1.719 -0.0157  0.3613 -0.3278
 6886SOL     OW32119   1.232   2.551   4.453 -0.4019  0.1328  0.5678
 6886SOL    HW132120   1.309   2.543   4.396 -1.6557 -0.0893 -1.0846
 6886SOL    HW232121   1.180   2.604   4.392  0.9390  0.1770 -0.5387
 6887SOL     OW32122   1.091   4.103  14.425  0.4795 -0.4919 -0.0727
 6887SOL    HW132123   1.093   4.167  14.354  0.0157  1.6429  1.8235
 6887SOL    HW232124   1.051   4.023  14.392 -0.5237 -0.1040  0.2067
 6888SOL     OW32125   0.944   0.056   6.575  0.1130  0.1645  0.4134
 6888SOL    HW132126   0.974   0.111   6.647 -1.2902 -0.2354  1.2810
 6888SOL    HW232127   0.952   4.682   6.605  0.6059 -0.6539 -2.1264
 6889SOL     OW32128   2.834   2.915   2.705 -0.2964  0.6607  0.2538
 6889SOL    HW132129   2.893   2.968   2.650  1.1283  0.2511  1.3895
 6889SOL    HW232130   2.780   2.862   2.647  0.5470  0.1196 -0.0405
 6890SOL     OW32131   3.306   2.343   7.501  0.0222  0.0699  0.1485
 6890SOL    HW132132   3.277   2.338   7.410  0.8439 -0.0551 -0.1101
 6890SOL    HW232133   3.235   2.295   7.542 -0.3085 -0.0264 -0.5421
 6891SOL     OW32134   3.511   2.037   1.173  0.6282 -0.1931 -0.3581
 6891SOL    HW132135   3.514   1.963   1.113 -0.2694 -0.3371 -0.2281
 6891SOL    HW232136   3.434   2.088   1.146 -1.0487 -0.7524  3.2268
 6892SOL     OW32137   1.020   0.365   2.679 -0.0277  0.1944  0.4438
 6892SOL    HW132138   1.047   0.457   2.675 -0.2160  0.3345  2.2885
 6892SOL    HW232139   1.083   0.332   2.743  2.4705 -1.7152 -2.9778
 6893SOL     OW32140   1.004   2.099   6.126  0.3658  0.2159  0.2216
 6893SOL    HW132141   1.075   2.078   6.187  0.3420  0.0898  0.2068
 6893SOL    HW232142   1.050   2.060   6.051 -0.6800  1.6418 -1.1528
 6894SOL     OW32143   3.591   0.016   5.934  0.5183  0.2166 -0.0533
 6894SOL    HW132144   3.659   4.674   5.966 -0.3672 -0.5662  0.4051
 6894SOL    HW232145   3.613   0.040   5.844 -3.5990  1.1282 -0.8369
 6895SOL     OW32146   0.609   1.766   6.030 -0.4030 -0.0251  0.3533
 6895SOL    HW132147   0.659   1.831   6.080 -0.6982  1.5429 -1.3949
 6895SOL    HW232148   0.569   1.823   5.964 -0.1613  0.7053  0.8363
 6896SOL     OW32149   0.352   0.552   3.231  0.0629 -0.2676 -0.4497
 6896SOL    HW132150   0.366   0.637   3.272 -2.4800 -0.6337  1.1891
 6896SOL    HW232151   0.260   0.554   3.205 -0.3890 -1.1813  1.0840
 6897SOL     OW32152   0.824   4.278   4.948 -0.4926  0.2463  0.2983
 6897SOL    HW132153   0.826   4.247   5.039 -0.6874 -0.8972 -0.0860
 6897SOL    HW232154   0.877   4.215   4.899  0.8760  1.9714 -0.4229
 6898SOL     OW32155   2.119   0.367  12.217 -0.6820 -0.2823 -0.3263
 6898SOL    HW132156   2.026   0.360  12.199 -0.5127 -0.0119 -1.3307
 6898SOL    HW232157   2.154   0.395  12.132  1.9936  0.2939  0.9508
 6899SOL     OW32158   2.466   0.057   7.022 -0.0456  1.2188  0.2347
 6899SOL    HW132159   2.507   0.073   6.937  0.4861 -1.3990  0.0063
 6899SOL    HW232160   2.535   0.052   7.087  0.4463  0.2225 -0.3579
 6900SOL     OW32161   2.134   0.480   5.066  0.4210 -0.4562  0.7132
 6900SOL    HW132162   2.115   0.407   5.124  0.8985 -0.3490  1.0031
 6900SOL    HW232163   2.067   0.479   4.997  0.3728 -0.6731  0.7629
 6901SOL     OW32164   2.201   2.808   5.227  0.3648  0.3172 -0.0134
 6901SOL    HW132165   2.183   2.899   5.201 -3.1552 -0.3761 -0.0663
 6901SOL    HW232166   2.168   2.804   5.317  1.0199 -0.8635  0.1722
 6902SOL     OW32167   2.815   2.948   4.011  0.0274 -0.5380  0.5405
 6902SOL    HW132168   2.811   2.937   4.106  0.4873 -2.1710  0.3651
 6902SOL    HW232169   2.780   2.864   3.984  1.1502 -0.8101 -0.0965
 6903SOL     OW32170   1.782   2.142  10.876  0.2301  0.0346 -0.3372
 6903SOL    HW132171   1.801   2.174  10.964 -2.3239  2.2349 -0.5666
 6903SOL    HW232172   1.698   2.097  10.889  0.7959 -0.5273  1.2979
 6904SOL     OW32173   2.815   0.350   4.553  0.4004  0.1757  0.5895
 6904SOL    HW132174   2.903   0.315   4.544 -0.4837 -1.0275 -3.1806
 6904SOL    HW232175   2.814   0.378   4.645 -0.7475 -1.5539  1.1061
 6905SOL     OW32176   0.551   2.689  13.845 -0.1982 -0.2458  0.2629
 6905SOL    HW132177   0.465   2.676  13.805 -1.6417  0.1146  3.2974
 6905SOL    HW232178   0.551   2.613  13.903 -0.8638  1.1411  2.0570
 6906SOL     OW32179   4.354   3.334   0.694 -0.0731 -0.1346 -0.5363
 6906SOL    HW132180   4.314   3.420   0.697 -1.5837 -0.8910  1.0386
 6906SOL    HW232181   4.424   3.343   0.630 -1.1487  0.5785 -1.6251
 6907SOL     OW32182   1.139   4.238   5.363  0.1996 -0.2923 -0.3656
 6907SOL    HW132183   1.157   4.152   5.325 -2.0321 -0.7714 -0.3805
 6907SOL    HW232184   1.210   4.246   5.426 -1.3015  2.2733  1.0068
 6908SOL     OW32185   3.459   3.878   4.626  0.2362 -0.1109  0.0836
 6908SOL    HW132186   3.375   3.842   4.599  0.2152 -0.2651  0.3568
 6908SOL    HW232187   3.442   3.924   4.708 -1.4318 -2.8389  1.2411
 6909SOL     OW32188   2.939   3.883   6.948  0.0369  0.1257  0.0494
 6909SOL    HW132189   3.013   3.933   6.983  0.2910  0.1594 -0.5520
 6909SOL    HW232190   2.883   3.877   7.026 -1.3096  0.1314 -0.9314
 6910SOL     OW32191   0.992   1.064   0.286 -0.4005 -0.2018  0.4480
 6910SOL    HW132192   1.036   1.129   0.232  0.0730  0.3367  1.4833
 6910SOL    HW232193   1.020   1.090   0.374  1.7423 -0.7363 -0.0857
 6911SOL     OW32194   2.137   3.212   9.554 -0.4447  0.4947  0.4016
 6911SOL    HW132195   2.106   3.227   9.464  0.8035 -3.0350 -0.5959
 6911SOL    HW232196   2.205   3.276   9.574 -1.0732  1.1590  0.4251
 6912SOL     OW32197   0.576   2.139  14.520  0.0565 -0.3474  0.2518
 6912SOL    HW132198   0.527   2.081  14.579 -0.6923 -0.0036 -0.0350
 6912SOL    HW232199   0.662   2.143  14.563 -0.0161  0.0122  0.3605
 6913SOL     OW32200   2.745   1.974   0.311 -0.1372 -0.2710  0.1241
 6913SOL    HW132201   2.734   1.932   0.226  3.0209 -1.4969  0.3251
 6913SOL    HW232202   2.762   1.896   0.365  0.3951 -0.5697 -0.4700
 6914SOL     OW32203   0.423   2.910  12.154  0.6166 -0.0076  0.1198
 6914SOL    HW132204   0.487   2.895  12.223  1.7672 -0.4926 -1.0614
 6914SOL    HW232205   0.492   2.906  12.088 -1.2142  2.4052 -1.9211
 6915SOL     OW32206   0.039   1.160   9.196 -0.0852  0.4351 -0.0781
 6915SOL    HW132207   0.097   1.146   9.272 -0.1524 -1.8871 -0.4659
 6915SOL    HW232208   0.067   1.087   9.141 -1.6521 -0.2495  0.0360
 6916SOL     OW32209   0.871   1.483   5.090 -0.7763  0.1034  0.6381
 6916SOL    HW132210   0.821   1.493   5.009  1.2191  0.4276 -0.5418
 6916SOL    HW232211   0.926   1.561   5.088 -1.0366  0.2515 -0.6192
 6917SOL     OW32212   1.056   0.961   5.325 -0.0988  0.3640 -0.0684
 6917SOL    HW132213   1.084   0.989   5.237  1.2448  0.3207  0.3529
 6917SOL    HW232214   0.968   0.998   5.328 -0.6275 -1.0494  1.5934
 6918SOL     OW32215   2.242   0.804  16.367  0.5595 -0.3159  0.1378
 6918SOL    HW132216   2.164   0.754  16.390  0.8163 -0.5971  0.3911
 6918SOL    HW232217   2.303   0.773  16.434 -1.0665 -0.2654  1.6250
 6919SOL     OW32218   3.399   0.959   6.256 -0.2068  0.1109 -0.2822
 6919SOL    HW132219   3.480   0.927   6.217 -1.2241 -0.3117 -2.0675
 6919SOL    HW232220   3.338   0.936   6.186 -1.2981  1.6546  0.1588
 6920SOL     OW32221   4.011   0.986   1.807 -0.4616 -0.2058  0.3392
 6920SOL    HW132222   4.083   0.947   1.857  1.0608  1.0435 -0.8311
 6920SOL    HW232223   4.021   1.079   1.827 -0.6583 -0.1785  0.3067
 6921SOL     OW32224   2.873   3.441  16.475 -0.0419 -0.5128  0.3540
 6921SOL    HW132225   2.925   3.520  16.486 -1.1790  0.1582  1.0059
 6921SOL    HW232226   2.792   3.467  16.520 -0.3359 -1.8548  0.6318
 6922SOL     OW32227   0.918   1.602   4.187 -0.1527  0.1115 -0.0385
 6922SOL    HW132228   0.974   1.533   4.153  0.0216  0.4843 -0.5067
 6922SOL    HW232229   0.984   1.666   4.213  0.9160  0.3577 -3.3899
 6923SOL     OW32230   1.209   3.740   7.200  0.4894  0.4746 -0.9928
 6923SOL    HW132231   1.270   3.698   7.260 -0.1759 -1.0628 -1.3927
 6923SOL    HW232232   1.270   3.767   7.131 -0.6955  2.4768 -1.2581
 6924SOL     OW32233   1.091   3.181   4.951  0.0877 -0.1417  0.5608
 6924SOL    HW132234   1.153   3.253   4.934 -1.6494  1.4487  0.9233
 6924SOL    HW232235   1.076   3.192   5.045  2.5558  0.2220  0.9015
 6925SOL     OW32236   4.442   2.477  10.299 -0.0316 -0.6686  0.5430
 6925SOL    HW132237   4.507   2.523  10.352 -0.4623 -1.6990  1.9869
 6925SOL    HW232238   4.459   2.383  10.310 -1.0579 -1.1709 -2.3207
 6926SOL     OW32239   4.039   3.627   4.871  0.1548 -0.0399  0.7790
 6926SOL    HW132240   4.116   3.681   4.851  0.5307 -1.1243 -0.6621
 6926SOL    HW232241   4.071   3.573   4.943 -0.3012 -0.4530  0.6722
 6927SOL     OW32242   1.086   3.210   5.244  0.3600 -0.2246  0.8697
 6927SOL    HW132243   1.106   3.118   5.260 -0.6212 -0.5769  0.0725
 6927SOL    HW232244   1.117   3.254   5.323  2.0623 -1.1542  0.7144
 6928SOL     OW32245   0.746   2.868   7.350 -0.0568 -0.5650  0.1075
 6928SOL    HW132246   0.821   2.855   7.409 -0.6687 -1.3006  0.7126
 6928SOL    HW232247   0.764   2.949   7.302 -1.6523 -0.4477 -0.2720
 6929SOL     OW32248   3.502   2.600  12.467 -0.4521  0.2209  0.2499
 6929SOL    HW132249   3.515   2.621  12.375  1.3453 -1.6722  0.0884
 6929SOL    HW232250   3.453   2.676  12.500 -0.7288  0.4988 -0.8161
 6930SOL     OW32251   0.629   2.368   1.837  0.4334  0.1246  0.0292
 6930SOL    HW132252   0.554   2.338   1.888  0.3850  0.2546  0.0331
 6930SOL    HW232253   0.708   2.358   1.890  0.1789 -0.6747  0.2717
 6931SOL     OW32254   4.297   2.586   0.673 -0.0202  0.5131  0.1096
 6931SOL    HW132255   4.248   2.531   0.734 -1.5084 -1.1935 -2.6147
 6931SOL    HW232256   4.249   2.668   0.671 -1.1358 -0.1506 -0.4104
 6932SOL     OW32257   3.056   0.207   6.391  0.8598 -0.0267 -0.7499
 6932SOL    HW132258   3.025   0.116   6.387  0.4926  0.0256  0.8316
 6932SOL    HW232259   3.117   0.213   6.465 -1.3212 -0.2929  1.0820
 6933SOL     OW32260   0.496   2.995   7.374  0.0526  0.1069 -0.5522
 6933SOL    HW132261   0.566   2.933   7.354 -1.6338 -1.4864 -1.5112
 6933SOL    HW232262   0.495   3.022   7.466  1.2229 -1.1761 -0.1678
 6934SOL     OW32263   4.277   0.527   5.221 -0.1041  0.5163 -0.5338
 6934SOL    HW132264   4.293   0.620   5.237  1.7053 -0.1642  1.4661
 6934SOL    HW232265   4.223   0.541   5.143  0.7873  2.4617 -0.8034
 6935SOL     OW32266   2.862   1.774   6.431  0.2102 -0.3171  0.3171
 6935SOL    HW132267   2.850   1.743   6.342 -0.1325 -0.2558  0.3441
 6935SOL    HW232268   2.958   1.779   6.434  0.2553 -1.0674  0.2351
 6936SOL     OW32269   3.058   0.614   6.283 -0.3192 -1.3999  0.3592
 6936SOL    HW132270   3.007   0.545   6.240 -2.9884 -1.1099  3.0308
 6936SOL    HW232271   3.119   0.626   6.211  1.1205  0.1190  1.8157
 6937SOL     OW32272   2.997   1.240   1.302 -0.0224 -0.6983 -0.1835
 6937SOL    HW132273   2.979   1.213   1.392 -0.6622 -0.4021 -0.2197
 6937SOL    HW232274   2.924   1.287   1.261  0.2488 -0.6302 -0.5946
 6938SOL     OW32275   0.196   3.838   4.252  0.2713 -0.2149  0.3855
 6938SOL    HW132276   0.118   3.784   4.267 -0.6409  1.1186  0.4076
 6938SOL    HW232277   0.215   3.802   4.165 -2.3181 -0.6216 -0.0015
 6939SOL     OW32278   1.400   1.162   6.037 -0.2952 -0.1424  0.4401
 6939SOL    HW132279   1.365   1.249   6.057 -1.6787 -0.1223 -2.1558
 6939SOL    HW232280   1.456   1.188   5.964 -0.1339 -0.1653  0.5540
 6940SOL     OW32281   0.832   1.621   2.257 -0.0222 -0.5803 -0.1024
 6940SOL    HW132282   0.754   1.675   2.269  1.8456  1.2286  3.9388
 6940SOL    HW232283   0.787   1.550   2.211 -2.2500  0.6745  0.1571
 6941SOL     OW32284   3.637   0.143   0.945 -0.3941  0.6619 -0.3852
 6941SOL    HW132285   3.681   0.171   0.864  0.2261  0.1963 -0.2133
 6941SOL    HW232286   3.660   0.050   0.944 -0.0084  0.7563 -0.4875
 6942SOL     OW32287   1.667   2.155   8.741 -0.2493 -0.1025 -0.1637
 6942SOL    HW132288   1.685   2.068   8.706  3.4226  0.9817 -0.9885
 6942SOL    HW232289   1.629   2.137   8.827 -0.1369 -1.1186 -0.3261
 6943SOL     OW32290   3.606   2.503   4.718  0.0842  0.8911  0.2893
 6943SOL    HW132291   3.566   2.590   4.728  0.8142  1.3006 -0.3411
 6943SOL    HW232292   3.543   2.452   4.769 -0.4952 -0.2686 -1.6037
 6944SOL     OW32293   4.134   2.150   5.640  0.3711  0.2438  0.1393
 6944SOL    HW132294   4.211   2.145   5.697 -0.3724 -0.2371  1.0914
 6944SOL    HW232295   4.154   2.072   5.589  2.4431  0.8917 -0.0347
 6945SOL     OW32296   3.918   0.412  13.330  0.1495 -0.2798  0.2353
 6945SOL    HW132297   4.009   0.384  13.323 -0.3252 -2.0953  1.5699
 6945SOL    HW232298   3.902   0.423  13.424 -1.7919 -0.7799 -0.0259
 6946SOL     OW32299   2.052   0.001   2.628  0.1586 -0.0946  0.2096
 6946SOL    HW132300   2.055   4.642   2.569 -0.8272  0.0161  0.0115
 6946SOL    HW232301   2.132   0.050   2.612 -0.2460  0.4185 -0.2580
 6947SOL     OW32302   0.847   1.887   8.728  0.0534 -0.5479  0.7558
 6947SOL    HW132303   0.926   1.844   8.694 -0.1413 -0.9408  0.8038
 6947SOL    HW232304   0.836   1.939   8.648  0.2082 -0.6595  0.6612
 6948SOL     OW32305   4.707   0.294   6.988  0.3237  0.6410 -0.5664
 6948SOL    HW132306   4.631   0.237   7.002  1.8712 -0.9477  1.3396
 6948SOL    HW232307   0.064   0.234   6.976 -0.5117 -0.7456  1.1903
 6949SOL     OW32308   4.594   4.298  16.847 -0.1768 -0.2334  0.0311
 6949SOL    HW132309   4.638   4.221  16.885 -1.0484 -0.1723  1.1882
 6949SOL    HW232310   4.602   4.366  16.914 -0.5780 -1.1406  1.0150
 6950SOL     OW32311   1.110   2.527   6.416  0.0945 -0.5160 -0.1540
 6950SOL    HW132312   1.084   2.471   6.343 -1.4205 -0.1666  0.1034
 6950SOL    HW232313   1.188   2.566   6.379 -0.4658 -0.6957 -1.5021
 6951SOL     OW32314   4.570   3.531   5.230 -0.3606 -0.4791 -0.9761
 6951SOL    HW132315   4.644   3.470   5.227  0.2778  0.2533  0.1053
 6951SOL    HW232316   4.568   3.573   5.144  0.8316  2.6440  0.5337
 6952SOL     OW32317   0.503   1.348   3.836  0.0825 -0.4152 -0.1637
 6952SOL    HW132318   0.532   1.332   3.926 -0.2228 -2.9257 -0.5310
 6952SOL    HW232319   0.416   1.310   3.825 -0.2365  0.8082 -1.9177
 6953SOL     OW32320   2.525   1.712  15.422  0.2402  0.0476  0.8383
 6953SOL    HW132321   2.613   1.717  15.460  1.0904  0.5969 -1.1616
 6953SOL    HW232322   2.471   1.714  15.501  0.8235 -0.7554  1.2580
 6954SOL     OW32323   2.311   0.549   6.337  0.4375  0.1234  0.0941
 6954SOL    HW132324   2.333   0.464   6.375 -0.2101  0.5939  1.5137
 6954SOL    HW232325   2.315   0.606   6.414  1.8375  3.4540 -2.4423
 6955SOL     OW32326   3.058   0.351   6.162  0.0107 -0.4150  0.2452
 6955SOL    HW132327   3.056   0.305   6.246 -0.8585  1.0748  1.0397
 6955SOL    HW232328   2.970   0.333   6.129  0.3608  0.6836 -1.2690
 6956SOL     OW32329   1.197   1.569   5.563  0.4519 -0.1210 -0.0663
 6956SOL    HW132330   1.164   1.623   5.636  1.7853 -0.0242  0.4697
 6956SOL    HW232331   1.138   1.587   5.490  1.7991  0.7103 -0.9321
 6957SOL     OW32332   1.103   1.310  14.891 -0.0600  0.2858 -0.6151
 6957SOL    HW132333   1.052   1.391  14.890  2.5387  1.9519  0.7633
 6957SOL    HW232334   1.027   1.252  14.892  0.7299 -0.7509 -1.5253
 6958SOL     OW32335   1.258   4.354   3.991 -0.6000  0.0423  0.1978
 6958SOL    HW132336   1.167   4.328   3.979 -0.4611 -0.2441 -0.2462
 6958SOL    HW232337   1.279   4.397   3.908  1.2747 -0.7837  0.2285
 6959SOL     OW32338   4.607   1.969   7.045  0.5073 -0.4916  0.2522
 6959SOL    HW132339   4.668   2.017   6.988  1.4671  2.1928  3.5200
 6959SOL    HW232340   4.658   1.937   7.119  1.5398  1.0150  0.2110
 6960SOL     OW32341   2.663   2.593  10.152 -0.3532 -0.0265  0.0364
 6960SOL    HW132342   2.699   2.567  10.067 -0.3539 -0.0506  0.0433
 6960SOL    HW232343   2.693   2.683  10.139 -0.8540  0.2432  0.7387
 6961SOL     OW32344   3.609   3.562   6.698 -0.4303  0.2256 -0.0211
 6961SOL    HW132345   3.678   3.608   6.650 -0.4843  0.9039  0.5483
 6961SOL    HW232346   3.649   3.476   6.707 -0.8311  0.2347  1.7289
 6962SOL     OW32347   4.034   4.419   1.718 -0.7435 -0.6161 -0.3802
 6962SOL    HW132348   4.066   4.350   1.659  0.2062 -1.8419  1.5801
 6962SOL    HW232349   4.056   4.501   1.673 -0.9116 -0.3739 -0.0165
 6963SOL     OW32350   4.487   1.105  11.576  0.2902 -0.7913  0.6406
 6963SOL    HW132351   4.524   1.191  11.597 -1.0298 -0.6560  2.4637
 6963SOL    HW232352   4.400   1.113  11.615  0.4391  0.7761  0.6705
 6964SOL     OW32353   0.087   1.447   4.205  0.1592 -0.3707  0.5131
 6964SOL    HW132354   0.062   1.385   4.138  0.4074 -0.6352  0.6639
 6964SOL    HW232355   0.007   1.458   4.255  0.3388 -2.1201  1.1630
 6965SOL     OW32356   0.919   2.544  12.441 -0.1239  0.1060  0.2698
 6965SOL    HW132357   0.916   2.548  12.536 -0.1005  1.1187  0.2269
 6965SOL    HW232358   0.825   2.529  12.431  0.0351  0.0109 -1.0647
 6966SOL     OW32359   4.561   1.397   7.771  0.6633  0.0549 -0.5694
 6966SOL    HW132360   4.616   1.322   7.795 -0.3539 -1.4412 -2.8397
 6966SOL    HW232361   4.577   1.455   7.845 -1.7641 -1.5539  1.2374
 6967SOL     OW32362   1.377   0.328   8.211 -0.9069 -0.0707 -0.2909
 6967SOL    HW132363   1.410   0.280   8.136 -0.7905 -1.9482  0.9537
 6967SOL    HW232364   1.341   0.264   8.272 -0.3345 -0.8661 -0.7843
 6968SOL     OW32365   0.928   4.597   4.424 -0.2210 -0.5566 -0.5316
 6968SOL    HW132366   0.854   4.544   4.453  0.9407 -1.3954  0.9151
 6968SOL    HW232367   0.926   4.568   4.333  3.2847 -0.4560 -0.6545
 6969SOL     OW32368   0.759   4.576   0.579  0.1818  0.8978 -0.6920
 6969SOL    HW132369   0.701   4.619   0.641 -1.1280 -1.2198 -0.4696
 6969SOL    HW232370   0.776   4.639   0.508  1.9259  0.6993 -0.4665
 6970SOL     OW32371   1.101   0.053   2.881  0.1998 -0.2401 -0.1669
 6970SOL    HW132372   1.045   0.054   2.803 -0.3577  0.6149  0.2372
 6970SOL    HW232373   1.181   0.082   2.838 -0.6791 -0.3136 -1.8662
 6971SOL     OW32374   2.920   1.347   7.751  0.3147  0.2044  0.3244
 6971SOL    HW132375   2.938   1.393   7.834  2.3743 -2.1994  1.1883
 6971SOL    HW232376   2.854   1.406   7.715 -1.3306 -1.6301  0.3344
 6972SOL     OW32377   1.677   2.745   5.294 -0.0091  0.5904 -0.1929
 6972SOL    HW132378   1.744   2.759   5.227  1.6425  2.9028  1.9918
 6972SOL    HW232379   1.669   2.650   5.286 -0.9444  0.4100  2.8720
 6973SOL     OW32380   0.402   3.638   1.129 -0.2431  0.2700  0.3838
 6973SOL    HW132381   0.323   3.592   1.157  0.1489 -0.1488  0.8036
 6973SOL    HW232382   0.370   3.699   1.063 -3.0432 -0.7563  0.8105
 6974SOL     OW32383   0.895   3.100  12.620  0.6633  0.2611 -0.2764
 6974SOL    HW132384   0.980   3.132  12.588  1.3753  0.7738  2.1722
 6974SOL    HW232385   0.860   3.049  12.546 -0.2192  1.2443 -0.5260
 6975SOL     OW32386   1.014   1.888   5.633 -0.1014 -0.2729 -0.3156
 6975SOL    HW132387   1.071   1.925   5.701 -1.4623 -0.1089  0.7231
 6975SOL    HW232388   0.982   1.810   5.677  0.2118  0.4730  1.2268
 6976SOL     OW32389   2.918   3.459   3.364 -0.0283 -0.4478  0.0049
 6976SOL    HW132390   2.984   3.515   3.405  1.1462 -1.5104 -0.4216
 6976SOL    HW232391   2.982   3.405   3.317  1.6718  0.2306  1.5431
 6977SOL     OW32392   3.932   3.265  17.329  0.3491 -0.6001 -0.3568
 6977SOL    HW132393   3.943   3.360  17.322  0.5881 -0.5873  0.2215
 6977SOL    HW232394   4.024   3.239  17.322  0.4620 -0.1591 -0.5260
 6978SOL     OW32395   3.221   1.721   7.395  0.7913  0.2021  0.7919
 6978SOL    HW132396   3.310   1.700   7.365  0.3465  0.7447 -0.9378
 6978SOL    HW232397   3.172   1.661   7.339  1.2844  1.3531 -0.8861
 6979SOL     OW32398   4.389   0.946   1.202  0.1643 -0.4441  0.1449
 6979SOL    HW132399   4.399   0.978   1.113  0.0011  0.5329  0.4846
 6979SOL    HW232400   4.464   0.889   1.220  0.1529 -0.0352  1.4862
 6980SOL     OW32401   1.475   2.391   3.417 -0.4473 -0.0826 -0.4512
 6980SOL    HW132402   1.540   2.325   3.392  0.0089  0.0660  0.3451
 6980SOL    HW232403   1.517   2.421   3.498  0.2590 -0.9717 -0.4895
 6981SOL     OW32404   2.440   3.373  11.496 -0.2423 -0.0635  0.0251
 6981SOL    HW132405   2.503   3.384  11.426  0.0011 -1.0498  0.0851
 6981SOL    HW232406   2.460   3.442  11.559 -1.9498 -1.0291  1.6300
 6982SOL     OW32407   0.219   3.736   6.245 -0.4100  1.1043  0.1415
 6982SOL    HW132408   0.221   3.677   6.320  2.5084 -2.3894 -2.7028
 6982SOL    HW232409   0.188   3.676   6.177 -4.1272  0.1725  2.6256
 6983SOL     OW32410   2.521   1.397   3.643  0.5627  0.5301  0.1046
 6983SOL    HW132411   2.499   1.318   3.594  0.2229  1.0514 -0.5812
 6983SOL    HW232412   2.430   1.420   3.662  0.6000  0.8381 -0.0793
 6984SOL     OW32413   4.245   3.268   7.113 -0.0248 -0.1015  0.0406
 6984SOL    HW132414   4.221   3.225   7.195  0.1723  0.4087  0.3673
 6984SOL    HW232415   4.254   3.360   7.136  0.6021 -0.0365 -0.4646
 6985SOL     OW32416   2.204   4.165   3.272  0.8289 -0.6842  0.3178
 6985SOL    HW132417   2.169   4.084   3.310 -1.4097  0.9873  1.8676
 6985SOL    HW232418   2.267   4.140   3.205  2.1112  0.3884  1.1239
 6986SOL     OW32419   1.942   3.569   8.357 -0.0337  0.2820  0.7273
 6986SOL    HW132420   1.880   3.607   8.420  1.2799  0.2597  2.0267
 6986SOL    HW232421   2.016   3.548   8.413  0.7621 -0.2836 -0.5382
 6987SOL     OW32422   2.279   2.762   2.383  0.0556  0.1962 -0.3615
 6987SOL    HW132423   2.302   2.767   2.290  0.2666  0.0103 -0.3187
 6987SOL    HW232424   2.273   2.855   2.407 -1.5776  0.6299 -2.4479
 6988SOL     OW32425   3.053   0.343   9.238 -0.5217 -0.4209 -0.2022
 6988SOL    HW132426   3.074   0.437   9.232  0.4483 -0.5771  0.6649
 6988SOL    HW232427   3.071   0.310   9.326 -2.6353 -1.7392 -0.2602
 6989SOL     OW32428   3.815   1.711   6.844 -0.0859  0.2089 -0.0781
 6989SOL    HW132429   3.884   1.726   6.779  0.3881  1.5942  0.7221
 6989SOL    HW232430   3.790   1.804   6.845 -0.2796  0.1715 -1.1053
 6990SOL     OW32431   3.209   3.803   7.299  0.5862 -0.0570 -0.5965
 6990SOL    HW132432   3.250   3.776   7.217  1.0653 -1.6478  0.1517
 6990SOL    HW232433   3.246   3.891   7.309  0.3005 -0.0365  0.3019
 6991SOL     OW32434   4.022   3.595   3.462  0.2073  0.4015  0.0820
 6991SOL    HW132435   3.947   3.542   3.433  1.1182 -0.5951 -0.4345
 6991SOL    HW232436   4.049   3.605   3.371  1.4856  2.5868  0.7049
 6992SOL     OW32437   1.678   1.109   5.436  0.3220 -0.4965 -0.0884
 6992SOL    HW132438   1.755   1.052   5.445  1.3659  1.3485  2.6343
 6992SOL    HW232439   1.658   1.114   5.343  1.4442  2.1723 -0.1633
 6993SOL     OW32440   1.558   4.619   7.246  0.0014  0.3664  0.3172
 6993SOL    HW132441   1.622   4.628   7.317  0.0478 -0.2009  0.3449
 6993SOL    HW232442   1.498   4.550   7.276  1.0419  0.3814  2.4815
 6994SOL     OW32443   3.414   1.888  11.938  0.3450  0.3152  0.3235
 6994SOL    HW132444   3.337   1.832  11.946  0.9836 -0.4966  0.7873
 6994SOL    HW232445   3.384   1.949  11.870  2.4182  0.9533 -0.0169
 6995SOL     OW32446   3.584   1.980   8.753  0.5576 -0.3513 -0.3230
 6995SOL    HW132447   3.528   1.908   8.721 -0.1232  0.8222 -1.7770
 6995SOL    HW232448   3.620   1.943   8.834  0.7083  0.0612 -0.2072
 6996SOL     OW32449   2.982   1.186  15.860 -0.9279  0.2593 -0.5751
 6996SOL    HW132450   2.893   1.221  15.861 -0.8747  0.3489  1.8185
 6996SOL    HW232451   3.040   1.259  15.882  1.4243 -1.5259 -0.7380
 6997SOL     OW32452   4.559   2.574   3.442 -0.0964  0.6059 -0.1989
 6997SOL    HW132453   4.525   2.662   3.459  1.2893  1.1389 -0.1346
 6997SOL    HW232454   4.494   2.539   3.382 -0.3621 -0.0227  0.4550
 6998SOL     OW32455   0.744   2.492   8.243 -0.0135  0.3247  0.2738
 6998SOL    HW132456   0.755   2.539   8.325 -1.7526 -1.0375  1.2840
 6998SOL    HW232457   0.651   2.485   8.224  0.0326  1.0892 -0.2474
 6999SOL     OW32458   2.081   1.417  16.137 -0.4913  0.2013 -0.3783
 6999SOL    HW132459   2.058   1.331  16.101 -3.3213  1.1046 -0.7214
 6999SOL    HW232460   2.103   1.462  16.056 -1.8880  0.2483 -0.7225
 7000SOL     OW32461   4.669   1.734   4.635 -0.2983  0.1671 -0.8613
 7000SOL    HW132462   4.651   1.817   4.591 -1.0014  1.7563  2.4793
 7000SOL    HW232463   4.654   1.671   4.564  1.2300  0.4930 -1.4515
 7001SOL     OW32464   4.040   0.599  10.908  0.4075  0.0227 -0.0326
 7001SOL    HW132465   3.984   0.587  10.984  0.6722 -2.2852 -0.2102
 7001SOL    HW232466   4.091   0.518  10.910 -0.2777 -0.4548 -2.0174
 7002SOL     OW32467   0.254   0.657   4.474  0.1814  0.6095 -0.6359
 7002SOL    HW132468   0.197   0.728   4.501 -0.4550 -0.1888  0.1271
 7002SOL    HW232469   0.338   0.690   4.506 -1.3617  2.9165  0.9910
 7003SOL     OW32470   0.751   3.663   3.490 -0.2838  0.2483  0.0800
 7003SOL    HW132471   0.793   3.610   3.557  1.8601  1.2876 -0.4279
 7003SOL    HW232472   0.700   3.597   3.443 -0.7363  0.3998  0.3630
 7004SOL     OW32473   0.496   1.630   5.510 -0.3581  0.0426  0.3420
 7004SOL    HW132474   0.500   1.642   5.416 -2.0049  1.4182  0.4662
 7004SOL    HW232475   0.529   1.540   5.520  0.0116  0.2270  0.8088
 7005SOL     OW32476   2.026   3.269   0.838  0.6399  0.1407 -0.0510
 7005SOL    HW132477   1.959   3.323   0.797  1.1298  0.0940 -0.9180
 7005SOL    HW232478   1.973   3.191   0.853  0.9035  0.2252  1.3562
 7006SOL     OW32479   1.638   1.404   4.176 -0.3115 -0.0009  0.1001
 7006SOL    HW132480   1.717   1.391   4.124  0.3645 -0.2117  1.1770
 7006SOL    HW232481   1.673   1.386   4.263  1.7232 -0.7986 -0.8944
 7007SOL     OW32482   1.767   4.559   6.651  0.5540 -0.5227  0.2342
 7007SOL    HW132483   1.856   4.525   6.642  0.5350 -0.9927  1.8177
 7007SOL    HW232484   1.756   4.622   6.580  1.4425 -0.7584 -0.1179
 7008SOL     OW32485   2.816   0.702  15.531 -0.5419  0.1142  0.6517
 7008SOL    HW132486   2.814   0.719  15.437  0.9611 -0.9831  0.4167
 7008SOL    HW232487   2.853   0.779  15.573 -2.4616  0.7137  1.2876
 7009SOL     OW32488   0.415   0.798   2.148  0.6358  0.3571  0.2373
 7009SOL    HW132489   0.476   0.725   2.154 -1.1795 -1.1994 -0.4564
 7009SOL    HW232490   0.407   0.837   2.235  1.9108 -0.9016  0.9156
 7010SOL     OW32491   1.964   3.175  14.729 -0.0095 -0.3345 -0.6607
 7010SOL    HW132492   1.878   3.139  14.706 -0.2220  0.7096 -1.5231
 7010SOL    HW232493   1.998   3.181  14.639 -0.2489  1.1493 -0.6608
 7011SOL     OW32494   0.663   2.884   6.967 -0.4091  0.3303 -0.9512
 7011SOL    HW132495   0.705   2.798   6.956 -1.5154 -0.3069 -0.1836
 7011SOL    HW232496   0.583   2.864   7.016  2.3670 -1.6393  2.7086
 7012SOL     OW32497   4.141   2.634   2.415 -0.0497 -0.0335  0.1265
 7012SOL    HW132498   4.080   2.563   2.436 -0.7451  0.5088 -0.0704
 7012SOL    HW232499   4.145   2.631   2.320  3.8750 -2.0049  0.3273
 7013SOL     OW32500   3.726   2.815  15.098 -0.3710  0.2631  0.4187
 7013SOL    HW132501   3.705   2.729  15.062  1.7614 -0.2034  0.2729
 7013SOL    HW232502   3.740   2.859  15.014 -0.3032 -1.5009 -0.4971
 7014SOL     OW32503   3.868   2.308  16.264 -0.1655 -0.2624 -0.2314
 7014SOL    HW132504   3.833   2.385  16.220 -0.8405 -1.0918 -1.1465
 7014SOL    HW232505   3.868   2.245  16.191  1.7629  0.4731 -0.8778
 7015SOL     OW32506   2.217   4.221   0.267 -0.0706 -0.0623 -0.4275
 7015SOL    HW132507   2.189   4.214   0.175 -0.4880 -0.2495 -0.2860
 7015SOL    HW232508   2.230   4.315   0.280 -0.2680 -0.3117  1.5489
 7016SOL     OW32509   4.162   2.141  15.529  0.3461  0.0966  1.3712
 7016SOL    HW132510   4.075   2.180  15.525  1.1220  1.6634  0.2238
 7016SOL    HW232511   4.158   2.098  15.444  1.5787  3.7947 -0.5271
 7017SOL     OW32512   0.630   0.113   6.178 -0.0614  0.1294  0.2436
 7017SOL    HW132513   0.571   0.161   6.119  0.3495 -0.7500 -0.8929
 7017SOL    HW232514   0.658   0.179   6.241 -0.0221  2.1054 -1.8270
 7018SOL     OW32515   2.495   1.798  14.410  0.0109 -0.3046  0.6966
 7018SOL    HW132516   2.505   1.885  14.450  1.6433 -0.1629 -0.0217
 7018SOL    HW232517   2.574   1.752  14.439 -0.0460  0.1052  1.4989
 7019SOL     OW32518   0.115   2.847   2.271 -0.1879  0.5930 -0.0816
 7019SOL    HW132519   0.041   2.819   2.217 -0.3193 -0.2203  0.5189
 7019SOL    HW232520   0.082   2.825   2.358  1.2618 -0.3316  0.2231
 7020SOL     OW32521   1.881   2.136   2.302  0.0664 -0.3580 -0.2835
 7020SOL    HW132522   1.866   2.229   2.316  0.1548 -0.2831 -0.6788
 7020SOL    HW232523   1.907   2.114   2.392  1.3746  0.6303 -0.4103
 7021SOL     OW32524   3.966   0.365   5.155 -0.0542  0.1455  0.1656
 7021SOL    HW132525   4.022   0.413   5.095 -0.0958 -1.1046 -0.8809
 7021SOL    HW232526   4.014   0.385   5.235  1.6520 -0.5441 -0.7011
 7022SOL     OW32527   3.915   3.620   8.747  0.3855 -0.3913  0.6305
 7022SOL    HW132528   3.904   3.623   8.652  0.8454 -0.2245  0.5838
 7022SOL    HW232529   3.884   3.707   8.774 -3.1201 -1.3740 -0.2687
 7023SOL     OW32530   3.848   0.429  13.588 -0.6070 -0.3207 -0.1378
 7023SOL    HW132531   3.875   0.406  13.677 -1.6993 -1.4601 -0.1044
 7023SOL    HW232532   3.792   0.505  13.605 -2.7165 -1.7057 -1.0699
 7024SOL     OW32533   2.034   3.729  14.882  0.3237 -0.2615 -0.1278
 7024SOL    HW132534   2.018   3.703  14.973  2.2627 -1.3259 -0.0901
 7024SOL    HW232535   2.010   3.655  14.826  2.8929  0.1537 -1.7785
 7025SOL     OW32536   1.363   2.143   7.709  0.3525 -0.0905  0.1325
 7025SOL    HW132537   1.398   2.223   7.747  0.3380  0.2180 -0.5056
 7025SOL    HW232538   1.315   2.179   7.634 -0.4714 -1.9602 -0.2272
 7026SOL     OW32539   1.601   1.911   5.425 -0.1976 -0.1146 -0.2470
 7026SOL    HW132540   1.533   1.844   5.412 -0.2603  0.0760 -0.8935
 7026SOL    HW232541   1.555   1.964   5.491 -2.1965  0.3881 -2.0618
 7027SOL     OW32542   3.443   3.928   0.366  0.1523 -0.4038 -0.1337
 7027SOL    HW132543   3.472   3.875   0.441  0.7354 -2.2979 -1.7101
 7027SOL    HW232544   3.353   3.902   0.346 -0.3005  0.5372  0.6496
 7028SOL     OW32545   0.320   2.977   6.190  0.2488 -0.1505  0.2503
 7028SOL    HW132546   0.250   2.993   6.254  0.8065 -1.5286  1.1984
 7028SOL    HW232547   0.384   3.043   6.215  1.6593 -1.5475  0.3391
 7029SOL     OW32548   0.045   3.132   2.316  0.3738  0.3400  0.6480
 7029SOL    HW132549   0.061   3.043   2.285 -0.3376  0.6332 -0.5719
 7029SOL    HW232550   4.697   3.174   2.258  0.1197  1.1123  1.4870
 7030SOL     OW32551   1.730   3.033  16.408 -0.0885 -0.0400 -0.0724
 7030SOL    HW132552   1.766   3.095  16.345  1.2788 -0.4512  0.3006
 7030SOL    HW232553   1.688   2.971  16.347 -0.7632  0.7551 -0.4187
 7031SOL     OW32554   0.337   1.431   9.292  0.1384 -0.2663 -0.1443
 7031SOL    HW132555   0.328   1.416   9.198 -0.2232 -0.8849 -0.0146
 7031SOL    HW232556   0.302   1.349   9.328 -2.1253  1.2876  1.2413
 7032SOL     OW32557   2.126   2.726   0.172 -0.2043 -0.0369  0.1302
 7032SOL    HW132558   2.210   2.686   0.148  0.8846  1.3662  1.5777
 7032SOL    HW232559   2.087   2.734   0.086  1.4211 -0.4562 -0.6492
 7033SOL     OW32560   1.513   0.380   8.507  0.4159  0.2564  0.2017
 7033SOL    HW132561   1.454   0.350   8.577 -1.6379  3.4867 -0.1541
 7033SOL    HW232562   1.506   0.302   8.452 -0.0009  0.9629 -0.7432
 7034SOL     OW32563   0.430   2.218   2.177 -0.0645  0.1432  0.0467
 7034SOL    HW132564   0.408   2.302   2.136  3.2473  1.6450  1.2971
 7034SOL    HW232565   0.470   2.167   2.107  1.2140  0.8086  0.2924
 7035SOL     OW32566   0.938   3.258   9.722 -0.1084 -0.0117 -0.6140
 7035SOL    HW132567   0.982   3.298   9.797  3.1258 -0.0799 -2.4806
 7035SOL    HW232568   0.856   3.305   9.738 -0.0895  0.7725 -2.7238
 7036SOL     OW32569   1.188   3.685   6.301  0.1296 -0.1881  0.3131
 7036SOL    HW132570   1.203   3.729   6.385 -1.0797  1.3555 -0.2740
 7036SOL    HW232571   1.188   3.757   6.239  1.9023 -0.5572 -0.1080
 7037SOL     OW32572   0.607   1.245  17.608  0.0793  0.1463  0.6691
 7037SOL    HW132573   0.551   1.295  17.668 -2.0598 -0.5259 -0.7623
 7037SOL    HW232574   0.553   1.166  17.606  0.1767  0.1300 -1.2913
 7038SOL     OW32575   3.900   1.580   5.704  0.3100 -0.6766  0.1332
 7038SOL    HW132576   3.832   1.623   5.755 -0.4268  0.0341 -1.4507
 7038SOL    HW232577   3.982   1.610   5.744  0.8215 -0.0569 -1.3834
 7039SOL     OW32578   2.308   0.148   0.101 -0.0929  0.1062 -0.2777
 7039SOL    HW132579   2.310   0.157   0.197 -0.3217  1.0975 -0.3729
 7039SOL    HW232580   2.392   0.193   0.091  0.4290 -1.1046 -1.2981
 7040SOL     OW32581   4.571   0.751   7.968 -0.2898 -0.0422 -0.4390
 7040SOL    HW132582   4.491   0.711   7.935 -0.2744 -1.7077  1.5408
 7040SOL    HW232583   4.546   0.769   8.058  0.9655 -1.7958  0.2757
 7041SOL     OW32584   1.799   0.697  14.507  0.2188  0.7022  0.6522
 7041SOL    HW132585   1.735   0.742  14.562 -0.8198 -0.1748  0.1569
 7041SOL    HW232586   1.733   0.668  14.443  0.9832 -1.5845  0.9201
 7042SOL     OW32587   0.430   1.304   7.462 -0.0082 -0.1446  0.0437
 7042SOL    HW132588   0.411   1.257   7.381 -1.1450  2.0524 -0.9527
 7042SOL    HW232589   0.377   1.260   7.528 -1.4004 -2.1340 -2.3698
 7043SOL     OW32590   0.296   3.397   0.898 -0.0048 -0.2489 -0.5495
 7043SOL    HW132591   0.250   3.481   0.898 -3.7443 -2.2589 -0.5149
 7043SOL    HW232592   0.233   3.340   0.853  1.0211 -2.7573  1.2074
 7044SOL     OW32593   3.117   0.250   5.218 -0.0092 -0.3537 -0.0322
 7044SOL    HW132594   3.197   0.221   5.173 -2.3493 -4.4503 -1.5459
 7044SOL    HW232595   3.107   0.172   5.272  0.0153  0.1194  0.6481
 7045SOL     OW32596   1.343   4.564   4.882  0.4892 -0.5123 -0.5319
 7045SOL    HW132597   1.410   4.507   4.846  0.8441 -0.8586  0.6781
 7045SOL    HW232598   1.313   4.526   4.965  0.2545  0.1287 -0.3187
 7046SOL     OW32599   2.306   2.757  12.918  0.2559  0.0173 -0.8145
 7046SOL    HW132600   2.291   2.851  12.929  1.2857  0.2059 -0.9507
 7046SOL    HW232601   2.397   2.759  12.889  0.3365 -0.7039 -0.6189
 7047SOL     OW32602   2.167   3.575   5.249  0.0052  0.1205  0.2604
 7047SOL    HW132603   2.088   3.536   5.287 -0.5496  1.1739  0.1750
 7047SOL    HW232604   2.238   3.572   5.313 -1.0480  0.9047  1.4505
 7048SOL     OW32605   1.138   2.447  16.336  0.3602 -0.3818 -0.3527
 7048SOL    HW132606   1.109   2.509  16.403 -2.1268 -1.0723 -0.7638
 7048SOL    HW232607   1.195   2.505  16.286  0.7774  0.8103  1.4859
 7049SOL     OW32608   3.915   3.753  10.441  0.2916  0.4192  0.3025
 7049SOL    HW132609   3.894   3.807  10.518 -1.0838  0.9053 -0.4105
 7049SOL    HW232610   3.865   3.805  10.378  0.6637 -1.6510 -1.6743
 7050SOL     OW32611   0.614   0.670   2.552 -0.6556  0.2969  0.1437
 7050SOL    HW132612   0.667   0.655   2.474  1.7109  1.9291  1.4349
 7050SOL    HW232613   0.624   0.580   2.583  0.0750 -0.2355 -1.6221
 7051SOL     OW32614   3.432   2.812   9.662 -0.5398 -0.2149 -0.1924
 7051SOL    HW132615   3.444   2.832   9.569 -1.3058 -0.7407 -0.4020
 7051SOL    HW232616   3.353   2.864   9.676 -1.1330 -1.3582  0.6563
 7052SOL     OW32617   4.270   0.916   5.850 -0.3198  0.9045  0.1593
 7052SOL    HW132618   4.291   0.855   5.921  1.5291  1.0290 -0.2792
 7052SOL    HW232619   4.177   0.895   5.853 -0.1318  0.3483  1.9750
 7053SOL     OW32620   2.096   3.980   8.396  0.2913 -0.2838 -0.3656
 7053SOL    HW132621   2.111   4.027   8.477 -1.6876 -1.1352  0.4939
 7053SOL    HW232622   2.036   4.038   8.348 -1.4778  0.8058  3.2016
 7054SOL     OW32623   3.537   1.256  11.418  0.1999  0.1967  0.0476
 7054SOL    HW132624   3.524   1.268  11.323 -1.4185 -0.7384  0.1486
 7054SOL    HW232625   3.616   1.309  11.422  1.4971 -1.8149  1.0562
 7055SOL     OW32626   3.632   2.546   3.822  0.2422  0.1045 -0.1364
 7055SOL    HW132627   3.673   2.512   3.742 -0.3251  0.5087 -0.5923
 7055SOL    HW232628   3.695   2.608   3.858 -1.0894  1.6140 -0.4449
 7056SOL     OW32629   1.156   2.131   8.504 -0.1424 -0.2811 -0.1451
 7056SOL    HW132630   1.233   2.169   8.547  0.1528  0.7761 -1.6068
 7056SOL    HW232631   1.103   2.211   8.509 -0.0577 -0.3429  1.7218
 7057SOL     OW32632   1.214   0.641   6.682  1.1153  0.4504 -0.1456
 7057SOL    HW132633   1.234   0.587   6.758 -4.1630 -0.9874  0.2565
 7057SOL    HW232634   1.141   0.592   6.644  0.7841  0.9902 -0.2064
 7058SOL     OW32635   2.267   4.531   0.002  0.1306 -0.3341 -0.3360
 7058SOL    HW132636   2.258   4.542   0.097  1.3954 -0.9910 -0.1460
 7058SOL    HW232637   2.357   4.557  17.654  0.0744 -0.9618 -1.5263
 7059SOL     OW32638   3.285   1.564   4.424  0.2172  0.5043  0.3880
 7059SOL    HW132639   3.272   1.493   4.361  3.4099  1.2981 -1.1550
 7059SOL    HW232640   3.247   1.642   4.383 -0.6986 -0.9181 -1.4862
 7060SOL     OW32641   0.041   2.756   1.416 -0.2712  0.0193 -0.1721
 7060SOL    HW132642   0.130   2.786   1.431  0.3752 -1.4033 -1.1402
 7060SOL    HW232643   0.053   2.718   1.329 -0.4922  1.7236 -0.9705
 7061SOL     OW32644   0.521   3.326   7.516  0.1176  0.4965 -0.1200
 7061SOL    HW132645   0.596   3.294   7.467 -1.0096 -0.0654 -1.4725
 7061SOL    HW232646   0.451   3.300   7.456  0.3586  2.0064 -1.0333
 7062SOL     OW32647   0.797   0.312  17.598  0.1757  0.9262  0.4285
 7062SOL    HW132648   0.756   0.324   0.014 -1.9976 -0.5224 -0.3886
 7062SOL    HW232649   0.749   0.374  17.542  2.1246  2.4956  0.4855
 7063SOL     OW32650   0.483   2.121   4.353 -0.0383 -0.0473  0.2949
 7063SOL    HW132651   0.398   2.088   4.383  0.2873  1.0836  2.4601
 7063SOL    HW232652   0.539   2.044   4.369  1.7443  1.0638 -0.6523
 7064SOL     OW32653   0.596   0.750  15.136 -0.3555  0.5069 -0.1609
 7064SOL    HW132654   0.610   0.668  15.184  1.3122  1.1804  0.5063
 7064SOL    HW232655   0.547   0.717  15.061 -1.7912  0.2100  0.9046
 7065SOL     OW32656   1.512   2.444  17.340 -0.0710  0.5236  0.0144
 7065SOL    HW132657   1.575   2.372  17.340 -0.1659  0.4339 -1.1644
 7065SOL    HW232658   1.563   2.507  17.391  1.4584 -1.2757  0.6775
 7066SOL     OW32659   0.711   1.322   7.662  0.1883  0.2943  0.4453
 7066SOL    HW132660   0.753   1.360   7.584 -0.5169 -3.4670 -1.7700
 7066SOL    HW232661   0.651   1.394   7.678  1.3041  0.8076  2.3233
 7067SOL     OW32662   1.572   1.240  16.737 -0.7746 -0.0620 -0.0396
 7067SOL    HW132663   1.484   1.215  16.711 -0.5614 -0.0587 -0.7483
 7067SOL    HW232664   1.623   1.162  16.714 -0.3733  0.5994 -1.3505
 7068SOL     OW32665   0.891   2.494   3.946 -0.3055  0.1814 -0.0188
 7068SOL    HW132666   0.813   2.497   3.891  0.1866 -0.4733 -0.7546
 7068SOL    HW232667   0.933   2.422   3.898 -1.4220  1.0172 -2.2253
 7069SOL     OW32668   0.256   1.426  17.211 -0.6201  0.5200 -0.0526
 7069SOL    HW132669   0.305   1.381  17.279  0.8140  1.7853 -0.2570
 7069SOL    HW232670   0.187   1.359  17.205  0.1184 -0.3130  1.0035
 7070SOL     OW32671   4.706   2.174   6.692 -0.0587 -0.2471 -0.4873
 7070SOL    HW132672   4.658   2.246   6.733  0.7759 -0.0799  0.1831
 7070SOL    HW232673   0.000   2.206   6.602 -2.4062  0.1575 -0.6400
 7071SOL     OW32674   2.396   4.522  14.062  0.1312  0.0148  0.2281
 7071SOL    HW132675   2.375   4.592  13.999  1.9534  0.0545 -0.3521
 7071SOL    HW232676   2.470   4.489  14.011 -0.3528 -0.6669 -0.0261
 7072SOL     OW32677   0.596   1.538   9.340 -0.5305 -0.2303  0.8606
 7072SOL    HW132678   0.541   1.607   9.375  1.0662  0.7406  1.4214
 7072SOL    HW232679   0.535   1.465   9.355  0.6785 -1.2688  0.7308
 7073SOL     OW32680   0.842   2.448   5.176  0.3857  0.5759  0.6683
 7073SOL    HW132681   0.897   2.371   5.188  0.0913  0.4290  1.0547
 7073SOL    HW232682   0.809   2.429   5.088 -0.6092  2.3433  0.6553
 7074SOL     OW32683   0.849   4.620  13.280 -0.0913  0.0739 -0.5073
 7074SOL    HW132684   0.918   4.554  13.282  2.1128  2.4051  0.3963
 7074SOL    HW232685   0.773   4.562  13.275  0.8763 -1.1538 -1.0530
 7075SOL     OW32686   1.914   0.278   6.626  0.9074 -0.1872  0.5836
 7075SOL    HW132687   1.942   0.192   6.593 -0.6115  0.3377 -2.0644
 7075SOL    HW232688   1.984   0.284   6.691 -0.2188  0.0383  1.7619
 7076SOL     OW32689   3.951   1.595   6.549  0.7232  0.2630  0.0197
 7076SOL    HW132690   3.868   1.634   6.522 -0.1747 -1.2129  0.6919
 7076SOL    HW232691   3.989   1.579   6.462  1.0239 -1.9245  0.5546
 7077SOL     OW32692   1.242   1.475   0.484  0.7983 -0.0221 -0.8439
 7077SOL    HW132693   1.251   1.506   0.574  0.0562 -2.3248 -0.0023
 7077SOL    HW232694   1.333   1.492   0.460  0.8333 -0.2699 -0.8829
 7078SOL     OW32695   3.030   1.792  16.908  0.2015 -0.0432  0.4560
 7078SOL    HW132696   3.110   1.745  16.882  0.3593  1.5231 -1.9510
 7078SOL    HW232697   3.074   1.855  16.965 -1.3163  0.1229  1.4479
 7079SOL     OW32698   0.867   2.857   1.119 -0.1669 -0.0011 -0.2210
 7079SOL    HW132699   0.867   2.944   1.159  0.9017  0.6513 -1.5869
 7079SOL    HW232700   0.774   2.842   1.108 -0.2130  0.6452 -0.7723
 7080SOL     OW32701   3.823   0.347  13.875  0.7443  0.5460  0.5203
 7080SOL    HW132702   3.798   0.384  13.960  0.1252 -1.2471  1.1142
 7080SOL    HW232703   3.735   0.345  13.837  1.2289  0.5159 -0.6020
 7081SOL     OW32704   3.232   4.654   6.569  0.0564 -0.2183  0.0185
 7081SOL    HW132705   3.228   0.032   6.555 -1.9771 -0.4753 -1.0437
 7081SOL    HW232706   3.266   4.639   6.481  0.2214 -0.3224  0.0991
 7082SOL     OW32707   3.151   2.358   3.652  0.2079 -0.2747 -0.5152
 7082SOL    HW132708   3.133   2.266   3.630  0.8766 -0.3265 -0.8592
 7082SOL    HW232709   3.236   2.357   3.696  1.1935  0.1981 -2.4008
 7083SOL     OW32710   3.287   0.845   2.055 -0.0669 -0.3959  1.2372
 7083SOL    HW132711   3.226   0.772   2.046  0.2133 -0.5294  0.5092
 7083SOL    HW232712   3.339   0.819   2.131  0.6127  0.9852  1.2406
 7084SOL     OW32713   2.912   0.895   8.383 -0.2496  0.2353 -0.6605
 7084SOL    HW132714   2.963   0.841   8.322 -1.9315 -2.8147  0.6818
 7084SOL    HW232715   2.909   0.840   8.461  1.7804  2.1901  0.8216
 7085SOL     OW32716   3.805   2.823   5.719  0.1741  0.0776 -0.1274
 7085SOL    HW132717   3.711   2.838   5.714  0.0869  0.0624  1.4777
 7085SOL    HW232718   3.798   2.730   5.736 -0.3222  0.0309 -0.5796
 7086SOL     OW32719   3.180   1.302   5.642  0.2646 -0.2732 -0.0256
 7086SOL    HW132720   3.270   1.274   5.659 -0.1681 -2.3002 -1.1173
 7086SOL    HW232721   3.169   1.357   5.719 -0.3070  0.5236 -0.6786
 7087SOL     OW32722   3.151   1.994  14.498  0.4846  0.1822  0.3006
 7087SOL    HW132723   3.113   1.944  14.426  0.7809 -0.2669  0.4565
 7087SOL    HW232724   3.154   1.921  14.561  1.4961  0.5169  0.6393
 7088SOL     OW32725   1.579   0.626  14.348 -0.2858 -0.3782  1.0032
 7088SOL    HW132726   1.537   0.607  14.431 -1.6665  0.2030  0.4414
 7088SOL    HW232727   1.573   0.721  14.350 -0.2918 -0.3457 -0.4229
 7089SOL     OW32728   2.318   1.237   7.981 -0.0347  0.5871 -0.2994
 7089SOL    HW132729   2.352   1.154   8.015 -1.7216  0.8420  2.0052
 7089SOL    HW232730   2.222   1.230   7.983  0.2261 -1.7848  2.5755
 7090SOL     OW32731   1.074   2.477   2.776  0.2964 -0.5305 -0.1987
 7090SOL    HW132732   1.144   2.482   2.842  2.3719  1.7525 -2.6102
 7090SOL    HW232733   1.009   2.451   2.842  0.5862  0.3573  0.4352
 7091SOL     OW32734   2.333   1.662   7.379  0.3804 -0.3404 -0.1658
 7091SOL    HW132735   2.240   1.653   7.398  0.2583  1.4417  0.0759
 7091SOL    HW232736   2.349   1.755   7.396 -0.3207  0.0022 -1.3905
 7092SOL     OW32737   3.595   1.457   3.595  0.8602  0.7815 -0.0465
 7092SOL    HW132738   3.644   1.444   3.676  1.5168 -0.8590 -0.6897
 7092SOL    HW232739   3.544   1.536   3.610 -0.4798  0.2606 -1.8721
 7093SOL     OW32740   1.140   1.067  14.312 -0.6857  0.2075 -0.3788
 7093SOL    HW132741   1.217   1.030  14.270  0.7234  0.4265  2.0207
 7093SOL    HW232742   1.102   1.118  14.240  0.0601 -0.6884 -1.4179
 7094SOL     OW32743   2.892   3.683  10.649 -0.2940  0.1919 -0.1298
 7094SOL    HW132744   2.945   3.636  10.713 -0.8923 -1.8346 -1.1242
 7094SOL    HW232745   2.928   3.680  10.561 -2.9068  1.8401 -1.2413
 7095SOL     OW32746   0.171   3.386  11.167 -0.0008 -0.3503  0.3756
 7095SOL    HW132747   0.259   3.349  11.164  0.5694  1.0333  0.1977
 7095SOL    HW232748   0.127   3.307  11.136  0.6281 -0.8154  0.6762
 7096SOL     OW32749   3.390   2.839   5.994 -0.0686  0.1514  0.1814
 7096SOL    HW132750   3.355   2.916   5.949 -0.2558  0.8724  1.5770
 7096SOL    HW232751   3.467   2.868   6.042 -0.7353  0.1263  1.2567
 7097SOL     OW32752   0.814   0.901   3.797  0.2502  0.0752  0.2802
 7097SOL    HW132753   0.810   0.810   3.827  1.4049  0.4125  1.4236
 7097SOL    HW232754   0.737   0.935   3.842 -0.9239 -1.4563 -0.5627
 7098SOL     OW32755   2.042   2.667   4.417  0.0774  0.1346 -0.9103
 7098SOL    HW132756   1.992   2.587   4.434 -1.4185  0.6860 -2.8045
 7098SOL    HW232757   2.043   2.667   4.322 -1.8223  0.4068 -0.9163
 7099SOL     OW32758   1.845   2.316   3.590 -0.3401 -0.4518  0.1961
 7099SOL    HW132759   1.938   2.320   3.612 -0.3067 -0.6003  0.0828
 7099SOL    HW232760   1.809   2.366   3.662  0.1778 -0.5466  0.5230
 7100SOL     OW32761   4.179   2.494   2.869  0.1079 -0.1841  0.0551
 7100SOL    HW132762   4.100   2.448   2.840  0.8245 -2.0806  1.0946
 7100SOL    HW232763   4.147   2.544   2.945 -1.0573  1.2369 -1.3578
 7101SOL     OW32764   0.246   2.998   8.381 -0.0132 -0.1595  0.5220
 7101SOL    HW132765   0.162   3.011   8.424 -0.2216 -0.0788  0.0937
 7101SOL    HW232766   0.224   2.920   8.331 -2.5879 -1.5245  3.7930
 7102SOL     OW32767   0.770   0.294  15.575 -0.4165 -0.2680 -0.6637
 7102SOL    HW132768   0.726   0.209  15.579  0.2371 -0.6081 -0.7826
 7102SOL    HW232769   0.792   0.311  15.667 -2.4865  0.4205 -0.2903
 7103SOL     OW32770   1.210   0.554   5.193  0.3224 -0.1449  0.0981
 7103SOL    HW132771   1.218   0.520   5.104  2.2107  2.4831 -0.7092
 7103SOL    HW232772   1.148   0.488   5.224  1.5444 -1.3497 -0.0173
 7104SOL     OW32773   1.174   2.492   9.290 -0.2221 -0.2007 -0.3513
 7104SOL    HW132774   1.140   2.578   9.266  1.2655  0.3841 -0.3522
 7104SOL    HW232775   1.251   2.517   9.340 -0.8007  1.8580 -0.5257
 7105SOL     OW32776   3.004   0.876   5.041 -0.5320 -0.0359  0.0165
 7105SOL    HW132777   3.009   0.864   4.946  1.5727 -0.3011  0.1776
 7105SOL    HW232778   3.059   0.809   5.082 -2.3022 -0.5905  1.4828
 7106SOL     OW32779   1.375   2.388   6.180  0.0356 -0.0392  0.0946
 7106SOL    HW132780   1.359   2.296   6.197  2.1957 -0.4175  0.0742
 7106SOL    HW232781   1.304   2.403   6.117  0.8720  2.7006 -0.2000
 7107SOL     OW32782   1.981   3.373   8.107  0.2301 -0.3952  0.1713
 7107SOL    HW132783   1.958   3.364   8.199  1.3849  2.1244  0.7265
 7107SOL    HW232784   1.958   3.283   8.085 -0.4966 -0.3472  0.7421
 7108SOL     OW32785   1.481   3.618   3.912 -0.4224 -0.2460  0.3689
 7108SOL    HW132786   1.513   3.627   4.001  1.6097 -1.9029 -0.1945
 7108SOL    HW232787   1.535   3.689   3.875  0.5315  0.1420  2.4938
 7109SOL     OW32788   4.121   2.221   8.068 -0.0705  0.5409  0.6559
 7109SOL    HW132789   4.040   2.269   8.051  1.2721  2.8764  0.9081
 7109SOL    HW232790   4.135   2.264   8.152  1.6104  2.0280 -0.3834
 7110SOL     OW32791   2.481   2.352  15.494 -0.4542 -0.1622 -0.4490
 7110SOL    HW132792   2.412   2.417  15.507  0.0037  0.4825 -1.2921
 7110SOL    HW232793   2.450   2.279  15.548  0.5015 -1.7486 -2.0580
 7111SOL     OW32794   2.731   2.474   9.701  0.4972  1.0338  0.3146
 7111SOL    HW132795   2.647   2.503   9.737  0.2234  0.6887 -0.0511
 7111SOL    HW232796   2.707   2.466   9.609  0.6558 -2.8068  0.6091
 7112SOL     OW32797   3.295   1.255   9.153 -0.3530  0.7432  0.0284
 7112SOL    HW132798   3.228   1.190   9.134 -0.4107  0.8992 -0.2881
 7112SOL    HW232799   3.240   1.324   9.189  0.7293  2.2234 -1.1946
 7113SOL     OW32800   4.436   1.159   0.500 -0.0617 -0.3583  0.5932
 7113SOL    HW132801   4.468   1.106   0.427 -2.5422 -0.3449 -0.4882
 7113SOL    HW232802   4.519   1.157   0.547  0.7041  1.0117 -0.7084
 7114SOL     OW32803   2.097   1.680  10.343 -0.3379  0.0846  0.0411
 7114SOL    HW132804   2.003   1.670  10.358 -0.0334 -3.1652 -0.2578
 7114SOL    HW232805   2.127   1.738  10.413 -0.3434 -1.3551  1.2393
 7115SOL     OW32806   0.939   3.344   8.984 -0.0472  0.0974 -0.1877
 7115SOL    HW132807   0.912   3.434   9.005 -1.8580 -0.4872 -0.0422
 7115SOL    HW232808   0.996   3.312   9.054  1.0403 -0.7482 -1.4539
 7116SOL     OW32809   1.363   2.590   2.474 -0.3712  0.2300 -0.4841
 7116SOL    HW132810   1.446   2.636   2.463 -0.5217  0.3599 -1.0399
 7116SOL    HW232811   1.363   2.545   2.390  0.9011 -1.4364  0.3815
 7117SOL     OW32812   1.066   3.870  10.169 -0.0588 -0.6557  0.1720
 7117SOL    HW132813   0.971   3.863  10.165 -0.1129  0.2942 -0.3071
 7117SOL    HW232814   1.093   3.846  10.080 -1.1529 -0.8995 -0.0866
 7118SOL     OW32815   2.087   0.849  17.619 -0.2844  0.1106 -0.0057
 7118SOL    HW132816   2.180   0.863  17.604 -0.4010  0.9420  0.0671
 7118SOL    HW232817   2.063   0.913   0.016 -1.9343  0.0335 -0.5218
 7119SOL     OW32818   1.153   3.997   1.285 -0.3183 -0.4070 -0.2465
 7119SOL    HW132819   1.116   3.983   1.198  0.2373  0.4858 -0.6347
 7119SOL    HW232820   1.242   3.966   1.267  0.1993  0.9207  0.0354
 7120SOL     OW32821   3.302   3.299  17.283 -0.0698 -0.0986 -0.4035
 7120SOL    HW132822   3.345   3.384  17.277 -1.9134  0.7707 -1.0376
 7120SOL    HW232823   3.215   3.320  17.319  0.3430  0.7713  0.0979
 7121SOL     OW32824   3.295   0.848   6.984  0.3312  0.1840 -0.2079
 7121SOL    HW132825   3.275   0.918   7.046 -1.5031 -0.8290  0.3356
 7121SOL    HW232826   3.315   0.901   6.907 -0.4723  0.0358 -0.5178
 7122SOL     OW32827   3.475   3.718  12.042 -0.6764 -0.0001 -0.2987
 7122SOL    HW132828   3.479   3.793  11.984  0.8368 -0.7958 -1.2071
 7122SOL    HW232829   3.537   3.747  12.109  0.9843 -1.9225 -1.0028
 7123SOL     OW32830   2.883   1.089   2.849 -0.4246  0.7778  0.4316
 7123SOL    HW132831   2.890   1.030   2.924  0.3507  0.2221 -0.0704
 7123SOL    HW232832   2.964   1.138   2.836  1.2493 -2.2720 -0.7131
 7124SOL     OW32833   0.833   0.692  11.785 -0.2646 -0.3030  0.0023
 7124SOL    HW132834   0.851   0.727  11.698  2.5287  1.2071  1.1616
 7124SOL    HW232835   0.738   0.695  11.775 -0.1497 -3.1175 -1.7982
 7125SOL     OW32836   3.791   2.156   4.277  0.0537 -0.0883  0.0630
 7125SOL    HW132837   3.720   2.203   4.321 -1.9886 -2.6954 -0.4539
 7125SOL    HW232838   3.783   2.176   4.184 -0.5773  0.8095  0.3090
 7126SOL     OW32839   1.275   4.343   3.611 -0.0141  0.0720 -0.0113
 7126SOL    HW132840   1.342   4.277   3.594 -0.8112 -0.6424 -0.3847
 7126SOL    HW232841   1.205   4.300   3.561 -0.5272 -0.4514  1.1523
 7127SOL     OW32842   2.470   2.892   6.872  0.0320  0.0439 -0.1717
 7127SOL    HW132843   2.478   2.920   6.781  1.7883 -1.7722 -0.5635
 7127SOL    HW232844   2.497   2.800   6.872 -1.8084 -0.5105  0.8196
 7128SOL     OW32845   3.444   1.768   8.609  0.6219 -0.1401  0.2530
 7128SOL    HW132846   3.428   1.706   8.680  0.8922  0.3744  0.7673
 7128SOL    HW232847   3.518   1.725   8.566  0.3686  0.0491 -0.3730
 7129SOL     OW32848   1.468   2.434   6.988 -0.0472  0.2367 -0.4710
 7129SOL    HW132849   1.389   2.485   7.004 -0.1547 -0.2650  0.5965
 7129SOL    HW232850   1.433   2.352   6.954 -1.7080  1.0073 -0.5832
 7130SOL     OW32851   0.715   3.571   2.062 -0.1467 -0.3749  0.6179
 7130SOL    HW132852   0.763   3.512   2.005 -1.6709  0.6814 -1.7841
 7130SOL    HW232853   0.686   3.507   2.127  2.4571 -0.9548  1.1787
 7131SOL     OW32854   0.413   0.075   3.388  0.0773  0.3459  0.4754
 7131SOL    HW132855   0.463   0.155   3.403  3.3162 -1.5700 -0.2262
 7131SOL    HW232856   0.430   0.030   3.471 -1.2227 -0.4177  0.3402
 7132SOL     OW32857   0.375   0.501   1.973  0.3394  0.1496 -0.3369
 7132SOL    HW132858   0.393   0.408   1.989  0.2706  0.2404  0.2739
 7132SOL    HW232859   0.465   0.530   1.988  0.2049 -0.7126  2.0589
 7133SOL     OW32860   0.992   2.785  12.655  0.0332 -0.4488  0.7178
 7133SOL    HW132861   0.972   2.826  12.740  3.1545  1.2080  0.6441
 7133SOL    HW232862   0.941   2.705  12.658 -1.4419  0.5959  3.4642
 7134SOL     OW32863   2.536   0.483   3.355 -0.1038 -0.4546  0.1476
 7134SOL    HW132864   2.481   0.425   3.302  0.2304  0.1480 -0.8638
 7134SOL    HW232865   2.615   0.463   3.304  1.7445  0.4571  2.6553
 7135SOL     OW32866   3.749   2.051   9.337 -0.1868 -0.0846  0.6262
 7135SOL    HW132867   3.742   1.976   9.396 -0.8115 -0.3825  0.1682
 7135SOL    HW232868   3.781   2.123   9.392 -1.5879  1.6251 -0.8071
 7136SOL     OW32869   1.509   2.146   1.399  0.1246  0.0850  0.3157
 7136SOL    HW132870   1.476   2.227   1.438  0.3215  1.2461 -1.9076
 7136SOL    HW232871   1.479   2.080   1.461  0.1041 -2.0037 -1.8740
 7137SOL     OW32872   1.006   2.715  15.658  0.4932  0.1616  0.3551
 7137SOL    HW132873   0.995   2.727  15.752  1.4135  0.7469  0.3957
 7137SOL    HW232874   0.928   2.671  15.626  0.9652 -0.6402  0.3084
 7138SOL     OW32875   2.979   1.429   3.936 -0.1703  0.0563 -0.2562
 7138SOL    HW132876   2.905   1.373   3.914 -1.8001  2.3874 -0.7427
 7138SOL    HW232877   3.039   1.358   3.960 -2.8142 -1.8741  0.5714
 7139SOL     OW32878   0.914   0.999   1.295  0.4063  0.1307  0.3262
 7139SOL    HW132879   0.841   1.049   1.331  0.9019  1.8973 -1.1461
 7139SOL    HW232880   0.873   0.915   1.275  0.1766  0.7011 -1.6606
 7140SOL     OW32881   2.798   4.044   1.350 -0.2311 -0.3467 -0.0492
 7140SOL    HW132882   2.751   4.008   1.275 -0.4188  0.0984 -0.1515
 7140SOL    HW232883   2.803   4.139   1.337 -0.8120 -0.2061  0.7555
 7141SOL     OW32884   0.868   4.106   0.396 -0.2889  0.0427  0.2341
 7141SOL    HW132885   0.873   4.201   0.397  2.9731 -0.0973 -1.2930
 7141SOL    HW232886   0.773   4.096   0.393 -0.0573 -1.2463 -3.6173
 7142SOL     OW32887   1.917   1.684   0.607 -0.2469  0.8935  0.1026
 7142SOL    HW132888   1.852   1.615   0.593 -1.0612  1.4286  1.2428
 7142SOL    HW232889   1.904   1.734   0.527  0.5264  2.1131  0.7384
 7143SOL     OW32890   3.420   0.924   6.577 -0.5626 -0.5267 -0.0993
 7143SOL    HW132891   3.329   0.949   6.564 -0.2913 -0.1357 -1.2770
 7143SOL    HW232892   3.433   0.964   6.663 -0.4200 -0.1809 -0.2817
 7144SOL     OW32893   2.183   3.022   8.513 -0.3063  0.4592 -0.1654
 7144SOL    HW132894   2.114   3.088   8.507  0.4535  1.3123  0.4655
 7144SOL    HW232895   2.139   2.961   8.572 -0.3213 -0.1250 -0.7808
 7145SOL     OW32896   1.338   3.081   8.720 -0.4123 -0.0408 -0.3072
 7145SOL    HW132897   1.325   3.165   8.676  0.2033 -0.0838 -0.5639
 7145SOL    HW232898   1.302   3.087   8.809 -1.7484 -1.0598 -0.7798
 7146SOL     OW32899   4.457   3.094   6.096 -0.5597  0.4144 -0.1657
 7146SOL    HW132900   4.504   3.072   6.175 -3.2566 -1.5713  0.8939
 7146SOL    HW232901   4.442   3.004   6.066  2.9525 -0.1949 -0.0756
 7147SOL     OW32902   1.522   2.621  10.021  0.1834  0.1223  0.0447
 7147SOL    HW132903   1.583   2.668  10.078  1.1195  0.0694 -0.9322
 7147SOL    HW232904   1.445   2.620  10.079  0.8792  2.3594  1.0180
 7148SOL     OW32905   2.071   1.276  11.781 -0.0914  0.3912  0.2341
 7148SOL    HW132906   2.015   1.334  11.730 -1.2989 -1.8820 -1.0404
 7148SOL    HW232907   2.141   1.262  11.717 -1.4029 -1.9721 -0.6997
 7149SOL     OW32908   1.690   3.963   7.474  0.3005  0.4987  0.0707
 7149SOL    HW132909   1.606   3.976   7.431  0.7205  2.0014 -0.2861
 7149SOL    HW232910   1.753   3.961   7.402  0.0902  0.7259 -0.1200
 7150SOL     OW32911   4.164   4.236  11.556 -0.5398 -0.2911  0.0211
 7150SOL    HW132912   4.243   4.247  11.502 -0.2138  1.8775  0.9486
 7150SOL    HW232913   4.103   4.239  11.482 -0.9345 -1.5463  0.3072
 7151SOL     OW32914   2.147   2.710  12.576 -0.3031 -0.3548 -0.3275
 7151SOL    HW132915   2.134   2.628  12.530 -0.8748 -0.9114  0.8191
 7151SOL    HW232916   2.135   2.686  12.668  1.1256  2.1274  0.5130
 7152SOL     OW32917   4.603   3.550  12.468 -0.2536  0.7783 -0.3718
 7152SOL    HW132918   4.655   3.515  12.540 -2.4692 -0.5238  0.6278
 7152SOL    HW232919   4.530   3.582  12.521  0.9848 -0.3797  1.9931
 7153SOL     OW32920   2.960   0.280   9.757  0.1265  0.4937 -0.1714
 7153SOL    HW132921   3.050   0.303   9.780  0.1396 -0.2269  0.5203
 7153SOL    HW232922   2.988   0.189   9.750  0.0329  0.5151 -0.7949
 7154SOL     OW32923   0.262   1.446   7.833  0.0113  0.3892 -0.0295
 7154SOL    HW132924   0.211   1.368   7.852 -1.3545  2.2178  3.8124
 7154SOL    HW232925   0.345   1.416   7.870 -1.3151  0.1300  2.7296
 7155SOL     OW32926   4.531   0.216   1.119 -0.4902 -0.4841  0.0588
 7155SOL    HW132927   4.501   0.261   1.197 -0.1695 -1.7768  0.9307
 7155SOL    HW232928   4.625   0.231   1.121 -0.5616 -0.0243 -0.0545
 7156SOL     OW32929   1.284   1.965   4.267  0.0912  0.0956 -0.5784
 7156SOL    HW132930   1.372   1.935   4.288  0.0512 -0.2558 -0.9202
 7156SOL    HW232931   1.261   2.024   4.339 -0.0186  1.4550 -1.7420
 7157SOL     OW32932   1.653   3.203  17.222 -0.5857  0.1091  0.0487
 7157SOL    HW132933   1.627   3.115  17.195 -0.4471 -0.1659  0.8339
 7157SOL    HW232934   1.634   3.252  17.141 -0.6978  1.0602  0.6585
 7158SOL     OW32935   3.983   3.531   4.641 -0.0201 -0.1040 -0.0592
 7158SOL    HW132936   3.986   3.559   4.733  0.8219  2.3553 -0.8193
 7158SOL    HW232937   3.891   3.526   4.616  0.3768 -0.5178 -1.4388
 7159SOL     OW32938   1.333   2.692  17.506 -0.1809  0.2733  0.2694
 7159SOL    HW132939   1.316   2.767  17.448 -1.4990  0.3936  0.8061
 7159SOL    HW232940   1.262   2.633  17.480 -0.6883  0.7647  0.5273
 7160SOL     OW32941   3.077   1.524   1.245 -0.2333 -0.2891 -0.3350
 7160SOL    HW132942   3.084   1.438   1.288  2.8931  1.2398  2.2043
 7160SOL    HW232943   3.164   1.519   1.204  0.3522 -0.2843  0.8895
 7161SOL     OW32944   0.998   2.127   9.587  0.4779 -0.1904  0.1885
 7161SOL    HW132945   0.932   2.170   9.533  1.2564 -1.6815 -1.9634
 7161SOL    HW232946   0.980   2.034   9.570  0.4460 -0.0490 -0.5529
 7162SOL     OW32947   3.318   4.534   2.968 -0.1574 -0.0001  0.3902
 7162SOL    HW132948   3.400   4.566   2.929 -1.2791  2.1665 -0.2194
 7162SOL    HW232949   3.287   4.480   2.896  1.2152 -0.1406 -0.0934
 7163SOL     OW32950   2.278   4.337   8.412  0.3834 -0.2537  0.5305
 7163SOL    HW132951   2.292   4.257   8.362  4.1093  0.7282  0.0084
 7163SOL    HW232952   2.310   4.309   8.498  0.8987 -1.8427 -0.1940
 7164SOL     OW32953   1.940   0.986   1.827  0.3630 -0.3030  0.7447
 7164SOL    HW132954   1.962   1.060   1.883 -0.7106 -1.6295  2.8892
 7164SOL    HW232955   1.977   0.906   1.864 -0.1383 -0.0195  1.8312
 7165SOL     OW32956   1.630   1.132   6.469 -0.4045 -0.2011  0.1382
 7165SOL    HW132957   1.629   1.120   6.564  0.4847  1.0787  0.3093
 7165SOL    HW232958   1.598   1.048   6.437  0.3148  0.0100 -1.1220
 7166SOL     OW32959   1.116   0.751   5.458  0.1002 -0.2628 -0.1902
 7166SOL    HW132960   1.098   0.836   5.419 -1.9849 -0.0386  1.1989
 7166SOL    HW232961   1.211   0.756   5.458 -0.0505  2.6203 -2.3649
 7167SOL     OW32962   3.882   2.269   1.582 -0.0234  0.1418  0.0840
 7167SOL    HW132963   3.898   2.295   1.492 -2.3710  0.0107 -0.3823
 7167SOL    HW232964   3.792   2.236   1.573 -0.3601  1.0797 -0.0180
 7168SOL     OW32965   1.557   2.305   2.193  0.0594  0.4249  0.2903
 7168SOL    HW132966   1.551   2.232   2.131  0.9183  1.9997 -1.6144
 7168SOL    HW232967   1.651   2.322   2.190  0.2545 -0.5612  0.6827
 7169SOL     OW32968   0.678   3.754   0.310 -0.0828 -0.1033  0.2580
 7169SOL    HW132969   0.645   3.841   0.332 -0.5378 -0.9917  3.0549
 7169SOL    HW232970   0.650   3.767   0.219 -1.2528 -0.8815  0.5101
 7170SOL     OW32971   1.055   3.606   3.822 -0.0719 -0.3034 -0.2631
 7170SOL    HW132972   1.045   3.575   3.912 -0.4045 -0.7573 -0.4544
 7170SOL    HW232973   0.974   3.586   3.775  1.0848  0.2844 -2.5143
 7171SOL     OW32974   0.274   4.152   1.452 -0.2310 -1.1259  0.7371
 7171SOL    HW132975   0.181   4.150   1.477 -0.6286 -0.9724 -0.7387
 7171SOL    HW232976   0.257   4.166   1.359 -1.3864 -0.8584  0.9847
 7172SOL     OW32977   1.708   1.431   1.364  0.2697 -0.3632  0.1473
 7172SOL    HW132978   1.757   1.477   1.296  0.6805 -2.3144 -0.8654
 7172SOL    HW232979   1.777   1.400   1.423 -1.5022 -0.0017  2.3975
 7173SOL     OW32980   2.403   3.766   2.414  0.1655  0.0164 -0.2777
 7173SOL    HW132981   2.423   3.692   2.357  2.1267  0.0667  0.3509
 7173SOL    HW232982   2.425   3.732   2.501 -0.0798 -0.1392 -0.2747
 7174SOL     OW32983   2.984   0.242   3.057  0.1769 -0.2039  0.1660
 7174SOL    HW132984   3.072   0.241   3.093  0.1855  0.7977  0.1771
 7174SOL    HW232985   2.961   0.149   3.060 -2.7414  0.4970 -0.2528
 7175SOL     OW32986   0.795   3.703   4.637 -0.3355  0.2738 -0.6018
 7175SOL    HW132987   0.815   3.699   4.543  3.9993 -0.5023  0.3952
 7175SOL    HW232988   0.755   3.618   4.654  1.4845  0.1738  3.0463
 7176SOL     OW32989   0.337   2.022  16.903  0.5478 -0.2644 -0.4887
 7176SOL    HW132990   0.323   2.110  16.938  1.1018 -0.3292 -0.0950
 7176SOL    HW232991   0.277   1.972  16.958 -0.4415  1.0840 -0.3664
 7177SOL     OW32992   1.254   4.595   7.875  0.1494 -0.2564  0.3364
 7177SOL    HW132993   1.164   4.626   7.888  0.3994  0.1324  1.1243
 7177SOL    HW232994   1.236   4.503   7.895  3.3861 -0.4133  2.5344
 7178SOL     OW32995   4.167   2.794   9.330  0.0504 -0.0824 -0.5437
 7178SOL    HW132996   4.112   2.769   9.405  0.2289 -1.5413 -0.8925
 7178SOL    HW232997   4.199   2.706   9.309  2.5951  0.6143  0.3818
 7179SOL     OW32998   2.496   0.771   8.324 -0.0076 -0.5988 -0.3454
 7179SOL    HW132999   2.553   0.824   8.268 -2.8421  0.3614 -2.3358
 7179SOL    HW233000   2.413   0.774   8.277 -0.2853 -0.1022  0.1789
 7180SOL     OW33001   2.464   0.468  12.228 -0.2367 -0.0959 -0.2558
 7180SOL    HW133002   2.391   0.489  12.170  1.0739  3.5922 -0.5724
 7180SOL    HW233003   2.446   0.384  12.270  3.1475 -0.5237  0.3908
 7181SOL     OW33004   2.379   2.336  13.549 -0.3059  0.0873 -0.2040
 7181SOL    HW133005   2.398   2.411  13.606 -0.4200 -0.3958  0.4679
 7181SOL    HW233006   2.456   2.283  13.571 -1.1164 -1.3402 -0.7828
 7182SOL     OW33007   3.030   2.222   8.609 -0.3194  0.1913  0.1116
 7182SOL    HW133008   3.102   2.169   8.645  1.7310  1.3467 -2.2637
 7182SOL    HW233009   2.987   2.262   8.685  1.1795 -0.8232  1.5073
 7183SOL     OW33010   2.059   3.079  12.330  0.9188  0.0099  0.1969
 7183SOL    HW133011   2.078   2.985  12.324  2.6275  0.4180 -0.7667
 7183SOL    HW233012   2.148   3.096  12.360  1.0382  0.3471 -0.3489
 7184SOL     OW33013   3.722   3.342   9.117  0.1601 -0.3767 -0.2882
 7184SOL    HW133014   3.696   3.254   9.090 -1.6164 -0.6124  2.1780
 7184SOL    HW233015   3.635   3.380   9.127 -0.0583 -1.0804  0.5459
 7185SOL     OW33016   3.461   3.794   3.270 -0.0838 -0.4679 -0.4690
 7185SOL    HW133017   3.479   3.724   3.207  0.1339  1.1684 -2.2003
 7185SOL    HW233018   3.549   3.831   3.274 -0.5154  0.3826  1.1125
 7186SOL     OW33019   2.156   3.212  13.769 -0.2450 -0.4244  0.4750
 7186SOL    HW133020   2.217   3.196  13.697  0.9601  0.5839  1.2860
 7186SOL    HW233021   2.116   3.128  13.790  0.0603 -0.6123  0.3060
 7187SOL     OW33022   0.653   0.000   8.653  0.6273  0.4307 -0.1084
 7187SOL    HW133023   0.648   4.626   8.622  4.5011  0.2754 -0.3020
 7187SOL    HW233024   0.564   0.034   8.644  0.8346  1.1760  0.6119
 7188SOL     OW33025   2.209   2.933   9.105 -0.3705  0.1423 -0.2285
 7188SOL    HW133026   2.305   2.929   9.107 -0.4311 -2.5055 -2.2000
 7188SOL    HW233027   2.193   3.015   9.059  3.0955  1.0216  0.1224
 7189SOL     OW33028   4.208   2.529   9.974  0.9510  0.0706 -0.3901
 7189SOL    HW133029   4.263   2.564   9.905  0.8001 -1.1223 -1.1292
 7189SOL    HW233030   4.122   2.564   9.949  1.4023  2.7872  1.8932
 7190SOL     OW33031   2.548   2.166   7.971 -0.3118  0.4859 -0.1609
 7190SOL    HW133032   2.533   2.077   7.940  1.4369 -0.1084  0.6982
 7190SOL    HW233033   2.625   2.141   8.022 -1.3163  0.0096  1.1239
 7191SOL     OW33034   3.474   0.220   6.336 -0.4724 -0.0321 -0.1513
 7191SOL    HW133035   3.545   0.283   6.347  0.9614 -1.7570  0.4818
 7191SOL    HW233036   3.473   0.225   6.241 -0.5144  2.0893 -0.0586
 7192SOL     OW33037   1.384   2.496   9.795 -0.3055  0.1260 -0.2455
 7192SOL    HW133038   1.308   2.461   9.842 -0.9408 -0.9082 -2.0386
 7192SOL    HW233039   1.444   2.532   9.860 -1.3938 -2.6642  2.3142
 7193SOL     OW33040   4.060   4.232   6.841  0.7402  0.7281 -0.3138
 7193SOL    HW133041   4.080   4.235   6.748  0.2601 -1.4986 -0.4922
 7193SOL    HW233042   4.119   4.163   6.872 -0.6171 -0.0593  0.5253
 7194SOL     OW33043   0.889   0.510  12.257 -0.1024 -0.0737  0.2575
 7194SOL    HW133044   0.892   0.460  12.176 -0.7994  1.0462 -0.4664
 7194SOL    HW233045   0.829   0.458  12.311 -0.7395  0.6465  0.2483
 7195SOL     OW33046   0.739   4.137  12.357 -0.2043 -0.5342 -0.1100
 7195SOL    HW133047   0.745   4.219  12.308 -1.5101 -0.7590 -0.6555
 7195SOL    HW233048   0.825   4.103  12.334 -1.1946 -2.2551 -1.3427
 7196SOL     OW33049   3.964   2.399   5.254  0.0632  0.4793 -0.1569
 7196SOL    HW133050   4.037   2.372   5.310  0.2886  1.7660  0.1721
 7196SOL    HW233051   4.017   2.420   5.177  0.3801 -0.2234 -0.1294
 7197SOL     OW33052   1.243   2.488   9.030 -0.2799 -0.4130  0.4062
 7197SOL    HW133053   1.197   2.568   9.006  0.5855 -0.3633 -1.0452
 7197SOL    HW233054   1.223   2.485   9.124  3.5345  0.4177  1.2287
 7198SOL     OW33055   3.706   4.476   6.015  0.2235 -0.3461  0.1247
 7198SOL    HW133056   3.769   4.506   6.080 -1.4739 -1.0921  2.1029
 7198SOL    HW233057   3.628   4.451   6.063 -0.9243  1.2556 -0.9057
 7199SOL     OW33058   1.477   4.366   4.142 -0.2096  0.3040 -0.6099
 7199SOL    HW133059   1.440   4.403   4.222  0.8569  1.4219 -0.6435
 7199SOL    HW233060   1.400   4.356   4.086 -1.5193 -1.3704  1.4889
 7200SOL     OW33061   4.018   2.567   6.249  0.4695 -0.4336 -0.2805
 7200SOL    HW133062   4.032   2.660   6.268 -1.7552  0.1968 -1.7054
 7200SOL    HW233063   4.091   2.533   6.300 -1.2744 -0.7382  2.0185
 7201SOL     OW33064   2.948   4.062   6.011 -0.6435  0.7145 -0.4353
 7201SOL    HW133065   2.884   4.115   6.058  0.6052  0.2915  1.7342
 7201SOL    HW233066   2.893   4.027   5.941 -0.1289  1.7192 -1.3386
 7202SOL     OW33067   1.361   3.668   5.573  0.0793  0.1147 -0.2867
 7202SOL    HW133068   1.420   3.690   5.501 -0.1784 -0.3828 -0.6402
 7202SOL    HW233069   1.301   3.743   5.569 -0.2802  0.0165  2.8603
 7203SOL     OW33070   3.965   3.526  17.305  0.3267 -0.0927 -0.2692
 7203SOL    HW133071   4.028   3.557  17.239  0.8652  0.0057  0.2901
 7203SOL    HW233072   3.903   3.598  17.296  0.5408  0.4385  2.5208
 7204SOL     OW33073   4.260   0.127  13.923 -0.1660  0.4260 -0.2013
 7204SOL    HW133074   4.312   0.106  14.001  1.6224 -1.3048 -1.8595
 7204SOL    HW233075   4.329   0.152  13.862 -0.3209 -1.8904 -1.3388
 7205SOL     OW33076   3.196   3.467   1.426 -0.9372  0.1672  0.5328
 7205SOL    HW133077   3.183   3.539   1.488  2.5151  1.9630 -0.8465
 7205SOL    HW233078   3.246   3.408   1.481  0.3438  2.3751  1.7496
 7206SOL     OW33079   1.744   3.818   5.253  0.4341 -0.0204 -0.0666
 7206SOL    HW133080   1.811   3.808   5.321  1.0573 -2.9311 -1.1361
 7206SOL    HW233081   1.800   3.807   5.176  0.0829  3.1549 -0.7975
 7207SOL     OW33082   0.500   2.107   4.809 -0.3956 -0.3501  0.2924
 7207SOL    HW133083   0.428   2.169   4.823  0.3246  0.6854 -0.5402
 7207SOL    HW233084   0.455   2.025   4.788 -1.4128 -0.4311  2.7574
 7208SOL     OW33085   4.449   1.002  12.889  0.2530  0.0776 -0.1954
 7208SOL    HW133086   4.370   0.991  12.836 -0.5119 -0.4502  1.0436
 7208SOL    HW233087   4.440   0.934  12.956 -0.5122  0.9531  0.5929
 7209SOL     OW33088   2.659   3.649   0.644 -0.4400 -0.1753 -0.7441
 7209SOL    HW133089   2.631   3.570   0.690 -1.7571  0.5244 -0.3470
 7209SOL    HW233090   2.644   3.621   0.554 -0.6472 -1.0733 -0.4328
 7210SOL     OW33091   1.848   4.097   6.070 -0.2493  0.3434 -0.4160
 7210SOL    HW133092   1.775   4.080   6.129 -0.2404  0.5512 -0.3454
 7210SOL    HW233093   1.803   4.152   6.005  0.7539 -1.2092 -2.4373
 7211SOL     OW33094   0.390   3.690   4.425 -0.1741  0.2764 -0.0628
 7211SOL    HW133095   0.336   3.759   4.386 -0.0352  1.5795  2.0840
 7211SOL    HW233096   0.355   3.664   4.509  2.1712  1.9633  1.4453
 7212SOL     OW33097   4.204   3.347   7.673  0.1160  0.1326  0.1169
 7212SOL    HW133098   4.288   3.307   7.698  0.8269  0.1408 -2.2166
 7212SOL    HW233099   4.150   3.282   7.717 -0.0732  0.8946  1.0096
 7213SOL     OW33100   3.101   1.998   6.844 -0.0829  0.1060  0.2602
 7213SOL    HW133101   3.119   1.968   6.933  0.4432  1.0190  0.4591
 7213SOL    HW233102   3.165   1.963   6.782 -1.3705 -0.8725 -0.5176
 7214SOL     OW33103   1.877   0.226   4.229 -0.6588 -0.3032  0.1877
 7214SOL    HW133104   1.893   0.171   4.306 -0.1144 -0.0864  0.2308
 7214SOL    HW233105   1.836   0.302   4.271  0.2985  0.9340 -1.1051
 7215SOL     OW33106   2.999   3.425   6.611 -0.3734 -0.0029 -0.4080
 7215SOL    HW133107   2.936   3.391   6.674  0.0467  0.6820  0.3788
 7215SOL    HW233108   3.078   3.387   6.649 -0.3562  1.8060  1.3858
 7216SOL     OW33109   1.962   2.761   8.982  0.1408  0.4272 -0.6060
 7216SOL    HW133110   1.931   2.850   8.964 -0.6713 -0.3263 -2.9989
 7216SOL    HW233111   2.023   2.778   9.053 -0.9208 -1.0744  0.6627
 7217SOL     OW33112   2.646   2.000  14.242 -0.0092  0.1214  0.1969
 7217SOL    HW133113   2.576   1.936  14.229  1.7048 -1.5950 -0.5858
 7217SOL    HW233114   2.603   2.084  14.225  2.2302  0.8594 -2.0066
 7218SOL     OW33115   3.832   3.357   9.998  0.9232  0.0036 -0.0071
 7218SOL    HW133116   3.848   3.329   9.907  1.9817  0.0357  0.1683
 7218SOL    HW233117   3.857   3.280  10.048  1.6197  1.1907  1.4784
 7219SOL     OW33118   2.496   4.046   3.369  0.2977 -0.1103  0.3376
 7219SOL    HW133119   2.581   4.004   3.358  0.9367  1.1798  0.4577
 7219SOL    HW233120   2.520   4.138   3.362  4.2079 -1.3037 -1.8980
 7220SOL     OW33121   0.173   3.735  12.277 -0.4052 -0.5917 -0.0439
 7220SOL    HW133122   0.215   3.662  12.323  2.9550  2.0115  1.0682
 7220SOL    HW233123   0.114   3.684  12.222 -1.3592  0.9594 -0.4867
 7221SOL     OW33124   1.940   2.934   3.161  0.4520  0.4329 -0.6077
 7221SOL    HW133125   1.939   2.872   3.234 -0.3749  0.9025 -0.2260
 7221SOL    HW233126   2.000   2.894   3.097 -0.6048  1.9866 -2.5647
 7222SOL     OW33127   1.699   1.910   3.047 -0.0825  0.5137 -0.2762
 7222SOL    HW133128   1.751   1.923   2.968  0.9316  0.7868  0.4226
 7222SOL    HW233129   1.635   1.844   3.021  0.7079  0.0156 -0.9648
 7223SOL     OW33130   2.246   2.579   5.951 -0.3125 -0.0054  0.3500
 7223SOL    HW133131   2.229   2.492   5.915  0.0269 -0.8500  2.2082
 7223SOL    HW233132   2.166   2.626   5.928 -0.5324 -1.5810 -2.1249
 7224SOL     OW33133   2.336   3.226   4.235 -0.3311  0.1408  0.3286
 7224SOL    HW133134   2.322   3.132   4.225 -2.5210  0.8319 -3.2817
 7224SOL    HW233135   2.355   3.254   4.145 -1.6607  1.5685  0.4894
 7225SOL     OW33136   2.249   3.884   1.797 -0.7826 -0.0510  0.1696
 7225SOL    HW133137   2.172   3.895   1.853 -0.8619  0.9361 -0.1215
 7225SOL    HW233138   2.318   3.865   1.860  1.1164  1.4703 -1.4208
 7226SOL     OW33139   3.548   0.351   6.947  0.5338 -0.2721  0.0468
 7226SOL    HW133140   3.501   0.280   6.904  0.6463 -1.3287  1.6635
 7226SOL    HW233141   3.480   0.417   6.946  1.3200  0.5246 -1.4453
 7227SOL     OW33142   1.457   0.995   7.023 -0.0610  0.1234  0.3093
 7227SOL    HW133143   1.512   0.917   7.030 -1.1526 -0.7728 -0.8108
 7227SOL    HW233144   1.402   0.981   7.100 -0.5602 -2.5211 -0.5313
 7228SOL     OW33145   1.976   4.098   5.338 -0.0458  0.6403 -0.5336
 7228SOL    HW133146   1.911   4.159   5.302 -0.8250 -0.7113 -1.4397
 7228SOL    HW233147   1.944   4.098   5.428  2.2154  1.2800  0.2410
 7229SOL     OW33148   3.198   3.093   6.785 -0.6831  0.1575 -0.5115
 7229SOL    HW133149   3.222   3.183   6.761  0.5085  0.3953  1.5343
 7229SOL    HW233150   3.115   3.082   6.740 -1.6607  0.7476  1.1221
 7230SOL     OW33151   4.619   3.390   3.557 -0.3789  0.5407 -0.3925
 7230SOL    HW133152   4.607   3.309   3.607 -0.4016 -0.1137 -1.4483
 7230SOL    HW233153   4.561   3.382   3.481  1.4941 -0.2342 -1.7688
 7231SOL     OW33154   1.800   3.117  12.345 -0.3843  0.1626  0.0253
 7231SOL    HW133155   1.890   3.111  12.378 -0.2306  1.3583 -0.1587
 7231SOL    HW233156   1.807   3.181  12.275 -0.4997  0.2466  0.0898
 7232SOL     OW33157   3.707   1.147   1.612  0.1296  0.3288 -0.6725
 7232SOL    HW133158   3.626   1.194   1.591  0.3278  0.6773 -0.6547
 7232SOL    HW233159   3.733   1.100   1.533  1.4324 -1.3872  0.8190
 7233SOL     OW33160   0.466   4.055   2.218  0.1093 -0.1132  0.6951
 7233SOL    HW133161   0.397   4.037   2.155 -0.6644  1.4975  1.1020
 7233SOL    HW233162   0.505   4.135   2.182 -1.1945 -0.4295 -1.3697
 7234SOL     OW33163   3.775   0.609   7.740  0.1875  0.0938  0.2934
 7234SOL    HW133164   3.764   0.534   7.681 -0.5222 -1.0639  1.9133
 7234SOL    HW233165   3.711   0.600   7.810 -1.0651 -2.0000 -1.1422
 7235SOL     OW33166   3.293   2.504   2.479 -0.2627 -0.1484  0.0049
 7235SOL    HW133167   3.300   2.409   2.466  0.1167 -0.1325  0.1074
 7235SOL    HW233168   3.198   2.505   2.470 -0.4149 -1.7807  1.3453
 7236SOL     OW33169   1.048   1.657   2.116 -0.2878  0.7066  0.5156
 7236SOL    HW133170   1.004   1.652   2.031 -0.8135  1.6589  0.7215
 7236SOL    HW233171   0.968   1.657   2.170 -0.7635 -1.3648 -0.2073
 7237SOL     OW33172   1.338   0.482   7.192 -0.1002 -0.5480 -0.3093
 7237SOL    HW133173   1.344   0.577   7.182  0.6573 -0.7561 -1.9057
 7237SOL    HW233174   1.428   0.459   7.169 -0.2308 -2.6215  1.1755
 7238SOL     OW33175   2.280   3.298   6.032 -0.3916 -0.4287  0.2633
 7238SOL    HW133176   2.362   3.269   6.072  0.7492 -0.3335 -2.0065
 7238SOL    HW233177   2.225   3.220   6.028  0.5059 -0.9722 -1.7973
 7239SOL     OW33178   0.127   3.394  12.576  0.0326  0.2572  0.1801
 7239SOL    HW133179   0.144   3.387  12.482  3.7818 -1.3072  0.9803
 7239SOL    HW233180   0.193   3.459  12.599  0.5983 -0.4235  0.4793
 7240SOL     OW33181   1.606   4.240   2.423 -0.0206 -0.2775 -0.4501
 7240SOL    HW133182   1.698   4.242   2.447  0.5990 -1.0816 -2.7991
 7240SOL    HW233183   1.581   4.153   2.453  0.5465 -0.1280  0.4545
 7241SOL     OW33184   1.648   4.377  11.498  0.6307  0.5606 -0.4293
 7241SOL    HW133185   1.587   4.410  11.433 -0.6204 -3.5919 -1.3757
 7241SOL    HW233186   1.596   4.389  11.577  0.2119  0.0031 -0.6220
 7242SOL     OW33187   3.509   4.084  11.282 -0.0498  0.0178 -0.6291
 7242SOL    HW133188   3.458   4.032  11.219  0.9946 -2.1636  0.3205
 7242SOL    HW233189   3.441   4.150  11.297 -0.3526 -0.4681  0.1348
 7243SOL     OW33190   3.899   4.479   3.864  0.7003 -0.0823 -0.6501
 7243SOL    HW133191   3.887   4.399   3.813  2.7989 -0.9809  0.2757
 7243SOL    HW233192   3.813   4.511   3.834  1.0552  0.8035 -0.7411
 7244SOL     OW33193   4.157   0.009   7.464 -0.2347 -0.6215 -0.1791
 7244SOL    HW133194   4.088   0.006   7.398 -0.3538 -0.7944 -0.0450
 7244SOL    HW233195   4.136   4.644   7.510 -0.7561 -0.0736  0.5521
 7245SOL     OW33196   0.044   0.465   3.186 -0.2759 -0.0037 -0.3809
 7245SOL    HW133197   0.080   0.376   3.177  0.0924  0.2281 -1.2612
 7245SOL    HW233198   0.030   0.475   3.280 -2.5957  0.0568 -0.7278
 7246SOL     OW33199   0.802   3.617  10.841  0.6760  0.3879  0.4040
 7246SOL    HW133200   0.865   3.559  10.798  0.6015  0.4365  0.2324
 7246SOL    HW233201   0.862   3.681  10.878  0.4751  0.6226  0.3201
 7247SOL     OW33202   3.716   3.118  17.218  0.3185  0.6112  0.2285
 7247SOL    HW133203   3.792   3.176  17.209  0.2583  0.8808  1.5197
 7247SOL    HW233204   3.671   3.187  17.266 -0.9186 -0.5861  0.8059
 7248SOL     OW33205   4.075   1.951   5.441 -0.1021 -0.4621  0.1820
 7248SOL    HW133206   4.098   1.890   5.370 -0.4947  0.4541 -0.7393
 7248SOL    HW233207   4.065   1.894   5.517  0.7884  0.5980  1.1033
 7249SOL     OW33208   3.732   1.783   2.021 -0.3490  0.2641  0.5331
 7249SOL    HW133209   3.697   1.870   2.006 -1.8021 -0.7308 -1.8379
 7249SOL    HW233210   3.666   1.743   2.078 -0.9456  0.2575 -0.1766
 7250SOL     OW33211   0.713   2.193   0.428  0.7934 -0.7701 -0.3721
 7250SOL    HW133212   0.638   2.242   0.396  1.4984 -0.8320 -2.1304
 7250SOL    HW233213   0.778   2.208   0.358  0.1758 -1.3285 -1.0637
 7251SOL     OW33214   3.105   2.212   7.607 -0.2827  0.1953  0.8584
 7251SOL    HW133215   3.020   2.224   7.563 -0.2707 -1.3952  0.4020
 7251SOL    HW233216   3.126   2.119   7.598  2.4580  1.0726 -1.6601
 7252SOL     OW33217   4.279   1.681  10.256 -0.2683 -0.9746  0.1487
 7252SOL    HW133218   4.372   1.663  10.270  0.0650  1.1588  0.5941
 7252SOL    HW233219   4.274   1.771  10.225 -0.9807 -0.5122  1.6157
 7253SOL     OW33220   0.954   3.291  10.157  0.0121 -0.3035  0.0207
 7253SOL    HW133221   0.958   3.304  10.252 -0.9313 -0.3466  0.0715
 7253SOL    HW233222   0.958   3.381  10.126 -0.8758 -0.7618 -1.4099
 7254SOL     OW33223   4.034   0.238   2.281 -0.0447 -0.7220  0.2266
 7254SOL    HW133224   4.003   0.269   2.196  2.4932 -0.8981 -0.7519
 7254SOL    HW233225   3.971   0.286   2.335  1.2026  2.5169 -1.2334
 7255SOL     OW33226   3.279   0.142   0.241  0.1872 -0.3002 -0.0245
 7255SOL    HW133227   3.219   0.211   0.268 -0.0946 -1.1418  1.4483
 7255SOL    HW233228   3.366   0.180   0.251  0.1006 -0.4617  1.2356
 7256SOL     OW33229   4.254   0.933   9.615  0.0796  0.0707  0.1496
 7256SOL    HW133230   4.266   0.858   9.557 -0.0469  0.9738 -1.0265
 7256SOL    HW233231   4.169   0.910   9.653  0.8125 -1.4297  0.9174
 7257SOL     OW33232   0.458   2.171  13.787  0.0170  0.1275 -0.1180
 7257SOL    HW133233   0.426   2.197  13.874 -0.4953 -2.0327  0.3490
 7257SOL    HW233234   0.424   2.081  13.782  2.1733 -0.6993  0.2870
 7258SOL     OW33235   3.753   1.150  16.516  0.3938 -0.4845  0.1537
 7258SOL    HW133236   3.804   1.209  16.460 -0.2821  0.8312  0.9289
 7258SOL    HW233237   3.728   1.078  16.459  1.4106  0.3086 -1.2984
 7259SOL     OW33238   0.490   4.491   4.694  0.0491 -0.3339  0.1581
 7259SOL    HW133239   0.480   4.397   4.686 -1.4660 -0.2291  0.7692
 7259SOL    HW233240   0.411   4.525   4.651  0.1578  0.8428  0.8753
 7260SOL     OW33241   2.913   0.786  12.112 -0.6059 -0.5582  0.4129
 7260SOL    HW133242   2.913   0.852  12.043 -2.5148  0.1518  1.1110
 7260SOL    HW233243   2.827   0.744  12.112 -1.7410  1.7432  2.2845
 7261SOL     OW33244   1.428   0.541   4.874 -0.2376 -0.1005  0.1792
 7261SOL    HW133245   1.385   0.460   4.900  0.6487 -1.2317 -1.8016
 7261SOL    HW233246   1.368   0.595   4.823  1.1069  2.2523  1.0886
 7262SOL     OW33247   4.186   2.306   7.441  0.2492  0.3083 -0.4283
 7262SOL    HW133248   4.233   2.291   7.523  3.4542 -2.4873 -2.8015
 7262SOL    HW233249   4.101   2.271   7.469  1.7273 -1.4786  1.8534
 7263SOL     OW33250   3.880   2.365   8.698  0.0388 -0.1749 -0.5120
 7263SOL    HW133251   3.878   2.277   8.735  0.3171  1.0385  2.3820
 7263SOL    HW233252   3.888   2.418   8.777  0.4163 -1.2817  0.1918
 7264SOL     OW33253   1.257   3.110   1.106 -0.3909 -0.2593  0.0982
 7264SOL    HW133254   1.224   3.064   1.029  2.8489 -2.0862 -0.1767
 7264SOL    HW233255   1.170   3.130   1.140  0.6612  2.3141  1.2985
 7265SOL     OW33256   4.191   1.056   0.193  0.0105 -0.2401 -0.1905
 7265SOL    HW133257   4.127   1.106   0.244  1.0579  1.3788 -0.4546
 7265SOL    HW233258   4.173   1.091   0.106 -1.4810 -1.0754 -0.2146
 7266SOL     OW33259   3.864   2.166   2.316  0.0522  0.0405 -0.3148
 7266SOL    HW133260   3.904   2.115   2.245  0.3377 -1.4104  0.8785
 7266SOL    HW233261   3.780   2.198   2.284 -0.0400  2.6227  2.6239
 7267SOL     OW33262   0.905   4.141   5.889 -0.0736 -0.6472 -0.1742
 7267SOL    HW133263   0.930   4.210   5.828  1.0740  0.1454  1.1889
 7267SOL    HW233264   0.825   4.173   5.932  0.5314  0.0721  0.4249
 7268SOL     OW33265   3.173   4.183   8.585  0.3545 -0.4201  0.2647
 7268SOL    HW133266   3.113   4.148   8.519 -0.2428  0.2333  0.4703
 7268SOL    HW233267   3.131   4.148   8.663  0.1790  0.6178  0.6388
 7269SOL     OW33268   1.515   2.584  15.354 -0.4674 -0.5663  0.0353
 7269SOL    HW133269   1.438   2.547  15.310 -1.6454  0.8462  0.8634
 7269SOL    HW233270   1.526   2.671  15.315  2.1115 -0.5642  0.8264
 7270SOL     OW33271   1.510   0.586  14.601 -0.0768  0.3882  0.1146
 7270SOL    HW133272   1.523   0.582  14.696 -0.9239  0.3306  0.2230
 7270SOL    HW233273   1.419   0.615  14.602 -0.3824 -0.5694 -0.0411
 7271SOL     OW33274   4.349   1.506   8.540 -0.0336  0.6580  0.3638
 7271SOL    HW133275   4.255   1.513   8.555  0.0141 -0.0764  0.9892
 7271SOL    HW233276   4.356   1.426   8.489  0.4339 -0.3220  1.9687
 7272SOL     OW33277   2.770   4.702   6.667  0.2565  0.3971 -0.1774
 7272SOL    HW133278   2.840   4.649   6.704 -0.2292  0.9665  1.5525
 7272SOL    HW233279   2.764   0.049   6.738 -0.1060 -0.2038  0.3208
 7273SOL     OW33280   2.384   1.662   5.054 -0.6819 -0.3868 -0.3559
 7273SOL    HW133281   2.419   1.711   4.979 -2.2941  0.8922 -0.2864
 7273SOL    HW233282   2.319   1.731   5.068 -2.1093 -1.5209 -1.4909
 7274SOL     OW33283   2.810   3.191   3.848 -0.3686  0.5618 -0.7426
 7274SOL    HW133284   2.724   3.201   3.807 -0.9815 -0.2483  0.3459
 7274SOL    HW233285   2.796   3.110   3.897  2.8869  0.0844 -0.6360
 7275SOL     OW33286   2.122   2.921   8.158  0.3629 -0.1878 -1.0560
 7275SOL    HW133287   2.052   2.980   8.131  0.8188  0.2706 -1.2471
 7275SOL    HW233288   2.071   2.857   8.207  2.7454 -0.1280  1.5445
 7276SOL     OW33289   3.987   0.271   4.651 -0.0499  0.3290 -0.1203
 7276SOL    HW133290   3.959   0.320   4.728 -0.4555  1.0477 -0.7302
 7276SOL    HW233291   3.901   0.251   4.616  1.1830 -0.2911 -2.7783
 7277SOL     OW33292   3.257   3.569   1.763 -0.3473 -0.3918  0.0348
 7277SOL    HW133293   3.258   3.480   1.726  2.1412 -0.3101 -0.1300
 7277SOL    HW233294   3.191   3.608   1.706  0.8357  2.9548  0.9384
 7278SOL     OW33295   3.218   1.551  16.926  0.0543 -0.0800 -0.8304
 7278SOL    HW133296   3.238   1.457  16.931 -0.1912 -0.2017 -2.0249
 7278SOL    HW233297   3.297   1.586  16.884  0.1581 -1.5861 -1.9029
 7279SOL     OW33298   0.064   0.889   6.155  0.1283 -0.2607  0.1406
 7279SOL    HW133299   0.030   0.952   6.092  1.0908 -2.0596 -2.1733
 7279SOL    HW233300   0.096   0.812   6.108  0.0120  0.8357 -1.7353
 7280SOL     OW33301   0.233   1.430   1.602 -0.3320  0.0637  0.3876
 7280SOL    HW133302   0.226   1.450   1.508 -0.1311 -1.6587 -0.0026
 7280SOL    HW233303   0.156   1.374   1.609 -0.8524  0.2339 -3.7487
 7281SOL     OW33304   2.895   3.859   1.529 -0.6875  0.5050 -0.0760
 7281SOL    HW133305   2.822   3.858   1.591  1.3488 -2.1416  2.2879
 7281SOL    HW233306   2.874   3.936   1.476 -1.1598 -0.9782 -1.9941
 7282SOL     OW33307   4.153   3.073  10.874 -0.2207  0.1852 -0.5287
 7282SOL    HW133308   4.169   3.128  10.797  0.0236  1.5310  0.4685
 7282SOL    HW233309   4.058   3.077  10.885 -0.2849 -0.0605 -1.0128
 7283SOL     OW33310   3.543   1.905   9.059  0.7099  0.4362  0.1009
 7283SOL    HW133311   3.613   1.847   9.092  0.8930 -0.0250 -1.1235
 7283SOL    HW233312   3.545   1.965   9.134 -1.0248  0.4437  0.1369
 7284SOL     OW33313   3.175   1.421   8.891  0.4464 -0.1424  0.0418
 7284SOL    HW133314   3.185   1.335   8.850  0.5197  0.5583 -1.4147
 7284SOL    HW233315   3.177   1.399   8.984  0.3984  1.5763  0.4434
 7285SOL     OW33316   2.479   4.074   7.016 -0.3668  0.0931 -0.0603
 7285SOL    HW133317   2.414   4.096   7.083  0.4695 -0.0872  0.8160
 7285SOL    HW233318   2.440   4.121   6.943  1.2713  0.4096 -0.7472
 7286SOL     OW33319   4.137   0.682   7.578  0.1308  0.2330  0.0117
 7286SOL    HW133320   4.120   0.755   7.638  1.3894  0.0321  0.6139
 7286SOL    HW233321   4.232   0.680   7.589  0.3627 -2.5733 -2.6400
 7287SOL     OW33322   3.358   0.657  16.307  0.5146 -0.8250 -0.0819
 7287SOL    HW133323   3.274   0.627  16.343  0.4503  0.4375  0.8221
 7287SOL    HW233324   3.340   0.659  16.213 -0.1186  0.8052  0.0799
 7288SOL     OW33325   1.432   3.997   3.957 -0.8248 -0.0254 -1.0965
 7288SOL    HW133326   1.500   4.061   3.976  0.5642 -2.4414  2.1237
 7288SOL    HW233327   1.478   3.917   3.929  3.2916  1.5507  1.1628
 7289SOL     OW33328   1.330   0.919  11.193  0.1956 -0.2679 -0.0977
 7289SOL    HW133329   1.323   0.914  11.097 -1.0930 -1.5688  0.0743
 7289SOL    HW233330   1.297   0.834  11.219 -0.5009 -0.1142 -0.4802
 7290SOL     OW33331   4.670   1.258   4.036  0.1430 -0.7785 -0.5199
 7290SOL    HW133332   4.578   1.250   4.063  0.7688 -1.2723  1.4608
 7290SOL    HW233333   4.714   1.178   4.063  1.3963  0.6250  1.5160
 7291SOL     OW33334   2.789   3.517   7.034 -0.1173 -0.5811  0.2224
 7291SOL    HW133335   2.873   3.557   7.011  0.8795 -1.5691  2.1869
 7291SOL    HW233336   2.736   3.548   6.960  0.4944 -0.2332 -0.0770
 7292SOL     OW33337   2.729   2.137   8.207 -0.1622  0.4755  0.2223
 7292SOL    HW133338   2.700   2.109   8.294 -3.3215  2.1992 -0.2528
 7292SOL    HW233339   2.819   2.164   8.225 -0.2707  0.7828  0.3161
 7293SOL     OW33340   2.844   1.894   6.051 -0.4024 -0.6358 -0.8001
 7293SOL    HW133341   2.883   1.944   6.123 -1.1566 -1.5600  0.2456
 7293SOL    HW233342   2.803   1.824   6.102 -2.9626 -0.1518 -2.1392
 7294SOL     OW33343   3.165   2.334  10.949  0.1845 -0.0663 -0.0398
 7294SOL    HW133344   3.194   2.244  10.941  2.9245  0.9294 -1.3660
 7294SOL    HW233345   3.148   2.333  11.043  0.6550 -0.0966  0.0425
 7295SOL     OW33346   4.470   4.547   6.749  0.0855 -0.6114 -0.6078
 7295SOL    HW133347   4.483   4.521   6.840  3.0433 -0.6955 -1.0339
 7295SOL    HW233348   4.376   4.561   6.742 -0.1101 -2.3587 -1.2725
 7296SOL     OW33349   2.521   1.860   0.629  0.2551 -0.7951 -0.0295
 7296SOL    HW133350   2.515   1.795   0.699  1.0535 -0.0316  0.7534
 7296SOL    HW233351   2.592   1.819   0.579  0.0268  0.3876 -1.3252
 7297SOL     OW33352   0.139   3.565   6.059  0.4031  0.3710  0.4594
 7297SOL    HW133353   0.230   3.564   6.032  0.2440 -0.5578 -0.0542
 7297SOL    HW233354   0.115   3.472   6.051 -0.2247  0.7412 -1.7766
 7298SOL     OW33355   0.100   3.318  10.141 -0.2417 -0.2796 -0.4129
 7298SOL    HW133356   0.191   3.310  10.171 -0.6806  1.4674  1.3707
 7298SOL    HW233357   0.072   3.227  10.137 -0.3765 -0.4115  3.3052
 7299SOL     OW33358   3.023   4.178   3.120  0.0746 -0.0093  0.1260
 7299SOL    HW133359   3.079   4.101   3.130 -1.9125 -1.3648  0.8471
 7299SOL    HW233360   2.972   4.157   3.042 -0.5925  3.8883 -0.4823
 7300SOL     OW33361   3.017   0.396   4.152  0.2017  0.0277  0.8575
 7300SOL    HW133362   3.100   0.349   4.159 -0.6481 -1.5900  0.1817
 7300SOL    HW233363   3.010   0.421   4.060 -0.4028 -2.0418  0.3424
 7301SOL     OW33364   4.267   0.395  13.547 -0.2321  0.3750 -0.3269
 7301SOL    HW133365   4.336   0.393  13.613  0.0144  1.6539 -0.5334
 7301SOL    HW233366   4.195   0.413  13.607  0.4404  0.8530  0.3227
 7302SOL     OW33367   0.900   1.836  12.853  0.2911  0.0871  0.2835
 7302SOL    HW133368   0.942   1.843  12.767 -1.0771  1.5499 -0.2578
 7302SOL    HW233369   0.918   1.921  12.894  0.0709  1.0255 -1.5204
 7303SOL     OW33370   4.618   0.784   1.259 -0.5360 -0.5110 -0.1305
 7303SOL    HW133371   4.621   0.738   1.343  1.6614  0.2068  0.1862
 7303SOL    HW233372   4.681   0.851   1.287  2.5407 -3.4957  0.1883
 7304SOL     OW33373   3.072   3.362  12.212 -0.4634 -0.2014 -0.3355
 7304SOL    HW133374   3.118   3.375  12.129  1.4423  0.6887  0.8753
 7304SOL    HW233375   3.107   3.433  12.266  1.0924 -2.9266  2.1882
 7305SOL     OW33376   0.772   2.554  16.139 -0.0016 -0.1565  0.1882
 7305SOL    HW133377   0.750   2.645  16.118  0.2356  0.2369  1.7034
 7305SOL    HW233378   0.789   2.510  16.056  2.0283  1.0759 -0.0609
 7306SOL     OW33379   4.654   2.334   5.505 -0.5107  0.5124  0.4580
 7306SOL    HW133380   0.012   2.330   5.565 -0.5166 -2.2705  0.2794
 7306SOL    HW233381   4.593   2.271   5.545  1.4966 -0.7000  1.6282
 7307SOL     OW33382   0.575   4.297   2.111  0.9672  0.0332 -0.6461
 7307SOL    HW133383   0.536   4.310   2.025 -1.4214 -0.6969  0.3106
 7307SOL    HW233384   0.662   4.334   2.101  1.3813 -0.8810 -0.3645
 7308SOL     OW33385   1.677   4.012   6.674 -0.1484  0.0616 -0.5199
 7308SOL    HW133386   1.756   4.060   6.699  0.7433 -1.3097 -0.7086
 7308SOL    HW233387   1.611   4.040   6.737  0.7748  2.6977 -0.7484
 7309SOL     OW33388   1.416   0.647   6.949  0.0504  0.5660  0.9788
 7309SOL    HW133389   1.470   0.688   6.882  1.4632  0.9787  2.3766
 7309SOL    HW233390   1.487   0.624   7.010 -0.5394 -1.1689  1.0221
 7310SOL     OW33391   4.546   3.109  12.968 -0.2344  0.3957 -0.0662
 7310SOL    HW133392   4.616   3.157  12.924  0.4921  0.9902  1.7083
 7310SOL    HW233393   4.497   3.185  12.999  0.8469  0.4291  1.5898
 7311SOL     OW33394   2.532   0.713   3.972 -0.0809 -0.2547 -0.0759
 7311SOL    HW133395   2.560   0.654   4.041  0.0666 -0.3719 -0.2368
 7311SOL    HW233396   2.619   0.745   3.950 -0.4173  2.2497  2.2065
 7312SOL     OW33397   3.021   3.933   2.886  0.1696  0.7327 -0.5911
 7312SOL    HW133398   2.956   4.000   2.864  1.5945  0.9726 -3.9639
 7312SOL    HW233399   2.965   3.874   2.936  0.8744  1.1978  0.7578
 7313SOL     OW33400   3.779   4.385   5.748  0.2337  0.1505 -0.3710
 7313SOL    HW133401   3.865   4.373   5.788  1.4523  0.4108 -2.9168
 7313SOL    HW233402   3.729   4.345   5.820  1.1307 -1.2342 -0.5183
 7314SOL     OW33403   3.584   2.244   7.246 -0.7049 -0.5424  0.2275
 7314SOL    HW133404   3.603   2.181   7.176 -0.9734  0.0331 -0.3694
 7314SOL    HW233405   3.489   2.250   7.237 -0.6042  1.3438  0.3480
 7315SOL     OW33406   2.127   0.843   7.020  0.0988 -0.3291 -0.5068
 7315SOL    HW133407   2.141   0.937   7.028  3.3231 -0.8367 -0.1117
 7315SOL    HW233408   2.195   0.810   7.079  1.3810  3.3900  0.0877
 7316SOL     OW33409   3.919   1.985   1.117 -0.1353 -0.0203  0.4609
 7316SOL    HW133410   3.910   1.909   1.174  0.6702 -0.8640 -0.5355
 7316SOL    HW233411   4.012   1.984   1.094 -0.7064 -3.1298 -1.5929
 7317SOL     OW33412   4.212   4.473   3.947 -0.6516  0.0283  0.0982
 7317SOL    HW133413   4.285   4.446   3.891  1.4038  1.0720  2.2664
 7317SOL    HW233414   4.135   4.479   3.890 -1.0422  1.7725  0.8278
 7318SOL     OW33415   3.972   3.766   2.851 -0.5895 -0.2046  0.2565
 7318SOL    HW133416   3.905   3.801   2.909 -0.4028  0.4986  0.0467
 7318SOL    HW233417   3.931   3.791   2.769 -0.5291  0.8468  0.5436
 7319SOL     OW33418   2.198   2.617   8.250  0.0294 -0.2241  0.1201
 7319SOL    HW133419   2.205   2.538   8.303  0.9828  1.2167  2.1246
 7319SOL    HW233420   2.118   2.657   8.285  0.1377 -0.3141  0.4654
 7320SOL     OW33421   1.991   1.557   5.062  0.0795 -0.9652  0.0981
 7320SOL    HW133422   2.025   1.620   5.125  1.5565 -0.0452 -1.6102
 7320SOL    HW233423   1.933   1.612   5.008  0.9004 -0.9619 -0.7784
 7321SOL     OW33424   3.958   0.887  14.093  0.0243  0.2351  0.2017
 7321SOL    HW133425   3.921   0.835  14.164  1.9133 -1.2537  0.0862
 7321SOL    HW233426   4.025   0.942  14.133 -0.0335  1.0695 -0.8623
 7322SOL     OW33427   1.951   3.497   5.399 -0.4168  0.3621  0.2549
 7322SOL    HW133428   1.914   3.441   5.331  0.0870  3.5441 -2.6597
 7322SOL    HW233429   1.872   3.505   5.451 -0.9898  2.0058 -0.8748
 7323SOL     OW33430   4.712   4.236   4.990  0.1021  0.1624  0.3930
 7323SOL    HW133431   0.039   4.213   5.073 -0.7593 -2.7083  0.0466
 7323SOL    HW233432   0.071   4.270   4.942 -0.4539  0.0140 -0.5746
 7324SOL     OW33433   2.677   2.069   7.380  0.1922 -0.0754  0.5414
 7324SOL    HW133434   2.678   2.159   7.413 -1.3033 -0.3210  1.2573
 7324SOL    HW233435   2.644   2.018   7.454 -2.2182  1.3801  0.4731
 7325SOL     OW33436   1.157   3.182   0.147  0.2365  0.1703  0.2011
 7325SOL    HW133437   1.148   3.256   0.086 -1.3744  0.6668  1.0534
 7325SOL    HW233438   1.228   3.129   0.110  0.1170 -0.5285  1.0007
 7326SOL     OW33439   4.654   1.085   7.050 -0.2409  0.1518  0.1118
 7326SOL    HW133440   4.637   1.023   6.979 -1.3364 -1.6531  1.9490
 7326SOL    HW233441   4.610   1.039   7.121 -1.3264  0.7854 -0.1556
 7327SOL     OW33442   1.922   3.953   2.575 -0.2603 -0.0295 -0.2278
 7327SOL    HW133443   1.924   3.888   2.504 -1.0606  2.8014 -2.8629
 7327SOL    HW233444   2.006   3.928   2.613 -0.9078 -0.6344  0.8025
 7328SOL     OW33445   2.839   3.963   5.797  0.4124  0.2688  0.1594
 7328SOL    HW133446   2.834   4.043   5.744 -0.2840 -0.3361 -0.7008
 7328SOL    HW233447   2.746   3.951   5.818  0.8728 -2.6736  0.5547
 7329SOL     OW33448   0.949   3.185  17.457 -0.5562  0.0579 -0.3685
 7329SOL    HW133449   0.986   3.173  17.369  0.5393  1.6803 -0.1277
 7329SOL    HW233450   1.004   3.261  17.478  0.5907  0.1876 -3.7145
 7330SOL     OW33451   4.490   0.746   5.008 -0.0616  0.4892 -0.0541
 7330SOL    HW133452   4.532   0.676   5.058 -1.2067 -1.5870 -2.0037
 7330SOL    HW233453   4.570   0.762   4.957 -1.0837 -0.6083 -1.9980
 7331SOL     OW33454   0.156   3.217   0.725  0.3196 -0.0284  0.3900
 7331SOL    HW133455   0.102   3.142   0.699  0.8173 -0.5210  0.7874
 7331SOL    HW233456   0.086   3.259   0.775  1.5849  3.5331 -0.8066
 7332SOL     OW33457   0.865   0.453   3.364  0.2416  0.5509  0.4109
 7332SOL    HW133458   0.937   0.517   3.366 -0.5145  1.4239  0.1353
 7332SOL    HW233459   0.862   0.440   3.458 -2.3192 -2.2528 -0.0453
 7333SOL     OW33460   0.223   0.409   4.367  0.0466 -0.5488 -0.2054
 7333SOL    HW133461   0.155   0.458   4.320 -0.2057 -0.7184 -0.0194
 7333SOL    HW233462   0.245   0.473   4.434  0.3356 -1.9995  1.0570
 7334SOL     OW33463   0.652   3.319   6.092  0.1122 -0.2086 -0.4833
 7334SOL    HW133464   0.724   3.381   6.081  0.4237 -0.1671  1.7011
 7334SOL    HW233465   0.643   3.283   6.004  0.2229 -2.2016  0.3167
 7335SOL     OW33466   2.735   1.857   9.482  0.3947  0.0297  0.1997
 7335SOL    HW133467   2.752   1.850   9.576  1.5124  0.0850  0.0030
 7335SOL    HW233468   2.648   1.818   9.471  0.7261 -0.1019 -1.9163
 7336SOL     OW33469   0.644   2.602   6.926  0.2656 -0.0922 -0.8539
 7336SOL    HW133470   0.603   2.568   7.005  1.5230  1.3366  0.3991
 7336SOL    HW233471   0.705   2.533   6.900 -2.1195 -2.6927  0.4443
 7337SOL     OW33472   2.130   0.043   4.190  0.5829  0.0237  0.0612
 7337SOL    HW133473   2.042   0.005   4.186  0.1064  1.3486 -1.8712
 7337SOL    HW233474   2.114   0.127   4.146 -0.5533  0.0838  0.5838
 7338SOL     OW33475   3.182   3.846   5.427 -0.8685 -0.9926  0.0492
 7338SOL    HW133476   3.200   3.765   5.380  1.9021  0.4192 -1.2948
 7338SOL    HW233477   3.263   3.891   5.402 -3.0323  2.2987 -1.0448
 7339SOL     OW33478   1.749   4.266   3.681 -0.2245  0.6478  0.4693
 7339SOL    HW133479   1.835   4.269   3.638 -0.0548 -0.0144  0.7661
 7339SOL    HW233480   1.774   4.241   3.770 -3.4409 -2.4909  0.4885
 7340SOL     OW33481   3.436   2.200   0.302  0.6409 -0.9291  0.0594
 7340SOL    HW133482   3.508   2.172   0.359  0.0304 -1.2734  0.6492
 7340SOL    HW233483   3.373   2.148   0.350  0.5907  0.3346  1.3567
 7341SOL     OW33484   3.882   1.121   4.552 -0.5418  0.3771  0.4621
 7341SOL    HW133485   3.926   1.190   4.503 -0.7644 -1.0347 -1.7297
 7341SOL    HW233486   3.839   1.078   4.478 -0.8232  1.7071 -0.1527
 7342SOL     OW33487   4.458   0.854  11.793  0.2307  0.2262  0.2387
 7342SOL    HW133488   4.454   0.787  11.862  1.1837  0.2736  0.3330
 7342SOL    HW233489   4.406   0.806  11.728  0.5032 -1.7478  1.4662
 7343SOL     OW33490   3.213   2.374   7.242 -0.1154 -0.0101 -0.0686
 7343SOL    HW133491   3.176   2.450   7.198 -0.3757  0.3899  0.8414
 7343SOL    HW233492   3.146   2.309   7.220 -0.8931  0.1648  1.7831
 7344SOL     OW33493   3.359   2.365   6.122 -0.1749 -0.1001 -0.1771
 7344SOL    HW133494   3.323   2.351   6.210  2.8175 -3.0455  0.5826
 7344SOL    HW233495   3.455   2.373   6.128 -0.1344  0.1698 -1.1194
 7345SOL     OW33496   2.627   2.058  10.696  0.6709  0.0026  0.8800
 7345SOL    HW133497   2.712   2.052  10.739  0.8253 -1.9522  0.2964
 7345SOL    HW233498   2.608   2.151  10.709  1.6394  0.2252  0.6976
 7346SOL     OW33499   0.202   2.104   3.770  0.3367 -0.1507 -0.2214
 7346SOL    HW133500   0.128   2.136   3.718  0.8470 -2.0156 -2.0778
 7346SOL    HW233501   0.214   2.016   3.734  0.4068 -0.4213  0.4575
 7347SOL     OW33502   2.071   3.834   9.997  0.4836 -0.1523  0.0058
 7347SOL    HW133503   2.152   3.865   9.957 -0.2882  2.5902  0.6208
 7347SOL    HW233504   2.022   3.916  10.002 -0.5753 -0.7493 -0.5154
 7348SOL     OW33505   0.034   3.755   2.497  0.3746  0.6670  0.2016
 7348SOL    HW133506   0.120   3.795   2.485  1.2203 -0.5351  2.2564
 7348SOL    HW233507   4.698   3.813   2.441 -0.8854 -0.9016 -0.2661
 7349SOL     OW33508   3.787   0.441  16.461 -0.3812  0.2008 -0.3085
 7349SOL    HW133509   3.774   0.521  16.512 -0.4041 -0.9909  1.5601
 7349SOL    HW233510   3.699   0.414  16.433 -1.3338  1.2638  1.6631
 7350SOL     OW33511   1.883   0.740   6.730  0.0274 -0.2511 -0.0565
 7350SOL    HW133512   1.900   0.653   6.694 -0.3274 -0.3859  0.1032
 7350SOL    HW233513   1.930   0.795   6.666 -1.2752 -0.6930 -1.4039
 7351SOL     OW33514   4.167   1.090   0.501  0.5031  0.1417  0.4446
 7351SOL    HW133515   4.251   1.130   0.521 -0.2198  0.2808  3.1833
 7351SOL    HW233516   4.193   0.999   0.484 -0.5303 -0.2570  1.0333
 7352SOL     OW33517   2.424   0.493   7.376  0.3120 -0.9465 -0.0903
 7352SOL    HW133518   2.343   0.543   7.381  1.7705  1.5033 -0.9242
 7352SOL    HW233519   2.488   0.561   7.398 -1.4195  1.0427 -1.1904
 7353SOL     OW33520   0.741   3.825   6.777 -0.2478  0.4092  0.2818
 7353SOL    HW133521   0.696   3.885   6.717  0.5838  1.9690  1.2251
 7353SOL    HW233522   0.733   3.889   6.847  1.4276  1.9200 -0.8871
 7354SOL     OW33523   4.442   1.115   9.691  0.0419 -0.6709 -0.1721
 7354SOL    HW133524   4.396   1.031   9.693 -0.4107 -0.3698  2.5671
 7354SOL    HW233525   4.479   1.112   9.603 -0.9121  2.5298 -0.6845
 7355SOL     OW33526   0.725   0.035   5.460  0.4608 -0.2311 -0.3003
 7355SOL    HW133527   0.646   0.029   5.407  1.6501  1.1411 -2.2590
 7355SOL    HW233528   0.713   4.686   5.529  2.7837 -0.0766  0.2736
 7356SOL     OW33529   4.097   0.992   4.186 -0.0930 -0.7888  0.1036
 7356SOL    HW133530   4.046   1.051   4.242  1.4682  2.4031 -1.8616
 7356SOL    HW233531   4.112   0.912   4.237  0.0252  1.0065  2.9104
 7357SOL     OW33532   4.567   1.083   4.339  0.0201  0.2822  0.0796
 7357SOL    HW133533   4.624   1.111   4.268 -2.8834  1.5422 -1.7376
 7357SOL    HW233534   4.579   0.988   4.337 -0.9449  0.1804 -1.0784
 7358SOL     OW33535   2.795   0.991   4.548  0.1500  0.2708 -0.0263
 7358SOL    HW133536   2.826   1.004   4.638  1.8965 -0.2753 -0.5512
 7358SOL    HW233537   2.872   0.954   4.504  1.6510 -0.3130  3.0576
 7359SOL     OW33538   2.610   4.117  12.232 -0.0803 -0.4132  0.0600
 7359SOL    HW133539   2.533   4.067  12.205 -0.7052  1.1726 -1.0869
 7359SOL    HW233540   2.595   4.192  12.175 -1.8578 -1.4786 -0.8505
 7360SOL     OW33541   4.185   4.662  10.981 -0.4703  0.1563 -0.1213
 7360SOL    HW133542   4.163   0.010  11.048 -1.6076 -0.7027  0.3334
 7360SOL    HW233543   4.199   4.716  10.903 -0.1489  1.3668  0.7877
 7361SOL     OW33544   3.477   2.576  13.649  0.5330  0.2256  0.0899
 7361SOL    HW133545   3.459   2.499  13.702 -1.1732  0.8365  0.4188
 7361SOL    HW233546   3.394   2.584  13.602  0.9697 -0.7219 -0.8214
 7362SOL     OW33547   2.244   3.013   6.986  0.6221 -0.0075 -0.0558
 7362SOL    HW133548   2.309   2.964   6.935  0.0701  0.2218 -0.9757
 7362SOL    HW233549   2.262   2.981   7.075 -2.4869 -0.2235  0.4916
 7363SOL     OW33550   3.650   0.607   7.462  0.3087 -0.1221 -0.4974
 7363SOL    HW133551   3.559   0.589   7.441  0.3066 -1.3782  0.5663
 7363SOL    HW233552   3.641   0.701   7.451 -1.4902 -0.4182 -1.4884
 7364SOL     OW33553   1.438   3.938   1.239  0.0842  0.1196 -0.1695
 7364SOL    HW133554   1.517   3.992   1.240  0.8737 -1.0352 -0.7725
 7364SOL    HW233555   1.486   3.856   1.239 -1.0966 -0.5789  0.1139
 7365SOL     OW33556   0.430   4.540   6.955  0.0955  0.4287  0.1130
 7365SOL    HW133557   0.523   4.551   6.937  0.0018 -1.0191 -1.2558
 7365SOL    HW233558   0.430   4.516   7.047 -0.7201  0.9928  0.2616
 7366SOL     OW33559   3.770   3.521   3.347  0.3518  0.1357 -0.0313
 7366SOL    HW133560   3.768   3.440   3.295  3.0633  0.4214 -0.5547
 7366SOL    HW233561   3.679   3.531   3.376  1.0076  0.8882  1.7099
 7367SOL     OW33562   2.515   0.195  14.700  0.1426 -0.1702 -0.1427
 7367SOL    HW133563   2.491   0.240  14.618 -2.3741 -0.0474  0.6753
 7367SOL    HW233564   2.605   0.166  14.683 -0.4732 -2.5156  0.7228
 7368SOL     OW33565   0.327   0.219   1.806  0.1638  0.2866 -0.2002
 7368SOL    HW133566   0.295   0.300   1.766 -0.0135  0.3221  0.0124
 7368SOL    HW233567   0.336   0.162   1.730  0.9486 -0.5886  0.5421
 7369SOL     OW33568   4.228   0.933   3.947  0.7547  0.0891 -0.0448
 7369SOL    HW133569   4.206   1.015   3.992  0.8257 -0.1516  0.4297
 7369SOL    HW233570   4.250   0.971   3.862  1.0884 -0.6808 -0.3014
 7370SOL     OW33571   2.524   0.205  17.540 -0.1678  0.4461 -0.8067
 7370SOL    HW133572   2.530   0.270  17.611  3.8466  1.0843 -1.7110
 7370SOL    HW233573   2.524   0.273  17.472 -0.2632  0.8646 -0.3936
 7371SOL     OW33574   1.371   4.394  12.428 -0.2103  0.1265 -0.4425
 7371SOL    HW133575   1.429   4.358  12.495 -1.8855 -2.5576 -0.4043
 7371SOL    HW233576   1.288   4.376  12.472 -0.1268 -0.8302 -0.6657
 7372SOL     OW33577   3.212   1.133  14.319 -0.2349  0.7406 -0.5965
 7372SOL    HW133578   3.133   1.147  14.266 -0.3286 -0.7007 -0.8468
 7372SOL    HW233579   3.249   1.054  14.280 -0.5478  0.9645 -1.3613
 7373SOL     OW33580   2.081   1.697   4.107  0.3678 -0.1726 -0.2808
 7373SOL    HW133581   2.130   1.664   4.032 -0.7975 -1.8597 -0.2887
 7373SOL    HW233582   2.115   1.635   4.171  2.0956 -0.6897 -1.7189
 7374SOL     OW33583   2.925   4.640   6.449  0.0619  0.5911 -0.3534
 7374SOL    HW133584   2.905   4.688   6.530 -0.9521 -0.9960  0.3339
 7374SOL    HW233585   2.857   4.574   6.435  1.7584 -1.2103 -0.0885
 7375SOL     OW33586   3.816   1.359   4.264 -0.1232 -0.1276  0.0094
 7375SOL    HW133587   3.790   1.446   4.293  1.4045  0.1015  0.6903
 7375SOL    HW233588   3.842   1.314   4.344  3.4408 -0.3244 -1.2529
 7376SOL     OW33589   1.476   1.050  16.930 -0.1590 -0.1720 -0.0991
 7376SOL    HW133590   1.530   1.020  16.856  0.9397  1.0067  0.2292
 7376SOL    HW233591   1.548   1.077  16.988 -0.4085 -2.1176  1.1058
 7377SOL     OW33592   3.304   3.161   0.649 -0.4928  0.0955  0.0318
 7377SOL    HW133593   3.370   3.103   0.688  1.5374  1.6668 -1.0850
 7377SOL    HW233594   3.353   3.194   0.574 -1.9426 -1.2485 -1.4891
 7378SOL     OW33595   1.177   4.196   8.287  0.1508 -0.6538 -0.0552
 7378SOL    HW133596   1.148   4.123   8.233  0.3056 -0.3712 -0.5137
 7378SOL    HW233597   1.266   4.167   8.312 -0.8272 -2.7969  0.9947
 7379SOL     OW33598   2.107   2.851   1.081  0.0059 -0.5428  0.0397
 7379SOL    HW133599   2.189   2.816   1.045  1.9767  2.7455  1.3534
 7379SOL    HW233600   2.040   2.812   1.024 -0.2606  0.6125 -0.4332
 7380SOL     OW33601   0.343   3.057   0.306 -0.7774  0.1037 -0.4476
 7380SOL    HW133602   0.312   3.111   0.233  0.2509  2.1202  0.6179
 7380SOL    HW233603   0.428   3.097   0.323 -0.7478  0.0191 -0.3975
 7381SOL     OW33604   3.782   1.243   6.906  0.3954  0.3985  0.5442
 7381SOL    HW133605   3.780   1.148   6.893  1.0517  0.1537  2.1826
 7381SOL    HW233606   3.850   1.257   6.840  0.1962  0.3945  0.3404
 7382SOL     OW33607   3.707   2.008   6.805  0.3375  0.3567  0.0058
 7382SOL    HW133608   3.759   2.083   6.774 -2.0854  2.4580  1.0418
 7382SOL    HW233609   3.628   2.026   6.755  0.7089  0.8768 -0.4004
 7383SOL     OW33610   3.443   0.657   0.321 -0.0016 -0.1381  0.0615
 7383SOL    HW133611   3.492   0.599   0.262  1.2908  2.8653 -1.7841
 7383SOL    HW233612   3.354   0.624   0.313  1.9393 -5.2770 -0.4442
 7384SOL     OW33613   3.352   0.152   4.411  0.2810 -0.4779  0.2204
 7384SOL    HW133614   3.431   0.111   4.448  0.2579  0.0734  0.8713
 7384SOL    HW233615   3.291   0.152   4.484 -1.9434  0.7873 -1.6477
 7385SOL     OW33616   4.489   4.505  10.309 -0.2341  0.2327  0.4741
 7385SOL    HW133617   4.497   4.599  10.297 -0.7197 -0.0369 -2.0560
 7385SOL    HW233618   4.554   4.475  10.373  0.9301 -0.0676 -0.8574
 7386SOL     OW33619   0.291   4.462   9.815  0.0774  0.0653 -0.3159
 7386SOL    HW133620   0.213   4.507   9.782 -0.7983 -1.0517  0.2404
 7386SOL    HW233621   0.353   4.515   9.764 -0.0917  0.2532 -0.3280
 7387SOL     OW33622   3.534   1.440   8.001 -0.3299  0.3037  0.6008
 7387SOL    HW133623   3.492   1.515   7.959  0.3019  1.2714  1.7019
 7387SOL    HW233624   3.467   1.373   7.985  1.0868 -0.8393 -0.6116
 7388SOL     OW33625   3.025   2.235  14.926 -0.1283 -0.6131  0.3143
 7388SOL    HW133626   3.044   2.269  15.013  0.4302 -0.1536  0.0092
 7388SOL    HW233627   2.957   2.288  14.885 -0.0333 -1.4076 -0.8676
 7389SOL     OW33628   4.203   3.028  11.685 -0.3165  0.0959 -0.0466
 7389SOL    HW133629   4.280   3.060  11.732 -0.5948 -0.3380  0.7088
 7389SOL    HW233630   4.194   2.940  11.722  2.3790 -0.1619  0.0030
 7390SOL     OW33631   0.500   0.233   4.501 -0.6935  0.8829 -0.0361
 7390SOL    HW133632   0.405   0.235   4.513 -0.5508  0.7723  1.1643
 7390SOL    HW233633   0.541   0.269   4.580 -0.8600  0.4603  0.2441
 7391SOL     OW33634   3.760   4.344   5.098  0.6073  0.1391  0.2723
 7391SOL    HW133635   3.834   4.380   5.048 -1.7219  3.1810 -1.0290
 7391SOL    HW233636   3.798   4.339   5.186  0.1175 -0.6272  0.4365
 7392SOL     OW33637   3.674   1.116  10.479 -0.2356  0.0950 -0.5333
 7392SOL    HW133638   3.768   1.100  10.470 -0.0226 -0.0533  1.9335
 7392SOL    HW233639   3.663   1.197  10.430  1.0894  0.7913  0.3352
 7393SOL     OW33640   0.601   0.537  11.367 -0.4732  0.8650 -0.1815
 7393SOL    HW133641   0.529   0.600  11.362  1.1489  2.7024  0.0155
 7393SOL    HW233642   0.615   0.524  11.461 -1.2401 -1.0846 -0.3389
 7394SOL     OW33643   2.582   0.475   0.385 -0.3570 -0.6800  0.0849
 7394SOL    HW133644   2.646   0.527   0.433  0.6429 -1.3014 -0.5800
 7394SOL    HW233645   2.516   0.452   0.450 -0.5947 -2.0471 -0.6305
 7395SOL     OW33646   0.487   2.231   5.184  0.2526  0.4749 -0.2147
 7395SOL    HW133647   0.519   2.298   5.123  1.9993 -1.9481 -1.9541
 7395SOL    HW233648   0.393   2.250   5.182  0.6523  2.5982  1.0488
 7396SOL     OW33649   1.111   3.962   5.232 -0.3771 -0.8292 -0.6104
 7396SOL    HW133650   1.151   3.920   5.156 -0.8187 -1.3428 -0.5525
 7396SOL    HW233651   1.036   3.904   5.244 -0.4994 -1.1554 -3.0339
 7397SOL     OW33652   3.508   0.415   1.774  0.4485  0.4561 -0.2753
 7397SOL    HW133653   3.503   0.426   1.679  1.4566 -0.1173 -0.3887
 7397SOL    HW233654   3.432   0.357   1.780  1.4033 -0.8854 -1.1312
 7398SOL     OW33655   0.306   4.023   0.710  0.0168  0.1887  0.1601
 7398SOL    HW133656   0.303   4.009   0.615 -0.5118  1.2085  0.0257
 7398SOL    HW233657   0.392   3.990   0.734 -0.5651  0.7250  2.9244
 7399SOL     OW33658   3.704   2.247   8.476  0.5834 -0.2561  0.1012
 7399SOL    HW133659   3.774   2.288   8.527  0.6234 -1.9677  1.4115
 7399SOL    HW233660   3.638   2.226   8.542  0.1216 -0.1951 -0.3439
 7400SOL     OW33661   2.093   0.871   8.424  0.1552  0.4289  0.0052
 7400SOL    HW133662   2.003   0.874   8.392  0.4469  0.7698 -0.7729
 7400SOL    HW233663   2.075   0.826   8.507  1.6253 -0.1640  0.0183
 7401SOL     OW33664   4.578   3.408  15.803  0.2694  0.5805  0.1340
 7401SOL    HW133665   4.544   3.419  15.714 -1.4437 -1.1220  0.5547
 7401SOL    HW233666   4.619   3.491  15.827 -0.3975  0.9990 -0.1647
 7402SOL     OW33667   3.919   1.511   1.436 -0.1576 -0.5615 -0.1576
 7402SOL    HW133668   3.945   1.516   1.528  0.9971  2.4463 -0.6489
 7402SOL    HW233669   3.825   1.491   1.437 -0.1154 -0.7456  0.3901
 7403SOL     OW33670   0.825   4.008   3.183  0.5618 -0.2495 -0.5275
 7403SOL    HW133671   0.770   4.055   3.121 -1.0359  0.0653  1.1438
 7403SOL    HW233672   0.913   4.029   3.150  1.1255 -2.0772 -0.1639
 7404SOL     OW33673   2.568   3.128  14.358 -0.1858  0.2039 -0.0718
 7404SOL    HW133674   2.478   3.101  14.378  0.0442 -1.5525 -1.4007
 7404SOL    HW233675   2.548   3.175  14.277 -0.9224  3.0816  1.7817
 7405SOL     OW33676   0.379   0.381  11.916  0.3655 -0.2533 -0.0706
 7405SOL    HW133677   0.354   0.304  11.966  1.1050  0.9574  2.1804
 7405SOL    HW233678   0.473   0.373  11.901  0.3204 -0.9827  0.0442
 7406SOL     OW33679   3.535   3.937   3.641  0.2722  0.5372  0.3123
 7406SOL    HW133680   3.481   3.964   3.567 -0.2076 -2.7593 -0.5321
 7406SOL    HW233681   3.491   3.854   3.663  1.6227 -0.1312  0.4998
 7407SOL     OW33682   2.606   0.963   5.959 -1.1521 -0.1720  1.0428
 7407SOL    HW133683   2.603   0.878   6.002  0.4267 -1.5465 -1.6511
 7407SOL    HW233684   2.619   0.924   5.873 -2.3584 -1.1886  1.3158
 7408SOL     OW33685   1.052   2.221   7.962 -0.0574 -0.1130 -0.2249
 7408SOL    HW133686   0.976   2.252   8.011 -0.0310 -1.4747  0.6705
 7408SOL    HW233687   1.066   2.140   8.011 -0.2455 -1.0868 -1.7638
 7409SOL     OW33688   1.401   1.881   9.698  0.0574  0.0618 -0.3482
 7409SOL    HW133689   1.476   1.856   9.751  0.1590  3.4263  1.0750
 7409SOL    HW233690   1.418   1.831   9.618 -2.0152  1.3684 -1.6225
 7410SOL     OW33691   0.717   0.935   2.295  0.4197 -0.2819 -0.3822
 7410SOL    HW133692   0.625   0.921   2.317  0.3199 -0.6417 -1.0435
 7410SOL    HW233693   0.763   0.919   2.378 -0.0939 -0.2465 -0.0884
 7411SOL     OW33694   4.230   1.450   4.208 -0.0598  0.1725  0.2969
 7411SOL    HW133695   4.154   1.465   4.151  0.4841 -1.3131 -0.8037
 7411SOL    HW233696   4.278   1.531   4.190  0.6332 -0.2103  0.4322
 7412SOL     OW33697   4.065   4.713  14.783  0.5111 -0.1004  0.4354
 7412SOL    HW133698   4.130   0.062  14.811  0.5348 -0.6578  1.6910
 7412SOL    HW233699   3.995   0.050  14.747  0.8015 -0.2633 -0.3517
 7413SOL     OW33700   4.679   4.286   1.038  0.0296 -0.4458 -0.5942
 7413SOL    HW133701   4.591   4.320   1.047 -1.3478 -3.5109 -2.4985
 7413SOL    HW233702   0.019   4.358   1.010  1.1146  0.2728  3.3842
 7414SOL     OW33703   0.354   0.047  12.530 -0.2043  0.3088  0.0609
 7414SOL    HW133704   0.366   4.692  12.594  0.8855 -0.4913 -1.0174
 7414SOL    HW233705   0.382   0.001  12.451 -0.6239 -0.8289  0.5585
 7415SOL     OW33706   2.729   1.684  14.505 -0.1724  0.0008 -0.1551
 7415SOL    HW133707   2.710   1.661  14.597  0.9271  2.4976  0.6970
 7415SOL    HW233708   2.812   1.648  14.475  0.8753  0.8561  1.6702
 7416SOL     OW33709   2.944   2.236   5.267  0.0681  0.4124 -0.0334
 7416SOL    HW133710   2.898   2.304   5.217 -0.0166  1.7853  1.8574
 7416SOL    HW233711   3.034   2.268   5.267  0.2077  0.0066 -0.2961
 7417SOL     OW33712   1.909   2.273   6.575 -0.1374 -0.2746  0.1486
 7417SOL    HW133713   1.845   2.231   6.633  0.6896 -0.3332  1.0184
 7417SOL    HW233714   1.871   2.253   6.489 -1.5103 -2.4073  1.2659
 7418SOL     OW33715   1.759   1.911  15.773  0.5179  0.4616  0.0562
 7418SOL    HW133716   1.756   1.816  15.786 -1.0948  0.5972  0.6060
 7418SOL    HW233717   1.782   1.941  15.861  2.9962  2.9595 -1.4350
 7419SOL     OW33718   1.477   3.289   4.140  0.5644 -0.5204  0.0269
 7419SOL    HW133719   1.571   3.274   4.134  0.3458 -1.5395 -0.7577
 7419SOL    HW233720   1.468   3.336   4.223  1.7968  0.5068 -0.4206
 7420SOL     OW33721   3.969   2.189   0.574 -0.0894 -0.0541  0.4579
 7420SOL    HW133722   4.020   2.128   0.522 -0.2415  1.2989 -1.2988
 7420SOL    HW233723   3.974   2.149   0.660  1.9137  1.5283  1.0569
 7421SOL     OW33724   1.260   2.580   7.113  0.1127  0.2070  0.1841
 7421SOL    HW133725   1.180   2.587   7.166 -0.4323  0.6439 -0.6920
 7421SOL    HW233726   1.232   2.642   7.045 -0.0455  0.8926  0.8710
 7422SOL     OW33727   2.745   0.995   6.534  0.3638 -0.2770 -0.0250
 7422SOL    HW133728   2.812   1.061   6.513  0.8563  0.1998  3.1267
 7422SOL    HW233729   2.672   1.052   6.561  0.9185  0.4662 -0.0880
 7423SOL     OW33730   0.556   3.078  10.838 -0.3996  0.3791 -0.2257
 7423SOL    HW133731   0.567   3.013  10.907 -0.8858  0.8241  0.2758
 7423SOL    HW233732   0.564   3.028  10.757  2.3959  0.7947 -0.2081
 7424SOL     OW33733   2.249   4.509   0.295  0.0070  0.4335  0.0919
 7424SOL    HW133734   2.298   4.588   0.320  1.2178 -0.3232  0.0995
 7424SOL    HW233735   2.162   4.539   0.321 -0.6992 -2.7676  1.4537
 7425SOL     OW33736   1.754   1.728   2.615  0.5096 -0.1027 -0.0236
 7425SOL    HW133737   1.831   1.738   2.671 -0.0550 -2.4955  1.1824
 7425SOL    HW233738   1.690   1.785   2.657  0.3640 -0.1661 -0.1606
 7426SOL     OW33739   4.132   0.829  11.770 -0.5028 -0.1450  0.3132
 7426SOL    HW133740   4.157   0.753  11.718 -0.7473  1.1859 -1.7463
 7426SOL    HW233741   4.197   0.808  11.837 -0.4297 -0.2790  0.2005
 7427SOL     OW33742   0.551   3.196   3.803  0.5562 -0.2748  0.4355
 7427SOL    HW133743   0.610   3.179   3.730  0.2393  2.0974 -0.3969
 7427SOL    HW233744   0.472   3.236   3.767  0.7607  0.2400  0.5476
 7428SOL     OW33745   0.668   1.488   3.092  0.4847  0.2856 -0.1247
 7428SOL    HW133746   0.652   1.574   3.131 -0.7888  0.8931 -1.9641
 7428SOL    HW233747   0.611   1.425   3.136  0.7255 -0.1823 -0.4956
 7429SOL     OW33748   3.025   0.648   3.068  0.0394 -0.5282 -0.0226
 7429SOL    HW133749   3.006   0.736   3.038  0.8599 -1.1529 -2.3571
 7429SOL    HW233750   2.951   0.622   3.014 -0.6662 -1.0209  1.1605
 7430SOL     OW33751   0.072   3.459   8.817  0.0619 -0.1110 -0.3666
 7430SOL    HW133752   0.010   3.529   8.839 -0.9320 -0.6088 -1.5936
 7430SOL    HW233753   0.010   3.387   8.809 -1.7348  1.2997  0.7970
 7431SOL     OW33754   1.747   2.814   7.888 -0.4961  0.7296 -0.1263
 7431SOL    HW133755   1.681   2.757   7.848  0.8660 -1.6605  1.0735
 7431SOL    HW233756   1.824   2.795   7.834 -0.0161 -2.7332  1.8006
 7432SOL     OW33757   4.120   4.001  11.276  0.1768 -0.2733 -0.0808
 7432SOL    HW133758   4.118   4.093  11.303  0.8690 -0.9038  2.0832
 7432SOL    HW233759   4.027   3.979  11.287  0.6109 -0.8106  2.6599
 7433SOL     OW33760   0.249   4.034  10.066  0.0412 -0.0742  0.4868
 7433SOL    HW133761   0.205   3.994   9.991  1.3554  0.4896 -0.5873
 7433SOL    HW233762   0.271   4.121  10.034 -1.0931  0.6605  1.7183
 7434SOL     OW33763   1.852   0.779   2.463 -0.0186  0.0808  0.1313
 7434SOL    HW133764   1.766   0.740   2.478  0.8002 -2.1389 -0.8957
 7434SOL    HW233765   1.901   0.701   2.436 -0.4814 -0.7473  1.6481
 7435SOL     OW33766   4.271   3.744   5.671 -0.5081  0.4506 -0.1078
 7435SOL    HW133767   4.364   3.744   5.696 -0.9050 -2.1884  1.3337
 7435SOL    HW233768   4.240   3.658   5.698 -0.2311  0.7589  1.2340
 7436SOL     OW33769   1.048   2.821   5.989  0.2661  0.0303 -0.0803
 7436SOL    HW133770   1.071   2.901   6.036 -0.6025  0.6334 -0.6717
 7436SOL    HW233771   1.121   2.800   5.931  0.5111  2.5858 -0.6954
 7437SOL     OW33772   2.311   0.069   6.202  0.0003  0.3968 -0.2545
 7437SOL    HW133773   2.386   0.060   6.260  0.0121 -1.0569 -0.4916
 7437SOL    HW233774   2.253   4.712   6.223  1.5951 -0.2059  1.9998
 7438SOL     OW33775   4.697   0.439  11.554 -0.2960 -0.5370  0.2614
 7438SOL    HW133776   4.695   0.501  11.481  1.9680 -1.7317 -0.8157
 7438SOL    HW233777   0.053   0.470  11.608  0.3311 -0.5564 -0.5561
 7439SOL     OW33778   3.933   1.241  16.735 -0.4322 -0.2364  0.6751
 7439SOL    HW133779   3.866   1.299  16.772  0.7970 -0.6069  3.4566
 7439SOL    HW233780   3.882   1.204  16.663 -0.1993  1.6947 -0.5090
 7440SOL     OW33781   0.691   0.273   7.766  0.0862  0.3612 -0.0149
 7440SOL    HW133782   0.730   0.185   7.767 -2.6554 -0.8320  0.0815
 7440SOL    HW233783   0.756   0.332   7.804 -0.4090  1.9852 -1.6965
 7441SOL     OW33784   0.852   4.307   5.511  0.1813 -0.2192 -0.0285
 7441SOL    HW133785   0.917   4.238   5.502 -0.6656 -0.8225 -1.5912
 7441SOL    HW233786   0.897   4.376   5.558 -0.8753 -0.5735  1.5295
 7442SOL     OW33787   3.779   2.793  12.961 -0.5379 -0.5940  0.3685
 7442SOL    HW133788   3.757   2.793  13.055  4.7979 -0.4124  1.6214
 7442SOL    HW233789   3.792   2.699  12.950  2.6526 -0.0939 -0.2061
 7443SOL     OW33790   0.544   0.725  16.904  0.3149  0.2988 -0.4771
 7443SOL    HW133791   0.494   0.661  16.852 -0.9422 -0.3154  1.4345
 7443SOL    HW233792   0.514   0.713  16.995 -2.2947 -0.7692 -1.4678
 7444SOL     OW33793   2.832   4.398   6.406  0.1424  0.1781 -0.1867
 7444SOL    HW133794   2.839   4.316   6.454 -0.8509  0.2162  0.0330
 7444SOL    HW233795   2.913   4.396   6.355 -0.0513  2.1496 -0.5833
 7445SOL     OW33796   2.446   1.226   7.738  0.5613  0.4285  0.4846
 7445SOL    HW133797   2.407   1.139   7.726 -1.5216  1.5064 -0.6944
 7445SOL    HW233798   2.389   1.248   7.813 -0.0280  0.1372  0.1262
 7446SOL     OW33799   0.996   1.160   3.355  0.0219 -0.7299 -0.0020
 7446SOL    HW133800   0.962   1.132   3.440 -0.4770 -0.6742 -0.1793
 7446SOL    HW233801   1.035   1.082   3.317  2.8071  0.7170 -0.1143
 7447SOL     OW33802   1.881   1.156   6.688 -0.5003 -0.1052  0.1284
 7447SOL    HW133803   1.924   1.156   6.773  0.3851 -1.0266 -0.3174
 7447SOL    HW233804   1.903   1.245   6.660 -0.7316 -0.0284  0.1942
 7448SOL     OW33805   1.957   0.991  12.883  0.2316 -0.4653 -0.3801
 7448SOL    HW133806   2.002   1.030  12.808  0.9026 -0.5496 -0.0201
 7448SOL    HW233807   1.914   1.068  12.920 -2.4111 -1.6672 -0.9254
 7449SOL     OW33808   0.088   0.688   6.570 -0.6101  0.1823  0.2937
 7449SOL    HW133809   0.019   0.675   6.636  1.7583  0.0368  2.7430
 7449SOL    HW233810   0.131   0.769   6.595  0.9128 -0.5139 -0.0594
 7450SOL     OW33811   2.880   3.564   3.726 -0.3801 -0.1743  0.6556
 7450SOL    HW133812   2.839   3.486   3.689 -0.3982  0.8808 -1.5565
 7450SOL    HW233813   2.959   3.575   3.673 -0.4608 -1.6080  0.2560
 7451SOL     OW33814   3.958   2.901   4.899  0.2152 -0.1873 -0.5172
 7451SOL    HW133815   3.878   2.894   4.952  0.4649  1.0255  0.0014
 7451SOL    HW233816   4.009   2.826   4.929 -0.4427 -0.0754  0.8627
 7452SOL     OW33817   1.062   1.816   2.485 -0.3235  0.2382 -0.2130
 7452SOL    HW133818   1.121   1.867   2.429  2.3725 -2.5727  0.1089
 7452SOL    HW233819   1.049   1.873   2.561 -0.4099  0.0794 -0.1085
 7453SOL     OW33820   1.622   3.913   5.486  0.0342  0.4412 -0.4906
 7453SOL    HW133821   1.645   3.945   5.399 -0.9175 -1.4457 -1.4487
 7453SOL    HW233822   1.702   3.862   5.502 -0.9276 -1.1082 -0.6030
 7454SOL     OW33823   1.159   2.237   7.144 -0.0727  0.2983 -0.3463
 7454SOL    HW133824   1.086   2.274   7.194 -0.1814  0.0482 -0.3176
 7454SOL    HW233825   1.234   2.241   7.203 -1.0572 -2.8595  1.1513
 7455SOL     OW33826   4.232   3.049   4.640  0.2466 -0.0907 -0.5188
 7455SOL    HW133827   4.192   3.136   4.635 -0.4537 -0.4282 -0.7487
 7455SOL    HW233828   4.300   3.059   4.573 -0.0081 -0.7266 -0.8707
 7456SOL     OW33829   0.551   3.122   0.088  0.1252 -0.4147  0.1470
 7456SOL    HW133830   0.604   3.147   0.164 -0.0403 -0.3559  0.2430
 7456SOL    HW233831   0.616   3.126   0.019 -2.2066  1.1098 -1.9554
 7457SOL     OW33832   0.085   1.053   4.179  0.2767  0.1499 -0.2177
 7457SOL    HW133833   0.155   1.098   4.227 -1.0945  0.9666  1.0233
 7457SOL    HW233834   0.083   0.961   4.207  0.0666 -0.0784 -1.0004
 7458SOL     OW33835   2.448   0.476   8.380  0.1684 -0.4052 -0.2895
 7458SOL    HW133836   2.496   0.548   8.420 -0.8118 -0.0877  0.3280
 7458SOL    HW233837   2.490   0.396   8.412 -1.5813 -1.4951 -0.7072
 7459SOL     OW33838   3.249   0.632   8.777  0.2842 -0.3868 -0.1227
 7459SOL    HW133839   3.238   0.678   8.694 -1.1131 -0.0078  0.2605
 7459SOL    HW233840   3.168   0.583   8.793 -0.2931  0.5347 -0.2104
 7460SOL     OW33841   0.644   4.236   5.986  0.0498 -1.0432 -0.5637
 7460SOL    HW133842   0.591   4.157   5.980 -2.3327  0.4549  0.8987
 7460SOL    HW233843   0.574   4.300   5.978 -0.9409 -1.9942  0.5343
 7461SOL     OW33844   3.661   2.182  13.889  0.4471 -0.5501  0.8736
 7461SOL    HW133845   3.586   2.125  13.902  0.0385 -0.6126 -1.9031
 7461SOL    HW233846   3.632   2.265  13.851  2.2833 -0.8546 -1.1757
 7462SOL     OW33847   3.352   2.229   1.411 -0.4170  0.5225  0.9101
 7462SOL    HW133848   3.300   2.166   1.460  1.0734 -2.0754 -0.8729
 7462SOL    HW233849   3.280   2.265   1.359 -0.3163 -1.8488 -0.8673
 7463SOL     OW33850   1.239   3.039   9.651 -0.2927  0.0518 -0.1636
 7463SOL    HW133851   1.229   2.944   9.649 -2.0914  0.2243  0.6471
 7463SOL    HW233852   1.316   3.050   9.595 -0.9895  2.9828 -0.5741
 7464SOL     OW33853   0.458   1.230   2.064  0.0045 -0.0732 -0.8036
 7464SOL    HW133854   0.429   1.266   1.980 -1.2080  2.9661  0.9339
 7464SOL    HW233855   0.482   1.317   2.095 -1.7392 -0.3194  1.2291
 7465SOL     OW33856   0.559   3.727   1.681  0.7997  0.0460  0.2697
 7465SOL    HW133857   0.504   3.676   1.740  2.1416 -2.1022 -0.3684
 7465SOL    HW233858   0.598   3.658   1.628  0.9265 -0.3352  0.8618
 7466SOL     OW33859   2.813   2.966   2.036 -0.0026  0.0136  0.1402
 7466SOL    HW133860   2.762   3.030   2.085 -0.0994  0.6373 -0.7622
 7466SOL    HW233861   2.794   2.883   2.079 -0.5374  0.2810  0.4231
 7467SOL     OW33862   4.704   0.940   7.828 -0.0326 -0.2018 -0.4404
 7467SOL    HW133863   4.654   0.886   7.889 -0.4919  0.6204 -0.0954
 7467SOL    HW233864   0.068   0.889   7.837 -1.6533 -3.0128 -1.7315
 7468SOL     OW33865   2.441   0.434   8.093 -0.1036  0.9736 -0.3193
 7468SOL    HW133866   2.423   0.484   8.172 -0.3541 -0.7723  0.7193
 7468SOL    HW233867   2.524   0.477   8.072  0.7907 -0.3788  0.4398
 7469SOL     OW33868   3.309   1.237   6.089 -0.1334  0.1977  0.0946
 7469SOL    HW133869   3.215   1.256   6.088  0.2149  1.9514  1.0037
 7469SOL    HW233870   3.331   1.234   6.182  0.5880 -3.6244 -0.1829
 7470SOL     OW33871   4.213   0.687   1.375  0.0769  0.2584 -0.0996
 7470SOL    HW133872   4.273   0.674   1.449 -1.3794  0.1912  1.0821
 7470SOL    HW233873   4.193   0.598   1.350  2.4343 -0.0108 -1.0567
 7471SOL     OW33874   3.725   1.499   2.943 -0.2505  0.1584  0.4768
 7471SOL    HW133875   3.655   1.538   2.890 -1.3779 -0.5934  1.4192
 7471SOL    HW233876   3.697   1.520   3.032 -0.1093 -0.8870  0.7711
 7472SOL     OW33877   3.841   2.598   3.371  0.0793  0.2406 -0.2058
 7472SOL    HW133878   3.832   2.655   3.295  1.0186  1.8873  0.9031
 7472SOL    HW233879   3.795   2.520   3.340  0.0226  0.0592  0.3273
 7473SOL     OW33880   2.973   2.602  15.161 -0.2358 -0.0468 -0.4637
 7473SOL    HW133881   2.943   2.686  15.198  0.7299  0.8165 -1.6646
 7473SOL    HW233882   2.925   2.613  15.079 -1.8810  1.2582  0.6428
 7474SOL     OW33883   2.614   4.558  15.369 -0.3122  0.7179  0.2383
 7474SOL    HW133884   2.518   4.566  15.368 -0.3648 -0.4472 -3.1717
 7474SOL    HW233885   2.650   4.646  15.379  0.8315  0.0083  2.2275
 7475SOL     OW33886   4.199   3.215   1.204 -0.2283 -0.1166 -0.1583
 7475SOL    HW133887   4.118   3.262   1.186  0.2776  0.7809 -0.1145
 7475SOL    HW233888   4.262   3.286   1.193  1.0741 -1.3058 -0.3561
 7476SOL     OW33889   1.262   2.039   8.165 -0.3995  0.6984  0.3896
 7476SOL    HW133890   1.208   2.026   8.087 -0.7820  0.8219  0.6375
 7476SOL    HW233891   1.263   1.947   8.191  0.6982  1.3154  2.5702
 7477SOL     OW33892   2.557   1.849  13.689 -0.0105 -0.0059  0.3196
 7477SOL    HW133893   2.540   1.841  13.783  0.4056  2.5390  0.6165
 7477SOL    HW233894   2.603   1.930  13.668 -1.0301  0.3755 -0.4623
 7478SOL     OW33895   0.431   0.993   7.110 -0.8261 -0.0531  0.4046
 7478SOL    HW133896   0.456   0.929   7.177 -1.2984 -0.8196 -0.1425
 7478SOL    HW233897   0.518   1.008   7.074 -0.3476 -1.4220  0.9862
 7479SOL     OW33898   2.099   1.016   4.275 -0.1345 -0.5142 -0.6769
 7479SOL    HW133899   2.161   1.084   4.302 -1.0182 -0.1225  0.3682
 7479SOL    HW233900   2.064   0.993   4.361 -1.5027 -0.3660 -1.1964
 7480SOL     OW33901   2.330   4.654  14.575 -0.2266  0.0811  0.2887
 7480SOL    HW133902   2.290   4.685  14.494  0.6662 -0.6038 -0.4168
 7480SOL    HW233903   2.413   4.618  14.544  2.2014  0.9355  5.8135
 7481SOL     OW33904   1.924   2.311   6.947 -0.3610  0.4900  0.0689
 7481SOL    HW133905   1.859   2.244   6.923 -0.4012 -0.3184  2.4111
 7481SOL    HW233906   1.865   2.370   6.994 -1.5689  0.9478 -2.0259
 7482SOL     OW33907   2.552   3.257  12.331  0.7786 -0.1608  0.5232
 7482SOL    HW133908   2.526   3.349  12.334  3.4221  0.6152 -0.3914
 7482SOL    HW233909   2.643   3.276  12.310  0.4630  0.6010 -0.1543
 7483SOL     OW33910   2.689   4.715  12.460 -0.2096  0.4356 -0.3478
 7483SOL    HW133911   2.764   0.035  12.507 -0.8415 -0.7489  1.5935
 7483SOL    HW233912   2.724   4.696  12.374  3.3105  0.3737  1.0986
 7484SOL     OW33913   1.522   3.314   4.644  0.1105 -0.2934  1.1591
 7484SOL    HW133914   1.562   3.378   4.704 -3.0053  1.9148  0.8548
 7484SOL    HW233915   1.501   3.373   4.572 -1.9192 -0.6147  1.4984
 7485SOL     OW33916   3.029   3.871   3.756  0.3882  0.1683 -0.0080
 7485SOL    HW133917   3.081   3.794   3.777 -0.9177 -0.4376  1.0324
 7485SOL    HW233918   2.990   3.888   3.841  0.6269 -0.2131  0.1776
 7486SOL     OW33919   3.166   2.566  17.613  0.4806  0.6138 -0.3855
 7486SOL    HW133920   3.238   2.619  17.647 -0.8349  1.3533  1.2540
 7486SOL    HW233921   3.211   2.497  17.563  1.6236  0.1594  1.2911
 7487SOL     OW33922   2.480   0.211  12.405 -0.1150  0.8737  0.5752
 7487SOL    HW133923   2.516   0.125  12.424  0.5532  0.4839 -2.3459
 7487SOL    HW233924   2.491   0.254  12.490  2.7566 -0.1497  0.7355
 7488SOL     OW33925   4.237   0.385   8.656  0.2690 -0.4922  0.0174
 7488SOL    HW133926   4.182   0.405   8.579  0.4203  0.3211  0.1151
 7488SOL    HW233927   4.309   0.447   8.668  1.6933 -2.1673  0.0419
 7489SOL     OW33928   2.740   0.654   5.058  0.0893  0.0527  0.1113
 7489SOL    HW133929   2.687   0.718   5.104 -1.9989 -0.8394 -1.0556
 7489SOL    HW233930   2.812   0.696   5.012 -1.4530  0.2377 -2.1278
 7490SOL     OW33931   1.117   4.259   5.011  0.4469 -0.0837  0.1366
 7490SOL    HW133932   1.065   4.311   5.072  2.5366  2.2545 -0.0436
 7490SOL    HW233933   1.203   4.280   5.049  0.5677 -0.5596  0.1225
 7491SOL     OW33934   2.118   0.648   5.357  0.5706  0.0533 -0.3140
 7491SOL    HW133935   2.155   0.565   5.385  1.3980  0.9566  1.2918
 7491SOL    HW233936   2.190   0.708   5.377  1.4382 -1.1286  0.1252
 7492SOL     OW33937   0.361   2.329   1.187  0.6781  0.0769  0.2963
 7492SOL    HW133938   0.444   2.284   1.168  0.5687  1.1766 -2.6755
 7492SOL    HW233939   0.361   2.390   1.113  0.1996 -0.7868 -0.4118
 7493SOL     OW33940   4.623   2.769   5.594  0.8434  0.0925 -0.1020
 7493SOL    HW133941   4.701   2.795   5.643 -0.2398 -0.0447  1.6831
 7493SOL    HW233942   4.608   2.857   5.558  1.4076 -0.7441 -2.4292
 7494SOL     OW33943   4.541   3.486   0.557 -0.0128 -0.0265 -0.4822
 7494SOL    HW133944   4.494   3.570   0.555  0.7247  0.4169  0.7072
 7494SOL    HW233945   4.634   3.506   0.559  0.1180 -0.6977  0.0064
 7495SOL     OW33946   0.507   3.504   9.833 -0.3308 -0.1328  0.1790
 7495SOL    HW133947   0.536   3.422   9.795 -0.2089  0.5799 -1.2553
 7495SOL    HW233948   0.429   3.471   9.878  0.3762 -0.9396  0.8077
 7496SOL     OW33949   0.695   0.695  12.568 -0.4789  0.2284  0.8181
 7496SOL    HW133950   0.782   0.735  12.567 -0.8362  0.9871  0.8335
 7496SOL    HW233951   0.670   0.710  12.477  0.2856 -1.7635  0.2793
 7497SOL     OW33952   1.060   1.861   4.958 -0.0740 -0.2286  0.3608
 7497SOL    HW133953   1.145   1.834   4.922  0.7954  1.1586  1.3771
 7497SOL    HW233954   1.014   1.876   4.876  0.2720 -2.9642 -0.3338
 7498SOL     OW33955   3.702   2.519   5.648  0.1345 -0.5372  0.1457
 7498SOL    HW133956   3.762   2.445   5.654 -0.7445 -1.2742 -0.3250
 7498SOL    HW233957   3.661   2.509   5.734  2.3019  2.3683  1.5429
 7499SOL     OW33958   1.136   1.930   6.409 -0.2308 -0.0912 -0.1484
 7499SOL    HW133959   1.129   1.973   6.494  0.8769 -2.0695  0.9370
 7499SOL    HW233960   1.229   1.926   6.387 -0.1776  2.5726 -0.3518
 7500SOL     OW33961   0.910   2.891  17.417 -0.2703  0.5043 -0.5305
 7500SOL    HW133962   0.984   2.832  17.405 -0.7268  0.1089 -1.3332
 7500SOL    HW233963   0.949   2.949  17.483 -0.5755 -0.7857  0.7738
 7501SOL     OW33964   2.547   3.144   6.953 -0.1227 -0.3414 -0.8036
 7501SOL    HW133965   2.541   3.053   6.923 -1.3474 -1.0834  1.6657
 7501SOL    HW233966   2.565   3.186   6.869 -0.3047  0.5394 -0.4057
 7502SOL     OW33967   4.484   0.274  11.355  0.2884 -0.0130 -0.8816
 7502SOL    HW133968   4.473   0.187  11.317  0.0573 -1.6617  2.9464
 7502SOL    HW233969   4.464   0.335  11.284 -2.5433  0.0304 -0.0388
 7503SOL     OW33970   4.572   1.526   6.157  0.0411 -0.4737 -0.9864
 7503SOL    HW133971   4.511   1.598   6.172  0.2242 -0.4376 -0.4175
 7503SOL    HW233972   4.613   1.524   6.244  1.4163  1.4475 -1.5845
 7504SOL     OW33973   3.201   3.493   3.299  0.4633  0.4690 -0.7497
 7504SOL    HW133974   3.276   3.480   3.357  1.3580 -0.3284 -2.1118
 7504SOL    HW233975   3.199   3.406   3.261  0.4246 -0.1027  0.5660
 7505SOL     OW33976   2.498   3.771  13.894  0.0239 -0.5651  0.6518
 7505SOL    HW133977   2.536   3.812  13.972  0.8834 -0.5194  0.2137
 7505SOL    HW233978   2.417   3.742  13.936  0.1981 -1.5895  0.2893
 7506SOL     OW33979   0.347   2.956  16.735 -0.2007 -0.1975  0.1306
 7506SOL    HW133980   0.283   3.025  16.719  0.9836  0.6025 -1.2159
 7506SOL    HW233981   0.342   2.942  16.829  6.4654  2.7322  0.9292
 7507SOL     OW33982   2.103   2.075   3.867 -0.0491 -0.0708  0.2938
 7507SOL    HW133983   2.089   2.050   3.776 -0.9849  0.4853  0.2813
 7507SOL    HW233984   2.196   2.060   3.882  0.3653  1.3962 -0.8947
 7508SOL     OW33985   3.985   1.685   7.334 -0.0554  0.5980  0.4951
 7508SOL    HW133986   4.047   1.658   7.267  1.6331 -2.0169  3.1103
 7508SOL    HW233987   4.037   1.747   7.385 -0.3261  4.6887 -4.1870
 7509SOL     OW33988   1.383   2.401   7.265  0.2331  0.0236  0.6681
 7509SOL    HW133989   1.334   2.459   7.205  1.5050  0.3554 -0.0500
 7509SOL    HW233990   1.456   2.459   7.285 -0.0240  1.3180 -2.0679
 7510SOL     OW33991   4.268   1.381   2.624 -0.2586  0.2783  0.1237
 7510SOL    HW133992   4.230   1.332   2.697 -0.0686 -0.5264 -0.3153
 7510SOL    HW233993   4.194   1.380   2.563  0.6832 -0.4253 -1.0164
 7511SOL     OW33994   0.187   1.387   6.703 -0.1496  0.9676 -0.1806
 7511SOL    HW133995   0.126   1.313   6.698  2.2994 -0.9555 -1.5797
 7511SOL    HW233996   0.267   1.349   6.665 -1.0834 -1.5920  0.4116
 7512SOL     OW33997   3.890   2.977   9.583 -0.7978  0.2491  0.1150
 7512SOL    HW133998   3.920   2.888   9.563 -0.6424  0.0511  1.2121
 7512SOL    HW233999   3.802   2.961   9.617 -1.6446  0.8461 -1.8082
 7513SOL     OW34000   2.968   1.687   3.083 -0.4167 -0.3640 -0.2734
 7513SOL    HW134001   2.961   1.665   2.990 -0.1828 -1.5398 -0.0063
 7513SOL    HW234002   3.045   1.744   3.071  0.4638 -1.3540  0.7428
 7514SOL     OW34003   2.683   2.507   4.952 -0.3760 -0.0702 -0.4902
 7514SOL    HW134004   2.640   2.589   4.976  0.6509 -0.4735  2.6379
 7514SOL    HW234005   2.735   2.538   4.878 -1.0369  2.6176  0.1777
 7515SOL     OW34006   0.460   4.219   6.828  0.3917  0.5225  0.2554
 7515SOL    HW134007   0.546   4.253   6.855 -0.7625  2.3271  1.6877
 7515SOL    HW234008   0.485   4.161   6.756  1.9985  0.5037  0.8146
 7516SOL     OW34009   2.172   0.984   5.607  0.7271  0.3687 -0.4665
 7516SOL    HW134010   2.206   1.006   5.694 -1.3374  2.4928 -0.1981
 7516SOL    HW234011   2.123   1.062   5.580 -1.2387 -1.2557 -1.6113
 7517SOL     OW34012   1.517   1.282  12.983  0.0046  0.2905  0.1133
 7517SOL    HW134013   1.470   1.200  12.966  3.4945 -1.7199  0.0432
 7517SOL    HW234014   1.505   1.287  13.078 -0.2927 -2.2709  0.2301
 7518SOL     OW34015   1.302   2.818   2.862 -0.4024  0.2513 -0.2281
 7518SOL    HW134016   1.214   2.855   2.865 -1.3020 -1.9901  1.4705
 7518SOL    HW234017   1.354   2.863   2.796 -0.3733  0.5587  0.0050
 7519SOL     OW34018   1.886   3.682   6.234 -0.8550 -0.0690 -0.5599
 7519SOL    HW134019   1.969   3.663   6.189 -0.8626  1.8012 -1.3573
 7519SOL    HW234020   1.902   3.775   6.248  0.1342 -0.4883  1.0506
 7520SOL     OW34021   2.665   3.587  15.223  0.0910  0.1774 -0.0541
 7520SOL    HW134022   2.673   3.680  15.201 -0.0949  0.4629  1.0517
 7520SOL    HW234023   2.646   3.556  15.135  2.0276 -0.6625 -0.1574
 7521SOL     OW34024   3.961   2.302   7.117 -0.1722  0.1151 -0.4901
 7521SOL    HW134025   4.006   2.322   7.035  2.6671 -0.9767  0.7965
 7521SOL    HW234026   4.025   2.245   7.161 -0.6775 -1.4474 -1.8028
 7522SOL     OW34027   1.300   0.209   2.113  0.3632 -0.0030 -0.4687
 7522SOL    HW134028   1.310   0.303   2.100  1.8689 -0.1780 -0.6042
 7522SOL    HW234029   1.358   0.202   2.189 -0.7538  1.2338  0.5090
 7523SOL     OW34030   0.953   3.014  13.468 -0.4229  0.1480  0.2570
 7523SOL    HW134031   0.937   3.062  13.549  0.1795  1.0108 -0.1369
 7523SOL    HW234032   1.003   3.065  13.405  0.8505 -1.1065  0.2797
 7524SOL     OW34033   2.817   2.741   0.308 -0.2935  0.0527 -0.0967
 7524SOL    HW134034   2.842   2.649   0.322  0.0255  0.0772 -0.5206
 7524SOL    HW234035   2.868   2.758   0.229 -0.4976  2.4898  0.2828
 7525SOL     OW34036   0.649   3.949  17.430 -0.7116 -0.2935 -0.1191
 7525SOL    HW134037   0.606   3.867  17.456  0.5431 -1.1008 -0.5571
 7525SOL    HW234038   0.720   3.911  17.377 -0.5785 -0.4450  0.1644
 7526SOL     OW34039   2.214   3.216  10.032 -0.3083 -0.1563  0.5418
 7526SOL    HW134040   2.305   3.227  10.061 -0.0197 -0.7731 -0.1383
 7526SOL    HW234041   2.169   3.216  10.117  1.6135 -1.7357  1.5692
 7527SOL     OW34042   4.009   0.992   5.089 -0.2774  0.4388 -0.3260
 7527SOL    HW134043   3.972   1.068   5.135  2.3751  0.8975  1.0340
 7527SOL    HW234044   4.016   1.011   4.996  0.2209  0.2220 -0.3343
 7528SOL     OW34045   2.560   0.213   2.927  0.4151 -0.2552 -0.2009
 7528SOL    HW134046   2.613   0.255   2.859 -1.6590  2.4873 -0.1527
 7528SOL    HW234047   2.492   0.168   2.877  0.9133  1.1529 -2.1574
 7529SOL     OW34048   4.470   0.325   2.759  0.2105  0.0196  0.0277
 7529SOL    HW134049   4.390   0.275   2.776  0.8316  0.0795  3.0879
 7529SOL    HW234050   4.478   0.358   2.848 -0.1006 -0.5134  0.2561
 7530SOL     OW34051   0.004   3.766   4.472 -0.1218 -0.0729  0.0358
 7530SOL    HW134052   4.674   3.740   4.392 -1.1047  0.3456  0.4705
 7530SOL    HW234053   0.061   3.697   4.508  1.1341  2.0291  2.0762
 7531SOL     OW34054   0.970   1.699  15.472 -0.0380  0.3870 -0.0463
 7531SOL    HW134055   0.993   1.664  15.387  1.1220 -0.8929  0.7957
 7531SOL    HW234056   1.054   1.708  15.517 -0.0472  0.6613 -0.0851
 7532SOL     OW34057   2.160   3.083   2.284  0.4043  0.0964  0.2033
 7532SOL    HW134058   2.091   3.136   2.243 -0.9619 -1.8950 -0.1052
 7532SOL    HW234059   2.231   3.070   2.221  0.5732 -0.9122  0.6086
 7533SOL     OW34060   4.645   1.855   7.579 -0.1612  0.0998  0.1794
 7533SOL    HW134061   4.677   1.858   7.670  0.3273  2.7449 -0.0676
 7533SOL    HW234062   4.703   1.794   7.533  1.4380  2.1558 -0.5760
 7534SOL     OW34063   3.872   0.173   8.566 -0.4041  0.1099 -0.2754
 7534SOL    HW134064   3.950   0.145   8.614  0.9883  1.0994 -1.9474
 7534SOL    HW234065   3.799   0.162   8.626 -0.6045 -1.1112 -0.7516
 7535SOL     OW34066   1.731   3.533   5.558  0.1360  0.1367 -0.4199
 7535SOL    HW134067   1.638   3.529   5.580  0.2915 -3.2204 -0.3984
 7535SOL    HW234068   1.764   3.589   5.629  0.2096  0.8595 -1.0289
 7536SOL     OW34069   1.475   1.347   2.985  0.1100  0.2065  0.1534
 7536SOL    HW134070   1.486   1.401   2.907  2.3461 -0.2825  0.1105
 7536SOL    HW234071   1.568   1.340   3.008  0.1216 -3.0721 -0.9236
 7537SOL     OW34072   4.656   2.640   5.309  0.2654 -0.3318  0.4962
 7537SOL    HW134073   4.651   2.707   5.241  2.9968 -0.6374  0.0222
 7537SOL    HW234074   4.610   2.678   5.384 -1.8716 -0.2002 -0.8577
 7538SOL     OW34075   0.078   0.566   7.124  0.3043  0.1710 -0.3074
 7538SOL    HW134076   0.077   0.508   7.047 -1.6855  0.0712 -0.2062
 7538SOL    HW234077   0.003   0.617   7.095 -0.8312 -1.6444 -0.6116
 7539SOL     OW34078   4.174   4.259  13.900 -0.5507 -0.2202 -0.3133
 7539SOL    HW134079   4.163   4.349  13.930 -1.0296  0.0140 -1.1716
 7539SOL    HW234080   4.239   4.275  13.831 -0.6373 -0.2766 -0.4079
 7540SOL     OW34081   1.914   4.134   8.285 -0.7577 -0.3469  0.3113
 7540SOL    HW134082   1.924   4.225   8.258  1.4183 -0.0866  1.9901
 7540SOL    HW234083   1.838   4.110   8.232 -0.7069 -1.8187  0.8816
 7541SOL     OW34084   0.418   3.784  12.075 -0.3563 -0.2067 -0.1072
 7541SOL    HW134085   0.487   3.833  12.031  1.4121 -1.1175  1.6527
 7541SOL    HW234086   0.470   3.717  12.122  1.0493  0.3007 -0.9468
 7542SOL     OW34087   1.821   1.352   7.962 -0.0828  0.1010 -0.0392
 7542SOL    HW134088   1.777   1.405   7.896  0.3423  1.0991  0.4921
 7542SOL    HW234089   1.893   1.406   7.994  0.0858 -0.9605  1.4220
 7543SOL     OW34090   2.899   2.880   6.427  0.0749  0.4084 -0.2347
 7543SOL    HW134091   2.827   2.832   6.469 -0.1478 -0.1822 -1.2901
 7543SOL    HW234092   2.958   2.806   6.415  0.2114  0.3642  0.7290
 7544SOL     OW34093   1.976   3.975   6.391  0.3872 -0.3140  0.2929
 7544SOL    HW134094   1.884   3.948   6.395 -0.2438  1.7307 -0.6403
 7544SOL    HW234095   1.963   4.070   6.399 -0.0379 -0.4543  1.3429
 7545SOL     OW34096   2.998   1.853   7.879  0.3379 -0.2051 -0.2332
 7545SOL    HW134097   3.027   1.766   7.906 -3.2210 -0.8271  1.5539
 7545SOL    HW234098   3.012   1.909   7.955  0.6512 -0.0173 -0.4300
 7546SOL     OW34099   3.374   2.352   4.496  0.0174 -0.6219 -0.1640
 7546SOL    HW134100   3.422   2.431   4.521 -1.9520  0.2399  0.8888
 7546SOL    HW234101   3.312   2.393   4.436  0.6108 -2.0194 -1.7278
 7547SOL     OW34102   0.497   3.210   4.403  0.1585 -0.3988  0.0941
 7547SOL    HW134103   0.470   3.128   4.362 -1.6301 -0.7760  2.0755
 7547SOL    HW234104   0.580   3.200   4.354  0.4474 -0.6987  0.6463
 7548SOL     OW34105   0.034   1.961  15.866  0.2561 -0.2403 -0.2254
 7548SOL    HW134106   0.091   2.016  15.919  0.7732 -0.0579 -0.9671
 7548SOL    HW234107   4.680   2.024  15.852 -0.1512 -0.3784  1.1792
 7549SOL     OW34108   4.392   1.749   6.223 -0.0663 -0.2825  0.0247
 7549SOL    HW134109   4.298   1.751   6.211  0.0609 -1.2645 -1.1089
 7549SOL    HW234110   4.424   1.835   6.196 -1.9507  0.6722  0.8671
 7550SOL     OW34111   2.886   3.705   6.745 -0.0351 -0.0419  0.1392
 7550SOL    HW134112   2.918   3.778   6.797  1.1578 -0.7123  0.3472
 7550SOL    HW234113   2.965   3.651   6.747  0.6520  1.0163  1.8436
 7551SOL     OW34114   3.973   2.643   5.969  0.0382 -0.7203 -0.1990
 7551SOL    HW134115   3.981   2.618   6.061 -1.9299  1.2661  0.4990
 7551SOL    HW234116   4.060   2.679   5.952 -0.1315 -0.5532 -0.7081
 7552SOL     OW34117   0.669   1.957   8.998 -0.1247 -0.0914  0.0086
 7552SOL    HW134118   0.696   1.994   9.082  0.9110 -0.8693  0.0191
 7552SOL    HW234119   0.589   1.916   9.030 -0.4032  0.5119  0.0901
 7553SOL     OW34120   4.646   0.941  17.294  0.1667 -0.2287 -0.3516
 7553SOL    HW134121   4.676   0.851  17.306 -0.4191 -0.3739  0.0729
 7553SOL    HW234122   4.681   0.961  17.208 -1.6403 -2.1250 -1.5297
 7554SOL     OW34123   0.883   2.446   7.108  0.3845 -0.3786 -0.0792
 7554SOL    HW134124   0.887   2.540   7.086 -1.2301 -0.4478 -0.6393
 7554SOL    HW234125   0.872   2.413   7.019 -0.0046  0.0239 -0.1818
 7555SOL     OW34126   4.685   3.571  15.293 -0.6366 -0.4619 -0.4237
 7555SOL    HW134127   0.016   3.653  15.302  0.8904 -1.4081  0.1796
 7555SOL    HW234128   0.035   3.521  15.246 -0.4005 -1.2467  0.7431
 7556SOL     OW34129   2.315   3.528  15.899  0.2181 -0.3713 -0.1098
 7556SOL    HW134130   2.391   3.528  15.957 -0.5398  0.8371  0.8918
 7556SOL    HW234131   2.248   3.486  15.954  0.1601  0.7281  0.6691
 7557SOL     OW34132   3.853   0.328  15.871 -0.4935  0.2167  0.3294
 7557SOL    HW134133   3.758   0.323  15.863 -0.4550 -1.4799  0.8184
 7557SOL    HW234134   3.868   0.242  15.911  0.5253 -0.6375 -1.9091
 7558SOL     OW34135   4.197   1.942  11.954 -0.4161  0.3350 -0.0585
 7558SOL    HW134136   4.292   1.935  11.965 -0.1929  1.6277 -1.2949
 7558SOL    HW234137   4.179   1.982  12.039  1.0642 -1.0516  0.9239
 7559SOL     OW34138   1.121   4.024   5.740 -0.0075  0.6191  0.4364
 7559SOL    HW134139   1.090   3.941   5.706 -0.2759  0.3809  1.2688
 7559SOL    HW234140   1.036   4.068   5.746 -1.1257 -1.3237 -1.2093
 7560SOL     OW34141   4.237   2.199   9.252  0.1665 -0.1508  0.3124
 7560SOL    HW134142   4.251   2.140   9.327 -0.8034  1.8097  2.0348
 7560SOL    HW234143   4.327   2.219   9.226  0.6517 -0.0830  2.0102
 7561SOL     OW34144   0.608   3.697   0.977 -0.3757  0.2019 -0.0015
 7561SOL    HW134145   0.679   3.658   1.028 -0.3639  0.9805  0.5725
 7561SOL    HW234146   0.537   3.667   1.034 -1.2621  1.5930 -0.3879
 7562SOL     OW34147   4.457   0.596   7.659 -0.0473  0.0573 -0.1887
 7562SOL    HW134148   4.457   0.502   7.680 -1.2911 -0.0622 -0.7355
 7562SOL    HW234149   4.442   0.632   7.746 -1.8183 -0.9279 -0.0721
 7563SOL     OW34150   1.182   1.708  17.197 -0.4481 -0.2541  0.2396
 7563SOL    HW134151   1.137   1.785  17.231 -2.1440 -1.1104 -0.0657
 7563SOL    HW234152   1.221   1.741  17.116 -4.8652 -0.2539 -1.8725
 7564SOL     OW34153   3.625   4.500   9.327 -0.3134 -0.7302  0.0624
 7564SOL    HW134154   3.565   4.547   9.269 -0.6103 -1.3839 -0.1528
 7564SOL    HW234155   3.707   4.494   9.277  0.9141 -0.3817  2.0098
 7565SOL     OW34156   3.032   2.489   3.949 -0.2014 -0.3234 -0.9987
 7565SOL    HW134157   3.015   2.556   4.015  1.6896 -1.8626  1.0492
 7565SOL    HW234158   3.087   2.537   3.886  0.5231  3.7370  2.7248
 7566SOL     OW34159   4.682   2.960  12.421 -0.1040  0.2071  0.4296
 7566SOL    HW134160   0.022   2.996  12.353  1.7539 -0.4903  1.6117
 7566SOL    HW234161   4.713   2.870  12.429  4.3481  1.7251  0.3835
 7567SOL     OW34162   3.271   0.773   2.542 -0.0662  0.2434 -0.4121
 7567SOL    HW134163   3.266   0.742   2.452  0.7135  0.5466 -0.5639
 7567SOL    HW234164   3.276   0.865   2.519  2.2968 -0.7024 -3.6638
 7568SOL     OW34165   0.843   1.063   8.886 -0.5424 -0.1909  0.2006
 7568SOL    HW134166   0.803   1.073   8.972  0.5229 -1.9154  0.8949
 7568SOL    HW234167   0.830   0.971   8.863  1.7992 -0.7195  0.9705
 7569SOL     OW34168   4.702   0.162   1.631 -0.4586 -0.0294 -0.1032
 7569SOL    HW134169   4.616   0.138   1.596 -0.7634 -0.0232  0.6454
 7569SOL    HW234170   4.670   0.213   1.706  0.3940  0.3727 -0.0102
 7570SOL     OW34171   4.432   1.916   1.812  0.4145 -0.0594  0.0232
 7570SOL    HW134172   4.350   1.888   1.852  1.0511 -0.1367  1.2707
 7570SOL    HW234173   4.501   1.881   1.869  0.1821 -0.0098  0.3344
 7571SOL     OW34174   3.830   3.331  12.488  0.4474  0.2114 -0.0273
 7571SOL    HW134175   3.739   3.317  12.512  0.8258 -3.7115 -1.0243
 7571SOL    HW234176   3.832   3.427  12.482 -1.2835  0.1778 -1.0214
 7572SOL     OW34177   1.520   2.700   6.884  0.9872  0.2326  0.3005
 7572SOL    HW134178   1.514   2.617   6.931 -1.0627  0.7933  1.0259
 7572SOL    HW234179   1.470   2.677   6.806 -0.8117  0.6886  1.3068
 7573SOL     OW34180   0.267   3.754   3.259  0.3381 -0.4477  0.2078
 7573SOL    HW134181   0.284   3.782   3.349  0.9814  1.3255 -0.4653
 7573SOL    HW234182   0.177   3.721   3.263 -0.0335  0.3887 -1.4022
 7574SOL     OW34183   2.198   4.576  13.830 -0.5964 -0.1990 -0.1614
 7574SOL    HW134184   2.234   4.517  13.764 -0.6502 -0.7878  0.3277
 7574SOL    HW234185   2.142   4.630  13.775  0.4567  0.2927 -0.7607
 7575SOL     OW34186   0.230   0.969  16.003  0.5507 -0.1782  0.2257
 7575SOL    HW134187   0.270   0.887  16.032  0.3054 -0.5482 -0.4970
 7575SOL    HW234188   0.281   0.984  15.924 -0.1031 -1.5224 -0.4612
 7576SOL     OW34189   3.302   2.354   8.642 -0.9775 -0.0013  0.2765
 7576SOL    HW134190   3.389   2.315   8.638 -0.4057  1.3173 -0.2181
 7576SOL    HW234191   3.274   2.337   8.733 -1.1169  1.5532  0.5242
 7577SOL     OW34192   3.560   3.131   5.380  0.1919  0.5751 -0.0922
 7577SOL    HW134193   3.503   3.206   5.363 -0.4698  0.3814  1.2353
 7577SOL    HW234194   3.600   3.115   5.294  0.6035  4.7771 -0.6707
 7578SOL     OW34195   2.759   0.687  11.475  0.8868 -0.0923 -0.2550
 7578SOL    HW134196   2.703   0.615  11.505  2.3106 -0.7244  0.8634
 7578SOL    HW234197   2.836   0.675  11.530  0.1046  1.3924  1.1976
 7579SOL     OW34198   1.235   0.628   4.710  0.3185  0.3192  0.0584
 7579SOL    HW134199   1.247   0.720   4.734  1.6834  0.2041 -0.2145
 7579SOL    HW234200   1.140   0.622   4.694  0.3138 -1.0825  0.6415
 7580SOL     OW34201   2.347   0.178   1.066 -0.6592  0.4646  0.3557
 7580SOL    HW134202   2.393   0.239   1.123 -2.3409  1.2538  0.8597
 7580SOL    HW234203   2.309   0.118   1.131 -0.4795 -1.0039 -0.8846
 7581SOL     OW34204   2.816   2.178  15.921  0.0967 -0.0734  0.2912
 7581SOL    HW134205   2.875   2.246  15.954 -0.8497 -0.5216  2.8996
 7581SOL    HW234206   2.753   2.212  15.859  0.8467 -0.3443 -0.6202
 7582SOL     OW34207   0.114   2.939  11.626 -0.0650 -0.0742 -0.1148
 7582SOL    HW134208   0.207   2.957  11.635 -0.1115 -0.6027  1.3504
 7582SOL    HW234209   0.116   2.933  11.530  1.0071  1.3281 -0.1685
 7583SOL     OW34210   3.773   0.900  14.924 -0.1382 -0.1577 -0.2112
 7583SOL    HW134211   3.725   0.982  14.930 -0.1088 -0.0808 -1.0520
 7583SOL    HW234212   3.857   0.938  14.899 -0.6321  1.1488  0.1303
 7584SOL     OW34213   0.137   4.020   6.244  0.5122  0.1686 -0.2276
 7584SOL    HW134214   0.172   4.000   6.157  0.7208  1.9674 -0.5626
 7584SOL    HW234215   0.141   3.939   6.295 -1.5959 -1.3488 -2.4915
 7585SOL     OW34216   0.027   3.056   1.102 -0.7466  0.0101 -0.5337
 7585SOL    HW134217   4.668   3.089   1.053 -0.1319  1.4048 -0.5260
 7585SOL    HW234218   4.702   3.047   1.187 -1.0315 -0.6300 -0.7384
 7586SOL     OW34219   3.108   1.029  16.671 -0.1208  0.4901 -0.3136
 7586SOL    HW134220   3.151   1.051  16.754 -2.0768 -0.1625  0.8768
 7586SOL    HW234221   3.039   0.980  16.715 -0.3523  0.7698 -0.3680
 7587SOL     OW34222   3.780   4.218   6.812  0.9850  0.1331 -0.0585
 7587SOL    HW134223   3.785   4.184   6.722 -0.0032  1.3569 -0.5700
 7587SOL    HW234224   3.870   4.240   6.834  1.1058 -1.2138  0.8290
 7588SOL     OW34225   4.523   3.294  12.616 -0.4551 -0.0426 -0.6276
 7588SOL    HW134226   4.490   3.254  12.536  0.0262 -0.4906 -0.6045
 7588SOL    HW234227   4.480   3.379  12.624  1.1644  0.7897 -0.6856
 7589SOL     OW34228   0.525   4.221   4.666 -0.1829  0.5492  0.0522
 7589SOL    HW134229   0.581   4.204   4.590 -1.7139 -0.8656 -0.7468
 7589SOL    HW234230   0.570   4.175   4.737  2.1236  1.4248 -0.8206
 7590SOL     OW34231   3.031   2.755   4.373 -0.0890 -0.3077 -0.2912
 7590SOL    HW134232   2.982   2.673   4.382  0.6876 -0.7613 -0.1888
 7590SOL    HW234233   2.968   2.819   4.404  2.8428  1.0478  2.8074
 7591SOL     OW34234   1.274   4.293   3.071  0.7450 -0.5891  0.3044
 7591SOL    HW134235   1.319   4.342   3.003 -0.5068  0.0787 -0.0328
 7591SOL    HW234236   1.218   4.361   3.107  1.6112  0.6744 -0.7303
 7592SOL     OW34237   3.268   4.249   6.234 -0.5405  0.5924  0.2214
 7592SOL    HW134238   3.179   4.278   6.216 -1.0114 -1.3752 -0.7102
 7592SOL    HW234239   3.258   4.153   6.230  3.2837  0.2663 -2.2723
 7593SOL     OW34240   0.861   2.217   7.670 -0.4152 -0.0647  0.0264
 7593SOL    HW134241   0.899   2.300   7.699  0.4865 -0.0483 -1.2207
 7593SOL    HW234242   0.798   2.204   7.741  0.3397 -0.0156  0.7069
 7594SOL     OW34243   1.141   2.287  13.050  0.2380 -0.2380 -0.1362
 7594SOL    HW134244   1.221   2.268  13.098  0.9414 -1.4913 -1.8054
 7594SOL    HW234245   1.092   2.268  13.130  0.6206 -1.8792 -0.3045
 7595SOL     OW34246   4.393   4.586   5.677 -0.3737  0.1111 -0.2348
 7595SOL    HW134247   4.363   4.667   5.718 -0.3373 -0.5528  1.1228
 7595SOL    HW234248   4.479   4.571   5.718 -0.2195  0.2279 -0.5148
 7596SOL     OW34249   4.332   2.584   4.733  0.2470 -0.0567  0.1229
 7596SOL    HW134250   4.266   2.517   4.749  0.2093  0.0112  0.2473
 7596SOL    HW234251   4.306   2.606   4.643 -3.0888 -1.2440  0.7933
 7597SOL     OW34252   1.821   0.057   7.868  0.3639 -0.3346 -0.3141
 7597SOL    HW134253   1.877   4.697   7.857  2.5754  1.2767 -0.5180
 7597SOL    HW234254   1.864   0.125   7.815 -0.6386 -0.3730 -1.1567
 7598SOL     OW34255   0.921   0.739   6.982 -0.2126 -0.1282  0.5386
 7598SOL    HW134256   0.982   0.797   6.935 -0.1917  0.8054  1.7348
 7598SOL    HW234257   0.960   0.654   6.960 -1.6759 -0.8644  0.7610
 7599SOL     OW34258   4.123   1.047   0.806 -0.5438  0.3468 -0.1410
 7599SOL    HW134259   4.107   1.048   0.712 -0.9244 -0.2272 -0.0839
 7599SOL    HW234260   4.058   0.984   0.837 -0.1864 -0.5070 -1.1244
 7600SOL     OW34261   3.892   3.263  10.994  0.0815 -0.1846 -0.5030
 7600SOL    HW134262   3.880   3.168  10.991 -0.6829 -0.1119  0.1487
 7600SOL    HW234263   3.871   3.289  10.904  0.8350  1.6380 -0.1556
 7601SOL     OW34264   1.193   1.766   7.302 -0.2942  0.2433  0.4245
 7601SOL    HW134265   1.137   1.689   7.292  1.1315 -0.7093 -0.2812
 7601SOL    HW234266   1.151   1.828   7.243  1.8594  0.7051 -0.6235
 7602SOL     OW34267   0.193   0.670   2.597  0.2204  0.2622 -0.0626
 7602SOL    HW134268   0.128   0.716   2.544  1.6842  3.0143  0.5266
 7602SOL    HW234269   0.263   0.649   2.535  1.1659 -1.9213  1.7472
 7603SOL     OW34270   0.145   2.490  11.164 -0.4883 -0.2718  0.3221
 7603SOL    HW134271   0.198   2.464  11.089 -0.6423 -0.1283  0.1658
 7603SOL    HW234272   0.210   2.533  11.220  0.0227 -1.0258  0.3085
 7604SOL     OW34273   2.665   3.974  11.998 -0.5813 -0.1178 -0.2476
 7604SOL    HW134274   2.710   3.970  12.082 -3.4274  0.2891  1.2853
 7604SOL    HW234275   2.659   3.883  11.970  0.0518 -0.0644 -0.5528
 7605SOL     OW34276   1.738   3.336   2.709 -0.3216 -1.1264  0.5085
 7605SOL    HW134277   1.819   3.373   2.743 -0.2661  1.4596 -2.3595
 7605SOL    HW234278   1.772   3.311   2.623 -3.2864  0.8911 -1.2629
 7606SOL     OW34279   0.565   2.305   2.847  0.4873 -0.2432 -0.1157
 7606SOL    HW134280   0.493   2.253   2.881  1.0593  0.2999  1.9665
 7606SOL    HW234281   0.531   2.350   2.770 -3.1129  0.5752  1.9821
 7607SOL     OW34282   0.966   1.538   2.463 -0.4837 -0.0762  0.2753
 7607SOL    HW134283   0.979   1.629   2.493  1.1944  0.5674 -2.4184
 7607SOL    HW234284   0.930   1.558   2.377  2.6941 -1.9383 -1.4949
 7608SOL     OW34285   2.832   2.048  14.532 -0.3297 -0.1491 -0.2694
 7608SOL    HW134286   2.741   2.025  14.514 -0.4486 -1.0615  1.4866
 7608SOL    HW234287   2.861   1.965  14.569  0.9168 -0.6322 -2.3420
 7609SOL     OW34288   3.129   2.045   6.393  0.4599 -0.4708  0.3485
 7609SOL    HW134289   3.087   2.052   6.308  3.1700  1.8153 -0.8055
 7609SOL    HW234290   3.209   1.997   6.370  1.1173  0.3881  0.8458
 7610SOL     OW34291   3.854   0.848  12.968  0.5007 -0.2658  0.2764
 7610SOL    HW134292   3.866   0.802  12.885  1.2526 -2.3768  1.5648
 7610SOL    HW234293   3.880   0.938  12.950  0.0643 -0.0897  0.5305
 7611SOL     OW34294   2.709   4.609   5.644  1.0719  0.1935  0.2373
 7611SOL    HW134295   2.694   4.620   5.738  1.9391 -2.7997  0.7296
 7611SOL    HW234296   2.796   4.645   5.630  0.0313  1.8746 -1.8355
 7612SOL     OW34297   2.654   2.620   4.258 -0.6039  0.1945 -0.7336
 7612SOL    HW134298   2.656   2.669   4.176 -0.5159  0.2474 -0.7001
 7612SOL    HW234299   2.691   2.546   4.211  1.1846  2.6467 -3.1784
 7613SOL     OW34300   1.898   0.684  13.510  0.4048  0.2143  0.0075
 7613SOL    HW134301   1.828   0.676  13.445  0.7580  5.1892 -0.9781
 7613SOL    HW234302   1.962   0.738  13.465 -1.0639  1.6522 -0.3623
 7614SOL     OW34303   4.355   0.077   4.402  0.6049  0.5243  0.7055
 7614SOL    HW134304   4.441   0.120   4.403  1.3791 -0.9601 -1.7644
 7614SOL    HW234305   4.379   4.706   4.371  1.0057  0.8992 -0.0667
 7615SOL     OW34306   2.381   3.152  16.794 -0.0415  0.1534  0.5239
 7615SOL    HW134307   2.472   3.165  16.820 -0.2846  2.3571  0.3235
 7615SOL    HW234308   2.331   3.212  16.850 -0.0612  0.1332  0.5282
 7616SOL     OW34309   2.628   4.484   6.596 -0.2533 -0.4069  0.0720
 7616SOL    HW134310   2.685   4.559   6.613 -1.1071  0.9063 -2.9952
 7616SOL    HW234311   2.683   4.417   6.555 -1.3581 -0.0268 -2.0250
 7617SOL     OW34312   4.114   1.487   9.151 -0.0516 -0.0478  0.4516
 7617SOL    HW134313   4.196   1.438   9.158 -0.1866 -0.6060 -1.7275
 7617SOL    HW234314   4.124   1.524   9.063 -0.5730  0.5218  0.6371
 7618SOL     OW34315   1.416   0.078   6.382 -0.1558  0.0830 -0.1064
 7618SOL    HW134316   1.358   0.075   6.459 -1.6772 -0.3425 -1.2831
 7618SOL    HW234317   1.480   0.011   6.404 -1.2039 -0.9126 -0.0884
 7619SOL     OW34318   1.605   0.428   7.991  0.3782 -0.6782 -0.8415
 7619SOL    HW134319   1.542   0.424   8.063  0.8553 -0.0677 -0.3879
 7619SOL    HW234320   1.620   0.334   7.982  0.6491 -0.8302  1.0623
 7620SOL     OW34321   3.043   0.465   2.282 -0.1635 -0.2144  0.4608
 7620SOL    HW134322   2.966   0.522   2.280  1.6032  2.0905 -0.8508
 7620SOL    HW234323   3.018   0.409   2.355  1.8060 -1.2505  0.3486
 7621SOL     OW34324   4.069   2.325   7.738  0.0208  0.4658  0.1103
 7621SOL    HW134325   4.160   2.334   7.710  0.0104  1.9531  0.5874
 7621SOL    HW234326   4.025   2.354   7.658 -1.6905  1.7140  1.5220
 7622SOL     OW34327   2.695   3.952  12.747  0.5042 -0.3442 -1.3265
 7622SOL    HW134328   2.670   3.980  12.659 -1.3487  1.5528 -0.1917
 7622SOL    HW234329   2.688   4.037  12.791  2.3831 -0.2455 -1.2517
 7623SOL     OW34330   2.998   2.037   1.865  0.0016 -0.7985 -0.1767
 7623SOL    HW134331   2.946   2.017   1.787 -1.1896 -0.3436  0.4952
 7623SOL    HW234332   3.090   2.012   1.859  0.5047  0.9280  0.3692
 7624SOL     OW34333   2.648   2.516   7.940  0.2515  0.6885  0.1714
 7624SOL    HW134334   2.586   2.445   7.954  1.6149 -0.7491 -1.0531
 7624SOL    HW234335   2.714   2.476   7.883  0.5575  0.7885  0.4594
 7625SOL     OW34336   0.946   1.880  13.408 -0.1265  0.6487  0.6264
 7625SOL    HW134337   0.905   1.819  13.469  3.0215 -3.1488 -1.1022
 7625SOL    HW234338   1.033   1.891  13.447 -1.0837 -0.4865  3.0854
 7626SOL     OW34339   4.365   2.642   1.329  0.8504  0.0985 -0.0507
 7626SOL    HW134340   4.415   2.621   1.408 -1.0930 -1.8434  0.6571
 7626SOL    HW234341   4.329   2.555   1.315  0.1745  0.9544 -3.5042
 7627SOL     OW34342   2.827   1.970  16.296  0.2183  0.1433  0.7586
 7627SOL    HW134343   2.849   1.877  16.302 -2.5518 -0.3966  2.8212
 7627SOL    HW234344   2.784   1.990  16.379 -0.3272  0.5993  0.3733
 7628SOL     OW34345   2.974   3.897   1.092  0.2119 -0.0653  0.3128
 7628SOL    HW134346   2.880   3.911   1.102  0.1015 -1.2058  0.7904
 7628SOL    HW234347   2.986   3.829   1.158  1.0149  0.1855  0.4297
 7629SOL     OW34348   0.409   3.571  10.182 -0.0090 -0.0527  0.2435
 7629SOL    HW134349   0.430   3.635  10.250  0.7130 -0.9707  0.8873
 7629SOL    HW234350   0.499   3.538  10.181  0.1151  0.3710 -2.5698
 7630SOL     OW34351   2.162   0.091   5.484  0.1996 -0.0760  0.0726
 7630SOL    HW134352   2.136   0.166   5.430  0.6502 -0.5051 -0.7436
 7630SOL    HW234353   2.115   0.108   5.565 -1.2445 -0.5168 -0.6677
 7631SOL     OW34354   0.295   4.357   8.945  0.2423  0.4879  0.4721
 7631SOL    HW134355   0.350   4.302   9.002  1.1456  2.4997  1.5206
 7631SOL    HW234356   0.303   4.442   8.987 -2.7280  0.7214  0.5242
 7632SOL     OW34357   1.896   4.471   2.952 -0.6258 -0.3538 -0.3247
 7632SOL    HW134358   1.903   4.536   3.022 -2.9699  0.1386 -0.5538
 7632SOL    HW234359   1.817   4.419   2.965  1.6234 -2.7487  3.9027
 7633SOL     OW34360   4.408   2.173   2.877  0.2690  0.7402  0.3537
 7633SOL    HW134361   4.501   2.152   2.874  0.3245  0.8696  1.2144
 7633SOL    HW234362   4.386   2.178   2.784 -1.5117  0.1879  0.7330
 7634SOL     OW34363   2.255   1.949   8.686 -0.1456 -0.0512 -0.0663
 7634SOL    HW134364   2.323   1.886   8.663  0.8307  0.7192  0.7482
 7634SOL    HW234365   2.184   1.886   8.672 -0.0210 -0.6891  2.2663
 7635SOL     OW34366   4.708   2.126   3.622  0.3746 -0.0515  0.2536
 7635SOL    HW134367   4.654   2.091   3.551 -0.4873  0.0767  0.8568
 7635SOL    HW234368   4.656   2.203   3.644  0.0121  0.3361 -1.9741
 7636SOL     OW34369   1.299   3.574   8.269  0.4276  0.3503 -0.6079
 7636SOL    HW134370   1.373   3.577   8.209  1.5638  0.4863  0.7912
 7636SOL    HW234371   1.336   3.553   8.355 -0.4897 -0.8107 -0.4914
 7637SOL     OW34372   0.725   3.539   8.911 -0.0542  0.6725  0.5508
 7637SOL    HW134373   0.644   3.582   8.885  1.7208  2.7797 -1.4150
 7637SOL    HW234374   0.708   3.448   8.886 -0.1383  0.7926  0.1709
 7638SOL     OW34375   0.596   2.455  10.512 -0.3908  0.3745 -0.2521
 7638SOL    HW134376   0.516   2.447  10.461  1.9470 -0.3751 -3.7985
 7638SOL    HW234377   0.635   2.371  10.491  2.1491  1.3645  0.4526
 7639SOL     OW34378   2.676   2.763   8.802  0.4922 -0.4573  0.1558
 7639SOL    HW134379   2.583   2.767   8.827  0.2127  2.3086 -1.4016
 7639SOL    HW234380   2.668   2.686   8.745 -1.4427 -1.4313  1.7417
 7640SOL     OW34381   3.642   0.228  16.261  0.1253 -0.0203 -0.9844
 7640SOL    HW134382   3.676   0.173  16.332 -0.8258  2.0762  1.0778
 7640SOL    HW234383   3.548   0.221  16.272  0.3746  2.1009  2.3477
 7641SOL     OW34384   0.522   4.331   0.444  0.0849  0.4736 -0.7664
 7641SOL    HW134385   0.495   4.271   0.375  0.2082  1.3785 -1.6071
 7641SOL    HW234386   0.534   4.412   0.395  0.0355  0.5862 -0.5946
 7642SOL     OW34387   1.782   0.497   6.576 -0.1085 -0.2783 -0.2194
 7642SOL    HW134388   1.751   0.491   6.486 -0.6710  1.3058 -0.1207
 7642SOL    HW234389   1.831   0.415   6.582  1.5736  0.5742 -2.1546
 7643SOL     OW34390   2.591   3.647  11.376  0.0370 -0.0700 -0.3798
 7643SOL    HW134391   2.671   3.617  11.418  1.2097  0.1092 -2.4758
 7643SOL    HW234392   2.560   3.575  11.320 -0.4501 -0.9221  0.9904
 7644SOL     OW34393   0.063   4.663   3.169  0.3724  0.9027 -0.8491
 7644SOL    HW134394   0.083   4.579   3.128 -2.8000 -0.0270 -0.4863
 7644SOL    HW234395   0.026   4.640   3.254  3.0696  0.8319  0.3208
 7645SOL     OW34396   4.480   1.136  10.460 -0.2331  0.0355 -0.0702
 7645SOL    HW134397   4.417   1.191  10.507  1.3838  1.7835  0.0324
 7645SOL    HW234398   4.520   1.202  10.403 -1.9659  0.1097 -1.2020
 7646SOL     OW34399   3.975   4.716   4.546  0.3450 -0.0556  0.1169
 7646SOL    HW134400   3.989   0.075   4.604  3.2020  1.1336 -2.1124
 7646SOL    HW234401   4.025   0.033   4.472  0.6775  2.6243  1.5338
 7647SOL     OW34402   4.068   1.868   9.319 -0.0151 -0.2183 -0.0228
 7647SOL    HW134403   4.117   1.928   9.375 -2.9449 -0.2329  2.5256
 7647SOL    HW234404   4.041   1.798   9.378 -1.8430 -0.2570 -0.9027
 7648SOL     OW34405   0.487   3.038  10.115  0.0551  0.0244  0.2121
 7648SOL    HW134406   0.454   3.127  10.124  3.8904  1.8113 -3.4080
 7648SOL    HW234407   0.580   3.054  10.095 -0.1694  0.7958 -0.1916
 7649SOL     OW34408   2.911   1.122   1.521 -0.0671  0.0043 -0.6156
 7649SOL    HW134409   2.959   1.039   1.512  0.7248  0.5407 -1.3705
 7649SOL    HW234410   2.825   1.083   1.506 -2.1234  4.0316  0.7248
 7650SOL     OW34411   2.461   3.451   8.880 -0.0201 -0.2463  0.2081
 7650SOL    HW134412   2.468   3.476   8.788 -1.5735  0.9731  0.4240
 7650SOL    HW234413   2.421   3.524   8.928  0.0178 -0.8038  1.1013
 7651SOL     OW34414   4.005   3.092  12.258 -0.2200 -0.8009 -0.0100
 7651SOL    HW134415   4.049   3.007  12.268 -0.4061 -0.7293  1.5129
 7651SOL    HW234416   3.992   3.099  12.164  1.3063  0.5853 -0.1190
 7652SOL     OW34417   0.935   2.351   0.724 -0.3083 -0.0947 -0.1524
 7652SOL    HW134418   0.996   2.407   0.771 -1.1647  0.2039  0.6065
 7652SOL    HW234419   0.864   2.359   0.788  0.6178  1.0131  0.7258
 7653SOL     OW34420   1.506   4.333   1.785  0.4667  0.1027  0.5163
 7653SOL    HW134421   1.506   4.402   1.719  1.2246  0.8595  1.3054
 7653SOL    HW234422   1.496   4.376   1.870  1.9342 -1.6921  1.6069
 7654SOL     OW34423   1.699   2.679   4.412 -0.0534  0.6590 -0.1964
 7654SOL    HW134424   1.728   2.595   4.447 -1.0040  0.4816  0.1679
 7654SOL    HW234425   1.762   2.747   4.435  2.1832 -2.0547  1.6843
 7655SOL     OW34426   0.498   3.288  11.666 -0.1023 -0.3597 -0.4129
 7655SOL    HW134427   0.570   3.245  11.620  0.9343  0.2458  0.6430
 7655SOL    HW234428   0.483   3.358  11.603  1.8521 -0.7638 -1.3326
 7656SOL     OW34429   0.400   3.593   0.117 -0.2844 -0.0814  0.5854
 7656SOL    HW134430   0.437   3.544   0.043 -1.3863 -1.6814  1.0770
 7656SOL    HW234431   0.366   3.523   0.173  0.2112  1.7870  3.1888
 7657SOL     OW34432   2.265   1.058   5.914  0.5385 -0.1517  0.5675
 7657SOL    HW134433   2.229   1.142   5.886  1.8269 -0.2437 -1.3560
 7657SOL    HW234434   2.346   1.056   5.863  1.9995 -2.0197  2.9917
 7658SOL     OW34435   2.424   0.071   7.667 -0.1759 -0.2617 -0.0415
 7658SOL    HW134436   2.339   0.111   7.648  1.1926  1.9235 -1.6418
 7658SOL    HW234437   2.473   0.141   7.710  0.8465  0.0610 -1.7347
 7659SOL     OW34438   3.152   0.541   7.578  0.0502  0.2502 -0.5820
 7659SOL    HW134439   3.155   0.446   7.589 -0.1036  0.1567 -1.3392
 7659SOL    HW234440   3.173   0.555   7.670  1.0815 -0.9054 -0.6355
 7660SOL     OW34441   4.651   2.143  16.317  0.4303 -0.5389  0.4440
 7660SOL    HW134442   4.672   2.103  16.232 -0.6374 -0.8862  0.3298
 7660SOL    HW234443   4.555   2.144  16.320  0.4668 -0.6762  1.6420
 7661SOL     OW34444   2.794   1.257  11.154  0.0599 -0.1940  0.2763
 7661SOL    HW134445   2.799   1.163  11.133  2.0138 -0.2825  1.1437
 7661SOL    HW234446   2.775   1.261  11.247  0.7284 -3.6743  0.5643
 7662SOL     OW34447   1.505   2.605  15.649 -1.1376  0.3318  0.4478
 7662SOL    HW134448   1.522   2.581  15.558  1.3203 -1.8635  1.4945
 7662SOL    HW234449   1.415   2.576  15.661 -1.2755  0.8759  0.7141
 7663SOL     OW34450   4.153   4.099   2.256 -0.6429  0.1257 -0.4174
 7663SOL    HW134451   4.173   4.168   2.193 -1.3660  2.5377  1.9645
 7663SOL    HW234452   4.242   4.085   2.288 -1.2243 -0.6322  0.9071
 7664SOL     OW34453   1.029   1.735   6.599  0.3843  0.1282  0.1284
 7664SOL    HW134454   1.063   1.774   6.518 -0.7256  1.8865  0.5180
 7664SOL    HW234455   1.111   1.743   6.647  0.0882 -0.8225  0.7842
 7665SOL     OW34456   0.475   1.355  17.386 -0.0645 -0.0309  0.4948
 7665SOL    HW134457   0.529   1.330  17.461 -0.1842 -0.2568  0.5063
 7665SOL    HW234458   0.529   1.351  17.307  0.8459  1.5450  1.0390
 7666SOL     OW34459   1.765   3.460   4.445  0.2094  0.2407 -0.5224
 7666SOL    HW134460   1.824   3.468   4.370  1.8094  2.4400  0.9721
 7666SOL    HW234461   1.770   3.550   4.477  1.3945  0.1945 -0.5623
 7667SOL     OW34462   1.285   4.550   5.157  0.1729  0.3162  0.7218
 7667SOL    HW134463   1.205   4.504   5.181  0.1812  0.3641  0.8394
 7667SOL    HW234464   1.253   4.639   5.145  0.8781  0.7795  2.3067
 7668SOL     OW34465   4.276   2.541   8.807  0.2594 -0.1800 -0.1235
 7668SOL    HW134466   4.220   2.616   8.784 -1.6989 -1.3654  0.8347
 7668SOL    HW234467   4.215   2.478   8.844  0.6832 -0.0977  0.7057
 7669SOL     OW34468   2.609   3.390   1.227 -0.0013  0.7400  0.0829
 7669SOL    HW134469   2.564   3.333   1.290 -1.4057  3.5050  1.5722
 7669SOL    HW234470   2.700   3.389   1.257  0.1557 -0.7643 -0.4242
 7670SOL     OW34471   2.762   2.815  10.058 -0.3357 -0.3114 -0.3802
 7670SOL    HW134472   2.848   2.831  10.020 -0.6547  2.0723 -0.1060
 7670SOL    HW234473   2.710   2.808   9.978 -0.2641 -0.7652 -0.3874
 7671SOL     OW34474   0.591   0.100   0.458  0.0189 -0.0983 -0.1979
 7671SOL    HW134475   0.504   0.135   0.439  0.9808  0.7848 -2.9743
 7671SOL    HW234476   0.577   0.069   0.548  3.2720  1.3400  0.7752
 7672SOL     OW34477   0.134   1.831   9.755 -0.2276 -0.0453 -0.2892
 7672SOL    HW134478   0.145   1.918   9.792 -0.6712 -0.1173  0.0107
 7672SOL    HW234479   0.176   1.840   9.669  1.3687 -0.3379  0.4543
 7673SOL     OW34480   1.927   2.109  15.602 -0.3069  0.3118  0.1561
 7673SOL    HW134481   1.879   2.069  15.674  1.6196 -0.0462  1.2418
 7673SOL    HW234482   1.891   2.051  15.534 -0.2087 -0.8037  1.0541
 7674SOL     OW34483   0.695   4.147  15.834 -0.0213 -0.6126 -0.1579
 7674SOL    HW134484   0.692   4.242  15.835 -0.7802 -0.6387  0.0858
 7674SOL    HW234485   0.746   4.137  15.754  0.5220 -1.9036  0.3534
 7675SOL     OW34486   0.278   2.298   4.807 -0.2275  0.1952 -0.0824
 7675SOL    HW134487   0.301   2.390   4.806  3.4327 -0.7419 -0.2538
 7675SOL    HW234488   0.184   2.300   4.825  0.5424  0.6585  4.0087
 7676SOL     OW34489   1.940   1.630  17.543  0.3922 -0.2352  0.0922
 7676SOL    HW134490   1.887   1.630  17.463  1.6669  1.5988 -0.7626
 7676SOL    HW234491   2.026   1.626  17.500 -0.2367 -0.3307 -1.1452
 7677SOL     OW34492   3.468   4.662   4.103 -0.4311  0.1684 -0.3501
 7677SOL    HW134493   3.510   4.576   4.109 -0.5001  0.0719 -1.1489
 7677SOL    HW234494   3.521   4.712   4.165 -2.1320 -0.7451  1.8158
 7678SOL     OW34495   3.989   0.697   4.851  0.3679  0.0190 -0.3298
 7678SOL    HW134496   3.932   0.740   4.914 -0.0417  0.2673 -0.8711
 7678SOL    HW234497   4.013   0.775   4.801 -1.5904  0.3172 -0.8075
 7679SOL     OW34498   0.616   3.622   8.197 -0.3567 -0.3783  0.0238
 7679SOL    HW134499   0.614   3.718   8.200  2.4012 -0.3538  1.6294
 7679SOL    HW234500   0.684   3.596   8.134 -0.0631 -2.3777  1.1792
 7680SOL     OW34501   2.628   0.429   4.944 -0.3669  0.3321 -0.2909
 7680SOL    HW134502   2.552   0.459   4.993  0.6470  3.4704 -0.6618
 7680SOL    HW234503   2.687   0.473   5.005  1.1690 -0.2299 -1.3775
 7681SOL     OW34504   3.571   0.952   2.446 -0.2188  0.3216 -0.0846
 7681SOL    HW134505   3.624   0.930   2.523 -0.0482  1.6294  0.1629
 7681SOL    HW234506   3.512   1.021   2.476  0.3877  1.2302 -0.9776
 7682SOL     OW34507   4.379   2.503  17.255  0.3026  0.1293  0.2536
 7682SOL    HW134508   4.377   2.597  17.271  1.2680  0.1745  0.1198
 7682SOL    HW234509   4.427   2.466  17.329 -2.8026 -2.4505  0.9804
 7683SOL     OW34510   3.829   0.081  13.704  0.3300  0.0639  0.0786
 7683SOL    HW134511   3.896   0.148  13.720  1.7593 -0.8726 -2.0561
 7683SOL    HW234512   3.886   0.004  13.704  1.9647  1.2715  0.4962
 7684SOL     OW34513   1.220   1.257   3.033 -0.1459 -0.1004  0.2348
 7684SOL    HW134514   1.308   1.289   3.016  0.1567 -0.1522  1.6889
 7684SOL    HW234515   1.166   1.337   3.039 -0.5227 -0.2793 -0.9434
 7685SOL     OW34516   4.392   4.705   3.023  0.5706  0.3977  0.0530
 7685SOL    HW134517   4.339   0.057   2.982 -1.8283 -1.0133  0.8007
 7685SOL    HW234518   4.352   4.624   2.991  1.0959 -0.0806  0.6161
 7686SOL     OW34519   1.275   2.141   4.799  0.0744 -0.5516 -0.2481
 7686SOL    HW134520   1.188   2.157   4.836  0.7721  1.7489  0.3654
 7686SOL    HW234521   1.278   2.201   4.725 -0.4758 -0.0704  0.1212
 7687SOL     OW34522   2.619   1.347   5.824  0.1806 -0.3030  0.3668
 7687SOL    HW134523   2.629   1.343   5.919  2.1087  4.3032  0.3495
 7687SOL    HW234524   2.627   1.441   5.812  1.6918 -0.5817 -0.8700
 7688SOL     OW34525   2.477   2.188  10.398  0.6508  0.5292 -0.2182
 7688SOL    HW134526   2.392   2.191  10.355  0.1079 -1.3199  0.7349
 7688SOL    HW234527   2.472   2.272  10.445  0.9975  1.1069 -1.2061
 7689SOL     OW34528   2.522   0.660   9.460  0.8773 -0.1929  0.0791
 7689SOL    HW134529   2.521   0.620   9.373 -1.1223 -0.7981  0.3977
 7689SOL    HW234530   2.473   0.741   9.447  0.1761 -0.9233 -1.8730
 7690SOL     OW34531   4.246   1.959   5.065  0.2705  0.5428 -0.2196
 7690SOL    HW134532   4.220   2.049   5.087  0.1923  0.2597  0.8533
 7690SOL    HW234533   4.195   1.896   5.115 -1.2152 -0.7183 -3.3317
 7691SOL     OW34534   0.122   3.338   0.456  0.1678  0.6484 -0.3568
 7691SOL    HW134535   0.148   3.280   0.527  0.9040  0.6894 -0.6002
 7691SOL    HW234536   0.085   3.267   0.402  2.3948 -0.9012  0.1894
 7692SOL     OW34537   2.315   2.319   0.005 -0.5257  0.1573  0.1576
 7692SOL    HW134538   2.378   2.261  17.630 -0.1276 -1.7016  3.1035
 7692SOL    HW234539   2.251   2.333  17.605 -0.6339 -0.6940  0.0871
 7693SOL     OW34540   4.585   0.175  13.906 -0.1559  0.4971  0.2647
 7693SOL    HW134541   4.574   0.150  13.998  0.7566 -0.5263  0.0934
 7693SOL    HW234542   4.614   0.265  13.922 -0.8125  0.5763  0.9928
 7694SOL     OW34543   0.598   0.267   3.374 -0.6970 -0.1029  0.4144
 7694SOL    HW134544   0.618   0.344   3.320 -2.6981 -0.2172 -0.4850
 7694SOL    HW234545   0.608   0.304   3.461 -1.0366 -0.4578  0.6028
 7695SOL     OW34546   1.419   0.409  14.104 -0.5510  0.1803  0.1699
 7695SOL    HW134547   1.494   0.354  14.123 -0.5909 -0.0596 -0.3504
 7695SOL    HW234548   1.381   0.354  14.035  0.5851 -0.8926  0.4080
 7696SOL     OW34549   3.359   1.704   0.731 -0.0871 -0.3221 -0.6849
 7696SOL    HW134550   3.450   1.710   0.701  0.0004  1.2327 -0.0652
 7696SOL    HW234551   3.335   1.796   0.741 -0.1635 -0.4560  0.3198
 7697SOL     OW34552   1.607   0.960  13.225 -0.4614 -0.2105  0.1755
 7697SOL    HW134553   1.545   1.026  13.193  0.7239  0.7407 -0.1736
 7697SOL    HW234554   1.616   0.985  13.317 -1.1006 -0.8216  0.3995
 7698SOL     OW34555   3.142   2.757  10.261  0.0256  0.0214 -0.5660
 7698SOL    HW134556   3.162   2.689  10.197  0.8999 -0.1712 -0.0809
 7698SOL    HW234557   3.131   2.705  10.340 -0.3586  2.1479  0.7936
 7699SOL     OW34558   3.595   1.012  13.754 -0.0854 -0.2867 -0.4463
 7699SOL    HW134559   3.554   1.097  13.739  0.2308  0.0282  0.4685
 7699SOL    HW234560   3.633   1.019  13.841  2.1422  0.7025 -1.4870
 7700SOL     OW34561   1.632   4.129   7.682 -0.0818  0.0209 -0.0571
 7700SOL    HW134562   1.573   4.078   7.737  1.9570 -2.4651 -0.1694
 7700SOL    HW234563   1.663   4.066   7.617  2.1326  0.8102  0.2066
 7701SOL     OW34564   1.396   0.620   5.465  0.1627  0.1528 -0.2097
 7701SOL    HW134565   1.462   0.683   5.493 -0.5151  0.5763  0.4371
 7701SOL    HW234566   1.448   0.563   5.409 -0.0645 -0.3323  0.0688
 7702SOL     OW34567   2.552   4.445  12.962  0.5716 -0.0343  0.1863
 7702SOL    HW134568   2.630   4.438  12.908 -2.0066 -1.3432 -3.3110
 7702SOL    HW234569   2.508   4.364  12.940 -3.4933  2.0926  0.4443
 7703SOL     OW34570   3.045   3.665   8.286 -0.0127 -0.4223 -0.4868
 7703SOL    HW134571   3.117   3.690   8.228  2.0279  1.8998  3.0273
 7703SOL    HW234572   3.035   3.744   8.338  0.3993 -0.6750 -0.0285
 7704SOL     OW34573   1.889   2.451   4.488  0.1569 -0.7836  0.3329
 7704SOL    HW134574   1.837   2.374   4.466 -0.1133 -0.6145  0.3718
 7704SOL    HW234575   1.935   2.435   4.571 -0.7913 -0.7556  0.8719
 7705SOL     OW34576   3.952   3.414   2.616  0.2607 -0.8270  0.6495
 7705SOL    HW134577   3.998   3.478   2.561  0.0904 -1.7850 -0.5920
 7705SOL    HW234578   3.996   3.331   2.600 -0.8821 -1.3476  0.2063
 7706SOL     OW34579   0.481   0.195   2.443 -0.0355 -0.1144 -0.9015
 7706SOL    HW134580   0.429   0.245   2.506 -1.6023 -1.5157 -1.1038
 7706SOL    HW234581   0.478   0.105   2.475 -0.4797  0.0269 -0.5489
 7707SOL     OW34582   4.475   4.297   5.602  0.6166 -0.0669  0.2550
 7707SOL    HW134583   4.464   4.383   5.560  1.9758  0.1428  0.3510
 7707SOL    HW234584   4.516   4.245   5.533 -0.3406 -2.8995  1.8076
 7708SOL     OW34585   4.349   1.120   4.924 -0.0952  0.0732 -0.1881
 7708SOL    HW134586   4.282   1.052   4.925  1.4317 -1.4658 -3.0176
 7708SOL    HW234587   4.417   1.073   4.877  0.1075  0.2143 -0.0360
 7709SOL     OW34588   1.421   3.054   5.026  0.2488 -0.4923  0.3426
 7709SOL    HW134589   1.434   3.146   5.004  2.3252 -0.8617  0.0773
 7709SOL    HW234590   1.383   3.011   4.948 -0.8256 -0.8040  1.0408
 7710SOL     OW34591   0.014   2.061   2.191 -0.7713  0.2341 -0.4562
 7710SOL    HW134592   4.678   2.097   2.263  1.4357 -0.7638  1.6365
 7710SOL    HW234593   0.008   2.126   2.120 -1.4768  1.2171  0.5081
 7711SOL     OW34594   4.108   4.406   8.166 -0.5307  0.0403  0.3261
 7711SOL    HW134595   4.187   4.376   8.122 -0.2134 -0.4113  1.1998
 7711SOL    HW234596   4.071   4.322   8.195  0.3054 -0.8294 -1.1839
 7712SOL     OW34597   0.101   3.552   0.605 -0.4323 -0.0901  0.4183
 7712SOL    HW134598   0.124   3.466   0.569 -1.2338 -1.8426  4.0555
 7712SOL    HW234599   0.186   3.596   0.594 -0.9587  0.4049 -1.5873
 7713SOL     OW34600   1.126   2.826  14.390 -0.5930 -0.3197 -0.4101
 7713SOL    HW134601   1.191   2.817  14.459 -0.9476  2.4525  0.2800
 7713SOL    HW234602   1.131   2.917  14.363  1.9694 -0.0940  0.8914
 7714SOL     OW34603   4.058   3.179   2.592 -0.6190  0.1598 -0.4321
 7714SOL    HW134604   4.028   3.108   2.648  3.8425 -0.1663  1.5735
 7714SOL    HW234605   4.106   3.115   2.539 -0.0850  0.3606 -0.1883
 7715SOL     OW34606   2.425   4.066   0.425  0.1915  0.2729  0.4637
 7715SOL    HW134607   2.368   4.119   0.369  3.4702  1.1744 -1.9666
 7715SOL    HW234608   2.503   4.052   0.372 -0.6684 -2.0192 -0.2049
 7716SOL     OW34609   1.331   1.842  16.943 -0.6440 -0.3475  0.2501
 7716SOL    HW134610   1.418   1.852  16.903 -1.9917  1.6207 -2.2730
 7716SOL    HW234611   1.324   1.917  17.003  0.0634 -2.0881  2.4943
 7717SOL     OW34612   0.209   0.149   7.733 -0.0918  0.1412 -0.2366
 7717SOL    HW134613   0.295   0.152   7.690  0.0913  1.0590  0.2071
 7717SOL    HW234614   0.226   0.201   7.811 -0.7805  0.8372 -0.5596
 7718SOL     OW34615   0.531   3.767  10.365 -0.6613 -0.2119  0.0459
 7718SOL    HW134616   0.547   3.811  10.281 -2.0087 -1.0754 -0.6619
 7718SOL    HW234617   0.492   3.839  10.415 -1.4056  0.6966 -1.8370
 7719SOL     OW34618   3.021   0.019   7.205 -0.2836  0.0687  0.0905
 7719SOL    HW134619   3.114   0.039   7.196  0.0463 -1.0651  1.0172
 7719SOL    HW234620   3.022   4.699   7.293 -2.1409 -0.0343  0.0615
 7720SOL     OW34621   0.134   1.589  15.582  0.2447 -0.3295 -0.2088
 7720SOL    HW134622   0.142   1.663  15.522  1.7846 -0.3581 -0.0353
 7720SOL    HW234623   0.144   1.633  15.667  1.0115  0.8942 -0.9252
 7721SOL     OW34624   2.390   2.300   3.812  0.1610  0.1953 -0.5252
 7721SOL    HW134625   2.450   2.368   3.781  0.8132  0.0009  0.3099
 7721SOL    HW234626   2.424   2.234   3.753 -4.5234 -2.3072 -0.3947
 7722SOL     OW34627   3.443   2.908   7.011  0.4809 -0.2352 -0.1342
 7722SOL    HW134628   3.407   2.841   6.953  0.0912  0.8746 -1.1809
 7722SOL    HW234629   3.364   2.906   7.065  0.9630 -1.3566  0.5434
 7723SOL     OW34630   1.889   0.848   3.128  0.1518  0.1649  0.0691
 7723SOL    HW134631   1.929   0.920   3.079 -0.5006 -0.5973 -1.5744
 7723SOL    HW234632   1.882   0.790   3.052 -1.9651  1.6542 -0.8551
 7724SOL     OW34633   2.266   0.277   7.701 -0.1882  0.1856  0.3386
 7724SOL    HW134634   2.252   0.255   7.793  0.0801 -0.3598  0.2512
 7724SOL    HW234635   2.282   0.370   7.717 -0.5793  0.0843  1.3328
 7725SOL     OW34636   2.493   1.017   1.993 -0.2206  0.0171  0.4793
 7725SOL    HW134637   2.459   0.964   1.921 -1.0547 -1.8444  2.2276
 7725SOL    HW234638   2.439   0.997   2.069  1.4869  1.1494  1.9981
 7726SOL     OW34639   1.955   2.755   4.769 -0.3454 -0.1956  0.2810
 7726SOL    HW134640   1.892   2.823   4.789 -0.4265 -1.0244  2.9144
 7726SOL    HW234641   2.036   2.797   4.738  0.0381 -1.3679 -0.3094
 7727SOL     OW34642   2.842   4.625   8.277  0.1650  0.2090 -0.1591
 7727SOL    HW134643   2.902   4.556   8.306  1.2757 -0.1208 -3.2690
 7727SOL    HW234644   2.806   4.665   8.356  1.8248 -0.4249  0.9263
 7728SOL     OW34645   1.060   3.345   8.744  0.1532 -0.2962 -0.0260
 7728SOL    HW134646   1.155   3.334   8.751  0.0669 -0.4461  0.8909
 7728SOL    HW234647   1.036   3.356   8.836 -0.7160 -1.0204 -0.1631
 7729SOL     OW34648   2.437   0.918   6.946 -0.1535 -0.6559  0.2413
 7729SOL    HW134649   2.379   0.901   7.020  0.8304 -1.2979  0.8615
 7729SOL    HW234650   2.511   0.950   6.997 -1.2408  2.2538 -0.0039
 7730SOL     OW34651   0.479   4.505   5.621  0.2212 -0.1646  0.0745
 7730SOL    HW134652   0.480   4.495   5.526  0.2572  1.9101 -0.1478
 7730SOL    HW234653   0.438   4.591   5.633 -3.0733 -1.7527  0.1594
 7731SOL     OW34654   3.018   1.553   7.234 -0.7200 -0.3600  0.2122
 7731SOL    HW134655   3.053   1.465   7.228  2.7066  1.0180  0.1517
 7731SOL    HW234656   2.957   1.544   7.307 -2.7692 -2.1099 -1.7195
 7732SOL     OW34657   4.317   2.560   6.873 -0.2349 -0.0827 -0.2192
 7732SOL    HW134658   4.277   2.645   6.894 -3.1445 -1.3141 -0.9147
 7732SOL    HW234659   4.405   2.576   6.909 -0.1706  1.3501 -1.0163
 7733SOL     OW34660   1.656   1.200   3.307  0.2377  0.2149  0.4562
 7733SOL    HW134661   1.676   1.123   3.253 -2.0768 -0.7891  1.0171
 7733SOL    HW234662   1.563   1.187   3.322  0.6414 -3.1629  0.0153
 7734SOL     OW34663   2.933   2.423   6.465 -0.1548  0.8052  0.1123
 7734SOL    HW134664   2.862   2.478   6.496 -0.3010 -0.4628  1.9757
 7734SOL    HW234665   2.911   2.392   6.377 -0.7800 -1.0025  0.9153
 7735SOL     OW34666   0.124   2.706   4.863  0.3264 -0.2416 -0.9205
 7735SOL    HW134667   0.045   2.732   4.816 -1.0389 -0.2469  1.3505
 7735SOL    HW234668   0.094   2.632   4.916  0.6379  0.9377  0.9259
 7736SOL     OW34669   1.271   0.853   3.358 -0.3358 -0.2611 -0.5607
 7736SOL    HW134670   1.308   0.925   3.306  2.1473 -1.0703  0.0581
 7736SOL    HW234671   1.261   0.897   3.442  1.6231  0.7782 -0.8475
 7737SOL     OW34672   2.037   4.173   1.913 -0.1721  0.9782  0.2745
 7737SOL    HW134673   1.992   4.232   1.973 -0.8970 -0.8483  1.5581
 7737SOL    HW234674   2.106   4.230   1.880  0.4670  0.2444  0.3238
 7738SOL     OW34675   4.715   0.430   5.777 -0.0927 -0.0002 -0.3418
 7738SOL    HW134676   4.644   0.369   5.758  0.7952 -1.4834  1.0142
 7738SOL    HW234677   4.690   0.501   5.718  0.3629  1.7018  1.4979
 7739SOL     OW34678   3.144   1.285   2.252 -0.4065  1.0191 -0.0766
 7739SOL    HW134679   3.141   1.232   2.173  1.6346 -0.1166  0.6244
 7739SOL    HW234680   3.238   1.303   2.259 -0.3571  1.1405 -1.1124
 7740SOL     OW34681   1.530   3.247   3.128  0.0147 -0.3575  0.2661
 7740SOL    HW134682   1.617   3.212   3.111 -0.5568 -2.2229  1.2225
 7740SOL    HW234683   1.510   3.210   3.214 -0.4660 -0.2898  0.1879
 7741SOL     OW34684   4.449   4.185   4.424  0.3009 -0.1737 -0.0655
 7741SOL    HW134685   4.465   4.207   4.332 -2.3043  0.6941 -0.3092
 7741SOL    HW234686   4.456   4.089   4.419 -3.7291 -0.5971  3.1187
 7742SOL     OW34687   3.668   3.958   7.430 -0.3434  0.1888  0.5484
 7742SOL    HW134688   3.597   3.894   7.426  1.0410 -1.2304 -0.8455
 7742SOL    HW234689   3.744   3.901   7.430 -1.3279 -1.1175  1.4722
 7743SOL     OW34690   1.077   1.027   3.880  0.6191  0.4372  0.0460
 7743SOL    HW134691   1.143   0.963   3.906  0.1189 -0.5837 -1.1910
 7743SOL    HW234692   1.001   0.969   3.877  0.1380  1.0186  1.1206
 7744SOL     OW34693   3.148   4.622   4.741 -0.3601  0.4934 -0.1327
 7744SOL    HW134694   3.202   4.572   4.679  0.3882  0.2344  0.7163
 7744SOL    HW234695   3.058   4.607   4.715 -0.7591 -1.1237  2.1829
 7745SOL     OW34696   2.355   3.195   7.920  0.5515 -0.1970 -0.3858
 7745SOL    HW134697   2.442   3.176   7.885  1.3767 -1.5156  2.3968
 7745SOL    HW234698   2.375   3.187   8.013  0.6005  0.1345 -0.3681
 7746SOL     OW34699   4.166   3.492  14.768  0.0460 -0.3641 -0.1217
 7746SOL    HW134700   4.196   3.410  14.728 -0.7128 -0.5666 -0.2776
 7746SOL    HW234701   4.213   3.502  14.851 -0.2212 -2.1650  0.2480
 7747SOL     OW34702   0.901   2.478   1.168 -0.3063 -0.3295 -0.2160
 7747SOL    HW134703   0.953   2.398   1.171 -2.1097 -1.5241 -0.6327
 7747SOL    HW234704   0.953   2.541   1.218  2.6314 -0.7459 -2.7339
 7748SOL     OW34705   0.569   2.477   5.330  0.7058  0.1720 -0.5874
 7748SOL    HW134706   0.530   2.477   5.243  1.3919  0.0921 -0.8968
 7748SOL    HW234707   0.604   2.389   5.343 -0.5367 -0.0978  0.9512
 7749SOL     OW34708   4.386   4.414   3.293  0.4202  0.3302  0.4672
 7749SOL    HW134709   4.383   4.503   3.328 -0.1691  0.9426 -1.1898
 7749SOL    HW234710   4.295   4.389   3.281  0.7008 -0.2040 -0.4980
 7750SOL     OW34711   0.943   1.583  16.804 -0.3125 -0.7356  0.1078
 7750SOL    HW134712   0.886   1.629  16.743 -0.9609 -2.7487 -0.8094
 7750SOL    HW234713   0.923   1.619  16.890 -0.5916 -2.0401  0.5939
 7751SOL     OW34714   4.643   2.518  12.722 -0.3621  0.0229 -0.7336
 7751SOL    HW134715   4.629   2.580  12.651 -0.5818  1.1042  0.2416
 7751SOL    HW234716   0.022   2.527  12.726 -0.2746 -0.7262 -1.3075
 7752SOL     OW34717   3.211   3.555   0.851 -0.1913 -0.2397  0.0271
 7752SOL    HW134718   3.270   3.618   0.809 -3.1437  0.5027 -3.0253
 7752SOL    HW234719   3.246   3.547   0.940 -0.0104  0.3430  0.0066
 7753SOL     OW34720   1.834   1.367   5.473  0.0604  0.2539 -0.1820
 7753SOL    HW134721   1.827   1.272   5.459  2.9597 -0.0123  0.2653
 7753SOL    HW234722   1.911   1.380   5.528  1.4693  1.5505 -2.4949
 7754SOL     OW34723   4.019   2.101   6.840 -0.1124 -0.0088 -0.2407
 7754SOL    HW134724   4.042   2.047   6.916 -0.8308  0.3853  0.2573
 7754SOL    HW234725   3.990   2.182   6.883  0.7610  0.0177  0.2916
 7755SOL     OW34726   0.565   2.478   7.695  0.1032  0.4187  0.6624
 7755SOL    HW134727   0.600   2.482   7.606 -1.9837  0.6291 -0.1595
 7755SOL    HW234728   0.630   2.524   7.748  1.7831 -3.9468  2.3339
 7756SOL     OW34729   0.717   3.453   4.617  0.8641 -0.0532  0.2326
 7756SOL    HW134730   0.770   3.374   4.607 -2.0896 -1.9592 -0.5345
 7756SOL    HW234731   0.637   3.407   4.644 -0.1102  0.1157 -2.3449
 7757SOL     OW34732   1.540   4.406  11.752 -0.1505  0.5465  0.1464
 7757SOL    HW134733   1.619   4.435  11.798  0.8288  0.7407 -1.6541
 7757SOL    HW234734   1.481   4.374  11.820 -0.7422 -0.9110 -1.0599
 7758SOL     OW34735   1.387   2.964   9.294 -0.3028 -0.3407  0.2306
 7758SOL    HW134736   1.394   2.881   9.247 -0.2600  0.1860 -0.6799
 7758SOL    HW234737   1.307   2.938   9.340 -0.5393  0.4873  0.2786
 7759SOL     OW34738   1.052   1.946   8.037  0.2295  0.6003  0.0811
 7759SOL    HW134739   1.044   1.890   7.960 -1.0180  1.3630 -0.3495
 7759SOL    HW234740   0.963   1.936   8.071  0.6388  0.3380  1.0829
 7760SOL     OW34741   1.234   3.415   2.828  0.3943 -0.2150 -1.1834
 7760SOL    HW134742   1.162   3.358   2.802  0.5719 -1.0259  0.0959
 7760SOL    HW234743   1.302   3.372   2.776  1.8395 -1.3217  1.6280
 7761SOL     OW34744   0.598   0.822  16.047  0.0034 -0.9697  0.9125
 7761SOL    HW134745   0.566   0.908  16.076  1.3579 -0.6807  1.5656
 7761SOL    HW234746   0.512   0.785  16.026 -0.3670  0.6957 -0.4876
 7762SOL     OW34747   0.874   4.305   8.645  0.1403  0.1484 -0.4907
 7762SOL    HW134748   0.954   4.356   8.634  0.4650 -0.7315 -2.1347
 7762SOL    HW234749   0.877   4.244   8.571  1.2222  1.5189 -1.5679
 7763SOL     OW34750   1.353   0.058   2.800  0.2712 -0.4156 -0.0361
 7763SOL    HW134751   1.427   0.041   2.859  1.3526  1.3232 -0.8871
 7763SOL    HW234752   1.409   0.064   2.723 -0.9734 -1.4234 -1.0075
 7764SOL     OW34753   0.874   2.669   6.123  0.4068 -0.1848 -0.0633
 7764SOL    HW134754   0.942   2.710   6.069  0.8076 -0.9267 -0.1128
 7764SOL    HW234755   0.899   2.579   6.102 -1.4762 -0.9365  0.9171
 7765SOL     OW34756   2.353   4.137   5.957 -0.1413 -0.2876 -0.2191
 7765SOL    HW134757   2.355   4.151   6.051 -0.5849  1.4642 -0.4648
 7765SOL    HW234758   2.284   4.072   5.950  0.3070 -1.0181  2.3309
 7766SOL     OW34759   4.411   1.291   1.341 -0.0997 -0.0597 -1.0230
 7766SOL    HW134760   4.446   1.218   1.391  1.2210  1.1233 -0.2266
 7766SOL    HW234761   4.376   1.339   1.416  0.6968 -1.7595  0.4117
 7767SOL     OW34762   3.279   3.974  13.494  0.8208 -0.0144  0.1408
 7767SOL    HW134763   3.304   4.064  13.512 -1.1812  0.0437  2.7293
 7767SOL    HW234764   3.266   3.987  13.400  0.4748 -1.5053 -0.0243
 7768SOL     OW34765   2.517   2.953   9.077  0.5982 -0.0086 -0.1786
 7768SOL    HW134766   2.487   2.882   9.020 -0.6807  0.0566  0.4108
 7768SOL    HW234767   2.504   3.028   9.019  0.9831 -0.8673 -1.3841
 7769SOL     OW34768   4.421   4.297   3.525 -0.1366 -0.0896  1.0533
 7769SOL    HW134769   4.416   4.356   3.449  1.8256 -2.6305 -1.0666
 7769SOL    HW234770   4.325   4.288   3.529 -0.1888  0.0953  0.3847
 7770SOL     OW34771   2.963   4.620   3.595 -0.0587 -0.4601  0.3862
 7770SOL    HW134772   2.895   4.571   3.548 -1.1463  1.1638  0.2773
 7770SOL    HW234773   2.912   4.676   3.654  0.6101 -1.2234  1.6937
 7771SOL     OW34774   2.233   3.765   5.510 -0.1447  0.2337 -0.1179
 7771SOL    HW134775   2.256   3.785   5.601  2.7176 -0.1345 -0.7551
 7771SOL    HW234776   2.261   3.675   5.490 -1.5592  0.1370 -1.7044
 7772SOL     OW34777   4.685   1.115   9.849  0.3525 -0.4031 -0.2015
 7772SOL    HW134778   4.685   1.020   9.835  0.5674 -0.4352  0.0079
 7772SOL    HW234779   4.596   1.135   9.819  0.7812 -1.4451 -2.1903
 7773SOL     OW34780   2.863   1.082   8.026  0.1906  0.0257  0.2497
 7773SOL    HW134781   2.794   1.108   8.087 -0.2502 -2.9780  1.0427
 7773SOL    HW234782   2.825   1.118   7.946 -1.1183 -1.3033  0.2744
 7774SOL     OW34783   1.834   3.645   1.347  0.1935 -0.0393  0.5523
 7774SOL    HW134784   1.923   3.677   1.360  0.1283  1.0237 -1.5907
 7774SOL    HW234785   1.817   3.675   1.258  0.5345  0.5412  0.6849
 7775SOL     OW34786   3.027   2.847   2.431 -0.1944 -0.4474  0.5418
 7775SOL    HW134787   2.940   2.809   2.441 -0.6514  0.9531  1.8511
 7775SOL    HW234788   2.998   2.928   2.473  0.4885 -0.0167  0.1956
 7776SOL     OW34789   0.824   4.386  13.573 -0.3507 -0.1107 -0.2265
 7776SOL    HW134790   0.801   4.373  13.481  0.1720 -0.4294 -0.3143
 7776SOL    HW234791   0.919   4.396  13.562 -0.4525  1.5311  0.3623
 7777SOL     OW34792   1.991   4.658   5.250 -0.2503 -0.8985  0.2370
 7777SOL    HW134793   2.033   4.704   5.323 -3.5059  1.7091  0.4666
 7777SOL    HW234794   2.035   4.574   5.255  0.0046 -0.8909 -1.9434
 7778SOL     OW34795   2.030   4.190   8.986  0.1223 -0.4312  0.3671
 7778SOL    HW134796   2.095   4.260   8.985 -0.8039  0.3963 -1.4492
 7778SOL    HW234797   1.962   4.230   9.040 -1.5624 -1.2896 -1.1318
 7779SOL     OW34798   1.653   0.484   4.077  0.1910  0.3413 -0.0996
 7779SOL    HW134799   1.628   0.576   4.087 -0.3482 -0.0496  2.3054
 7779SOL    HW234800   1.746   0.500   4.094  0.3114  2.7921 -3.2575
 7780SOL     OW34801   0.967   4.659   6.997  0.5429  0.0667  0.5717
 7780SOL    HW134802   0.977   4.570   7.031 -1.1019 -0.2884  0.1344
 7780SOL    HW234803   1.044   4.703   7.032  0.7952  0.8018 -0.9174
 7781SOL     OW34804   0.082   4.004   3.247  0.3056 -0.1780 -0.0918
 7781SOL    HW134805   0.026   4.007   3.324 -3.7854 -0.5449 -3.0268
 7781SOL    HW234806   0.019   3.965   3.186  0.4861  1.1529 -1.1257
 7782SOL     OW34807   1.805   2.200   7.373 -0.1049  0.8521 -0.6841
 7782SOL    HW134808   1.878   2.229   7.319 -0.7329 -0.9592 -2.5473
 7782SOL    HW234809   1.743   2.272   7.359 -1.8173 -0.5029 -0.0868
 7783SOL     OW34810   3.980   1.473   2.849  0.0039 -0.0703 -0.6637
 7783SOL    HW134811   3.896   1.504   2.883 -0.6314 -1.4477 -1.0120
 7783SOL    HW234812   3.970   1.491   2.756  1.0766  1.4709 -0.4878
 7784SOL     OW34813   1.387   4.257   7.593  0.3413  0.3722 -0.6519
 7784SOL    HW134814   1.387   4.296   7.505 -0.8225  0.6551 -0.5298
 7784SOL    HW234815   1.476   4.225   7.601  0.5032  0.9736 -0.0909
 7785SOL     OW34816   2.587   2.177   1.314  0.5849 -0.1666  0.0509
 7785SOL    HW134817   2.569   2.083   1.315  1.8098 -0.3770  1.2371
 7785SOL    HW234818   2.521   2.213   1.254 -0.8972  0.8676  2.3013
 7786SOL     OW34819   2.193   1.317   6.072 -0.0860  0.0654  0.2375
 7786SOL    HW134820   2.193   1.333   6.167  2.3207 -0.6834  0.3671
 7786SOL    HW234821   2.130   1.382   6.043 -0.0306  0.8498  1.8558
 7787SOL     OW34822   1.000   3.903   1.034 -0.1470  0.2395 -0.2941
 7787SOL    HW134823   0.907   3.907   1.058 -0.7350  2.1320 -2.8378
 7787SOL    HW234824   0.990   3.964   0.960 -1.2068  0.7854  0.2884
 7788SOL     OW34825   0.197   0.534  12.036  0.1410 -0.2182 -0.3498
 7788SOL    HW134826   0.283   0.521  11.995  0.6290  0.9105  0.3309
 7788SOL    HW234827   0.158   0.447  12.030  0.3501 -0.4045  1.0230
 7789SOL     OW34828   1.552   0.432   5.271 -0.0143 -0.7389 -0.2340
 7789SOL    HW134829   1.488   0.360   5.271 -1.5458  0.6265  0.7417
 7789SOL    HW234830   1.508   0.487   5.207 -0.8928 -1.1670  0.0090
 7790SOL     OW34831   1.832   2.916   0.554 -0.2766  1.1475 -0.2205
 7790SOL    HW134832   1.818   2.853   0.625 -1.6500 -0.2104 -1.7196
 7790SOL    HW234833   1.742   2.947   0.547 -1.0223 -1.0712 -0.3287
 7791SOL     OW34834   0.447   1.109  15.037 -0.5402  0.5946 -0.2879
 7791SOL    HW134835   0.525   1.160  15.016 -1.1653  1.2720 -0.9929
 7791SOL    HW234836   0.398   1.170  15.092  1.5139  2.7951 -0.9439
 7792SOL     OW34837   1.977   3.370   2.801  0.0300  0.1362 -0.2868
 7792SOL    HW134838   2.070   3.393   2.797  0.7671 -2.4955  1.9383
 7792SOL    HW234839   1.984   3.281   2.766 -0.8885 -0.1539  0.2748
 7793SOL     OW34840   0.040   0.449   0.946  0.0714 -0.8558 -0.3206
 7793SOL    HW134841   4.691   0.466   1.013  2.3641 -0.2541  1.7421
 7793SOL    HW234842   0.117   0.448   1.001 -0.8158  0.8737  0.9568
 7794SOL     OW34843   3.965   1.083   8.741  0.2471 -0.2176  0.0177
 7794SOL    HW134844   4.017   1.087   8.821 -1.7816 -0.5046  1.3559
 7794SOL    HW234845   3.889   1.030   8.767 -0.5907  1.5735  1.2779
 7795SOL     OW34846   2.006   3.198   8.795 -0.1186  0.4860 -0.1580
 7795SOL    HW134847   2.033   3.255   8.723 -1.9814  0.1432 -1.1114
 7795SOL    HW234848   1.970   3.256   8.861  0.3903  3.1341 -2.2120
 7796SOL     OW34849   2.978   1.544   6.907 -0.4005  0.0947  0.8503
 7796SOL    HW134850   2.902   1.581   6.952  0.3953  0.4510  1.8941
 7796SOL    HW234851   3.051   1.589   6.949  0.1244  0.4891 -0.4885
 7797SOL     OW34852   0.782   0.932   0.392 -0.1182 -0.3557 -0.2427
 7797SOL    HW134853   0.848   0.992   0.357  1.7927 -3.1127 -1.3552
 7797SOL    HW234854   0.711   0.953   0.332 -0.0233 -0.5647 -0.4283
 7798SOL     OW34855   4.692   4.208  15.844 -0.5207  0.1561  0.1289
 7798SOL    HW134856   0.010   4.230  15.930 -2.0809 -0.6552  0.9725
 7798SOL    HW234857   4.641   4.285  15.818 -0.4848  0.3467  0.6261
 7799SOL     OW34858   3.091   0.780   9.023 -0.4481  0.5087  0.1252
 7799SOL    HW134859   3.076   0.784   8.929  0.0704  0.8032  0.0500
 7799SOL    HW234860   3.021   0.835   9.059  0.2770  1.8712 -0.5308
 7800SOL     OW34861   1.053   1.413   4.674 -0.0725  0.7345  0.6972
 7800SOL    HW134862   1.021   1.502   4.685 -0.5403  0.7259 -0.5100
 7800SOL    HW234863   1.148   1.423   4.672  0.0590  0.0786  3.6759
 7801SOL     OW34864   4.059   2.172   8.369 -0.3813  0.3049 -0.1005
 7801SOL    HW134865   4.117   2.099   8.392  0.8149  1.1158 -0.5664
 7801SOL    HW234866   3.992   2.109   8.343 -1.2334  1.0806  0.2283
 7802SOL     OW34867   2.936   3.676   1.327 -0.1775 -0.5133  0.0513
 7802SOL    HW134868   2.863   3.728   1.358 -1.0337 -1.1919 -0.8436
 7802SOL    HW234869   3.005   3.708   1.386 -0.1037  0.5125 -0.5921
 7803SOL     OW34870   3.469   0.553   2.298  0.3160  0.6812  0.1462
 7803SOL    HW134871   3.480   0.516   2.211 -1.9029  0.4826 -0.0372
 7803SOL    HW234872   3.478   0.472   2.349 -1.0734  0.3674 -0.1368
 7804SOL     OW34873   0.423   0.561   5.374  0.3538 -0.4765  0.2775
 7804SOL    HW134874   0.402   0.475   5.339  0.1816 -0.5678  0.6046
 7804SOL    HW234875   0.493   0.591   5.316 -0.6802  0.2472 -0.6048
 7805SOL     OW34876   0.479   0.576   6.559 -0.3423  0.3207 -0.0212
 7805SOL    HW134877   0.541   0.640   6.525 -1.3570  2.1947  1.6835
 7805SOL    HW234878   0.441   0.642   6.617 -1.7738  0.4389 -1.0918
 7806SOL     OW34879   4.452   0.702  17.536 -0.0808  0.3870 -0.2139
 7806SOL    HW134880   4.486   0.613  17.549 -2.6428 -0.4436  0.9235
 7806SOL    HW234881   4.419   0.692  17.447 -1.0661 -1.7639  0.3899
 7807SOL     OW34882   4.052   1.258   4.409  0.3199 -0.1881  0.4730
 7807SOL    HW134883   4.084   1.319   4.343  0.9075  0.0504  0.9896
 7807SOL    HW234884   4.136   1.212   4.416  1.0608  1.4095  1.9574
 7808SOL     OW34885   3.435   1.053   6.827  0.6296  0.6002 -0.2016
 7808SOL    HW134886   3.387   1.135   6.839  0.3584  0.4127 -0.0053
 7808SOL    HW234887   3.465   1.039   6.916  0.3915 -3.1499 -0.7208
 7809SOL     OW34888   4.367   3.797   7.549  1.0396 -0.2252 -0.1310
 7809SOL    HW134889   4.380   3.751   7.466 -1.6550 -2.2266  0.5727
 7809SOL    HW234890   4.347   3.722   7.605 -3.5641  1.0879 -0.0525
 7810SOL     OW34891   4.555   1.138  16.408 -0.6191 -0.4095 -0.2367
 7810SOL    HW134892   4.561   1.111  16.499 -1.0445  1.5531  0.3655
 7810SOL    HW234893   4.566   1.233  16.406 -1.9248 -0.2333  1.6683
 7811SOL     OW34894   4.402   1.402  15.532  0.1521  0.0815 -0.3154
 7811SOL    HW134895   4.457   1.353  15.470  1.4910  3.4165 -1.7809
 7811SOL    HW234896   4.459   1.401  15.609 -1.0379 -0.7031  0.5557
 7812SOL     OW34897   2.222   4.084  16.073  0.3055 -0.6002  0.3027
 7812SOL    HW134898   2.313   4.090  16.045 -0.2420  3.0706 -0.7727
 7812SOL    HW234899   2.212   4.005  16.126 -1.5149  0.1177  1.0630
 7813SOL     OW34900   3.443   3.546  17.261  0.4772  0.0070 -0.2675
 7813SOL    HW134901   3.532   3.535  17.229  0.8972  0.6198  0.6836
 7813SOL    HW234902   3.424   3.639  17.250 -0.2799 -0.0621  0.4046
 7814SOL     OW34903   2.902   3.451  13.125  0.2696 -0.2203  0.3882
 7814SOL    HW134904   2.908   3.540  13.158 -2.8797 -0.1133  0.7074
 7814SOL    HW234905   2.901   3.468  13.031  1.2976 -2.4172 -0.0250
 7815SOL     OW34906   0.154   4.429   3.030 -0.8487  0.1861  0.5724
 7815SOL    HW134907   0.126   4.384   2.950 -0.1194  1.0446 -0.1769
 7815SOL    HW234908   0.224   4.486   2.998  0.1145  0.1749  2.6976
 7816SOL     OW34909   0.413   3.686   2.114  0.9014 -0.4314 -0.2518
 7816SOL    HW134910   0.435   3.593   2.116 -0.8705 -0.8872 -2.0838
 7816SOL    HW234911   0.445   3.706   2.203 -0.3949  0.7298 -0.0439
 7817SOL     OW34912   2.288   2.492   7.523 -0.0538 -0.5972  0.8181
 7817SOL    HW134913   2.311   2.400   7.538  1.6597 -0.2272  0.5124
 7817SOL    HW234914   2.202   2.488   7.482  0.2479  0.9714  0.0443
 7818SOL     OW34915   1.193   3.342   1.385 -0.2208  0.1283 -0.2604
 7818SOL    HW134916   1.268   3.341   1.325 -2.2355  0.1301 -2.7551
 7818SOL    HW234917   1.214   3.407   1.452 -2.4835 -1.7941  2.2959
 7819SOL     OW34918   4.419   3.879   4.385  0.1228  0.3924  0.0836
 7819SOL    HW134919   4.324   3.887   4.390 -0.0224 -1.8949  1.0561
 7819SOL    HW234920   4.419   3.809   4.319 -1.8759  0.7291 -0.2549
 7820SOL     OW34921   1.652   2.569   0.448  0.1307  0.1798 -0.0960
 7820SOL    HW134922   1.707   2.501   0.486 -0.3695 -0.6552 -0.8650
 7820SOL    HW234923   1.713   2.618   0.392  2.4777 -1.9465  0.5866
 7821SOL     OW34924   2.413   2.268  16.179  0.6561  0.6890  0.9262
 7821SOL    HW134925   2.441   2.341  16.124 -1.6097  0.0249 -1.0716
 7821SOL    HW234926   2.463   2.196  16.140 -0.8360  0.6824 -0.9705
 7822SOL     OW34927   2.777   1.534   0.617 -0.5811 -0.2261 -0.0704
 7822SOL    HW134928   2.743   1.445   0.632 -1.9945  0.3487  0.0856
 7822SOL    HW234929   2.791   1.570   0.704  0.2488 -2.0699  0.5699
 7823SOL     OW34930   4.588   0.195   4.443  0.0781 -0.1162 -0.1947
 7823SOL    HW134931   4.533   0.273   4.453  3.1431  2.3029 -2.1344
 7823SOL    HW234932   4.619   0.175   4.531 -4.2796 -0.6673  1.2542
 7824SOL     OW34933   1.292   2.985   1.356  0.6161  0.2761  0.0499
 7824SOL    HW134934   1.294   2.994   1.260  0.8266 -2.1079 -0.1618
 7824SOL    HW234935   1.376   2.945   1.379  0.4524  0.7203  1.4141
 7825SOL     OW34936   0.173   2.233   6.976 -0.2533  0.1313  0.4602
 7825SOL    HW134937   0.126   2.309   6.943 -0.5413 -0.9937 -1.7294
 7825SOL    HW234938   0.147   2.219   7.068 -0.2671  0.7892  0.5554
 7826SOL     OW34939   4.415   2.551  16.596 -0.2352  0.0805  0.4038
 7826SOL    HW134940   4.417   2.498  16.516  0.6054 -0.9917  1.1272
 7826SOL    HW234941   4.506   2.537  16.622  1.3337  0.2851 -4.9031
 7827SOL     OW34942   3.660   0.617  15.808  0.1435 -1.0123  0.0669
 7827SOL    HW134943   3.690   0.599  15.897  2.3250 -1.2361 -0.7088
 7827SOL    HW234944   3.577   0.570  15.817 -1.3274  1.1414 -2.4132
 7828SOL     OW34945   1.873   1.702   6.728 -0.0055 -0.1889  0.3272
 7828SOL    HW134946   1.832   1.648   6.660  1.8689  0.2171 -1.1490
 7828SOL    HW234947   1.820   1.781   6.735 -1.1843 -1.1527  2.2413
 7829SOL     OW34948   3.550   1.654  11.824 -0.1546  0.0734 -0.4615
 7829SOL    HW134949   3.489   1.726  11.837  1.3719  1.6640 -2.0750
 7829SOL    HW234950   3.596   1.676  11.743 -1.3318  1.3248 -0.7836
 7830SOL     OW34951   1.954   3.162   5.372  0.5695 -0.1067  0.2961
 7830SOL    HW134952   1.970   3.138   5.280  1.0871 -0.6472  0.5306
 7830SOL    HW234953   1.893   3.091   5.392 -0.6377  1.1684  1.1580
 7831SOL     OW34954   1.878   1.534   3.700 -0.6364  0.1030 -0.0003
 7831SOL    HW134955   1.863   1.535   3.605 -0.9454  0.3645  0.0529
 7831SOL    HW234956   1.924   1.450   3.709 -2.0278 -0.6405  0.0812
 7832SOL     OW34957   1.289   2.074   1.600  0.0158 -0.9094  0.8794
 7832SOL    HW134958   1.231   2.018   1.653  0.0287  0.2668  2.1484
 7832SOL    HW234959   1.239   2.155   1.601 -2.0782 -2.1897  0.1562
 7833SOL     OW34960   3.915   3.285  16.963 -0.2482  0.1063  0.4385
 7833SOL    HW134961   3.975   3.346  16.919  1.7714 -2.5625 -0.4645
 7833SOL    HW234962   3.975   3.212  16.974  1.1772  0.9120 -2.1387
 7834SOL     OW34963   4.581   3.846   7.317 -0.2212  0.1255 -0.7348
 7834SOL    HW134964   4.555   3.904   7.388 -1.6836  0.7202 -1.7724
 7834SOL    HW234965   4.621   3.774   7.367 -1.1845  0.4969  0.5562
 7835SOL     OW34966   3.971   2.734   9.896  0.0055 -0.4340 -0.1146
 7835SOL    HW134967   3.984   2.684   9.815 -1.3641  0.4389 -0.8846
 7835SOL    HW234968   3.880   2.706   9.899 -0.2570  0.4726  0.4320
 7836SOL     OW34969   0.767   2.501  16.429 -0.2169 -0.2048  0.1207
 7836SOL    HW134970   0.752   2.498  16.335 -0.7239 -0.3657  0.2063
 7836SOL    HW234971   0.701   2.437  16.457  0.6604 -0.1016  2.4250
 7837SOL     OW34972   2.531   0.898   0.163 -0.1972 -0.2347  0.1629
 7837SOL    HW134973   2.481   0.881   0.242 -0.0538  0.4152  0.3928
 7837SOL    HW234974   2.585   0.972   0.190  2.2498 -1.8503 -0.3091
 7838SOL     OW34975   4.065   0.502  15.900  0.1748 -0.0528 -0.9123
 7838SOL    HW134976   4.138   0.487  15.839  0.5418  0.6193 -0.6350
 7838SOL    HW234977   4.003   0.435  15.871 -0.8700  0.3274  0.4323
 7839SOL     OW34978   4.253   4.474   5.073  0.1330  0.2132  0.1998
 7839SOL    HW134979   4.346   4.472   5.092 -0.4273 -1.4561  2.7487
 7839SOL    HW234980   4.259   4.472   4.977  1.8009  3.6210  0.2404
 7840SOL     OW34981   3.728   0.242   1.911  0.0632  0.5639  0.7578
 7840SOL    HW134982   3.673   0.282   1.844  0.6960  2.6328  1.4730
 7840SOL    HW234983   3.775   0.174   1.861  2.8247 -0.1536  4.3038
 7841SOL     OW34984   1.853   3.171   7.896  0.2054 -0.3654  0.3180
 7841SOL    HW134985   1.932   3.136   7.855  1.4503  0.5274  1.9553
 7841SOL    HW234986   1.845   3.255   7.852 -1.2398 -1.5695 -1.7233
 7842SOL     OW34987   3.991   1.734  11.706 -0.1991  0.1382 -0.1373
 7842SOL    HW134988   4.036   1.819  11.707 -0.1158  0.0627  1.5509
 7842SOL    HW234989   4.030   1.706  11.623  0.4237 -0.3236  0.3215
 7843SOL     OW34990   4.276   0.835  12.049 -0.2845 -0.1419 -0.0994
 7843SOL    HW134991   4.212   0.764  12.045  0.8913 -1.2288  0.2591
 7843SOL    HW234992   4.225   0.905  12.089 -0.1262  0.3919 -0.8554
 7844SOL     OW34993   2.859   1.490  13.132 -0.4743  0.5601 -0.0363
 7844SOL    HW134994   2.906   1.571  13.154 -2.2023  1.4803  0.3062
 7844SOL    HW234995   2.902   1.466  13.049  2.3581 -0.3169  1.6839
 7845SOL     OW34996   1.925   2.753   8.221  0.3903  0.5418 -0.2857
 7845SOL    HW134997   1.895   2.702   8.296 -0.2040  0.9291 -0.2590
 7845SOL    HW234998   1.838   2.788   8.201 -0.4346 -1.8579 -0.8596
 7846SOL     OW34999   2.823   4.461   9.226  0.4837 -0.4925  0.2841
 7846SOL    HW135000   2.758   4.452   9.295  0.4760 -2.5260  0.0033
 7846SOL    HW235001   2.819   4.555   9.207  0.0412 -0.5508  0.0932
 7847SOL     OW35002   1.521   2.892  13.556  0.3822  0.5113  0.0695
 7847SOL    HW135003   1.555   2.915  13.469  0.8866 -1.7231 -0.3219
 7847SOL    HW235004   1.433   2.929  13.551 -0.0308 -0.2715  1.6100
 7848SOL     OW35005   1.907   1.772   3.850  0.2830  0.0495 -0.0756
 7848SOL    HW135006   1.890   1.693   3.798 -0.0976  0.2057 -0.1859
 7848SOL    HW235007   1.970   1.816   3.793 -1.2557 -0.0594 -1.8499
 7849SOL     OW35008   0.748   1.588   5.862 -0.8623  0.5094  0.0014
 7849SOL    HW135009   0.702   1.613   5.782 -2.0724  3.0419  1.4866
 7849SOL    HW235010   0.713   1.654   5.921  0.6037  0.9749  0.3539
 7850SOL     OW35011   4.456   3.458   6.554  0.2748  0.0005 -0.0205
 7850SOL    HW135012   4.465   3.371   6.592 -0.5932 -0.1154 -0.0841
 7850SOL    HW235013   4.545   3.473   6.522 -1.2214  2.5857 -3.0238
 7851SOL     OW35014   3.813   4.622   6.397 -0.6169 -0.0939 -0.2767
 7851SOL    HW135015   3.776   4.701   6.437  4.4712  2.6666 -0.9816
 7851SOL    HW235016   3.851   4.569   6.466 -1.4219  0.4879  0.6167
 7852SOL     OW35017   2.103   1.587   4.573 -1.0424 -0.0842 -0.6705
 7852SOL    HW135018   2.174   1.647   4.553  1.2610 -1.9821  1.8726
 7852SOL    HW235019   2.076   1.608   4.662 -1.1846 -0.5072 -0.6100
 7853SOL     OW35020   3.179   0.475   2.661 -0.0854  0.8352  0.5416
 7853SOL    HW135021   3.170   0.398   2.604  1.1289  0.3035  1.0675
 7853SOL    HW235022   3.273   0.490   2.663  0.2285 -0.8285 -2.1975
 7854SOL     OW35023   0.205   3.893   8.839  0.4176  0.8432 -0.1259
 7854SOL    HW135024   0.295   3.915   8.814  0.0934  1.5767 -0.6464
 7854SOL    HW235025   0.205   3.913   8.932 -1.6892  2.4918 -0.4988
 7855SOL     OW35026   0.923   0.677  14.959  0.0026  0.2572 -0.1477
 7855SOL    HW135027   0.909   0.673  15.054  0.0611 -0.4701 -0.1720
 7855SOL    HW235028   0.984   0.750  14.946 -0.5415  0.7665  0.1235
 7856SOL     OW35029   1.226   1.287  15.581 -0.6750  0.0922 -0.3936
 7856SOL    HW135030   1.307   1.316  15.539 -1.4365  1.3946 -0.9408
 7856SOL    HW235031   1.187   1.371  15.605  1.0322  0.7048  0.2564
 7857SOL     OW35032   0.912   1.531  12.178 -0.4354 -0.5333 -0.3453
 7857SOL    HW135033   0.870   1.449  12.201  1.3137 -0.6612  2.4731
 7857SOL    HW235034   0.930   1.513  12.086  1.7444 -0.0918 -0.0275
 7858SOL     OW35035   2.861   3.682   4.647  0.2074  0.4913  0.1573
 7858SOL    HW135036   2.828   3.730   4.570 -0.3140  0.7157  0.5200
 7858SOL    HW235037   2.823   3.724   4.723 -1.5415  2.1224 -1.6082
 7859SOL     OW35038   3.673   4.664  14.876  0.3721 -0.2213 -0.1339
 7859SOL    HW135039   3.691   4.663  14.782  1.7100  2.9985  0.0662
 7859SOL    HW235040   3.762   4.648  14.907  0.8791  0.2250 -1.3792
 7860SOL     OW35041   0.508   3.723   5.135 -0.2030  0.4552 -0.4104
 7860SOL    HW135042   0.493   3.790   5.201  1.8423  1.0242 -0.5112
 7860SOL    HW235043   0.435   3.662   5.145  0.1884 -0.0079 -0.3512
 7861SOL     OW35044   3.751   1.248   5.605  0.7979  0.1051  0.5595
 7861SOL    HW135045   3.813   1.309   5.566  0.9139 -1.0722 -1.1077
 7861SOL    HW235046   3.814   1.194   5.653 -0.1053 -2.2959 -0.9842
 7862SOL     OW35047   0.706   2.760  11.105 -0.0302  0.4193 -0.0801
 7862SOL    HW135048   0.722   2.748  11.199 -1.1419  1.8660  0.2960
 7862SOL    HW235049   0.615   2.789  11.102 -0.6042 -1.4930 -1.1910
 7863SOL     OW35050   1.172   0.814   8.154  0.0910 -0.2423 -0.0994
 7863SOL    HW135051   1.240   0.832   8.219  0.3304 -1.0126 -0.1380
 7863SOL    HW235052   1.112   0.884   8.179 -1.4228 -1.2564 -0.9114
 7864SOL     OW35053   3.260   2.568   4.746 -0.1789  0.0238  0.7025
 7864SOL    HW135054   3.188   2.608   4.795 -0.4025  0.0789  0.3318
 7864SOL    HW235055   3.281   2.642   4.690 -1.1409  0.4996  0.9714
 7865SOL     OW35056   1.117   1.109   5.938 -0.1339  0.0990  0.0150
 7865SOL    HW135057   1.110   1.109   5.842  0.2722  0.8088 -0.0151
 7865SOL    HW235058   1.133   1.203   5.951 -1.6186  0.5491 -1.3986
 7866SOL     OW35059   2.866   3.817   2.561 -0.1781 -0.0421  0.5271
 7866SOL    HW135060   2.960   3.814   2.577 -0.1145  1.7048  0.4830
 7866SOL    HW235061   2.832   3.804   2.650 -0.7432  0.9577  0.4596
 7867SOL     OW35062   3.152   1.736   1.578 -0.2611  0.3406  0.0708
 7867SOL    HW135063   3.088   1.800   1.607  0.5347  0.7703  0.8789
 7867SOL    HW235064   3.230   1.763   1.626 -0.4843 -1.5497  1.5183
 7868SOL     OW35065   2.555   3.971  11.081  0.2361 -0.6871  0.3116
 7868SOL    HW135066   2.586   4.062  11.075 -2.5300  0.2696  0.2047
 7868SOL    HW235067   2.462   3.989  11.097 -0.0525  1.0569 -3.3192
 7869SOL     OW35068   3.773   0.867   3.288 -0.3401 -0.6631  0.0896
 7869SOL    HW135069   3.850   0.876   3.231 -1.7769  0.6854 -1.6264
 7869SOL    HW235070   3.779   0.778   3.323 -0.0067 -0.2378  1.1181
 7870SOL     OW35071   4.090   4.030  13.455 -0.1748 -0.1644  0.3679
 7870SOL    HW135072   4.155   4.057  13.390  1.9987  0.6110  2.8243
 7870SOL    HW235073   4.147   4.038  13.532 -0.0339  0.4451  0.1977
 7871SOL     OW35074   1.451   4.634  17.418 -0.1342 -0.1437 -0.2476
 7871SOL    HW135075   1.502   4.637  17.499 -1.4574  0.4488  0.5617
 7871SOL    HW235076   1.518   4.598  17.360 -1.2048 -1.1554 -0.8569
 7872SOL     OW35077   2.942   0.130   2.545 -0.0695 -0.0869 -0.1292
 7872SOL    HW135078   2.876   0.063   2.527 -1.1371  0.9825 -0.1811
 7872SOL    HW235079   2.924   0.160   2.634 -1.0710  1.0742 -0.7332
 7873SOL     OW35080   4.493   2.685   3.081 -0.5506 -0.2476  0.0053
 7873SOL    HW135081   4.489   2.767   3.129  3.6879 -0.2268  0.2838
 7873SOL    HW235082   4.439   2.627   3.136  1.7067 -1.0593  1.3618
 7874SOL     OW35083   1.906   2.589   9.777 -0.2120  0.0325 -0.2466
 7874SOL    HW135084   1.910   2.521   9.844  1.3785  1.0095  0.6553
 7874SOL    HW235085   1.810   2.587   9.766 -0.0157  1.1654 -2.2574
 7875SOL     OW35086   3.691   2.622   5.974 -0.6383  0.1875 -0.2652
 7875SOL    HW135087   3.786   2.617   5.980 -0.6400  1.5811  1.1968
 7875SOL    HW235088   3.672   2.700   6.027  1.1391 -0.0304  0.7080
 7876SOL     OW35089   3.306   1.706  16.293  0.3436  0.8117  0.2361
 7876SOL    HW135090   3.239   1.767  16.262 -0.9753 -1.1637 -0.7990
 7876SOL    HW235091   3.334   1.754  16.371 -1.4819 -0.8561  1.9593
 7877SOL     OW35092   3.554   4.498   5.376  0.0529  0.0223 -0.4884
 7877SOL    HW135093   3.521   4.470   5.461  1.1718 -0.4796 -0.2221
 7877SOL    HW235094   3.628   4.438   5.364 -1.0792 -0.8773 -2.9473
 7878SOL     OW35095   4.297   2.613   1.011  0.0525  0.0784 -0.5099
 7878SOL    HW135096   4.231   2.624   1.079  0.0762 -1.0645 -0.3069
 7878SOL    HW235097   4.305   2.702   0.978 -0.0897  0.3194  0.1092
 7879SOL     OW35098   4.162   4.555   2.712 -0.2642 -0.1946 -0.0972
 7879SOL    HW135099   4.140   4.582   2.801 -0.0145 -0.3589  0.0150
 7879SOL    HW235100   4.079   4.545   2.665 -1.1283 -0.0222  1.4026
 7880SOL     OW35101   2.308   3.739   4.142 -0.2966  0.4938 -0.1825
 7880SOL    HW135102   2.396   3.741   4.104 -0.9191 -0.6090 -1.6674
 7880SOL    HW235103   2.303   3.835   4.145 -0.9926  0.4080  1.3987
 7881SOL     OW35104   3.317   1.566   8.337 -0.2986  0.0054  0.1174
 7881SOL    HW135105   3.403   1.586   8.302 -0.4267 -0.8090 -0.6623
 7881SOL    HW235106   3.272   1.516   8.269 -0.2304  1.3154 -0.8934
 7882SOL     OW35107   4.041   2.081   9.040  0.3400  0.7531  0.3322
 7882SOL    HW135108   4.098   2.130   9.099  0.3911  1.6935 -0.5001
 7882SOL    HW235109   4.008   2.019   9.105  3.3295 -0.0388  1.0759
 7883SOL     OW35110   1.069   3.828   2.043  0.2018  0.3950 -0.2058
 7883SOL    HW135111   1.111   3.912   2.026 -0.1900  0.7324  0.5243
 7883SOL    HW235112   1.126   3.755   2.017 -0.9318  0.3914 -2.7507
 7884SOL     OW35113   4.067   0.193   3.042  0.1495 -0.4073 -0.2685
 7884SOL    HW135114   4.009   0.255   3.086  1.8906  0.3253  1.0441
 7884SOL    HW235115   4.005   0.130   3.007  1.6739 -1.4621 -1.0941
 7885SOL     OW35116   1.618   0.648   2.520  0.5675 -0.5930  0.2076
 7885SOL    HW135117   1.526   0.658   2.494  0.5553  0.5942  0.6964
 7885SOL    HW235118   1.635   0.554   2.509 -2.2359 -1.2789  1.7247
 7886SOL     OW35119   2.798   3.342  12.267  0.5819 -0.1835  0.2975
 7886SOL    HW135120   2.792   3.406  12.338 -0.2068  0.6898 -0.5517
 7886SOL    HW235121   2.891   3.336  12.248  0.2402 -0.3682 -1.2987
 7887SOL     OW35122   4.474   4.339  17.443 -0.0573 -0.6601 -0.2261
 7887SOL    HW135123   4.474   4.429  17.412  1.0262 -0.0644  1.4986
 7887SOL    HW235124   4.381   4.319  17.452 -0.7615  1.6087 -2.5112
 7888SOL     OW35125   4.698   4.273  14.966 -0.0315  0.0815  0.1810
 7888SOL    HW135126   0.045   4.206  14.990  0.2908 -0.1421 -1.2785
 7888SOL    HW235127   0.041   4.326  14.912 -0.2900  1.5867  1.3878
 7889SOL     OW35128   1.889   3.970  16.928  0.7828  0.1071 -0.2797
 7889SOL    HW135129   1.966   4.011  16.969 -0.4157  0.8764  1.1743
 7889SOL    HW235130   1.826   3.951  16.998 -0.5633  2.8383 -0.7777
 7890SOL     OW35131   0.649   4.430   8.597  0.3747  0.4300 -0.0514
 7890SOL    HW135132   0.736   4.400   8.623  0.7601  1.4758 -0.1594
 7890SOL    HW235133   0.599   4.349   8.609  0.3544  0.4975  0.3157
 7891SOL     OW35134   3.987   2.957   6.852 -0.4385 -0.0594 -0.3128
 7891SOL    HW135135   3.898   2.961   6.819 -0.3095  0.0783 -0.6473
 7891SOL    HW235136   3.975   2.958   6.947  1.1575  0.2292 -0.1092
 7892SOL     OW35137   4.027   1.680   2.350  0.3627 -0.1024 -0.1636
 7892SOL    HW135138   3.947   1.639   2.317 -0.7637  1.4588  0.5800
 7892SOL    HW235139   4.025   1.764   2.303  0.8249 -0.8102 -1.4529
 7893SOL     OW35140   2.452   4.710  12.989  0.3469 -0.5977 -0.5443
 7893SOL    HW135141   2.469   4.616  12.998 -2.9648 -1.1924 -0.2992
 7893SOL    HW235142   2.512   0.010  12.917 -1.5522  1.9951 -1.5438
 7894SOL     OW35143   0.857   2.632   2.658 -0.4292  0.6419 -0.1963
 7894SOL    HW135144   0.915   2.581   2.714 -0.3550  0.9442  0.0062
 7894SOL    HW235145   0.897   2.634   2.571 -2.6418  3.6904 -1.1560
 7895SOL     OW35146   2.333   2.010   8.305 -0.1448  0.4068 -0.0821
 7895SOL    HW135147   2.415   2.007   8.354 -0.0267  2.6431 -0.1501
 7895SOL    HW235148   2.279   2.046   8.375 -2.4624 -1.3337 -0.9638
 7896SOL     OW35149   0.948   2.135   9.004 -0.2891 -0.2520  0.1525
 7896SOL    HW135150   0.900   2.144   9.086 -1.1161 -0.6533 -0.2854
 7896SOL    HW235151   0.985   2.048   9.021  0.9382  0.4548  1.1190
 7897SOL     OW35152   0.175   4.708   1.966  0.4887 -0.4415 -0.3267
 7897SOL    HW135153   0.112   4.673   1.903 -0.0860  0.9979 -0.5288
 7897SOL    HW235154   0.177   0.085   1.950  0.3113 -0.4172 -0.1955
 7898SOL     OW35155   1.387   2.189   8.651  0.0392 -0.2304  0.3279
 7898SOL    HW135156   1.472   2.151   8.673 -0.2514 -0.8088  0.4456
 7898SOL    HW235157   1.346   2.203   8.737 -1.0953 -0.0829 -0.2248
 7899SOL     OW35158   0.555   2.072   9.480  0.8916  0.4034 -0.0465
 7899SOL    HW135159   0.490   2.101   9.545 -0.7388 -3.1138 -0.0771
 7899SOL    HW235160   0.549   2.159   9.441  2.0598  0.5849  0.1903
 7900SOL     OW35161   2.037   3.133   6.064  0.0710 -0.1272  0.1055
 7900SOL    HW135162   2.061   3.062   6.003  3.2655  0.6281  0.4718
 7900SOL    HW235163   1.945   3.150   6.047 -0.1737 -1.8216 -0.3442
 7901SOL     OW35164   2.881   3.292   7.273  0.3566 -0.6650  0.1066
 7901SOL    HW135165   2.881   3.254   7.185  1.4718 -1.1329  0.3094
 7901SOL    HW235166   2.954   3.354   7.266  0.9273 -1.4514 -0.8415
 7902SOL     OW35167   1.419   4.139  12.042  0.0508  0.0238 -0.2197
 7902SOL    HW135168   1.387   4.174  11.959  0.8610  3.0740  0.7806
 7902SOL    HW235169   1.514   4.150  12.038 -0.2193  1.8871 -1.6474
 7903SOL     OW35170   1.895   4.062   0.912 -0.2401 -0.0805  0.3311
 7903SOL    HW135171   1.972   4.006   0.923  0.1649  0.3672 -0.2149
 7903SOL    HW235172   1.836   4.007   0.861 -1.6893  0.8408  1.0001
 7904SOL     OW35173   0.288   3.078   1.224 -0.4610 -0.1462 -0.7661
 7904SOL    HW135174   0.201   3.089   1.185 -0.9880 -0.6273  0.2561
 7904SOL    HW235175   0.298   2.984   1.238  0.7858  0.1972  0.6390
 7905SOL     OW35176   3.278   4.177   5.211 -0.4222  0.1445 -0.5822
 7905SOL    HW135177   3.335   4.250   5.188  0.5747  0.3522  2.5381
 7905SOL    HW235178   3.345   4.109   5.218  0.6266  1.3171  0.8633
 7906SOL     OW35179   0.228   3.834   5.204 -0.0263 -0.8793 -0.1013
 7906SOL    HW135180   0.231   3.876   5.118 -0.4592  1.6187  1.0768
 7906SOL    HW235181   0.143   3.866   5.236  1.0256  1.4884  0.3905
 7907SOL     OW35182   3.411   0.490  12.188  0.2379 -0.3934  0.1856
 7907SOL    HW135183   3.487   0.482  12.247  1.1599 -0.2317 -0.9894
 7907SOL    HW235184   3.365   0.407  12.202 -0.2348 -0.0358  0.7303
 7908SOL     OW35185   4.191   2.844   8.201 -0.2549  0.1008 -0.1993
 7908SOL    HW135186   4.191   2.853   8.106 -2.4762 -0.8333 -0.3047
 7908SOL    HW235187   4.114   2.789   8.217  0.0745 -0.1567  0.4988
 7909SOL     OW35188   4.269   4.472   4.805  0.4148 -0.2741 -0.2502
 7909SOL    HW135189   4.328   4.447   4.734  0.8633  0.0813 -0.0083
 7909SOL    HW235190   4.186   4.461   4.760  0.1918  0.0074  0.0904
 7910SOL     OW35191   2.524   3.554   6.807  0.2341 -0.7774 -0.0676
 7910SOL    HW135192   2.524   3.649   6.811 -0.8641 -0.8440  1.4092
 7910SOL    HW235193   2.463   3.531   6.876  2.1568 -0.9746  1.5867
 7911SOL     OW35194   1.965   1.234   3.013 -0.8961  0.0391  0.1399
 7911SOL    HW135195   1.993   1.187   3.091  0.2564 -0.2439 -0.4367
 7911SOL    HW235196   1.970   1.163   2.949  2.0937  0.1900  0.1749
 7912SOL     OW35197   1.327   2.810  11.207  0.4465  0.4450 -0.0177
 7912SOL    HW135198   1.233   2.809  11.223  0.3930 -1.4424 -0.4705
 7912SOL    HW235199   1.364   2.843  11.289  0.1796  0.8911 -0.0726
 7913SOL     OW35200   1.981   0.531   4.326 -0.0191 -0.1459 -0.0203
 7913SOL    HW135201   1.961   0.562   4.237  1.3248  2.1815  0.5048
 7913SOL    HW235202   1.890   0.528   4.356 -0.3665  1.7320 -0.8927
 7914SOL     OW35203   2.162   0.665   6.141  0.0960 -0.4645 -1.0109
 7914SOL    HW135204   2.110   0.730   6.189  0.6178 -1.3585  0.7431
 7914SOL    HW235205   2.219   0.631   6.209 -1.5322 -0.0320  0.5694
 7915SOL     OW35206   3.068   2.927  13.327 -0.1824  0.4849  0.3892
 7915SOL    HW135207   3.157   2.921  13.363  0.6428 -0.8297 -1.8021
 7915SOL    HW235208   3.084   2.944  13.234 -0.8281  0.3876  0.2602
 7916SOL     OW35209   1.365   1.832  15.815  0.0705  0.0856  0.3620
 7916SOL    HW135210   1.294   1.809  15.755  0.5753  0.3446 -0.3359
 7916SOL    HW235211   1.327   1.855  15.900  0.4597  1.8042  0.0633
 7917SOL     OW35212   0.376   0.060  14.937  0.3358 -0.5748  0.5542
 7917SOL    HW135213   0.443   0.021  14.993  2.6136  2.4099 -0.0774
 7917SOL    HW235214   0.369   0.149  14.973  1.3971 -0.4150  0.3681
 7918SOL     OW35215   1.300   2.644  15.900 -0.3648  0.0863 -0.5788
 7918SOL    HW135216   1.318   2.579  15.968 -1.5178  2.6572  2.2079
 7918SOL    HW235217   1.322   2.727  15.942  0.9415  1.6566 -4.3596
 7919SOL     OW35218   1.903   4.111   5.608 -0.0414 -0.4313  0.3648
 7919SOL    HW135219   1.977   4.165   5.637 -0.4891  1.3670 -1.8458
 7919SOL    HW235220   1.902   4.039   5.671  2.4068  0.5227  1.5061
 7920SOL     OW35221   0.827   0.439   2.108 -0.0791 -0.8327 -0.7796
 7920SOL    HW135222   0.884   0.391   2.049 -0.2941  1.4241 -2.8173
 7920SOL    HW235223   0.773   0.373   2.151  1.2456 -0.5993  1.2474
 7921SOL     OW35224   0.723   3.654  11.264 -0.4047  0.1706  0.2007
 7921SOL    HW135225   0.713   3.564  11.296  3.9004 -0.1754  0.6089
 7921SOL    HW235226   0.803   3.678  11.312 -1.2882  0.2040  1.6556
 7922SOL     OW35227   3.745   3.952   6.874 -0.5126 -0.0199  0.0374
 7922SOL    HW135228   3.709   3.937   6.962 -0.1732  2.8812  0.6458
 7922SOL    HW235229   3.727   4.044   6.859  0.2795  0.2452  0.7540
 7923SOL     OW35230   1.562   2.626  12.543 -0.2469  0.1880 -0.1706
 7923SOL    HW135231   1.477   2.636  12.587 -1.0935  0.0695 -1.8149
 7923SOL    HW235232   1.592   2.715  12.526  1.7815 -0.3946  0.3443
 7924SOL     OW35233   0.344   3.592  14.514 -0.2479  0.0371  0.3750
 7924SOL    HW135234   0.342   3.648  14.437 -0.4850 -1.8664 -0.9850
 7924SOL    HW235235   0.426   3.545  14.496 -0.9707 -1.1733  0.2338
 7925SOL     OW35236   3.059   2.412  13.537 -0.2087 -0.9172  0.4395
 7925SOL    HW135237   3.078   2.464  13.615  2.8160  0.5186 -1.2557
 7925SOL    HW235238   3.149   2.396  13.509 -0.1707 -1.6502  0.9967
 7926SOL     OW35239   1.918   1.983   7.534 -0.0281 -0.6458  0.1648
 7926SOL    HW135240   1.874   2.026   7.607 -0.2322  0.2365 -0.4776
 7926SOL    HW235241   1.935   2.056   7.475  3.8058 -1.2826  0.5027
 7927SOL     OW35242   2.359   2.809   3.383 -0.0838  0.0655 -0.3005
 7927SOL    HW135243   2.322   2.862   3.453 -2.7237 -0.1448 -1.5608
 7927SOL    HW235244   2.338   2.870   3.312  1.0045 -1.4993 -1.9693
 7928SOL     OW35245   2.744   1.768   0.512 -0.5095 -0.1329  0.3031
 7928SOL    HW135246   2.795   1.806   0.584 -0.9977  0.3936  0.3685
 7928SOL    HW235247   2.772   1.677   0.523  0.0292 -0.1782 -1.3972
 7929SOL     OW35248   0.620   2.688   3.213 -0.2455 -0.1238  0.1312
 7929SOL    HW135249   0.633   2.600   3.248 -2.5178  0.1900  1.7311
 7929SOL    HW235250   0.530   2.676   3.184 -0.4686 -1.3297  1.3387
 7930SOL     OW35251   3.938   3.636  10.051  1.1840 -0.7448  0.2502
 7930SOL    HW135252   3.847   3.607  10.050  0.6653  0.8710  1.7736
 7930SOL    HW235253   3.980   3.598   9.974  0.1733  1.0483 -1.1804
 7931SOL     OW35254   1.113   3.638   4.700 -0.2241  0.2103  0.1164
 7931SOL    HW135255   1.070   3.721   4.679 -0.8715 -0.0293  0.4818
 7931SOL    HW235256   1.073   3.566   4.650  0.1278 -0.5287  0.8972
 7932SOL     OW35257   2.503   1.151   3.926 -0.4814  0.3169 -0.0797
 7932SOL    HW135258   2.469   1.090   3.991  0.7618  0.3668  0.6018
 7932SOL    HW235259   2.483   1.100   3.847 -1.2740  1.4399 -0.6094
 7933SOL     OW35260   1.016   1.908   0.612 -0.4860 -0.1506 -0.0955
 7933SOL    HW135261   1.081   1.961   0.566 -1.2904  0.6050 -0.3805
 7933SOL    HW235262   0.953   1.980   0.619  2.2847  2.3725 -0.8886
 7934SOL     OW35263   4.506   1.121   9.301  0.4701 -0.0761  0.0070
 7934SOL    HW135264   4.583   1.150   9.252  0.6947 -0.5343  0.0786
 7934SOL    HW235265   4.549   1.063   9.364  0.7473  0.5371  0.3734
 7935SOL     OW35266   1.699   2.720  15.802  0.4098  0.5173  0.2620
 7935SOL    HW135267   1.632   2.678  15.748  0.3417  0.5342  0.3345
 7935SOL    HW235268   1.764   2.733  15.733  0.3889 -3.4824 -0.5140
 7936SOL     OW35269   3.126   2.752   3.027  0.5315  0.3362  0.1134
 7936SOL    HW135270   3.144   2.728   3.118  0.8484  1.9789  0.4799
 7936SOL    HW235271   3.170   2.681   2.980 -0.4526 -1.0201  1.2526
 7937SOL     OW35272   3.704   1.852  13.917  0.5437  0.6610  0.2568
 7937SOL    HW135273   3.706   1.849  14.012  0.0859  0.1778  0.2468
 7937SOL    HW235274   3.652   1.779  13.884 -1.0114  1.5995  0.6525
 7938SOL     OW35275   2.839   3.880  12.191 -0.1346  0.2690 -0.2485
 7938SOL    HW135276   2.792   3.884  12.274  0.9759  0.6242  0.3470
 7938SOL    HW235277   2.824   3.790  12.161 -1.7064  0.5279 -0.2369
 7939SOL     OW35278   2.922   3.667   5.231 -0.1405  0.0930 -0.6355
 7939SOL    HW135279   2.884   3.679   5.318 -0.1423 -2.1585 -0.3247
 7939SOL    HW235280   2.846   3.672   5.173  0.1308 -1.2153 -1.1055
 7940SOL     OW35281   3.431   3.493   2.528 -0.4677  0.1567  0.1545
 7940SOL    HW135282   3.509   3.546   2.540 -1.0441  1.0739 -0.1886
 7940SOL    HW235283   3.461   3.406   2.555  1.2081  0.5962 -0.3486
 7941SOL     OW35284   0.074   4.533   0.935 -0.1325 -0.0464 -0.0931
 7941SOL    HW135285   0.009   4.597   0.906  1.7376  2.3816  1.0738
 7941SOL    HW235286   0.139   4.580   0.988 -0.5926  0.3615  0.1092
 7942SOL     OW35287   4.362   4.018  10.218  0.3480  0.1273 -0.0950
 7942SOL    HW135288   4.447   4.048  10.250 -0.2596  1.3080  0.3980
 7942SOL    HW235289   4.342   3.945  10.276  0.7589 -0.6045 -0.8623
 7943SOL     OW35290   3.999   4.600  13.750 -0.0526 -0.2091 -0.1965
 7943SOL    HW135291   4.073   4.583  13.692  1.2521  3.5028  0.3807
 7943SOL    HW235292   4.040   4.619  13.835  0.6081 -1.4748 -0.2393
 7944SOL     OW35293   3.944   1.946   3.451 -0.2055  0.7033 -0.1389
 7944SOL    HW135294   4.021   1.947   3.393  3.0452  2.3577  4.2284
 7944SOL    HW235295   3.885   1.990   3.389  1.8146 -0.7677 -3.1291
 7945SOL     OW35296   2.721   2.159   5.456  0.5164  0.2725 -0.1481
 7945SOL    HW135297   2.751   2.183   5.368  0.5396 -0.7288 -0.4214
 7945SOL    HW235298   2.779   2.084   5.469 -0.1434 -0.3784 -0.9574
 7946SOL     OW35299   3.779   3.753   8.957  0.1987  0.9341  0.4434
 7946SOL    HW135300   3.801   3.691   9.026 -1.5712  0.8304  0.9251
 7946SOL    HW235301   3.779   3.837   9.002  0.0913  0.5500  1.1543
 7947SOL     OW35302   2.190   4.472  10.574 -0.1537 -0.0335 -0.4139
 7947SOL    HW135303   2.218   4.546  10.521  1.9888 -1.5235 -1.3812
 7947SOL    HW235304   2.107   4.457  10.529  0.5417  0.2278 -1.7798
 7948SOL     OW35305   0.109   0.858   9.184  0.6436  0.0345  0.6569
 7948SOL    HW135306   0.103   0.766   9.211  0.1540  0.5866  2.3979
 7948SOL    HW235307   0.115   0.901   9.269 -0.3774 -1.3009  1.4027
 7949SOL     OW35308   3.862   1.542   7.096 -0.3049 -0.1378  0.0104
 7949SOL    HW135309   3.852   1.612   7.160  1.3749 -1.2639  1.5214
 7949SOL    HW235310   3.836   1.588   7.016 -0.3386 -0.6275 -0.2606
 7950SOL     OW35311   0.595   3.893  12.301  0.3575 -0.1436  0.5946
 7950SOL    HW135312   0.634   3.973  12.337  2.2170 -0.4530 -0.7195
 7950SOL    HW235313   0.642   3.880  12.218 -1.3568  0.3488 -0.4432
 7951SOL     OW35314   0.878   1.939   4.729 -0.2273 -0.4159 -0.8574
 7951SOL    HW135315   0.890   1.959   4.637  2.5048 -0.5139 -0.5006
 7951SOL    HW235316   0.854   2.021   4.772 -0.0903 -0.8762  0.1055
 7952SOL     OW35317   0.012   1.168   6.152 -0.5877  0.1431 -0.1783
 7952SOL    HW135318   4.679   1.192   6.231 -1.7219 -0.9674 -0.5469
 7952SOL    HW235319   0.084   1.229   6.164 -1.5363  1.4276 -1.0298
 7953SOL     OW35320   3.051   1.951  15.049 -0.2111 -0.4922 -0.3881
 7953SOL    HW135321   3.034   1.996  15.132 -0.1399  2.3683 -1.9180
 7953SOL    HW235322   3.059   2.028  14.992 -1.0501  0.4957  0.8071
 7954SOL     OW35323   1.850   3.277   5.719  0.3512  0.0581  0.0661
 7954SOL    HW135324   1.873   3.302   5.630  0.1507  0.2460  0.0641
 7954SOL    HW235325   1.874   3.355   5.769  1.3934 -1.6695  2.2647
 7955SOL     OW35326   0.363   0.689   7.616  0.6073 -0.0022 -0.1105
 7955SOL    HW135327   0.286   0.670   7.563 -0.3346 -2.2409  2.0567
 7955SOL    HW235328   0.439   0.659   7.566  0.9769 -0.6641  0.8457
 7956SOL     OW35329   3.222   3.976  10.495 -0.7417 -0.1545  0.3034
 7956SOL    HW135330   3.272   3.948  10.571 -0.0797 -3.2469 -1.2543
 7956SOL    HW235331   3.290   3.978  10.428 -0.4532 -0.8287  0.5711
 7957SOL     OW35332   1.453   3.493   5.968 -0.0752  1.1618  0.3403
 7957SOL    HW135333   1.396   3.570   5.965 -3.3519 -1.2182  1.5993
 7957SOL    HW235334   1.462   3.468   6.060 -1.7807  2.8584  0.9812
 7958SOL     OW35335   1.901   1.084  14.488  0.1201  0.2629  0.1547
 7958SOL    HW135336   1.985   1.043  14.467 -0.1395  0.4098 -1.1559
 7958SOL    HW235337   1.850   1.011  14.523  0.4706  0.5715  1.3041
 7959SOL     OW35338   3.835   4.468   6.647  0.3799 -0.2951  0.0348
 7959SOL    HW135339   3.901   4.418   6.599  0.0215  0.2957 -1.0866
 7959SOL    HW235340   3.775   4.402   6.679  3.1223 -2.5722  0.4437
 7960SOL     OW35341   4.062   1.409   2.163  0.1603  0.4124 -0.0518
 7960SOL    HW135342   4.021   1.447   2.085 -1.8040  0.4760  1.0186
 7960SOL    HW235343   4.042   1.316   2.156  1.3621  0.1546 -0.0608
 7961SOL     OW35344   0.181   0.692   5.400 -0.2355  0.1783 -0.1249
 7961SOL    HW135345   0.188   0.747   5.478  2.3988 -1.8790  1.0664
 7961SOL    HW235346   0.263   0.643   5.398 -0.9684 -0.9994 -1.1070
 7962SOL     OW35347   2.123   2.597   4.154  0.3600 -0.2329 -0.1081
 7962SOL    HW135348   2.035   2.599   4.116 -0.3716 -3.0002  1.4382
 7962SOL    HW235349   2.173   2.562   4.080 -1.1044 -0.6044 -0.9057
 7963SOL     OW35350   0.329   1.627   4.083  0.8040  0.2631  0.0849
 7963SOL    HW135351   0.252   1.678   4.057 -0.0497 -0.8321  0.4546
 7963SOL    HW235352   0.311   1.606   4.175 -0.3007  0.7077 -0.0267
 7964SOL     OW35353   3.378   1.494   4.063  0.4701  0.0085  0.2114
 7964SOL    HW135354   3.349   1.431   3.997  0.4603  2.6459 -2.3140
 7964SOL    HW235355   3.388   1.429   4.133  3.4550 -0.0876 -0.3152
 7965SOL     OW35356   1.940   3.371   1.633 -0.4421  0.2211  0.6269
 7965SOL    HW135357   1.904   3.377   1.544  2.6838  0.8360 -0.6114
 7965SOL    HW235358   2.023   3.418   1.623  0.2836 -0.6096  2.9414
 7966SOL     OW35359   3.070   4.072   5.360  0.5976 -0.0607 -0.6281
 7966SOL    HW135360   3.108   3.988   5.385 -0.5523 -0.7756 -1.2777
 7966SOL    HW235361   3.141   4.116   5.313 -0.0371 -0.9755 -2.4891
 7967SOL     OW35362   3.531   4.614   9.084 -0.0502  0.1057  0.3837
 7967SOL    HW135363   3.542   4.596   8.991 -1.7365  0.7253  0.0494
 7967SOL    HW235364   3.441   4.586   9.100 -1.4967  2.3022 -3.7549
 7968SOL     OW35365   3.512   4.130   4.194 -0.0805 -0.3153  0.0048
 7968SOL    HW135366   3.529   4.043   4.230 -1.9487  0.0324  1.6827
 7968SOL    HW235367   3.571   4.163   4.261 -1.5548  2.3882 -0.0339
 7969SOL     OW35368   1.293   2.164  14.336  0.0032 -0.0628 -0.1462
 7969SOL    HW135369   1.221   2.141  14.277  0.2961 -2.1263  0.2889
 7969SOL    HW235370   1.366   2.163  14.275 -0.0243 -3.8631 -0.1594
 7970SOL     OW35371   3.428   4.505  15.995  0.2411  0.4060 -0.4524
 7970SOL    HW135372   3.504   4.446  15.995 -0.3431 -0.3507 -0.7921
 7970SOL    HW235373   3.463   4.573  16.053  1.2435 -0.6545  0.1773
 7971SOL     OW35374   3.839   3.402   5.208  0.1836 -0.4842  0.3263
 7971SOL    HW135375   3.843   3.411   5.113 -3.9626 -0.2799  0.1870
 7971SOL    HW235376   3.785   3.479   5.225 -1.4534 -1.3481 -0.9741
 7972SOL     OW35377   0.275   0.780   4.865  0.0445  0.1096  0.4363
 7972SOL    HW135378   0.280   0.686   4.884 -1.0399  0.1097  0.7227
 7972SOL    HW235379   0.360   0.814   4.893  0.7276 -0.4455 -0.9620
 7973SOL     OW35380   3.310   1.052   2.532 -0.6231 -0.0202  0.1468
 7973SOL    HW135381   3.262   1.109   2.592 -2.1344 -0.0117 -1.0905
 7973SOL    HW235382   3.238   1.043   2.470  0.1557 -0.0594 -0.7401
 7974SOL     OW35383   2.362   3.536   4.719 -0.5344 -0.2062  0.6238
 7974SOL    HW135384   2.303   3.463   4.740 -0.1135 -0.1174  2.0946
 7974SOL    HW235385   2.341   3.542   4.626  0.7721  2.2075  0.4920
 7975SOL     OW35386   0.880   0.055   8.394 -0.2660  0.3769  0.2061
 7975SOL    HW135387   0.873   0.133   8.339  1.5067  0.5911  0.2763
 7975SOL    HW235388   0.808   4.712   8.376  0.8056 -0.3205 -1.7815
 7976SOL     OW35389   1.518   3.466   3.543 -0.2007 -0.5696 -0.0295
 7976SOL    HW135390   1.447   3.510   3.590 -0.4344  0.7066 -1.6062
 7976SOL    HW235391   1.531   3.510   3.459 -0.2344 -0.5778 -0.0391
 7977SOL     OW35392   3.532   1.280   5.172  0.2107  0.0244 -0.0179
 7977SOL    HW135393   3.568   1.248   5.254 -1.0102  2.8320  1.5877
 7977SOL    HW235394   3.449   1.313   5.206 -0.1565 -0.5128 -0.3851
 7978SOL     OW35395   2.985   2.955   3.710 -0.9122  0.5074 -0.1483
 7978SOL    HW135396   2.996   2.864   3.684  0.1324  0.7945 -0.7229
 7978SOL    HW235397   3.018   2.956   3.799  0.6529  0.8924 -0.7384
 7979SOL     OW35398   0.935   3.323  10.980 -0.0811  0.5303  0.0455
 7979SOL    HW135399   0.845   3.311  11.009  0.4792 -0.7522  1.2330
 7979SOL    HW235400   0.901   3.324  10.890 -1.0201 -1.3459  0.3880
 7980SOL     OW35401   4.550   3.866   1.036  0.3982 -0.6736  0.8995
 7980SOL    HW135402   4.640   3.885   1.064  0.8994  0.3667 -1.4908
 7980SOL    HW235403   4.566   3.817   0.956  3.0863 -1.2821  1.8048
 7981SOL     OW35404   0.989   4.247   8.004  0.5276  0.1024  0.0625
 7981SOL    HW135405   1.002   4.164   7.958  0.2263  0.3482 -0.4538
 7981SOL    HW235406   1.052   4.301   7.956  1.4546 -0.8020  0.2463
 7982SOL     OW35407   1.586   4.563   6.905  0.4065 -0.0699 -0.4632
 7982SOL    HW135408   1.619   4.595   6.821 -0.7379 -1.7134 -1.5347
 7982SOL    HW235409   1.663   4.575   6.961  0.4600 -1.0250 -0.3300
 7983SOL     OW35410   2.401   0.378  14.222 -0.0022  0.0471 -0.1362
 7983SOL    HW135411   2.391   0.304  14.282  1.6797 -0.4873 -0.5371
 7983SOL    HW235412   2.481   0.416  14.256  0.0684 -0.6263  0.4313
 7984SOL     OW35413   4.630   1.866   9.351  0.1580  0.8230  0.0198
 7984SOL    HW135414   4.608   1.866   9.258 -1.1392  1.2880  0.3127
 7984SOL    HW235415   4.631   1.773   9.372  0.2709  0.9761  0.6881
 7985SOL     OW35416   0.178   3.439   2.988  0.0425  0.4590 -0.1805
 7985SOL    HW135417   0.086   3.423   3.010  0.4801 -2.3955 -0.4501
 7985SOL    HW235418   0.157   3.487   2.908 -1.1136  1.5916  0.8069
 7986SOL     OW35419   2.512   2.894   3.812 -0.3999  0.4435 -0.9744
 7986SOL    HW135420   2.569   2.831   3.766 -0.6185 -1.2329  1.0546
 7986SOL    HW235421   2.424   2.858   3.800  0.4334 -0.9563 -2.8469
 7987SOL     OW35422   1.797   2.501   2.178  0.6131  0.9512  0.3009
 7987SOL    HW135423   1.890   2.522   2.169  0.2947  2.1750 -0.1675
 7987SOL    HW235424   1.802   2.441   2.252  0.1179  0.7714  0.1919
 7988SOL     OW35425   2.612   0.421   7.801  0.0073  0.5206 -0.0254
 7988SOL    HW135426   2.693   0.387   7.762 -1.3026 -1.6431 -0.8144
 7988SOL    HW235427   2.592   0.490   7.736  2.2024 -0.7389 -2.0656
 7989SOL     OW35428   0.153   3.550   4.565 -0.3912  0.2811 -0.3646
 7989SOL    HW135429   0.122   3.524   4.652 -0.1012 -1.6791 -0.8553
 7989SOL    HW235430   0.221   3.488   4.541  0.5329  1.1755 -0.0281
 7990SOL     OW35431   4.510   0.566   2.210 -0.4462 -0.5752  0.0916
 7990SOL    HW135432   4.534   0.486   2.163  1.6257  0.3285 -0.3636
 7990SOL    HW235433   4.577   0.576   2.277  0.0643 -0.0027 -0.5138
 7991SOL     OW35434   2.697   3.485   7.299 -0.1979 -0.1158 -0.1225
 7991SOL    HW135435   2.730   3.524   7.217  0.8024 -0.8891 -0.0884
 7991SOL    HW235436   2.743   3.401   7.293 -0.7370 -0.5347  1.7922
 7992SOL     OW35437   2.562   1.716   5.471  0.5783  0.3340  0.0352
 7992SOL    HW135438   2.583   1.648   5.408 -1.4373  0.0057 -0.2834
 7992SOL    HW235439   2.648   1.725   5.513  0.6860 -1.6322  0.2321
 7993SOL     OW35440   0.931   2.157   7.396 -0.2366 -0.3145 -0.1588
 7993SOL    HW135441   0.871   2.219   7.353  0.4769 -0.7114 -1.7170
 7993SOL    HW235442   0.916   2.184   7.487 -1.2348  1.3025 -0.8096
 7994SOL     OW35443   0.686   3.967   8.598  0.5431 -0.1485  0.0510
 7994SOL    HW135444   0.717   4.054   8.571 -0.6172 -0.0979 -1.1152
 7994SOL    HW235445   0.593   3.980   8.612  0.3031  0.7477 -2.3139
 7995SOL     OW35446   1.622   2.361   2.868 -0.1986 -0.2811  0.3507
 7995SOL    HW135447   1.540   2.408   2.853  0.4619  1.1475  1.2407
 7995SOL    HW235448   1.652   2.399   2.951  1.6718  0.0756 -0.5061
 7996SOL     OW35449   4.606   2.788  14.109 -0.1224  0.7504 -0.2983
 7996SOL    HW135450   4.542   2.824  14.171  2.0380 -0.6300  2.7206
 7996SOL    HW235451   4.682   2.760  14.161  0.3616  0.6197 -1.0752
 7997SOL     OW35452   2.190   3.185  14.093  0.0339  0.2595 -0.3805
 7997SOL    HW135453   2.233   3.269  14.111 -0.3615  0.4820 -0.4733
 7997SOL    HW235454   2.098   3.203  14.112 -0.0521 -0.7526  0.1584
 7998SOL     OW35455   2.504   3.189   3.710 -0.3374  0.1680  0.3143
 7998SOL    HW135456   2.513   3.096   3.730  3.3723  0.5560  0.4038
 7998SOL    HW235457   2.462   3.186   3.623  1.4104  0.5556 -0.5341
 7999SOL     OW35458   0.224   2.662   6.201  0.2666 -0.0020  0.2530
 7999SOL    HW135459   0.236   2.585   6.145 -0.8867 -0.5004  0.7102
 7999SOL    HW235460   0.262   2.740   6.159 -2.0589  0.9153 -0.1274
 8000SOL     OW35461   0.930   0.842  12.640 -0.2012 -0.4287 -0.9395
 8000SOL    HW135462   0.863   0.867  12.704  0.5733 -0.5003 -0.1120
 8000SOL    HW235463   1.016   0.868  12.672 -0.9264  0.9048 -0.0643
 8001SOL     OW35464   0.641   4.056  16.098  0.6521 -0.2470 -0.3268
 8001SOL    HW135465   0.688   4.133  16.130  0.2931  0.2391 -0.9697
 8001SOL    HW235466   0.642   4.084  16.006  0.4493 -0.5951 -0.4374
 8002SOL     OW35467   0.811   1.477   2.881  0.4229 -0.8107 -0.4477
 8002SOL    HW135468   0.765   1.480   2.965  1.5070 -0.5186  0.1428
 8002SOL    HW235469   0.765   1.423   2.818 -0.0201 -0.3474 -0.5244
 8003SOL     OW35470   1.452   3.980   0.432  0.4784 -0.1103 -0.4674
 8003SOL    HW135471   1.418   3.961   0.520 -0.0580  1.7795 -0.2603
 8003SOL    HW235472   1.423   4.071   0.430  0.9851  0.0826  0.6177
 8004SOL     OW35473   1.969   3.486  14.756 -0.2930  0.3324 -0.5565
 8004SOL    HW135474   2.005   3.408  14.797  0.5458  1.6203  1.1561
 8004SOL    HW235475   1.877   3.461  14.756  0.1727 -1.3399  0.3229
 8005SOL     OW35476   0.817   3.359   2.444 -0.6173  0.0356 -0.4313
 8005SOL    HW135477   0.893   3.380   2.498  0.4581 -3.1571 -0.6624
 8005SOL    HW235478   0.781   3.286   2.495  0.9246 -0.9793 -0.7766
 8006SOL     OW35479   1.546   3.932  11.172  0.0653 -0.3230  0.0608
 8006SOL    HW135480   1.620   3.894  11.124  0.7381  0.7700  0.2316
 8006SOL    HW235481   1.536   4.017  11.128 -1.6853  1.6181  4.2626
 8007SOL     OW35482   3.472   1.871   6.597 -0.3709  0.1281 -0.3033
 8007SOL    HW135483   3.553   1.826   6.573 -0.3495  0.8962 -1.7308
 8007SOL    HW235484   3.423   1.811   6.652  1.1900  0.5849  1.5988
 8008SOL     OW35485   3.343   3.908   5.948  0.1399 -0.1547 -0.0957
 8008SOL    HW135486   3.388   3.837   5.903 -1.2600 -1.2711  0.2553
 8008SOL    HW235487   3.268   3.857   5.979 -1.3896  1.9649 -0.3262
 8009SOL     OW35488   0.015   1.554   5.592  0.0405  0.4169  0.2648
 8009SOL    HW135489   0.083   1.619   5.576 -0.2222  0.8439  0.8877
 8009SOL    HW235490   0.014   1.510   5.507 -1.0988  0.3690  0.3055
 8010SOL     OW35491   0.847   2.376   2.928  0.2686 -0.6396  0.3329
 8010SOL    HW135492   0.889   2.294   2.901 -1.0926 -0.9819 -0.7095
 8010SOL    HW235493   0.760   2.350   2.900  1.1952 -1.5994 -1.7140
 8011SOL     OW35494   1.625   1.354  10.453  0.1413 -0.7791 -0.0847
 8011SOL    HW135495   1.636   1.424  10.389  1.6119 -1.6424 -0.7812
 8011SOL    HW235496   1.559   1.306  10.404 -0.0155  0.1316 -0.7490
 8012SOL     OW35497   1.066   4.082   3.073 -0.1107 -0.1460  0.5235
 8012SOL    HW135498   1.117   4.035   3.007  1.0748  2.0734 -0.1124
 8012SOL    HW235499   1.123   4.157   3.089  0.8614 -0.6514 -0.5747
 8013SOL     OW35500   2.667   1.978   4.129 -0.4198  0.3977 -0.3526
 8013SOL    HW135501   2.627   2.043   4.071 -1.2874 -0.3308 -0.5694
 8013SOL    HW235502   2.639   1.906   4.073  1.3580  0.4253 -1.2596
 8014SOL     OW35503   1.397   0.608   7.634  0.5780  0.7718 -0.1622
 8014SOL    HW135504   1.340   0.648   7.699  1.3633  1.6953 -0.0318
 8014SOL    HW235505   1.375   0.516   7.649  0.5532  0.8436  0.2355
 8015SOL     OW35506   3.306   3.768   3.488  0.6866 -0.1403  0.1873
 8015SOL    HW135507   3.316   3.862   3.473  1.4048 -0.2878 -0.2284
 8015SOL    HW235508   3.365   3.736   3.420  2.5083  0.6790  1.3855
 8016SOL     OW35509   0.000   2.520   0.171  0.1034  0.3161  0.0807
 8016SOL    HW135510   4.643   2.462   0.150 -1.6270  2.4736  0.1915
 8016SOL    HW235511   4.692   2.560   0.254 -0.8380  1.2292 -0.6370
 8017SOL     OW35512   0.158   0.447   5.068  0.0671  0.5157  0.0179
 8017SOL    HW135513   0.216   0.417   5.138 -0.5916 -2.5367 -0.7834
 8017SOL    HW235514   0.213   0.439   4.990 -2.4245 -0.5878 -1.6116
 8018SOL     OW35515   0.763   4.242  12.615 -0.4927 -0.2334 -0.0078
 8018SOL    HW135516   0.685   4.221  12.666  0.2093  2.2569  2.0649
 8018SOL    HW235517   0.737   4.203  12.531  0.3417  0.0429 -0.3980
 8019SOL     OW35518   0.004   3.175   7.900 -0.1588 -0.4577 -0.0447
 8019SOL    HW135519   4.694   3.261   7.933 -1.6868 -1.6916  1.9310
 8019SOL    HW235520   0.045   3.148   7.982  1.7479 -0.3533 -0.9727
 8020SOL     OW35521   3.015   1.453   6.453 -0.5975 -0.2866  0.3329
 8020SOL    HW135522   3.018   1.469   6.359 -0.2313  2.5625  0.8339
 8020SOL    HW235523   3.020   1.545   6.479 -1.9589 -0.2450  0.4525
 8021SOL     OW35524   3.569   4.549   3.760 -0.6840 -0.5799 -0.0147
 8021SOL    HW135525   3.500   4.483   3.755  0.3163 -1.6779  0.5474
 8021SOL    HW235526   3.584   4.588   3.674  2.0932 -0.7474  0.4062
 8022SOL     OW35527   0.706   4.149   0.873  0.4646 -0.3648 -0.5505
 8022SOL    HW135528   0.625   4.098   0.868 -0.7916  1.6292 -0.3515
 8022SOL    HW235529   0.680   4.223   0.818 -1.7917  0.1002  1.1318
 8023SOL     OW35530   1.639   1.022  11.632 -0.4815 -0.2633  0.2045
 8023SOL    HW135531   1.679   0.957  11.691 -0.7185 -0.3779  0.2372
 8023SOL    HW235532   1.711   1.039  11.571  0.5454 -0.4963  1.3587
 8024SOL     OW35533   0.594   2.615   5.689 -0.4376  0.4885  0.0767
 8024SOL    HW135534   0.657   2.635   5.619 -0.3271  0.2676  0.1113
 8024SOL    HW235535   0.606   2.692   5.743 -0.6560  1.5996 -1.4655
 8025SOL     OW35536   4.075   2.836   3.284 -0.1636 -0.0741  0.3745
 8025SOL    HW135537   3.982   2.845   3.261 -0.5176 -0.8466  1.5441
 8025SOL    HW235538   4.124   2.853   3.203  0.2603  0.3836  0.7346
 8026SOL     OW35539   1.887   1.617   0.139  0.2814  0.2790  0.2749
 8026SOL    HW135540   1.934   1.533   0.132  1.8345  1.2498 -1.0181
 8026SOL    HW235541   1.897   1.657   0.053  0.9574  1.3100  0.8278
 8027SOL     OW35542   1.033   1.287   1.514  0.4813  0.6201  0.4956
 8027SOL    HW135543   0.995   1.261   1.430  0.1193  1.3582  0.4228
 8027SOL    HW235544   1.109   1.230   1.521  0.8461  0.6877 -2.6245
 8028SOL     OW35545   3.630   4.000   2.720 -0.2211  0.2390 -0.5411
 8028SOL    HW135546   3.548   3.968   2.682  0.4183 -3.5322  1.2061
 8028SOL    HW235547   3.666   4.074   2.671  2.1640  0.4520  1.5597
 8029SOL     OW35548   0.486   2.952  13.830 -0.6641 -0.7970  0.4551
 8029SOL    HW135549   0.406   2.910  13.798  0.4805 -0.6713 -2.5166
 8029SOL    HW235550   0.522   2.870  13.865 -2.7501 -1.9752 -0.1781
 8030SOL     OW35551   0.356   2.968   2.138  0.8607 -0.7494  0.1529
 8030SOL    HW135552   0.306   3.029   2.084  1.5768 -0.2005  0.1163
 8030SOL    HW235553   0.285   2.920   2.180 -0.1040  0.6668  0.1476
 8031SOL     OW35554   3.310   1.752  14.651 -0.1630  0.0800  0.3845
 8031SOL    HW135555   3.234   1.742  14.593 -0.1215  0.7406  0.2188
 8031SOL    HW235556   3.262   1.729  14.731 -0.5136  3.1561  1.0823
 8032SOL     OW35557   3.423   2.563   1.630  0.1985 -0.3803 -0.3845
 8032SOL    HW135558   3.336   2.537   1.660  1.5443 -0.6506  3.1614
 8032SOL    HW235559   3.471   2.542   1.710 -1.6209 -1.5090  0.4232
 8033SOL     OW35560   1.532   3.360   8.099 -0.3678 -0.0868  0.3087
 8033SOL    HW135561   1.558   3.374   8.190  1.3944  0.3550 -0.2735
 8033SOL    HW235562   1.500   3.451   8.091 -1.9330 -0.7530 -1.0823
 8034SOL     OW35563   2.232   4.687   3.860  0.0510  1.0147 -0.7248
 8034SOL    HW135564   2.144   4.651   3.875  0.1454  1.3482  0.6781
 8034SOL    HW235565   2.197   0.052   3.825 -1.4743  0.3899 -0.6472
 8035SOL     OW35566   4.467   4.671   3.657  0.0713 -0.1328 -0.1390
 8035SOL    HW135567   4.556   4.692   3.684 -0.1797  0.6181  0.1038
 8035SOL    HW235568   4.435   4.662   3.747  0.0123  1.2310 -0.0174
 8036SOL     OW35569   4.326   1.361   6.385 -0.4164  0.7329 -0.0401
 8036SOL    HW135570   4.287   1.274   6.390 -1.3903  1.1649 -0.1180
 8036SOL    HW235571   4.369   1.361   6.300 -0.3785 -1.1232 -0.0148
 8037SOL     OW35572   3.239   0.640   6.078  0.1036  0.2572 -0.9132
 8037SOL    HW135573   3.232   0.733   6.055  0.5320  0.1048 -1.6540
 8037SOL    HW235574   3.334   0.629   6.073 -0.0196 -1.6019  1.0004
 8038SOL     OW35575   4.232   3.578   8.918  0.3247  0.0033  0.0908
 8038SOL    HW135576   4.263   3.638   8.986  2.6281 -2.2052  0.9988
 8038SOL    HW235577   4.140   3.600   8.906  0.6117  0.5818 -1.0564
 8039SOL     OW35578   0.595   0.430   5.618  0.2701  0.1847  0.0043
 8039SOL    HW135579   0.690   0.446   5.622  0.3512 -0.5854  1.1321
 8039SOL    HW235580   0.584   0.424   5.523  1.4282 -2.0788 -0.0064
 8040SOL     OW35581   3.282   2.521  13.432  0.5258  0.5857  0.2236
 8040SOL    HW135582   3.354   2.494  13.374 -2.1211 -3.2751 -1.2797
 8040SOL    HW235583   3.254   2.601  13.388 -2.3753 -0.3290  0.4396
 8041SOL     OW35584   3.800   0.621  16.750 -0.1148 -0.3070 -0.1378
 8041SOL    HW135585   3.722   0.660  16.788  0.1896  1.8464 -1.6534
 8041SOL    HW235586   3.843   0.705  16.733 -0.6873  0.5356  2.7458
 8042SOL     OW35587   1.519   2.983   5.653 -0.0922  0.3308  0.0937
 8042SOL    HW135588   1.522   3.055   5.717 -4.9503 -0.5966  1.3667
 8042SOL    HW235589   1.497   3.032   5.573 -0.4337 -0.1800 -0.1239
 8043SOL     OW35590   2.821   1.551   7.422 -0.1860  0.2004 -0.4347
 8043SOL    HW135591   2.875   1.590   7.491  0.3200 -0.3625 -0.5038
 8043SOL    HW235592   2.733   1.562   7.456  0.0854  2.0903 -0.3331
 8044SOL     OW35593   4.609   0.693   1.835 -0.4751  0.3877 -0.1190
 8044SOL    HW135594   4.637   0.709   1.745  0.7126 -0.3062  0.1233
 8044SOL    HW235595   4.613   0.780   1.875 -0.4125  0.1702  0.3509
 8045SOL     OW35596   1.330   0.392   4.628  0.2909 -0.2109  0.0111
 8045SOL    HW135597   1.311   0.330   4.698 -0.2141  0.0282  0.0887
 8045SOL    HW235598   1.276   0.461   4.667 -2.2921 -0.2220 -3.5300
 8046SOL     OW35599   3.563   4.352   8.736  0.0834  0.2411 -0.2204
 8046SOL    HW135600   3.522   4.290   8.796 -0.5387  1.0471  0.1784
 8046SOL    HW235601   3.597   4.297   8.665  1.5826  0.4807  0.2977
 8047SOL     OW35602   2.618   3.565   5.511  0.1376 -1.0268 -0.3204
 8047SOL    HW135603   2.646   3.653   5.484  0.0932 -0.8350  0.2562
 8047SOL    HW235604   2.705   3.526   5.518 -0.3437 -2.2693 -1.3622
 8048SOL     OW35605   2.034   2.842   5.452 -0.1253 -0.4480  0.3808
 8048SOL    HW135606   1.975   2.768   5.442  0.9683 -1.1668 -0.7248
 8048SOL    HW235607   1.981   2.897   5.509 -0.0531 -0.8653  0.8489
 8049SOL     OW35608   3.751   3.329   2.977  0.1589  0.1096  0.2872
 8049SOL    HW135609   3.802   3.404   2.945 -0.2134  0.0332 -0.4972
 8049SOL    HW235610   3.794   3.325   3.062 -1.2917  0.4294  1.0431
 8050SOL     OW35611   1.270   1.482   8.200 -0.2630  0.1492  0.2437
 8050SOL    HW135612   1.241   1.392   8.209 -2.0900  0.5802 -1.2977
 8050SOL    HW235613   1.301   1.483   8.109  0.4555  0.5443  0.4884
 8051SOL     OW35614   2.058   2.346  11.823  0.6412  0.0930 -0.0946
 8051SOL    HW135615   2.027   2.301  11.744  0.2005 -2.5317  1.5929
 8051SOL    HW235616   2.065   2.277  11.889 -0.8056  1.3889  1.3979
 8052SOL     OW35617   0.046   4.707   8.311 -0.9355 -0.1753  0.2884
 8052SOL    HW135618   0.034   4.673   8.400 -2.4677 -0.6208 -0.0935
 8052SOL    HW235619   4.674   0.025   8.296 -0.7719  0.7539  1.4200
 8053SOL     OW35620   0.765   3.949  11.450 -0.4443  0.1922  0.3129
 8053SOL    HW135621   0.827   3.877  11.437 -1.6435 -0.5221 -1.4461
 8053SOL    HW235622   0.698   3.917  11.510 -0.7517  2.7581  1.3108
 8054SOL     OW35623   4.650   4.567   6.550 -0.0515  0.0905 -0.3990
 8054SOL    HW135624   4.579   4.558   6.613  1.4471 -2.2850  0.9088
 8054SOL    HW235625   0.009   4.584   6.606 -1.0809  2.2631  0.3477
 8055SOL     OW35626   0.336   2.617   7.803  0.2202 -0.7068 -0.0061
 8055SOL    HW135627   0.272   2.547   7.804 -1.1938  0.5880 -0.3081
 8055SOL    HW235628   0.412   2.575   7.763  1.3310  1.5543 -0.2951
 8056SOL     OW35629   3.706   1.200   2.962 -0.4556  0.4130  0.1176
 8056SOL    HW135630   3.698   1.295   2.950 -2.2258  0.5603  2.3205
 8056SOL    HW235631   3.617   1.178   2.990 -1.2856  2.3057 -1.0242
 8057SOL     OW35632   1.383   0.099   4.965  0.0037 -0.4247 -0.3817
 8057SOL    HW135633   1.476   0.076   4.957  0.6103  2.1461 -0.6081
 8057SOL    HW235634   1.354   0.047   4.890  0.5631  1.6496 -2.0116
 8058SOL     OW35635   2.636   3.679  11.896 -0.0905 -0.0764  0.3442
 8058SOL    HW135636   2.545   3.672  11.869  0.1602  1.7110 -0.9515
 8058SOL    HW235637   2.658   3.594  11.859  0.9594  0.0118  0.7466
 8059SOL     OW35638   1.311   4.612   1.684 -0.0687 -0.0903  0.2242
 8059SOL    HW135639   1.217   4.626   1.668 -0.1047 -1.4986 -0.8126
 8059SOL    HW235640   1.335   4.671   1.755  1.6692 -0.7660  0.1792
 8060SOL     OW35641   1.546   2.412   4.558 -0.1814 -0.7185  0.6382
 8060SOL    HW135642   1.605   2.452   4.623  1.5087  0.0808 -1.3832
 8060SOL    HW235643   1.613   2.355   4.520  1.3680  0.1653  2.0287
 8061SOL     OW35644   3.411   0.968  15.794  0.6314 -0.2826 -0.5429
 8061SOL    HW135645   3.482   0.937  15.738 -0.3021  1.7185 -2.8588
 8061SOL    HW235646   3.448   0.959  15.882  0.3510  0.2417 -0.3737
 8062SOL     OW35647   4.131   4.409  17.662 -0.2902 -0.1947 -0.1938
 8062SOL    HW135648   4.182   4.420   0.073  1.8478  0.7383 -1.6542
 8062SOL    HW235649   4.099   4.498  17.642 -3.4729 -1.3027 -0.0695
 8063SOL     OW35650   3.348   1.339   5.350  0.2222  0.6686 -0.0690
 8063SOL    HW135651   3.255   1.328   5.372  0.1253  2.0288  0.1724
 8063SOL    HW235652   3.390   1.300   5.427  0.1092  0.4755 -0.1045
 8064SOL     OW35653   4.562   3.459   8.244 -0.6920 -0.6899 -0.6317
 8064SOL    HW135654   4.507   3.427   8.315  1.0849 -0.9699  0.6053
 8064SOL    HW235655   4.646   3.463   8.289 -0.7349 -0.2419 -0.5931
 8065SOL     OW35656   2.439   1.454   1.895  0.3623  0.1637 -0.2430
 8065SOL    HW135657   2.377   1.454   1.968  0.2240 -1.4657 -0.3705
 8065SOL    HW235658   2.511   1.407   1.936  1.5778  2.4017  0.2243
 8066SOL     OW35659   2.593   3.928   5.220 -0.2012 -0.0127 -0.4805
 8066SOL    HW135660   2.527   3.990   5.191  1.0443  0.1897 -2.9018
 8066SOL    HW235661   2.644   3.968   5.291  1.8477  0.1898 -2.0746
 8067SOL     OW35662   2.869   2.005   2.764 -0.3131 -0.0410 -0.3589
 8067SOL    HW135663   2.865   1.978   2.672  1.2330 -0.1945 -0.3683
 8067SOL    HW235664   2.812   1.944   2.810 -0.2435  1.1279  1.2759
 8068SOL     OW35665   2.524   1.769   5.964  0.1226  0.2819 -0.6620
 8068SOL    HW135666   2.469   1.801   6.036  1.7488  3.0674 -0.6403
 8068SOL    HW235667   2.522   1.849   5.912 -1.9939 -0.5752 -1.8745
 8069SOL     OW35668   2.337   2.150  14.375 -0.1732  0.0929 -0.1338
 8069SOL    HW135669   2.418   2.186  14.337  1.5268 -2.2292  1.2804
 8069SOL    HW235670   2.334   2.184  14.464  1.9249  0.3406 -0.1518
 8070SOL     OW35671   2.567   4.156   6.556 -0.0937  0.5037  0.6541
 8070SOL    HW135672   2.661   4.143   6.569  0.0413 -0.2445 -1.0152
 8070SOL    HW235673   2.539   4.186   6.642 -0.6841  1.3727  0.1600
 8071SOL     OW35674   4.716   1.053  16.103  0.5883  0.2273 -0.5100
 8071SOL    HW135675   0.038   1.065  16.190 -0.3046  0.8395 -0.2039
 8071SOL    HW235676   0.075   1.024  16.052  0.5202 -0.3609 -0.2694
 8072SOL     OW35677   3.635   0.437   6.433 -0.2482  0.2126  0.0398
 8072SOL    HW135678   3.649   0.397   6.519 -1.9295 -1.4076 -0.4184
 8072SOL    HW235679   3.723   0.460   6.405 -0.0345 -0.4781  0.1305
 8073SOL     OW35680   2.555   2.352  16.383 -0.0588 -0.2417  0.5620
 8073SOL    HW135681   2.492   2.309  16.325 -0.0177 -1.6934  1.5760
 8073SOL    HW235682   2.587   2.427  16.334  1.4245 -0.0305  1.8602
 8074SOL     OW35683   3.915   0.191   6.245  0.2365 -0.8338 -0.7412
 8074SOL    HW135684   3.888   0.282   6.255  0.5798 -0.6250 -1.6270
 8074SOL    HW235685   3.965   0.177   6.325 -0.2338  0.1019 -0.2985
 8075SOL     OW35686   3.180   0.853   8.072 -0.2349  0.5450  0.2334
 8075SOL    HW135687   3.238   0.850   8.148  0.7169  1.0515 -0.4777
 8075SOL    HW235688   3.189   0.941   8.037 -2.1404  0.7683  0.3461
 8076SOL     OW35689   2.269   0.968   5.209 -0.2410 -0.7022  0.7481
 8076SOL    HW135690   2.337   1.033   5.227  0.2152 -1.1580  0.6558
 8076SOL    HW235691   2.188   1.019   5.215  0.4001  0.2263  1.5067
 8077SOL     OW35692   1.941   0.245   4.606  0.8750 -0.3738  0.7988
 8077SOL    HW135693   1.955   0.193   4.528 -1.2204  3.6365 -2.2442
 8077SOL    HW235694   1.846   0.236   4.610  0.7609  0.6020  0.2725
 8078SOL     OW35695   1.268   2.927   3.730 -0.0368  0.1421  0.4278
 8078SOL    HW135696   1.275   2.963   3.819  2.2537 -1.2811  0.8157
 8078SOL    HW235697   1.359   2.931   3.700  0.1894 -2.2806  0.8508
 8079SOL     OW35698   1.361   3.172  11.207 -0.0021  0.0217 -0.2236
 8079SOL    HW135699   1.444   3.172  11.254  0.3175  1.3690 -0.8129
 8079SOL    HW235700   1.307   3.135  11.277 -0.1674 -1.7041 -1.2516
 8080SOL     OW35701   1.414   1.298   6.357 -0.2913 -0.7518  0.3205
 8080SOL    HW135702   1.467   1.280   6.434  1.3070 -0.1629 -0.6470
 8080SOL    HW235703   1.386   1.207   6.349 -0.9671 -0.6274  1.2614
 8081SOL     OW35704   1.949   2.742   7.726  0.3666  0.1815 -0.2559
 8081SOL    HW135705   2.018   2.757   7.661  3.1057 -1.6919  2.2644
 8081SOL    HW235706   1.986   2.663   7.766  0.1583 -0.6763 -1.7602
 8082SOL     OW35707   3.962   3.120   2.062 -0.2886 -0.2707 -0.3822
 8082SOL    HW135708   4.050   3.095   2.035  0.2894  0.6268  0.6674
 8082SOL    HW235709   3.980   3.188   2.126  0.9464 -0.6121 -0.3696
 8083SOL     OW35710   3.123   0.942   8.649 -0.0679 -0.1398  0.2778
 8083SOL    HW135711   3.052   0.878   8.640  0.4623 -0.3745 -2.0963
 8083SOL    HW235712   3.193   0.887   8.614  0.2332  0.5430 -0.1993
 8084SOL     OW35713   4.270   0.326   8.368  0.0506  0.2686 -0.2097
 8084SOL    HW135714   4.176   0.324   8.353  0.0188 -0.8186  0.1804
 8084SOL    HW235715   4.297   0.417   8.356 -0.6989  0.7745  2.0246
 8085SOL     OW35716   2.664   2.318  15.132  0.0871  0.1212 -0.3108
 8085SOL    HW135717   2.710   2.360  15.058  0.0636  3.5085  1.5889
 8085SOL    HW235718   2.642   2.229  15.105 -2.3965 -0.3525  3.3110
 8086SOL     OW35719   1.317   0.736   2.603  0.0423  0.2190  0.4125
 8086SOL    HW135720   1.321   0.674   2.530 -0.8465  0.6878 -0.0305
 8086SOL    HW235721   1.222   0.731   2.613 -0.2333  2.7545 -0.9589
 8087SOL     OW35722   0.413   4.581   4.288  0.2709  0.4332  0.1267
 8087SOL    HW135723   0.430   4.495   4.249 -0.5949 -0.2198  1.1760
 8087SOL    HW235724   0.325   4.599   4.254  0.5806  0.3567 -0.7120
 8088SOL     OW35725   2.754   1.684   6.199 -0.3556  0.2744 -0.2481
 8088SOL    HW135726   2.820   1.615   6.204 -0.0629  0.4379 -1.7936
 8088SOL    HW235727   2.689   1.637   6.147 -0.6964  1.1732 -0.6375
 8089SOL     OW35728   3.729   1.797   9.800 -0.0163 -0.2838  0.6497
 8089SOL    HW135729   3.797   1.845   9.847 -0.4070 -0.2434  1.1738
 8089SOL    HW235730   3.777   1.717   9.779 -0.9537 -0.3616 -1.1783
 8090SOL     OW35731   4.515   3.572   3.055  0.1418  0.4312  0.1808
 8090SOL    HW135732   4.550   3.516   2.985 -1.2801 -0.0162 -0.1690
 8090SOL    HW235733   4.474   3.635   2.996  1.1835 -0.0374 -1.0653
 8091SOL     OW35734   3.277   0.174  15.488  0.2162  0.1272 -0.3840
 8091SOL    HW135735   3.360   0.200  15.529  0.8813 -0.3242 -1.4502
 8091SOL    HW235736   3.314   0.174  15.400  2.2673  5.0756  0.4921
 8092SOL     OW35737   1.776   1.290   3.894 -0.6177  0.2658 -0.2336
 8092SOL    HW135738   1.693   1.332   3.871 -1.6411 -0.8072  1.5377
 8092SOL    HW235739   1.748   1.203   3.920  0.0096  0.7817  2.1818
 8093SOL     OW35740   2.375   3.515   8.036  0.2323 -0.0390  0.0469
 8093SOL    HW135741   2.380   3.473   7.950 -0.0651 -0.8119  0.4006
 8093SOL    HW235742   2.452   3.571   8.032  0.2419 -0.2426 -2.5257
 8094SOL     OW35743   2.930   2.210   8.925 -0.3043 -0.4408 -0.4338
 8094SOL    HW135744   2.844   2.230   8.962 -0.3329 -0.3357 -0.5616
 8094SOL    HW235745   2.941   2.123   8.963  1.9719 -0.6873 -1.6637
 8095SOL     OW35746   3.589   2.329   8.243 -0.3217  0.0057 -0.3965
 8095SOL    HW135747   3.621   2.317   8.332 -0.2050  1.8089 -0.1987
 8095SOL    HW235748   3.595   2.241   8.206 -0.3889 -0.3561  0.4454
 8096SOL     OW35749   1.429   1.652   9.533  0.5113 -0.8905  0.0173
 8096SOL    HW135750   1.385   1.577   9.492 -1.6756  0.1576  0.4609
 8096SOL    HW235751   1.520   1.645   9.504  1.3431  1.5855  2.0713
 8097SOL     OW35752   1.311   0.071   1.898  0.0002  0.3184 -0.5229
 8097SOL    HW135753   1.271   0.120   1.826 -0.2079 -0.3118 -0.8313
 8097SOL    HW235754   1.309   0.134   1.971 -0.7203 -0.0035 -0.2686
 8098SOL     OW35755   1.707   3.039   1.394 -0.0140 -0.4205 -0.0986
 8098SOL    HW135756   1.659   3.033   1.311 -0.7962  1.8398  0.2006
 8098SOL    HW235757   1.777   3.091   1.354  1.1700 -0.7994  1.4814
 8099SOL     OW35758   1.785   1.657  14.707 -0.0495 -0.0086 -0.1701
 8099SOL    HW135759   1.775   1.651  14.612  0.6982  1.4151 -0.3475
 8099SOL    HW235760   1.858   1.720  14.716 -1.6160  1.6089  1.3097
 8100SOL     OW35761   2.908   3.364   8.943 -0.5402  0.7891  0.6006
 8100SOL    HW135762   2.925   3.458   8.934  0.7536  0.3588 -1.6151
 8100SOL    HW235763   2.881   3.345   8.854  1.5292 -1.0524  0.3798
 8101SOL     OW35764   3.045   3.943  13.753 -0.1755  0.4135  0.2875
 8101SOL    HW135765   3.116   3.902  13.803 -1.7155  0.5389  2.5738
 8101SOL    HW235766   2.983   3.966  13.822 -1.1447  2.1014 -1.1244
 8102SOL     OW35767   3.093   4.268  17.321  0.0590  0.3336  0.5480
 8102SOL    HW135768   3.149   4.335  17.361 -0.3757  1.4322 -0.6779
 8102SOL    HW235769   3.010   4.283  17.367 -0.7509  0.3826 -0.9534
 8103SOL     OW35770   0.609   1.870   3.723 -0.0655 -0.0216  0.3775
 8103SOL    HW135771   0.601   1.782   3.684  1.8034 -0.7992  1.7534
 8103SOL    HW235772   0.672   1.912   3.664  1.6336 -1.1577  1.3609
 8104SOL     OW35773   2.572   2.261  14.275 -0.5136  0.0538  0.2947
 8104SOL    HW135774   2.554   2.349  14.242 -1.3699 -0.2399 -0.0186
 8104SOL    HW235775   2.641   2.277  14.340  1.6408  0.5286 -2.1297
 8105SOL     OW35776   0.550   2.856   2.365  0.5769  0.1452 -0.4476
 8105SOL    HW135777   0.496   2.899   2.298  1.0102  0.4189 -0.6180
 8105SOL    HW235778   0.636   2.898   2.365  1.0054 -0.7264 -0.4838
 8106SOL     OW35779   0.435   2.041  13.469 -0.0137 -0.5952 -0.2025
 8106SOL    HW135780   0.390   1.957  13.468 -3.0740  1.0232 -0.4778
 8106SOL    HW235781   0.384   2.083  13.399 -1.4515 -0.7314  0.7484
 8107SOL     OW35782   1.418   3.931   7.712 -0.4536  0.4920 -0.7064
 8107SOL    HW135783   1.452   3.952   7.625  1.4986 -0.0874 -0.0722
 8107SOL    HW235784   1.363   3.855   7.692  1.0855 -0.8463  0.1550
 8108SOL     OW35785   0.187   4.509   8.207 -0.2232  0.7521  0.5342
 8108SOL    HW135786   0.139   4.590   8.190 -3.1962 -1.4086 -1.3138
 8108SOL    HW235787   0.263   4.547   8.252  0.8231 -1.2820  0.4765
 8109SOL     OW35788   2.688   0.468   7.217  0.2344  0.3666 -0.3166
 8109SOL    HW135789   2.692   0.374   7.235 -1.6832  0.2585 -0.4200
 8109SOL    HW235790   2.736   0.506   7.290  0.1394  1.4283 -0.8159
 8110SOL     OW35791   4.557   2.978   9.579  0.7024  0.5307  0.1546
 8110SOL    HW135792   4.626   2.971   9.512 -1.1618 -2.4042 -1.4834
 8110SOL    HW235793   4.487   3.001   9.518  0.1318 -0.2550  0.5108
 8111SOL     OW35794   0.550   4.487  17.547  0.1469 -0.2098  0.3008
 8111SOL    HW135795   0.518   4.404  17.583 -0.8720  0.2115  0.3774
 8111SOL    HW235796   0.629   4.461  17.500 -1.1884 -0.9456 -1.5419
 8112SOL     OW35797   0.253   3.079   8.882 -0.4655 -0.8947 -0.2239
 8112SOL    HW135798   0.173   3.070   8.933 -0.5183 -1.2816 -0.3764
 8112SOL    HW235799   0.302   2.999   8.901  0.7762 -0.5481 -1.9506
 8113SOL     OW35800   3.371   2.144   7.945 -0.2101 -0.2191  0.4305
 8113SOL    HW135801   3.330   2.101   8.019  0.5118 -1.0847  0.3350
 8113SOL    HW235802   3.447   2.086   7.932  0.4353  0.8232 -0.4986
 8114SOL     OW35803   2.101   1.418   2.610  0.1400  0.0686 -0.5864
 8114SOL    HW135804   2.177   1.363   2.628  0.8159  1.4020  0.6568
 8114SOL    HW235805   2.035   1.355   2.639  0.3591  1.2533  2.4907
 8115SOL     OW35806   0.875   2.613   9.001  0.0191  0.4568  0.5230
 8115SOL    HW135807   0.868   2.665   8.921  1.4510 -3.3046 -2.0358
 8115SOL    HW235808   0.903   2.527   8.971  0.9690  0.5691  1.1051
 8116SOL     OW35809   1.974   3.327  12.845  0.0329  0.0155 -0.0585
 8116SOL    HW135810   2.014   3.284  12.769 -1.5625  0.1242 -0.9454
 8116SOL    HW235811   1.886   3.337  12.810  0.0044 -2.7418 -0.7840
 8117SOL     OW35812   3.781   4.122   2.936 -0.2025 -0.3119 -0.3685
 8117SOL    HW135813   3.740   4.036   2.952 -0.1394 -0.1161  0.8504
 8117SOL    HW235814   3.854   4.107   2.876 -0.8514 -1.3085 -0.9155
 8118SOL     OW35815   4.570   1.262   3.374  0.0468  0.1360 -0.3029
 8118SOL    HW135816   4.521   1.341   3.352 -0.5412 -0.4112 -0.9657
 8118SOL    HW235817   4.654   1.276   3.331  0.7139  2.1769  1.6556
 8119SOL     OW35818   2.064   2.425   4.735  0.2083  0.2560  0.1926
 8119SOL    HW135819   2.155   2.395   4.739  0.1743  0.1075 -0.1441
 8119SOL    HW235820   2.058   2.458   4.825 -0.2760  2.3108 -0.6183
 8120SOL     OW35821   2.009   4.007  11.129 -0.0474 -0.6788  0.5487
 8120SOL    HW135822   1.999   3.946  11.055  0.8774  0.3112 -0.3965
 8120SOL    HW235823   2.009   4.092  11.085  0.1830 -2.6429 -3.2833
 8121SOL     OW35824   1.142   2.149   4.405 -0.0250  0.5279  0.4131
 8121SOL    HW135825   1.201   2.207   4.454 -2.2992  0.9337  2.6249
 8121SOL    HW235826   1.087   2.217   4.367  0.5206  0.3855 -0.6309
 8122SOL     OW35827   2.274   4.214   7.408 -0.2045 -0.2295 -0.1078
 8122SOL    HW135828   2.295   4.306   7.391 -0.0466 -0.1008  0.8194
 8122SOL    HW235829   2.357   4.178   7.438  1.2370  3.5766  0.4409
 8123SOL     OW35830   2.138   1.607   0.728  0.3284  0.2603 -0.2234
 8123SOL    HW135831   2.177   1.562   0.653  0.2373 -0.4112  0.1363
 8123SOL    HW235832   2.057   1.628   0.681  0.7751  1.7870 -0.3418
 8124SOL     OW35833   0.032   1.048  17.530  0.1608 -0.1664  0.3378
 8124SOL    HW135834   0.053   1.141  17.516  0.5913 -0.8155 -3.3525
 8124SOL    HW235835   0.018   1.007  17.444  0.7866 -2.0267  1.1224
 8125SOL     OW35836   3.739   1.994  16.740 -0.4701  0.3347  0.0904
 8125SOL    HW135837   3.789   1.930  16.690 -1.0107 -0.8691  1.1061
 8125SOL    HW235838   3.656   2.018  16.700  0.1784  0.1950 -1.3292
 8126SOL     OW35839   3.259   0.590   3.662  0.3039 -0.2757  0.1931
 8126SOL    HW135840   3.174   0.628   3.685  0.6377  0.9922 -0.6625
 8126SOL    HW235841   3.318   0.655   3.701 -0.2541 -0.3632  1.1807
 8127SOL     OW35842   0.059   0.283  16.075  0.0406 -0.8427 -0.3336
 8127SOL    HW135843   0.013   0.213  16.029 -0.3977 -0.2267 -0.8318
 8127SOL    HW235844   0.118   0.312  16.006  1.2318 -2.3080  0.0679
 8128SOL     OW35845   0.341   2.825   1.273 -0.4782 -0.4490  0.5673
 8128SOL    HW135846   0.270   2.777   1.229 -1.3534  0.2801  1.1971
 8128SOL    HW235847   0.389   2.746   1.300  0.9901 -0.1072 -1.0391
 8129SOL     OW35848   3.925   2.762   5.405 -0.2595 -0.0046 -0.2011
 8129SOL    HW135849   3.919   2.680   5.356 -1.7013  0.2144 -0.3912
 8129SOL    HW235850   3.854   2.761   5.468  0.5560  1.0279  0.7470
 8130SOL     OW35851   2.922   2.485   6.892 -0.7147  0.6402  0.5933
 8130SOL    HW135852   2.904   2.393   6.872  1.4487  0.0979  1.1291
 8130SOL    HW235853   2.972   2.508   6.814 -1.6918  0.8412  0.0395
 8131SOL     OW35854   2.000   0.578   3.808 -0.1748 -0.6973  0.2384
 8131SOL    HW135855   1.985   0.640   3.737  1.3869 -0.8079 -0.1901
 8131SOL    HW235856   2.028   0.501   3.760  1.7121 -1.7674  3.0473
 8132SOL     OW35857   0.801   1.333   5.951  0.0652 -0.0962 -0.4615
 8132SOL    HW135858   0.793   1.425   5.924 -0.7258  0.6662  2.4018
 8132SOL    HW235859   0.768   1.281   5.878  0.9001 -0.2644 -0.7261
 8133SOL     OW35860   3.675   3.016   9.333  0.2050 -0.1342 -0.4206
 8133SOL    HW135861   3.769   3.015   9.312  0.2642  0.3698 -0.1744
 8133SOL    HW235862   3.685   3.080   9.403  0.0819 -1.2654  0.6160
 8134SOL     OW35863   2.284   4.309   8.690 -0.7638 -0.0409  0.7817
 8134SOL    HW135864   2.194   4.341   8.700 -1.0655 -0.7664  0.3920
 8134SOL    HW235865   2.329   4.391   8.711  0.7414 -0.3941 -1.0181
 8135SOL     OW35866   0.890   1.191   6.170 -0.0148 -0.3361  0.1512
 8135SOL    HW135867   0.962   1.152   6.121  0.1690  0.2762 -0.0621
 8135SOL    HW235868   0.847   1.246   6.104  1.0616 -1.0323 -1.1186
 8136SOL     OW35869   4.376   3.230   1.850  0.4824  0.7924 -0.3520
 8136SOL    HW135870   4.360   3.232   1.944  0.8846  4.7578 -0.3668
 8136SOL    HW235871   4.427   3.311   1.852  1.9606 -0.0855 -2.8107
 8137SOL     OW35872   3.274   2.304   4.757 -0.3432 -0.2176 -0.0564
 8137SOL    HW135873   3.268   2.399   4.764  4.6052  0.1473 -0.9742
 8137SOL    HW235874   3.245   2.280   4.669 -0.1847 -0.7180  0.0288
 8138SOL     OW35875   2.888   3.955   4.477 -0.4156 -0.2727 -0.1912
 8138SOL    HW135876   2.888   3.978   4.570 -1.5482 -0.7896 -0.0501
 8138SOL    HW235877   2.954   4.015   4.444 -2.0540  0.1010 -2.7532
 8139SOL     OW35878   1.422   2.387  10.530  0.2092 -0.5232 -0.5021
 8139SOL    HW135879   1.361   2.328  10.574 -1.2787  2.5362  1.5068
 8139SOL    HW235880   1.489   2.391  10.598 -0.5089 -2.3107  0.3057
 8140SOL     OW35881   2.380   3.305   3.441 -0.1763 -0.3943  0.1638
 8140SOL    HW135882   2.290   3.308   3.474  0.2553 -0.1337  1.3364
 8140SOL    HW235883   2.386   3.391   3.399 -2.5483  0.0645  0.7680
 8141SOL     OW35884   2.467   1.080   8.613 -0.2809  0.6215 -0.3776
 8141SOL    HW135885   2.396   1.025   8.646 -0.6046 -0.4653 -2.8575
 8141SOL    HW235886   2.434   1.076   8.523  2.1629  1.9815 -1.3262
 8142SOL     OW35887   1.936   1.817   7.929  0.4588 -0.3524 -0.1175
 8142SOL    HW135888   1.913   1.895   7.878 -1.4322 -0.3795  0.7028
 8142SOL    HW235889   1.910   1.839   8.018  0.9284 -2.0175  0.4354
 8143SOL     OW35890   1.535   2.294   5.765 -0.8209 -0.3916 -0.2677
 8143SOL    HW135891   1.615   2.312   5.715 -0.6501 -1.2645 -0.3180
 8143SOL    HW235892   1.486   2.359   5.714  1.6414  1.3364 -0.3945
 8144SOL     OW35893   2.746   0.754   9.016  0.4198  0.3427  0.1162
 8144SOL    HW135894   2.711   0.711   8.939  0.6121  0.3244  0.0384
 8144SOL    HW235895   2.662   0.779   9.054  1.4751 -0.1597  2.7889
 8145SOL     OW35896   3.897   0.378   2.444  0.8177  0.4207 -0.6831
 8145SOL    HW135897   3.825   0.441   2.449 -0.1362 -0.5486 -2.3218
 8145SOL    HW235898   3.861   0.324   2.515  0.9376  0.9191 -0.2383
 8146SOL     OW35899   2.552   3.786  15.530 -0.0360 -0.5772 -0.0035
 8146SOL    HW135900   2.513   3.855  15.584 -0.0277 -0.6181  0.0541
 8146SOL    HW235901   2.621   3.744  15.580  1.2036 -1.0056 -2.0695
 8147SOL     OW35902   3.627   0.187   4.881 -0.6198  0.3040 -0.0482
 8147SOL    HW135903   3.585   0.257   4.830  0.9784  0.2828 -1.4061
 8147SOL    HW235904   3.639   0.226   4.967 -3.1550 -0.7013  0.7377
 8148SOL     OW35905   2.587   4.402   8.893 -0.2470 -0.3423  0.4836
 8148SOL    HW135906   2.545   4.317   8.878  2.3524 -1.3415 -1.1813
 8148SOL    HW235907   2.563   4.413   8.985 -1.1557  0.5076  0.1392
 8149SOL     OW35908   0.037   1.060   1.731 -0.2416  0.5143  0.1616
 8149SOL    HW135909   0.122   1.040   1.770  0.0996  2.9309  0.6287
 8149SOL    HW235910   4.688   1.019   1.788 -1.2225  2.0868  0.1515
 8150SOL     OW35911   4.125   0.534   2.350  0.4259 -0.1958 -0.2813
 8150SOL    HW135912   4.052   0.472   2.354  0.2511  0.0790  0.5738
 8150SOL    HW235913   4.091   0.577   2.271  2.0934  3.5464  1.0804
 8151SOL     OW35914   1.194   3.244   3.708  0.1704  0.0408  0.0577
 8151SOL    HW135915   1.256   3.253   3.780 -0.1559 -0.2404  0.3758
 8151SOL    HW235916   1.111   3.240   3.757 -0.1067  1.5052 -0.2947
 8152SOL     OW35917   3.421   1.535  16.724 -0.0259  0.1649  0.2621
 8152SOL    HW135918   3.455   1.526  16.635 -0.1699 -0.0431  0.2274
 8152SOL    HW235919   3.480   1.600  16.761 -0.5214 -0.6395  2.4745
 8153SOL     OW35920   2.950   1.304  17.615  0.0663  0.2449 -0.5056
 8153SOL    HW135921   3.034   1.259  17.626  0.0753  0.6867  1.3241
 8153SOL    HW235922   2.899   1.229  17.585  2.5534 -0.4934 -2.8291
 8154SOL     OW35923   0.691   3.209   9.994 -0.1433 -0.3996  0.0282
 8154SOL    HW135924   0.785   3.194   9.985 -0.0749 -0.3268  0.6870
 8154SOL    HW235925   0.671   3.188   9.902 -1.1669 -1.3038  0.4519
 8155SOL     OW35926   1.222   3.815   0.641  0.3893 -0.9000 -0.0026
 8155SOL    HW135927   1.218   3.905   0.675 -1.0726 -0.9237 -0.1200
 8155SOL    HW235928   1.143   3.812   0.587 -0.2518  0.3959  0.8682
 8156SOL     OW35929   0.801   2.462  17.304 -0.1068  0.7209 -0.4476
 8156SOL    HW135930   0.882   2.466  17.252  1.1906  0.6738  1.5932
 8156SOL    HW235931   0.831   2.518  17.375  0.4778 -0.4519  0.2250
 8157SOL     OW35932   0.825   4.104   8.200  0.1821  0.2375 -0.1603
 8157SOL    HW135933   0.885   4.135   8.132  0.8376 -0.2467  0.1965
 8157SOL    HW235934   0.850   4.012   8.212 -1.4827 -0.1153  0.5472
 8158SOL     OW35935   4.117   3.554   8.289  0.2650 -0.0750  0.3980
 8158SOL    HW135936   4.093   3.579   8.378  0.8558 -0.0205  0.5467
 8158SOL    HW235937   4.111   3.458   8.292  2.0382 -0.2326 -0.8864
 8159SOL     OW35938   2.286   3.534   6.430  0.1198  0.4290 -0.2649
 8159SOL    HW135939   2.293   3.620   6.472 -0.5959  0.2041  0.3210
 8159SOL    HW235940   2.202   3.542   6.384  0.9798  0.0238 -1.9281
 8160SOL     OW35941   0.139   2.669   1.169 -0.5931  0.0344 -0.3439
 8160SOL    HW135942   0.073   2.683   1.101 -1.4473  0.1611  0.5203
 8160SOL    HW235943   0.190   2.599   1.128 -2.7345 -2.2729  0.9440
 8161SOL     OW35944   1.285   1.380   7.523 -0.2540  0.5130  0.6653
 8161SOL    HW135945   1.343   1.455   7.536 -0.2276  0.6511 -0.2735
 8161SOL    HW235946   1.299   1.355   7.432 -0.9305  0.5909  0.5414
 8162SOL     OW35947   3.409   1.682   7.945 -0.0879 -0.1327  0.0421
 8162SOL    HW135948   3.441   1.747   8.007 -1.0388 -1.1540  1.5921
 8162SOL    HW235949   3.323   1.665   7.983 -0.4246  0.0392 -0.6403
 8163SOL     OW35950   4.663   0.811   1.583 -0.3297  0.0775 -0.0278
 8163SOL    HW135951   4.716   0.869   1.638 -0.8855 -0.4059  1.0103
 8163SOL    HW235952   4.700   0.840   1.499 -0.5260 -2.2517 -0.9282
 8164SOL     OW35953   1.412   0.833   8.391  0.1451  0.3525  0.4464
 8164SOL    HW135954   1.407   0.757   8.333  0.4449  1.2552 -0.7515
 8164SOL    HW235955   1.458   0.894   8.334  1.9817 -1.3533  0.0679
 8165SOL     OW35956   0.159   2.654  11.829 -0.2287 -0.4526  0.2771
 8165SOL    HW135957   0.181   2.576  11.778  1.0640  1.3897 -1.9633
 8165SOL    HW235958   0.235   2.711  11.823 -0.0705 -0.6485  0.4054
 8166SOL     OW35959   4.046   3.492   8.010  0.3341 -0.1338  0.6197
 8166SOL    HW135960   4.042   3.540   8.092 -0.6496 -0.1917  0.5996
 8166SOL    HW235961   4.134   3.458   8.028  0.0850 -0.9163  0.3760
 8167SOL     OW35962   1.185   2.458  17.430 -0.0385  0.0659 -0.2209
 8167SOL    HW135963   1.189   2.412  17.513  1.7302 -2.6195 -1.8084
 8167SOL    HW235964   1.236   2.401  17.372  1.0147  1.3874 -0.6146
 8168SOL     OW35965   4.219   2.187  11.041 -0.0081 -0.7716 -0.1824
 8168SOL    HW135966   4.148   2.170  10.979 -0.8456 -0.3726  0.6645
 8168SOL    HW235967   4.298   2.181  10.987  0.7436 -0.9990  0.9307
 8169SOL     OW35968   0.341   2.448   2.043  0.1061  0.3395  0.4004
 8169SOL    HW135969   0.264   2.462   2.098 -0.2788  1.5295 -0.4399
 8169SOL    HW235970   0.376   2.536   2.052  0.9617  0.1115 -0.6477
 8170SOL     OW35971   4.678   1.759   3.127 -0.0556 -0.2406  0.4405
 8170SOL    HW135972   4.600   1.711   3.099 -0.8898  0.5782  1.3605
 8170SOL    HW235973   4.673   1.761   3.223 -0.4178 -1.1663  0.4423
 8171SOL     OW35974   4.541   2.391   1.793  0.3612 -0.1664  0.1087
 8171SOL    HW135975   4.596   2.452   1.842  0.3648  1.5738 -2.0514
 8171SOL    HW235976   4.598   2.377   1.717 -0.9610  2.1535 -1.3029
 8172SOL     OW35977   4.300   0.076   6.105 -0.4207  0.0545  0.3614
 8172SOL    HW135978   4.293   0.120   6.190 -1.7298 -1.5914  1.0970
 8172SOL    HW235979   4.348   4.711   6.114 -2.8347 -1.4408 -0.3411
 8173SOL     OW35980   2.415   3.942  11.476  0.9187 -0.6211  0.3988
 8173SOL    HW135981   2.495   3.987  11.452  0.3580 -0.6172 -1.4418
 8173SOL    HW235982   2.403   3.967  11.568  0.0207  0.3936 -0.0080
 8174SOL     OW35983   3.907   1.899   6.163 -0.0193 -0.6533  0.5110
 8174SOL    HW135984   3.966   1.833   6.126  1.1706 -0.2320  1.6490
 8174SOL    HW235985   3.898   1.959   6.090  0.8607  0.8324  1.6263
 8175SOL     OW35986   1.344   4.344   0.764  0.2162  0.3199  0.2916
 8175SOL    HW135987   1.290   4.399   0.820  1.5646  1.9357 -0.0227
 8175SOL    HW235988   1.271   4.288   0.736  1.8748 -0.8658 -1.6725
 8176SOL     OW35989   1.000   2.949   8.146 -0.1072  0.2715 -0.1402
 8176SOL    HW135990   0.972   2.861   8.171 -0.2711 -0.0721 -1.5327
 8176SOL    HW235991   0.968   2.999   8.221 -1.3698 -1.3802  0.4193
 8177SOL     OW35992   0.861   1.286   4.561 -0.3260 -0.1658  0.0207
 8177SOL    HW135993   0.905   1.284   4.476 -0.4453 -0.0085 -0.0453
 8177SOL    HW235994   0.927   1.322   4.620  1.2926 -2.3345 -0.4709
 8178SOL     OW35995   1.156   1.090   5.654 -0.6940 -0.0466 -0.5261
 8178SOL    HW135996   1.121   1.147   5.585 -0.8153  1.1060  0.4762
 8178SOL    HW235997   1.249   1.083   5.635 -0.8864  0.0230 -1.5115
 8179SOL     OW35998   3.925   2.669  12.470 -0.3129 -0.3653  0.0709
 8179SOL    HW135999   3.965   2.712  12.395 -0.2800 -0.7907 -0.1568
 8179SOL    HW236000   3.857   2.734  12.485 -1.2118 -0.5999 -3.0959
 8180SOL     OW36001   4.641   2.646  12.487 -0.1534 -0.0022  0.3140
 8180SOL    HW136002   4.700   2.605  12.424 -1.5153  0.7482 -1.4528
 8180SOL    HW236003   4.559   2.654  12.439  0.4782  1.9214 -0.4677
 8181SOL     OW36004   1.005   3.649   6.939 -0.3596  0.0862 -0.1073
 8181SOL    HW136005   1.010   3.673   6.846 -3.8261 -1.6669 -0.7639
 8181SOL    HW236006   0.910   3.651   6.946 -0.3967  0.0137 -0.5616
 8182SOL     OW36007   0.664   2.979  13.336 -0.0509  0.1295  0.0505
 8182SOL    HW136008   0.745   3.024  13.360  0.9159 -0.8856 -1.2749
 8182SOL    HW236009   0.668   2.889  13.369 -0.8167 -0.4056 -1.2946
 8183SOL     OW36010   0.480   3.503   6.257  0.2227 -0.2292 -0.5421
 8183SOL    HW136011   0.517   3.434   6.202  0.5977  0.3138 -0.9748
 8183SOL    HW236012   0.388   3.475   6.260  0.6354 -1.7699 -2.3456
 8184SOL     OW36013   1.808   3.873   8.834 -0.5042  0.1094  0.2935
 8184SOL    HW136014   1.896   3.838   8.848 -0.0909  1.4227  0.9920
 8184SOL    HW236015   1.830   3.956   8.794 -0.1442  0.1818  0.6437
 8185SOL     OW36016   3.059   1.700  16.496  0.2087  0.0205  0.2986
 8185SOL    HW136017   3.092   1.625  16.545  1.0512 -0.8646 -1.6325
 8185SOL    HW236018   3.030   1.656  16.416  0.7378  1.9136 -0.9387
 8186SOL     OW36019   2.056   3.507   9.420 -0.1467  0.8505 -0.1988
 8186SOL    HW136020   2.061   3.585   9.365 -3.2046 -0.9503 -3.0456
 8186SOL    HW236021   1.988   3.533   9.483 -0.9419  2.3109 -1.6760
 8187SOL     OW36022   3.851   2.109   4.592  0.6483  0.1963  0.0857
 8187SOL    HW136023   3.871   2.202   4.597 -1.8235  0.7145  0.6556
 8187SOL    HW236024   3.941   2.077   4.583  0.3954 -0.6340  0.4434
 8188SOL     OW36025   3.203   3.107   7.242  0.4847  0.1869 -0.5201
 8188SOL    HW136026   3.274   3.044   7.258 -0.7171 -0.9359  0.4207
 8188SOL    HW236027   3.128   3.052   7.219 -1.5006  1.7463  2.2312
 8189SOL     OW36028   1.229   3.079  11.012  0.3666 -0.4079 -0.1113
 8189SOL    HW136029   1.261   3.031  10.935 -3.3194  0.1940 -1.9831
 8189SOL    HW236030   1.303   3.084  11.074  1.0918  0.4526 -1.0534
 8190SOL     OW36031   2.840   1.101   2.582 -0.1334  0.6696 -0.4428
 8190SOL    HW136032   2.846   1.066   2.670 -0.2107 -0.1190 -0.7537
 8190SOL    HW236033   2.852   1.022   2.530  1.2111  1.1855 -0.9224
 8191SOL     OW36034   2.363   3.466   7.013 -0.1899  0.3422 -0.1331
 8191SOL    HW136035   2.402   3.424   7.090  0.5412 -2.4126 -1.9832
 8191SOL    HW236036   2.346   3.553   7.050  2.5876  0.3053  1.2535
 8192SOL     OW36037   3.241   1.159  10.819  0.0436  0.2566 -0.3344
 8192SOL    HW136038   3.250   1.205  10.736 -0.4183  0.0290 -0.5107
 8192SOL    HW236039   3.262   1.069  10.793  2.4209  0.3729  1.2028
 8193SOL     OW36040   3.781   3.913  14.781  0.5056 -0.1656  0.4919
 8193SOL    HW136041   3.767   4.007  14.791  1.3688  0.0786 -0.5707
 8193SOL    HW236042   3.751   3.900  14.691  0.1025  1.5806  0.3713
 8194SOL     OW36043   4.426   1.493   3.310  0.7224  0.6468  0.5496
 8194SOL    HW136044   4.341   1.494   3.267  0.9458  0.8473  0.1187
 8194SOL    HW236045   4.429   1.583   3.343 -0.2241  0.5409  0.9242
 8195SOL     OW36046   3.466   2.898   3.318 -0.2934 -0.1247  0.2152
 8195SOL    HW136047   3.436   2.987   3.333  1.0717  0.8058 -2.5540
 8195SOL    HW236048   3.528   2.920   3.248  0.6455 -3.6146 -0.0740
 8196SOL     OW36049   1.933   4.690   3.869  0.0596 -0.2710  0.0638
 8196SOL    HW136050   1.891   4.716   3.787  1.1095 -0.9532 -0.6945
 8196SOL    HW236051   1.853   4.677   3.920  0.8277 -1.4134  0.9657
 8197SOL     OW36052   2.554   3.400   5.240 -0.0895 -0.2440  0.6506
 8197SOL    HW136053   2.570   3.494   5.230  1.5105 -0.7448 -1.2704
 8197SOL    HW236054   2.574   3.378   5.331 -1.1053  0.2796  1.0098
 8198SOL     OW36055   0.326   2.854  16.993 -0.1146  0.4152 -0.2703
 8198SOL    HW136056   0.396   2.898  17.042 -2.3640  2.0969  1.4149
 8198SOL    HW236057   0.278   2.814  17.065 -0.8170  3.0908  0.7340
 8199SOL     OW36058   0.451   2.164   6.944  0.2642 -0.3544  0.3147
 8199SOL    HW136059   0.363   2.196   6.961 -0.2821 -2.9596  2.3668
 8199SOL    HW236060   0.501   2.193   7.020 -0.3073  1.0396  0.1477
 8200SOL     OW36061   4.702   4.597  15.875  0.0263  0.4597 -0.2141
 8200SOL    HW136062   4.701   4.685  15.839  0.2820  1.2523  1.7600
 8200SOL    HW236063   4.713   4.624  15.966 -0.1522  0.7799 -0.2884
 8201SOL     OW36064   0.250   3.152   1.565 -0.2218 -0.0151 -0.4756
 8201SOL    HW136065   0.293   3.238   1.559 -1.1023  0.5183  0.8911
 8201SOL    HW236066   0.159   3.180   1.572 -0.4681 -1.0006  0.2284
 8202SOL     OW36067   1.604   3.685   4.133  0.1091  0.1284  0.4358
 8202SOL    HW136068   1.555   3.742   4.192 -0.1659  0.2878  0.0465
 8202SOL    HW236069   1.696   3.705   4.152 -0.8423  4.0920  0.9068
 8203SOL     OW36070   1.693   0.694   7.988 -0.1811  0.0751  0.1500
 8203SOL    HW136071   1.664   0.605   7.969  1.2698 -0.0278 -1.6812
 8203SOL    HW236072   1.778   0.684   8.032  0.0132 -0.0011 -0.2357
 8204SOL     OW36073   3.462   3.911  11.870 -0.6608  0.6535 -0.3861
 8204SOL    HW136074   3.450   4.005  11.882 -1.3116  0.4408  0.5978
 8204SOL    HW236075   3.429   3.909  11.780 -0.1290 -0.8222 -0.5356
 8205SOL     OW36076   0.944   0.137   7.347  0.3796 -0.5537 -0.4511
 8205SOL    HW136077   0.866   0.088   7.321 -0.6343  0.5059  0.5526
 8205SOL    HW236078   0.908   0.226   7.346  1.7124  0.0075  1.6193
 8206SOL     OW36079   2.006   4.543   3.504  0.1435  0.5900 -0.1039
 8206SOL    HW136080   2.019   4.633   3.473  0.2388  0.2577 -1.0383
 8206SOL    HW236081   2.063   4.504   3.437 -0.1400  2.8340 -1.6727
 8207SOL     OW36082   1.561   3.608   3.285 -0.3015 -0.2259 -0.1461
 8207SOL    HW136083   1.472   3.613   3.251 -0.4238 -2.1933 -0.0737
 8207SOL    HW236084   1.608   3.638   3.207  0.7020  0.2585  0.6445
 8208SOL     OW36085   4.042   0.885   9.260 -0.3439 -0.9034 -0.5016
 8208SOL    HW136086   3.989   0.929   9.327  0.0208  0.1898 -0.9317
 8208SOL    HW236087   4.075   0.809   9.308  0.4712 -0.3131 -0.1308
 8209SOL     OW36088   2.804   4.015   5.390  0.0456  0.3672 -0.2610
 8209SOL    HW136089   2.888   4.050   5.361  0.6306 -0.5628  0.2956
 8209SOL    HW236090   2.807   4.042   5.481  2.2363 -0.5698 -0.0636
 8210SOL     OW36091   3.401   1.512  12.213  0.1491  0.0604 -0.1536
 8210SOL    HW136092   3.347   1.433  12.211 -1.0062  0.8274  0.4275
 8210SOL    HW236093   3.439   1.518  12.126  1.1750  2.0079  0.4274
 8211SOL     OW36094   1.458   3.599   7.987  0.1490  0.5693 -0.3304
 8211SOL    HW136095   1.497   3.686   7.978  1.8336 -0.1140  0.3916
 8211SOL    HW236096   1.456   3.570   7.895 -1.1796 -0.2427 -0.0460
 8212SOL     OW36097   2.279   1.431  15.709  0.2228 -0.6993  0.3387
 8212SOL    HW136098   2.242   1.371  15.644 -0.3323 -0.6283  0.5890
 8212SOL    HW236099   2.363   1.394  15.734 -0.2019 -1.1532  1.1233
 8213SOL     OW36100   1.147   3.798  14.927 -0.3620  0.4113  0.3914
 8213SOL    HW136101   1.065   3.752  14.946 -0.1593 -0.1385 -0.0356
 8213SOL    HW236102   1.173   3.840  15.009 -0.7841  0.8647  0.2898
 8214SOL     OW36103   3.498   1.063  14.066  0.2432  0.0778  0.3434
 8214SOL    HW136104   3.517   1.138  14.123 -1.3319  0.1585  0.7610
 8214SOL    HW236105   3.581   1.016  14.056  1.3097  1.7096  1.5886
 8215SOL     OW36106   3.550   0.981   3.208  0.0887 -0.0403 -0.0675
 8215SOL    HW136107   3.565   1.031   3.289 -0.2181  0.6759 -0.4507
 8215SOL    HW236108   3.618   0.914   3.212  0.6516  0.4169 -2.1261
 8216SOL     OW36109   4.295   2.093   5.326 -0.4472  0.7822 -0.5010
 8216SOL    HW136110   4.204   2.071   5.342  0.3123 -0.7940  1.6160
 8216SOL    HW236111   4.341   2.012   5.345 -0.2686  0.9239 -0.3231
 8217SOL     OW36112   2.101   3.415   2.365 -0.1955 -0.3026 -0.3947
 8217SOL    HW136113   2.170   3.387   2.425  0.4286  0.5187 -0.7378
 8217SOL    HW236114   2.144   3.408   2.280 -1.1510  2.3997 -1.0893
 8218SOL     OW36115   2.721   1.836   7.800  0.0001 -0.3634  0.3561
 8218SOL    HW136116   2.769   1.838   7.882  0.2663 -2.7090  0.2584
 8218SOL    HW236117   2.631   1.849   7.831 -0.4833  0.3956 -1.3064
 8219SOL     OW36118   3.258   2.132   3.965  0.0199  0.2146  0.5582
 8219SOL    HW136119   3.264   2.213   4.015 -0.0592  1.1443 -0.9258
 8219SOL    HW236120   3.349   2.104   3.979 -0.6293 -3.2207 -1.8548
 8220SOL     OW36121   0.304   4.209  13.804  0.1217  0.4443  0.3199
 8220SOL    HW136122   0.371   4.223  13.870  1.6328 -2.9964 -0.4499
 8220SOL    HW236123   0.246   4.147  13.848 -0.6098  0.8900 -0.0196
 8221SOL     OW36124   3.098   3.043   8.681 -0.5629 -0.0120 -0.1752
 8221SOL    HW136125   3.057   2.988   8.748  2.0247  0.6226  1.9067
 8221SOL    HW236126   3.166   3.089   8.730 -0.8277  0.3487 -0.1425
 8222SOL     OW36127   0.214   0.227   4.122  0.4050 -0.6978 -0.2525
 8222SOL    HW136128   0.275   0.267   4.184 -1.0303  1.0302  0.0748
 8222SOL    HW236129   0.132   0.237   4.171 -0.2212 -0.3969 -1.3764
 8223SOL     OW36130   2.383   4.566   1.775  0.5548 -0.1740  0.5404
 8223SOL    HW136131   2.321   4.594   1.842 -0.6087  0.3547 -0.7378
 8223SOL    HW236132   2.459   4.620   1.796  0.6255 -1.2895  3.0115
 8224SOL     OW36133   4.281   3.540   6.989 -0.0334 -0.1612 -0.1230
 8224SOL    HW136134   4.342   3.606   7.022  1.5592 -0.5400 -2.3262
 8224SOL    HW236135   4.282   3.558   6.895 -0.1560  0.8586  0.0731
 8225SOL     OW36136   3.526   0.624   3.324 -0.3288  0.4821 -0.2614
 8225SOL    HW136137   3.482   0.575   3.255 -0.2523 -1.9099  1.3698
 8225SOL    HW236138   3.497   0.577   3.402  1.9593 -0.7123 -0.1173
 8226SOL     OW36139   3.348   3.104   6.370 -0.0227 -0.2465 -0.3376
 8226SOL    HW136140   3.393   3.166   6.313  0.5448 -0.9184 -0.6214
 8226SOL    HW236141   3.288   3.162   6.418 -0.4591 -1.0654  0.1126
 8227SOL     OW36142   4.087   3.135   3.326 -0.2157  0.9386  0.0368
 8227SOL    HW136143   4.109   3.043   3.322  2.0746  1.5069 -0.1145
 8227SOL    HW236144   4.150   3.177   3.268  1.2451 -1.0483  0.2098
 8228SOL     OW36145   4.680   1.624   7.932 -0.4547  0.3200 -0.2350
 8228SOL    HW136146   4.604   1.650   7.985 -2.0997 -1.4167 -1.7500
 8228SOL    HW236147   0.013   1.568   7.992  0.0628 -0.7013 -1.6164
 8229SOL     OW36148   1.546   0.302   6.488 -0.4891  0.6988 -0.0164
 8229SOL    HW136149   1.516   0.222   6.445  0.3592  0.6731 -0.5792
 8229SOL    HW236150   1.569   0.351   6.409 -1.1372  1.1769  0.1022
 8230SOL     OW36151   2.528   3.526  12.319  0.0861 -0.6196  0.0081
 8230SOL    HW136152   2.539   3.540  12.413 -0.3987  0.1154 -0.0445
 8230SOL    HW236153   2.520   3.615  12.284 -1.3451 -1.0326 -0.7058
 8231SOL     OW36154   0.558   1.373   5.529 -0.2090  0.3602 -0.4436
 8231SOL    HW136155   0.564   1.319   5.607 -0.5263 -0.3511 -0.9191
 8231SOL    HW236156   0.639   1.350   5.483 -0.6276 -3.3676  0.7027
 8232SOL     OW36157   1.288   3.158   4.387  0.0410 -0.0784  0.0338
 8232SOL    HW136158   1.353   3.183   4.322 -0.4097  0.7524 -0.1039
 8232SOL    HW236159   1.312   3.068   4.408 -0.9234  0.2759  2.7588
 8233SOL     OW36160   0.061   1.448   6.367 -0.5212  0.2552  0.0848
 8233SOL    HW136161   0.069   1.513   6.437 -1.4934 -0.7159  1.1092
 8233SOL    HW236162   0.088   1.367   6.412  1.4202  0.7289 -0.2082
 8234SOL     OW36163   4.213   2.838   3.045 -0.2226 -0.1573 -0.3434
 8234SOL    HW136164   4.270   2.913   3.065 -3.1103  1.3909  1.9301
 8234SOL    HW236165   4.184   2.862   2.956  0.0709  0.2610 -0.3319
 8235SOL     OW36166   1.357   1.532  16.568 -0.1079 -0.1860 -0.2575
 8235SOL    HW136167   1.314   1.590  16.505  1.0206  1.9169  0.9295
 8235SOL    HW236168   1.395   1.469  16.507 -0.2646  0.3397 -0.9003
 8236SOL     OW36169   2.936   3.522   5.778 -0.9760 -0.4642 -0.2909
 8236SOL    HW136170   2.888   3.583   5.834 -1.2760 -1.6999  0.7952
 8236SOL    HW236171   2.982   3.585   5.721  0.3722 -0.8734  0.3464
 8237SOL     OW36172   1.740   4.641  16.975 -0.0487  0.8434 -0.0920
 8237SOL    HW136173   1.743   4.585  17.053  1.2841  0.1339 -0.6395
 8237SOL    HW236174   1.813   4.602  16.926 -0.4726  0.4896 -0.4377
 8238SOL     OW36175   4.592   1.865   5.909  0.4497 -0.0292  0.2456
 8238SOL    HW136176   4.645   1.923   5.964  1.1054  0.6290 -1.0802
 8238SOL    HW236177   4.632   1.783   5.938  0.0361 -0.3929 -0.2127
 8239SOL     OW36178   1.145   3.882  13.157 -0.3212  0.2227  0.3638
 8239SOL    HW136179   1.065   3.848  13.116 -0.0638  1.8410 -1.4581
 8239SOL    HW236180   1.177   3.938  13.086 -2.3284  0.5527 -0.2775
 8240SOL     OW36181   0.605   3.875   4.380  0.4121 -0.2836 -0.1348
 8240SOL    HW136182   0.540   3.808   4.402  0.4686 -0.4235 -0.3974
 8240SOL    HW236183   0.671   3.821   4.337  1.5992  0.5897  0.6047
 8241SOL     OW36184   4.125   1.013   1.446  0.1779 -0.3918 -0.0956
 8241SOL    HW136185   4.099   1.071   1.374 -1.5358  0.9031  1.5620
 8241SOL    HW236186   4.149   1.076   1.514  1.9240  0.9349 -1.9222
 8242SOL     OW36187   1.634   2.547   7.539 -0.8896  0.0242 -0.2491
 8242SOL    HW136188   1.627   2.604   7.615 -0.4481 -0.8557  0.4624
 8242SOL    HW236189   1.679   2.474   7.582 -1.1187 -0.1755 -0.3408
 8243SOL     OW36190   0.715   3.294  10.784 -0.3985  0.1931  0.3229
 8243SOL    HW136191   0.712   3.312  10.690  0.9588 -3.1801 -0.3837
 8243SOL    HW236192   0.654   3.221  10.796 -0.6514  0.3706  0.1201
 8244SOL     OW36193   3.266   1.057   9.822 -0.1176  0.3272 -0.2091
 8244SOL    HW136194   3.355   1.043   9.791 -0.9015 -0.7939 -1.9204
 8244SOL    HW236195   3.284   1.133   9.877 -2.5981  0.3854  0.5409
 8245SOL     OW36196   0.771   2.425   0.934 -0.3184 -0.2415  0.7460
 8245SOL    HW136197   0.815   2.469   1.007  0.8170 -0.7159  0.3515
 8245SOL    HW236198   0.728   2.350   0.974 -1.1141 -0.2697 -0.1616
 8246SOL     OW36199   4.667   4.607   3.404 -0.4968 -0.1474  0.5111
 8246SOL    HW136200   4.668   4.655   3.486 -1.7801 -0.4976  0.7253
 8246SOL    HW236201   4.709   4.530   3.442 -0.4378  0.9287  2.6083
 8247SOL     OW36202   2.687   0.459   1.189  0.3789 -0.2866  0.2269
 8247SOL    HW136203   2.735   0.519   1.131 -1.3485  3.1670  2.4146
 8247SOL    HW236204   2.728   0.376   1.163  0.9454 -0.1618  0.7119
 8248SOL     OW36205   3.374   4.162  16.571 -0.0769 -0.5517 -0.3334
 8248SOL    HW136206   3.289   4.206  16.578  1.5147  2.2509  1.3106
 8248SOL    HW236207   3.391   4.128  16.659  4.6849  1.4072 -0.5115
 8249SOL     OW36208   4.419   4.342   3.802  0.2705  0.1085  0.9406
 8249SOL    HW136209   4.444   4.356   3.710 -0.9358 -1.3364  0.3934
 8249SOL    HW236210   4.365   4.263   3.802  0.3679  0.0232 -0.9570
 8250SOL     OW36211   0.883   1.060   3.581  0.4383 -0.2159  0.1514
 8250SOL    HW136212   0.806   1.116   3.574  2.7273  2.8558 -0.4175
 8250SOL    HW236213   0.862   1.016   3.664  1.9850 -1.3803 -0.0835
 8251SOL     OW36214   1.614   4.146  14.854 -0.0107 -0.1965 -0.6077
 8251SOL    HW136215   1.572   4.062  14.875  1.5393 -0.8699 -0.2112
 8251SOL    HW236216   1.705   4.139  14.882  0.0281 -0.7457 -0.8587
 8252SOL     OW36217   1.771   1.315   4.778  0.9965  0.4558 -0.1621
 8252SOL    HW136218   1.778   1.405   4.745  0.7115  0.6929  0.4327
 8252SOL    HW236219   1.842   1.274   4.728  0.1024 -0.5095 -0.6358
 8253SOL     OW36220   2.676   0.574   8.027  0.1105 -0.0818 -0.8616
 8253SOL    HW136221   2.724   0.650   7.993 -0.1765  0.6229  0.2877
 8253SOL    HW236222   2.642   0.537   7.946  0.7208  1.5062 -1.8392
 8254SOL     OW36223   4.532   2.064   8.895  0.4531 -0.3547 -0.0644
 8254SOL    HW136224   4.550   1.977   8.860  2.9681  0.1201  0.0694
 8254SOL    HW236225   4.449   2.084   8.853  1.2668  1.8084 -0.5949
 8255SOL     OW36226   2.082   1.345   1.054 -0.5153  0.5850 -0.6129
 8255SOL    HW136227   2.103   1.436   1.032 -0.7185  0.7020 -0.3258
 8255SOL    HW236228   2.012   1.350   1.119 -0.6162 -0.1399 -0.6594
 8256SOL     OW36229   0.485   1.681   6.271  0.5742 -0.3357 -0.2967
 8256SOL    HW136230   0.522   1.707   6.187  2.0963 -2.3467 -0.2453
 8256SOL    HW236231   0.397   1.716   6.258 -0.0336 -1.6094  0.3910
 8257SOL     OW36232   3.258   2.021  16.819  0.4987 -0.1827  0.0201
 8257SOL    HW136233   3.217   2.106  16.807  0.5336  0.2331  2.8565
 8257SOL    HW236234   3.238   2.000  16.910  1.6668  1.5432  0.6717
 8258SOL     OW36235   2.687   3.132   1.077  0.8535 -0.3475  0.1097
 8258SOL    HW136236   2.616   3.184   1.116  1.6454 -0.1946  1.3112
 8258SOL    HW236237   2.720   3.206   1.026 -0.1913 -0.6526 -1.0267
 8259SOL     OW36238   2.261   2.166  10.241 -0.5027 -0.3056 -0.4830
 8259SOL    HW136239   2.201   2.094  10.220 -0.2350 -0.2780 -1.3387
 8259SOL    HW236240   2.292   2.180  10.151 -0.0789 -0.0690 -0.2987
 8260SOL     OW36241   0.750   2.422  17.657  0.1113 -0.2136 -0.5196
 8260SOL    HW136242   0.786   2.478   0.057  0.5354 -1.2827  0.1295
 8260SOL    HW236243   0.714   2.485  17.594 -1.5480  1.3918  2.0288
 8261SOL     OW36244   1.614   4.248   6.444  0.1143 -1.1281 -0.1139
 8261SOL    HW136245   1.598   4.297   6.526 -1.1635  2.1909 -2.3376
 8261SOL    HW236246   1.538   4.190   6.447 -2.1104  1.7616  0.5937
 8262SOL     OW36247   0.784   1.127   1.673 -0.0833 -0.4317  0.4174
 8262SOL    HW136248   0.862   1.072   1.661 -0.5326 -0.8485 -0.5483
 8262SOL    HW236249   0.778   1.173   1.590 -2.0909  0.4272  1.0533
 8263SOL     OW36250   1.619   4.483   3.558  1.0799  0.0801 -0.0766
 8263SOL    HW136251   1.563   4.526   3.623  1.7530  1.4125 -0.3747
 8263SOL    HW236252   1.652   4.406   3.605 -0.5895 -1.2258 -1.0394
 8264SOL     OW36253   4.401   3.804   4.936  0.1948 -0.6288  0.8143
 8264SOL    HW136254   4.493   3.829   4.944 -0.1446  0.2239  1.9325
 8264SOL    HW236255   4.382   3.831   4.846  0.7737  0.1977  0.9405
 8265SOL     OW36256   1.462   0.855  12.427 -0.4328 -0.6378  0.1581
 8265SOL    HW136257   1.555   0.840  12.408 -0.1410  1.0610  0.2156
 8265SOL    HW236258   1.479   0.930  12.484  0.3986 -0.2526 -0.5921
 8266SOL     OW36259   1.481   0.175   1.616 -0.0851 -0.0777 -0.3756
 8266SOL    HW136260   1.486   0.145   1.526 -0.5563 -0.2479 -0.3451
 8266SOL    HW236261   1.413   0.115   1.649 -0.5104  1.7117  2.0322
 8267SOL     OW36262   1.842   0.293   8.156  0.1120 -0.2191  0.1891
 8267SOL    HW136263   1.892   0.354   8.211 -0.3165  1.0311 -0.8050
 8267SOL    HW236264   1.825   0.344   8.077 -3.4366 -0.0281  1.0919
 8268SOL     OW36265   0.705   2.675   6.670  0.1876  0.0875 -0.2643
 8268SOL    HW136266   0.765   2.749   6.682  0.3266 -0.0593 -0.0516
 8268SOL    HW236267   0.707   2.630   6.755 -0.9933 -0.3462 -0.4714
 8269SOL     OW36268   2.583   1.599   4.237 -0.2565  0.2988 -0.4895
 8269SOL    HW136269   2.583   1.506   4.260  0.0114  1.3966  3.9249
 8269SOL    HW236270   2.669   1.637   4.258 -1.4756  1.8137  1.6554
 8270SOL     OW36271   3.188   4.032  13.248  0.2651 -0.9301  0.0482
 8270SOL    HW136272   3.199   4.105  13.187  1.7579  0.1118  1.5500
 8270SOL    HW236273   3.094   4.027  13.261  0.4784  1.1175  2.3203
 8271SOL     OW36274   3.701   1.823   9.514  0.2347 -0.4464 -0.2608
 8271SOL    HW136275   3.645   1.817   9.592  0.0388  3.1616 -0.1027
 8271SOL    HW236276   3.770   1.875   9.554  0.0923 -1.1611  0.9222
 8272SOL     OW36277   2.281   4.497   1.044 -0.0928 -0.4279  0.5624
 8272SOL    HW136278   2.334   4.454   1.112 -0.8597 -0.1012  1.3697
 8272SOL    HW236279   2.340   4.558   1.001  1.0741 -2.9765 -1.4519
 8273SOL     OW36280   3.085   2.293   1.916 -0.3015 -0.2052 -0.0817
 8273SOL    HW136281   3.017   2.359   1.923  2.7777  2.8552  1.1526
 8273SOL    HW236282   3.039   2.211   1.897 -0.3834 -0.2880  0.4610
 8274SOL     OW36283   3.244   0.781   4.581 -0.4467 -0.9927 -0.1147
 8274SOL    HW136284   3.188   0.782   4.504  0.7102  1.4435 -0.9273
 8274SOL    HW236285   3.332   0.782   4.544 -0.5746 -0.5656 -0.3925
 8275SOL     OW36286   4.261   3.966   6.315 -0.4624 -0.5499 -0.3654
 8275SOL    HW136287   4.254   4.062   6.321 -2.8804 -0.7533 -0.1208
 8275SOL    HW236288   4.355   3.961   6.296 -0.4073  0.1541 -0.2934
 8276SOL     OW36289   1.100   2.148  11.882  0.0292 -0.3813  0.0663
 8276SOL    HW136290   1.042   2.075  11.902  0.2438  0.1854  2.6972
 8276SOL    HW236291   1.085   2.150  11.787  2.6088 -1.0173 -0.3596
 8277SOL     OW36292   1.703   1.790   4.752  0.7353 -0.7177 -0.4600
 8277SOL    HW136293   1.706   1.875   4.708  0.7791  0.1453  1.2217
 8277SOL    HW236294   1.610   1.768   4.744  0.8438 -2.0239  2.0023
 8278SOL     OW36295   1.738   2.278   5.571  0.0096  0.4130 -0.1611
 8278SOL    HW136296   1.721   2.272   5.477 -0.9386  1.1099 -0.0300
 8278SOL    HW236297   1.828   2.309   5.563 -0.5489  2.2490  0.7390
 8279SOL     OW36298   1.973   3.801   8.224  0.1256  0.1939 -0.1555
 8279SOL    HW136299   2.019   3.870   8.271  0.9424 -0.7345  0.4182
 8279SOL    HW236300   1.982   3.720   8.275 -0.0482 -1.0528 -2.0753
 8280SOL     OW36301   1.930   4.605   3.193 -0.2030  0.1876  0.4724
 8280SOL    HW136302   1.890   4.525   3.227 -1.0796  0.1257 -0.7295
 8280SOL    HW236303   1.903   4.671   3.257 -0.9751  1.4637 -1.1825
 8281SOL     OW36304   3.828   2.130   5.092  0.7952  0.2575 -0.3653
 8281SOL    HW136305   3.786   2.210   5.058 -0.4380 -1.0251 -1.9025
 8281SOL    HW236306   3.891   2.173   5.150 -0.2450  0.9304  0.2656
 8282SOL     OW36307   3.297   1.592   5.242  0.8573  0.4604  0.3973
 8282SOL    HW136308   3.305   1.501   5.270 -0.8501  0.1391 -0.1440
 8282SOL    HW236309   3.338   1.638   5.315  0.6000  0.8006  0.3245
 8283SOL     OW36310   4.699   0.146  15.811 -0.0591  0.0090 -0.0240
 8283SOL    HW136311   4.690   0.240  15.824 -0.8447 -0.0635 -0.1007
 8283SOL    HW236312   0.052   0.146  15.745 -1.2225  0.1378 -1.2199
 8284SOL     OW36313   4.316   2.821   9.068  0.1836 -0.3108  0.0736
 8284SOL    HW136314   4.252   2.814   9.139  1.4315  2.4622  1.4655
 8284SOL    HW236315   4.337   2.728   9.056  0.0961 -0.2855 -0.2702
 8285SOL     OW36316   2.232   4.407   5.527 -0.0668 -0.4182  0.1664
 8285SOL    HW136317   2.297   4.471   5.556  0.7002 -1.0189 -0.2413
 8285SOL    HW236318   2.157   4.466   5.536 -0.1369 -0.2432 -1.6684
 8286SOL     OW36319   2.748   2.718  11.706  0.2328 -0.3552 -0.2162
 8286SOL    HW136320   2.763   2.706  11.613 -0.9499  2.1189 -0.7257
 8286SOL    HW236321   2.836   2.724  11.744 -0.0831 -0.3266  0.5128
 8287SOL     OW36322   4.157   2.928   2.802 -0.3543 -0.4638  0.0833
 8287SOL    HW136323   4.166   2.842   2.760  0.5235  0.4106 -1.5087
 8287SOL    HW236324   4.067   2.950   2.778 -0.6335  1.0633  2.5667
 8288SOL     OW36325   2.702   0.647  12.738 -0.1180  0.3469 -0.4056
 8288SOL    HW136326   2.667   0.627  12.651  0.8866  2.9575 -1.4011
 8288SOL    HW236327   2.792   0.617  12.739 -0.7088 -1.2734  2.9951
 8289SOL     OW36328   4.664   3.771   8.456  0.0312 -0.5338 -0.0277
 8289SOL    HW136329   4.654   3.682   8.490  0.9692 -0.9477 -0.8514
 8289SOL    HW236330   0.041   3.778   8.473  0.1426  1.0890 -1.3679
 8290SOL     OW36331   3.812   0.919   5.346 -0.1018  0.1796  0.3258
 8290SOL    HW136332   3.730   0.889   5.384 -0.3307  0.3563 -0.0243
 8290SOL    HW236333   3.860   0.836   5.345 -0.3359  0.0685 -1.8507
 8291SOL     OW36334   3.730   0.752   6.692  0.6177 -0.7784 -0.1648
 8291SOL    HW136335   3.648   0.702   6.688 -0.1911  0.4923  0.3579
 8291SOL    HW236336   3.722   0.795   6.607 -0.0575  1.0192  0.8096
 8292SOL     OW36337   3.656   1.838   6.186  0.1457 -0.3368 -0.3381
 8292SOL    HW136338   3.743   1.874   6.171  0.1859 -0.1833  0.2681
 8292SOL    HW236339   3.681   1.749   6.160 -0.1936 -0.3848 -0.5065
 8293SOL     OW36340   3.924   0.216   3.907  0.4664 -0.4505  0.1287
 8293SOL    HW136341   3.945   0.197   3.816  0.9466 -0.9705  0.3480
 8293SOL    HW236342   3.841   0.169   3.914 -2.4372  5.0281  2.0386
 8294SOL     OW36343   0.454   2.134  17.368  0.3599 -0.3954 -0.0766
 8294SOL    HW136344   0.399   2.156  17.444  0.9437 -2.6113  0.9850
 8294SOL    HW236345   0.428   2.051  17.329  0.0484 -0.6669  0.7091
 8295SOL     OW36346   2.907   1.328   3.060  0.0085  0.3573 -0.7425
 8295SOL    HW136347   2.945   1.361   3.141 -0.5915 -0.5453 -0.0935
 8295SOL    HW236348   2.878   1.245   3.099 -0.6875  0.9190 -0.0671
 8296SOL     OW36349   3.019   1.533   4.204  0.0006 -0.3376  0.1466
 8296SOL    HW136350   3.087   1.600   4.209 -0.7511  0.3336  1.7065
 8296SOL    HW236351   3.011   1.520   4.110 -0.8080  0.2866  0.1229
 8297SOL     OW36352   4.191   1.144   6.086  0.4504 -0.3817  0.1184
 8297SOL    HW136353   4.269   1.197   6.104  1.0626 -1.8640  1.8346
 8297SOL    HW236354   4.217   1.053   6.099  1.5403  0.1843  1.8987
 8298SOL     OW36355   1.356   0.364  14.943  0.1057  0.1176 -0.2146
 8298SOL    HW136356   1.309   0.281  14.929  0.8929 -0.2259 -0.8732
 8298SOL    HW236357   1.285   0.420  14.973  0.9642  1.1064 -0.0476
 8299SOL     OW36358   0.725   1.383  11.906 -0.5812 -0.3107  0.0260
 8299SOL    HW136359   0.812   1.423  11.901 -0.6808 -0.0986 -0.0169
 8299SOL    HW236360   0.754   1.306  11.857  0.8260 -0.7426  1.5597
 8300SOL     OW36361   4.659   4.279   8.670 -0.3330  0.0176  0.5780
 8300SOL    HW136362   4.697   4.292   8.757 -3.2975  0.8746  1.7452
 8300SOL    HW236363   0.002   4.207   8.649  0.7532  0.8783  0.6719
 8301SOL     OW36364   3.734   0.309   4.519 -0.7575  0.1143  0.2219
 8301SOL    HW136365   3.659   0.353   4.559  0.5021  2.1649  0.3215
 8301SOL    HW236366   3.740   0.360   4.438 -2.7740  0.0571  0.0422
 8302SOL     OW36367   2.189   2.552   9.522  0.3334  0.1847  0.2644
 8302SOL    HW136368   2.166   2.581   9.434 -3.5665 -0.1582  1.1853
 8302SOL    HW236369   2.234   2.471   9.497 -1.2368 -0.3797 -0.7739
 8303SOL     OW36370   2.406   0.880  10.135 -0.0917  0.0415  0.3713
 8303SOL    HW136371   2.343   0.878  10.207  0.1836 -3.2723  0.5142
 8303SOL    HW236372   2.413   0.786  10.123 -0.6796 -0.0814  1.0328
 8304SOL     OW36373   1.948   3.684   9.808  0.0870 -0.2369 -0.5475
 8304SOL    HW136374   1.916   3.754   9.751 -0.3319 -0.9837 -1.2307
 8304SOL    HW236375   1.976   3.730   9.887  0.9967 -0.3557 -0.7966
 8305SOL     OW36376   1.177   0.171   7.857  0.0178 -0.2220  0.5050
 8305SOL    HW136377   1.145   0.253   7.895  0.7734  1.0401 -1.5564
 8305SOL    HW236378   1.133   0.101   7.906  3.1154 -4.0549 -2.1602
 8306SOL     OW36379   0.697   3.222  11.103 -0.1949 -0.3293 -0.4522
 8306SOL    HW136380   0.763   3.155  11.119 -1.1610 -1.1195  0.2040
 8306SOL    HW236381   0.713   3.277  11.179 -0.8094 -0.0399 -0.5241
 8307SOL     OW36382   2.608   3.659   5.195 -0.2318 -0.4017  0.1612
 8307SOL    HW136383   2.601   3.750   5.225  0.3653 -0.9370  1.9252
 8307SOL    HW236384   2.597   3.668   5.101  3.2187 -0.6893 -0.2787
 8308SOL     OW36385   4.310   3.305  12.833  0.6214  0.0798 -0.2544
 8308SOL    HW136386   4.377   3.255  12.787  1.1270  1.6206 -1.1793
 8308SOL    HW236387   4.359   3.330  12.912 -2.5519 -1.3027  2.1637
 8309SOL     OW36388   2.200   3.792   5.837  0.0338 -0.5957  0.0805
 8309SOL    HW136389   2.183   3.843   5.916  1.2274 -0.4561  0.2512
 8309SOL    HW236390   2.218   3.703   5.868  2.6351  0.1593  0.7272
 8310SOL     OW36391   1.096   1.605   7.602  0.5373  0.3578 -0.3044
 8310SOL    HW136392   1.004   1.615   7.578  0.3739  2.7143  1.2711
 8310SOL    HW236393   1.126   1.552   7.528  2.3215  1.0682 -0.0712
 8311SOL     OW36394   1.388   0.369   7.775 -0.2515 -0.1239  0.8677
 8311SOL    HW136395   1.441   0.350   7.852  1.2304  1.2877  0.1983
 8311SOL    HW236396   1.306   0.323   7.794 -2.1451  1.9573 -2.1382
 8312SOL     OW36397   2.326   4.273   2.024 -0.4502 -0.1343 -0.3066
 8312SOL    HW136398   2.304   4.194   1.975  0.8867 -0.6066 -0.1633
 8312SOL    HW236399   2.302   4.340   1.959  0.9741 -1.4452 -2.1946
 8313SOL     OW36400   3.863   0.892   0.026  0.4780  0.1180 -0.1767
 8313SOL    HW136401   3.864   0.893  17.600  3.3686  1.3431 -0.1262
 8313SOL    HW236402   3.777   0.929   0.046  0.3388 -0.3123  0.0180
 8314SOL     OW36403   1.875   3.983   7.275  0.1267 -0.5397 -0.4847
 8314SOL    HW136404   1.969   3.980   7.292 -0.1689 -1.3328  0.9831
 8314SOL    HW236405   1.869   3.930   7.195  0.0872  1.3747 -1.7571
 8315SOL     OW36406   2.037   4.169   2.412  0.3922 -0.3282 -0.0846
 8315SOL    HW136407   2.080   4.165   2.497 -0.6701 -1.9996  0.3541
 8315SOL    HW236408   2.113   4.180   2.354  0.2109 -1.8771 -0.5990
 8316SOL     OW36409   2.738   2.528   5.533  0.2947 -0.5351  0.4156
 8316SOL    HW136410   2.751   2.527   5.438 -0.9078 -0.0884  0.2410
 8316SOL    HW236411   2.672   2.597   5.546  0.5189 -0.7981  2.8845
 8317SOL     OW36412   2.039   3.601   4.851  0.2999 -0.0147 -0.5154
 8317SOL    HW136413   2.093   3.551   4.913 -1.4542 -2.5842 -1.0838
 8317SOL    HW236414   1.986   3.532   4.812 -1.7035  0.9355  0.5613
 8318SOL     OW36415   2.802   1.338  11.819  0.1296  0.1839  0.2741
 8318SOL    HW136416   2.849   1.337  11.736 -2.1802  1.5271 -1.0735
 8318SOL    HW236417   2.821   1.427  11.849 -0.0260  0.7944 -1.4283
 8319SOL     OW36418   3.432   1.697   5.480  0.2357  0.7581 -0.2403
 8319SOL    HW136419   3.511   1.655   5.512 -0.8539 -0.5430  0.7485
 8319SOL    HW236420   3.377   1.698   5.558  0.9180 -0.4641  0.2523
 8320SOL     OW36421   3.737   4.224   6.287 -0.4501  0.2594 -0.1790
 8320SOL    HW136422   3.709   4.135   6.265 -0.1485  0.5384 -1.6923
 8320SOL    HW236423   3.797   4.251   6.218  0.7506 -1.5443  0.1658
 8321SOL     OW36424   4.234   1.354  16.372  0.5750  0.4646 -0.0444
 8321SOL    HW136425   4.191   1.437  16.352  0.7562  0.4077 -0.6725
 8321SOL    HW236426   4.219   1.303  16.293 -0.0943  0.9827 -0.2482
 8322SOL     OW36427   1.117   1.454   7.305  0.2378 -0.2453 -0.3111
 8322SOL    HW136428   1.077   1.386   7.361  1.0951 -0.6662 -0.2173
 8322SOL    HW236429   1.191   1.403   7.273  0.8405  1.4532 -1.6044
 8323SOL     OW36430   1.647   2.464   9.019  0.0551  0.2715 -0.5551
 8323SOL    HW136431   1.662   2.471   9.113 -0.5866  0.1583 -0.4452
 8323SOL    HW236432   1.739   2.468   8.992 -0.1024  0.0681 -1.1212
 8324SOL     OW36433   1.829   1.318   3.486  0.3882  0.0067 -0.0270
 8324SOL    HW136434   1.897   1.254   3.508 -0.6687 -1.1835 -0.1916
 8324SOL    HW236435   1.778   1.256   3.434  0.1274 -0.3162  0.6162
 8325SOL     OW36436   4.152   3.100   0.715  0.1158 -0.1165 -0.4253
 8325SOL    HW136437   4.069   3.130   0.678  1.4518 -1.0103 -4.1760
 8325SOL    HW236438   4.194   3.186   0.728  2.2102 -1.7314  3.6755
 8326SOL     OW36439   1.522   1.365   5.238 -0.5126 -0.2138 -0.2209
 8326SOL    HW136440   1.603   1.321   5.265  0.9966  2.5176 -0.2830
 8326SOL    HW236441   1.451   1.322   5.286 -1.4139 -0.6665 -1.9540
 8327SOL     OW36442   2.386   3.943   3.720  0.3312  0.0014  0.4788
 8327SOL    HW136443   2.313   3.918   3.776 -2.3312  3.1102 -1.5972
 8327SOL    HW236444   2.419   3.857   3.694 -2.6510 -0.8071 -0.5949
 8328SOL     OW36445   0.225   2.790   8.202 -0.4524  0.3343  0.5227
 8328SOL    HW136446   0.145   2.760   8.159 -0.3994  0.7521  0.1413
 8328SOL    HW236447   0.283   2.801   8.127 -1.8495 -1.5787 -0.8258
 8329SOL     OW36448   0.117   3.988  13.779  1.0493 -0.4943  0.2731
 8329SOL    HW136449   0.197   3.986  13.727  2.3769 -1.2471  2.3372
 8329SOL    HW236450   0.119   3.900  13.816  2.3000  0.1041  1.5898
 8330SOL     OW36451   4.284   3.330   2.398  0.1553  0.0505 -0.1461
 8330SOL    HW136452   4.368   3.302   2.435  0.5290  1.7637  0.2753
 8330SOL    HW236453   4.295   3.423   2.382 -2.6651  0.3780 -0.2796
 8331SOL     OW36454   0.065   1.220   5.572  0.1704  0.5792 -0.0307
 8331SOL    HW136455   0.154   1.253   5.588  1.5159 -2.0379 -2.1451
 8331SOL    HW236456   0.008   1.287   5.611  0.0862  2.1479 -2.8347
 8332SOL     OW36457   4.278   2.546   9.247  0.1292 -0.2050  0.6991
 8332SOL    HW136458   4.329   2.557   9.166  0.1864  0.1613  0.7855
 8332SOL    HW236459   4.314   2.467   9.287  1.1367 -0.3179 -0.4109
 8333SOL     OW36460   0.731   0.997   6.510 -0.1420  0.7508 -0.8300
 8333SOL    HW136461   0.817   1.038   6.522  0.8938 -1.5670 -0.2316
 8333SOL    HW236462   0.678   1.054   6.564  2.3410  0.1157  2.2540
 8334SOL     OW36463   1.292   0.619   2.915 -0.5826  0.2718  0.4975
 8334SOL    HW136464   1.301   0.649   2.824  0.9125 -0.8379  0.2942
 8334SOL    HW236465   1.253   0.533   2.900 -0.9614  0.7906 -1.5699
 8335SOL     OW36466   1.108   0.865   6.434  0.0354 -0.0100 -0.0954
 8335SOL    HW136467   1.088   0.803   6.363  1.8316 -0.1665 -0.4615
 8335SOL    HW236468   1.038   0.925   6.411  1.2611  0.0729 -3.5691
 8336SOL     OW36469   1.446   0.972   6.332 -0.6476 -0.3013 -0.2760
 8336SOL    HW136470   1.391   0.957   6.409 -2.2588  1.0570 -1.1548
 8336SOL    HW236471   1.389   0.950   6.258  1.7058 -1.1169 -1.8221
 8337SOL     OW36472   4.273   0.878   3.283  0.1954  0.3460  0.0404
 8337SOL    HW136473   4.343   0.896   3.220 -0.8019 -1.4873 -1.6168
 8337SOL    HW236474   4.309   0.800   3.326  1.9738  1.3630  0.3905
 8338SOL     OW36475   4.487   3.583   8.770 -0.4094  0.0475 -0.4976
 8338SOL    HW136476   4.539   3.644   8.821 -0.7341  0.4477 -0.6427
 8338SOL    HW236477   4.404   3.578   8.818 -0.7580  2.2540 -0.8561
 8339SOL     OW36478   3.263   3.676   0.619 -0.0938  0.0807 -0.1648
 8339SOL    HW136479   3.349   3.665   0.578 -0.2904 -0.1795 -0.5084
 8339SOL    HW236480   3.222   3.592   0.595 -2.1698  1.1554 -0.3794
 8340SOL     OW36481   3.388   0.795   2.294  0.4928  0.2151  0.1491
 8340SOL    HW136482   3.465   0.832   2.338  0.6200  1.2071 -0.9093
 8340SOL    HW236483   3.419   0.706   2.279 -1.6084 -0.4581 -0.1841
 8341SOL     OW36484   3.698   0.596   0.003 -0.0225  0.6442 -0.1921
 8341SOL    HW136485   3.779   0.616  17.625 -0.0583 -1.3505 -1.0904
 8341SOL    HW236486   3.721   0.563   0.089  1.8216  1.5393 -0.3224
 8342SOL     OW36487   1.622   3.718   6.101 -0.3611 -0.1268  0.0025
 8342SOL    HW136488   1.569   3.658   6.153 -0.0150 -2.1050 -1.9110
 8342SOL    HW236489   1.706   3.715   6.147 -0.7467 -0.2748  0.6965
 8343SOL     OW36490   0.466   3.259   4.666 -0.1735  0.2499  0.4749
 8343SOL    HW136491   0.510   3.180   4.696  1.0549 -0.4371 -3.0725
 8343SOL    HW236492   0.475   3.256   4.571 -2.7578 -2.1295  0.3108
 8344SOL     OW36493   1.563   4.482   7.779  0.4836  0.1016 -0.0151
 8344SOL    HW136494   1.626   4.434   7.726  1.9600  0.9724  0.9361
 8344SOL    HW236495   1.477   4.473   7.738  0.4596  0.8652 -0.1304
 8345SOL     OW36496   1.942   0.297  13.869  0.1263 -0.6607 -0.4264
 8345SOL    HW136497   1.993   0.255  13.800  0.5075 -1.2884  0.2480
 8345SOL    HW236498   1.977   0.254  13.946  0.5030 -1.6525 -1.1478
 8346SOL     OW36499   3.488   0.440  10.996  0.5535  0.2415 -0.0176
 8346SOL    HW136500   3.550   0.512  10.988 -0.6204  1.3347  0.6272
 8346SOL    HW236501   3.550   0.367  10.987  0.2812 -0.2698  2.2975
 8347SOL     OW36502   2.290   2.368   7.237  0.3188 -0.3672 -0.0611
 8347SOL    HW136503   2.278   2.445   7.293 -1.7944 -0.9645  0.3020
 8347SOL    HW236504   2.372   2.387   7.190  1.1134 -3.2400  0.1230
 8348SOL     OW36505   1.404   2.295   0.288  0.0478  0.1549 -0.5933
 8348SOL    HW136506   1.322   2.282   0.336  1.3417 -0.0461  1.5410
 8348SOL    HW236507   1.407   2.390   0.273  0.9868 -0.0087 -1.4427
 8349SOL     OW36508   1.817   3.696   3.436  0.1925  0.2133  0.4935
 8349SOL    HW136509   1.807   3.750   3.358  0.5335  2.0296  1.6804
 8349SOL    HW236510   1.729   3.710   3.472  0.4282 -1.5466  1.7578
 8350SOL     OW36511   3.693   1.398   2.497 -0.0210  0.2331 -0.2972
 8350SOL    HW136512   3.745   1.317   2.503 -0.9443 -0.3736 -0.4603
 8350SOL    HW236513   3.726   1.434   2.415  2.9372 -1.8199 -0.0270
 8351SOL     OW36514   3.128   4.394   3.996 -0.2722 -1.2881  0.3893
 8351SOL    HW136515   3.222   4.380   4.006  0.5153  0.9808 -3.5437
 8351SOL    HW236516   3.119   4.410   3.902  1.8622  1.5534  0.6852
 8352SOL     OW36517   0.836   1.725  10.469 -0.4450  0.0251  0.0351
 8352SOL    HW136518   0.892   1.736  10.393 -1.7033  2.7369 -0.4900
 8352SOL    HW236519   0.836   1.813  10.507  0.2682  0.0622 -0.0554
 8353SOL     OW36520   1.765   4.445  15.727 -0.1656 -0.3259 -0.1052
 8353SOL    HW136521   1.743   4.353  15.712  0.5322 -0.6922  1.1031
 8353SOL    HW236522   1.684   4.484  15.694 -0.7035 -0.0066  1.5860
 8354SOL     OW36523   1.182   2.432   5.973  0.6042  0.1516 -0.2785
 8354SOL    HW136524   1.237   2.378   5.917 -1.4817 -1.2525 -0.9423
 8354SOL    HW236525   1.134   2.484   5.909  0.9001  0.1161 -0.5271
 8355SOL     OW36526   0.238   1.752   4.739  0.1841  0.3376  0.4603
 8355SOL    HW136527   0.174   1.701   4.689  1.6471 -0.7392 -0.3114
 8355SOL    HW236528   0.308   1.786   4.683  0.0494 -1.1252 -0.5974
 8356SOL     OW36529   2.696   4.300   3.059 -0.2865  0.0501  0.1503
 8356SOL    HW136530   2.605   4.329   3.051 -0.3359 -0.1753 -0.1299
 8356SOL    HW236531   2.727   4.378   3.105  0.3182  0.7807 -1.5107
 8357SOL     OW36532   3.753   1.526   9.565  0.4469 -0.7428  0.0722
 8357SOL    HW136533   3.781   1.555   9.652 -1.5893 -0.1165  0.5184
 8357SOL    HW236534   3.824   1.562   9.512  1.2879  2.6472  3.4635
 8358SOL     OW36535   1.886   3.934   1.983 -0.8289 -0.1385  0.2018
 8358SOL    HW136536   1.920   4.016   1.947  1.5572 -2.4365 -2.8672
 8358SOL    HW236537   1.799   3.960   2.010 -1.1914 -2.2654  1.1005
 8359SOL     OW36538   0.834   1.888   6.709  0.0098 -0.3444 -0.4113
 8359SOL    HW136539   0.820   1.858   6.799 -3.0783  1.8518 -0.1245
 8359SOL    HW236540   0.900   1.831   6.672  0.8410  1.3909 -1.6065
 8360SOL     OW36541   2.087   1.226   5.787  0.1672 -0.0594  0.0618
 8360SOL    HW136542   2.067   1.308   5.832 -0.8085  0.7190 -1.8463
 8360SOL    HW236543   2.001   1.185   5.796  0.6361 -1.2769 -1.1309
 8361SOL     OW36544   3.766   0.154   6.980 -0.4039 -0.5259  0.0104
 8361SOL    HW136545   3.773   0.090   6.910 -1.4593 -1.5152  0.8104
 8361SOL    HW236546   3.708   0.216   6.937  1.3312 -0.0394 -1.6126
 8362SOL     OW36547   2.952   3.180  11.331 -0.0694 -0.3587 -0.3652
 8362SOL    HW136548   3.010   3.150  11.262  0.7475  0.4053 -0.0217
 8362SOL    HW236549   2.998   3.257  11.367 -0.3808 -0.6591  0.6758
 8363SOL     OW36550   2.402   2.872   0.470 -0.3532 -0.1402 -1.0320
 8363SOL    HW136551   2.463   2.826   0.413 -0.6795 -1.0307 -0.6776
 8363SOL    HW236552   2.432   2.843   0.556 -1.8616  1.3400 -0.0069
 8364SOL     OW36553   3.563   0.695   5.178 -0.3884 -0.5231  0.0542
 8364SOL    HW136554   3.489   0.635   5.172 -1.1207  0.5940 -1.9422
 8364SOL    HW236555   3.529   0.750   5.248  0.1217 -0.5116  0.2987
 8365SOL     OW36556   4.200   0.526   7.042  0.4354  0.3613  0.2459
 8365SOL    HW136557   4.150   0.445   7.028 -0.6083  1.0549 -0.0468
 8365SOL    HW236558   4.192   0.522   7.137  1.7887  0.5536  0.3576
 8366SOL     OW36559   1.978   2.700   1.422 -0.3616  0.2263 -0.3589
 8366SOL    HW136560   1.886   2.717   1.441 -0.7645  0.1905 -2.3753
 8366SOL    HW236561   1.987   2.610   1.390  0.6257 -0.7849  2.6831
 8367SOL     OW36562   3.619   1.118   2.679  0.4953 -0.1600  0.1494
 8367SOL    HW136563   3.609   1.213   2.685 -0.6472 -0.3769  1.7928
 8367SOL    HW236564   3.581   1.092   2.763 -2.8477  0.6607 -1.1259
 8368SOL     OW36565   1.465   2.807   1.969  0.2445 -0.1018  0.4080
 8368SOL    HW136566   1.500   2.890   1.937 -0.3554 -0.5779 -1.4928
 8368SOL    HW236567   1.517   2.794   2.048  0.1485 -1.6907  0.2192
 8369SOL     OW36568   3.511   3.947  12.463 -0.1145 -0.2270  0.0359
 8369SOL    HW136569   3.536   3.862  12.426 -2.2258 -0.1237 -1.6222
 8369SOL    HW236570   3.487   3.993  12.383 -2.3750  0.5714  1.1596
 8370SOL     OW36571   2.454   3.178   2.393 -0.1058  0.3697 -0.0254
 8370SOL    HW136572   2.502   3.252   2.357 -0.6915  0.3311 -0.8706
 8370SOL    HW236573   2.436   3.126   2.315  0.3552 -2.4498  1.7254
 8371SOL     OW36574   1.906   2.625   5.524  0.6080 -0.2240 -0.5553
 8371SOL    HW136575   1.906   2.604   5.618  0.3517  1.2736 -0.2127
 8371SOL    HW236576   1.936   2.542   5.487  0.5334 -0.2379 -0.5847
 8372SOL     OW36577   1.032   2.240  15.708 -0.0290  0.3991 -0.0156
 8372SOL    HW136578   1.105   2.221  15.648 -0.6903 -1.8269 -0.1270
 8372SOL    HW236579   1.065   2.302  15.773  2.4338 -0.4894 -0.4156
 8373SOL     OW36580   3.665   2.705   5.181  0.3408  0.4545  0.4613
 8373SOL    HW136581   3.675   2.622   5.227 -1.6273  0.8493  1.5859
 8373SOL    HW236582   3.653   2.752   5.264  0.8105 -0.3090  0.9643
 8374SOL     OW36583   2.802   1.539  15.274  0.0862  0.3106  0.5452
 8374SOL    HW136584   2.813   1.602  15.345 -0.0747 -0.6061  1.3776
 8374SOL    HW236585   2.821   1.595  15.198 -0.3686  0.3866  0.4864
 8375SOL     OW36586   3.515   1.131   8.768 -0.1900  0.3773 -0.3457
 8375SOL    HW136587   3.422   1.112   8.756 -0.2891  0.7061 -0.0983
 8375SOL    HW236588   3.505   1.147   8.862  1.0294 -0.2636 -0.1129
 8376SOL     OW36589   0.759   1.805   5.175  0.0667  0.1849 -0.8105
 8376SOL    HW136590   0.738   1.836   5.264  1.4172 -0.3331 -0.3190
 8376SOL    HW236591   0.672   1.813   5.135 -0.1879 -0.5517 -0.4013
 8377SOL     OW36592   0.521   3.326   6.674  0.3642 -0.3087 -0.0434
 8377SOL    HW136593   0.480   3.267   6.610  1.7528 -1.4722  0.1531
 8377SOL    HW236594   0.455   3.381   6.716  1.2834  0.3225  0.5868
 8378SOL     OW36595   0.192   1.771   0.773 -0.1050 -0.2188  0.3477
 8378SOL    HW136596   0.121   1.820   0.732 -0.5733 -1.0308  0.1818
 8378SOL    HW236597   0.270   1.799   0.726  0.3686  0.1901  1.3785
 8379SOL     OW36598   0.219   2.079   2.347  0.0092  0.5630  0.2246
 8379SOL    HW136599   0.144   2.054   2.293 -0.1991 -0.7765  1.1297
 8379SOL    HW236600   0.278   2.114   2.281 -1.7329 -0.3368 -1.7858
 8380SOL     OW36601   3.710   0.338   5.085 -0.3728 -0.2269  0.6808
 8380SOL    HW136602   3.689   0.288   5.164  1.9835 -2.5962 -0.2007
 8380SOL    HW236603   3.800   0.369   5.096 -0.3387 -0.3614  0.7746
 8381SOL     OW36604   3.898   4.487  14.091 -0.5971  0.1592  0.9687
 8381SOL    HW136605   3.983   4.497  14.047 -2.2296 -1.4479 -2.5786
 8381SOL    HW236606   3.916   4.542  14.167  2.6172  0.1744  0.2132
 8382SOL     OW36607   1.451   3.975   1.976  0.4523  0.2684 -0.1502
 8382SOL    HW136608   1.396   3.940   1.905  1.6807 -0.0414 -0.9504
 8382SOL    HW236609   1.414   3.942   2.058  0.0524 -1.1288 -0.8899
 8383SOL     OW36610   0.514   0.726  12.983 -0.6700 -0.0554  0.4195
 8383SOL    HW136611   0.463   0.715  13.063  0.9268 -1.3932  1.2445
 8383SOL    HW236612   0.446   0.715  12.917 -0.1606 -1.2724  0.0857
 8384SOL     OW36613   4.592   2.082   4.038 -0.0820 -0.4068 -0.7337
 8384SOL    HW136614   4.642   2.061   4.117 -1.3597  1.7042  0.6146
 8384SOL    HW236615   4.616   2.004   3.988  0.0246 -0.3340 -0.7979
 8385SOL     OW36616   3.672   1.183   7.632 -0.1665  0.7562  0.1771
 8385SOL    HW136617   3.582   1.208   7.655 -1.0088 -0.3347 -1.9341
 8385SOL    HW236618   3.688   1.214   7.543  1.8402 -0.5670  0.0927
 8386SOL     OW36619   0.675   0.539   3.186 -0.6193  0.4869  0.1507
 8386SOL    HW136620   0.746   0.538   3.250  0.5804  1.2547 -1.1659
 8386SOL    HW236621   0.665   0.634   3.184 -1.7256  0.3608 -0.2677
 8387SOL     OW36622   2.426   3.550   0.263 -0.0374  0.6073  0.2257
 8387SOL    HW136623   2.370   3.475   0.282  0.7941 -0.5930 -1.9033
 8387SOL    HW236624   2.504   3.529   0.314  0.5130  1.8150 -0.1304
 8388SOL     OW36625   2.107   2.498   1.625 -0.1928  0.1001 -0.0566
 8388SOL    HW136626   2.021   2.497   1.582 -0.1122 -1.2137 -0.1843
 8388SOL    HW236627   2.152   2.566   1.574  1.6747 -2.4355 -1.8035
 8389SOL     OW36628   2.682   1.136  13.369  0.1846  0.0367 -0.3129
 8389SOL    HW136629   2.751   1.070  13.379  0.7237  0.6161 -0.2088
 8389SOL    HW236630   2.617   1.087  13.420 -0.8085  0.8363 -0.8162
 8390SOL     OW36631   3.648   0.855  15.253 -0.0312 -0.2550  0.1373
 8390SOL    HW136632   3.675   0.946  15.252 -0.1211 -0.2086  1.5664
 8390SOL    HW236633   3.731   0.811  15.236  0.1781  0.1103  0.2188
 8391SOL     OW36634   0.717   0.917   8.051  0.6910  0.1333  0.2246
 8391SOL    HW136635   0.759   0.921   8.137 -1.8827 -2.5534  1.6136
 8391SOL    HW236636   0.640   0.866   8.074 -0.4161  1.2171 -1.1057
 8392SOL     OW36637   1.471   2.054   5.592 -0.0528 -0.1356  0.1804
 8392SOL    HW136638   1.395   2.101   5.558  1.3492  1.1187 -1.2103
 8392SOL    HW236639   1.501   2.121   5.654 -2.5199  0.9088  0.2424
 8393SOL     OW36640   2.162   0.407  14.113  0.0932  0.4516 -0.4946
 8393SOL    HW136641   2.244   0.411  14.162  0.0597 -0.8769 -0.3329
 8393SOL    HW236642   2.142   0.314  14.117 -1.4914  0.8120  0.1323
 8394SOL     OW36643   4.161   2.930   2.101 -0.0009  0.4573 -0.1489
 8394SOL    HW136644   4.196   2.953   2.187 -0.8558 -0.4482  0.4489
 8394SOL    HW236645   4.123   2.843   2.116  0.3048  0.5612  1.2858
 8395SOL     OW36646   3.758   2.390   4.975  0.4860  0.4064  0.1763
 8395SOL    HW136647   3.814   2.423   4.904  0.3701 -1.0992 -0.6274
 8395SOL    HW236648   3.722   2.312   4.932 -1.1888  0.5279  1.3735
 8396SOL     OW36649   2.588   1.599   7.539  0.2656 -0.0472 -0.1741
 8396SOL    HW136650   2.507   1.588   7.489  0.2636 -1.3052  0.1286
 8396SOL    HW236651   2.553   1.556   7.617 -2.5294  1.1090 -0.7785
 8397SOL     OW36652   0.302   1.776   2.227 -0.6261  0.5107  0.3934
 8397SOL    HW136653   0.301   1.784   2.322  0.4424 -2.4787  0.6540
 8397SOL    HW236654   0.322   1.867   2.205 -0.8735  0.6445  0.7179
 8398SOL     OW36655   2.088   2.635   3.626 -0.5865 -0.6263  0.9227
 8398SOL    HW136656   2.065   2.559   3.679 -1.4467 -1.0533 -0.0673
 8398SOL    HW236657   2.014   2.695   3.636  0.0229  0.4364 -0.8997
 8399SOL     OW36658   4.155   1.194  10.635  0.8194  0.0496 -1.0511
 8399SOL    HW136659   4.152   1.238  10.720  0.9203 -1.4301 -0.2962
 8399SOL    HW236660   4.229   1.135  10.650  1.1452  0.5405 -0.7355
 8400SOL     OW36661   3.348   1.762   4.077 -1.0368  0.0658  0.4613
 8400SOL    HW136662   3.388   1.683   4.111  1.9503  1.0091 -0.8424
 8400SOL    HW236663   3.319   1.735   3.990 -1.9304 -1.2981  1.1836
 8401SOL     OW36664   2.078   0.761   8.713 -0.3759  0.4055 -0.3132
 8401SOL    HW136665   1.994   0.784   8.752 -0.7705 -2.2994  0.4667
 8401SOL    HW236666   2.096   0.672   8.745  0.9722  0.8827  0.2522
 8402SOL     OW36667   0.209   1.668   8.205 -0.3875  0.3383 -0.5285
 8402SOL    HW136668   0.262   1.691   8.129 -0.2502 -0.6081 -0.7151
 8402SOL    HW236669   0.167   1.586   8.181 -1.0164 -0.4112  3.1139
 8403SOL     OW36670   1.599   0.612  13.249  0.1060  0.2636  0.1539
 8403SOL    HW136671   1.690   0.637  13.236  0.3759 -2.1830 -2.5549
 8403SOL    HW236672   1.583   0.553  13.175  1.2361  0.9586 -0.6330
 8404SOL     OW36673   2.806   1.445   8.197 -0.1161  0.3625  0.4466
 8404SOL    HW136674   2.739   1.387   8.235  0.3787  0.0014  0.7761
 8404SOL    HW236675   2.861   1.465   8.273 -0.6613 -1.0605  1.2350
 8405SOL     OW36676   2.731   3.277   4.298  0.3253 -0.1945  0.2099
 8405SOL    HW136677   2.645   3.318   4.311  0.6077  0.7911 -0.9699
 8405SOL    HW236678   2.741   3.296   4.205  0.0408 -0.5481  0.1068
 8406SOL     OW36679   2.529   0.040   4.274  0.0274 -0.6305 -0.5308
 8406SOL    HW136680   2.467   0.078   4.336  1.0867  1.0316 -0.5034
 8406SOL    HW236681   2.477   4.678   4.255 -0.3242 -0.5943  0.2750
 8407SOL     OW36682   2.796   2.268  16.322 -0.2899 -0.1212  0.0316
 8407SOL    HW136683   2.728   2.304  16.378 -1.8620  0.9844 -2.5745
 8407SOL    HW236684   2.743   2.209  16.269 -1.2719 -0.0383  0.9137
 8408SOL     OW36685   0.170   0.123  15.623  0.3389 -0.6936 -0.1885
 8408SOL    HW136686   0.114   0.075  15.562  0.5090 -1.2222  0.0692
 8408SOL    HW236687   0.254   0.143  15.581 -1.8702  2.4105 -3.0569
 8409SOL     OW36688   2.847   1.803   5.450  0.3438  0.1761 -0.3360
 8409SOL    HW136689   2.900   1.729   5.421  0.0197 -0.7888  1.5676
 8409SOL    HW236690   2.898   1.874   5.411  0.3589 -0.1177 -0.8523
 8410SOL     OW36691   3.696   1.615   4.951  0.1045 -0.4284  0.1356
 8410SOL    HW136692   3.705   1.697   5.000  1.4142 -0.5365  0.0829
 8410SOL    HW236693   3.711   1.550   5.020 -3.2076 -1.8914 -0.4943
 8411SOL     OW36694   4.124   4.583   5.654  0.3194  0.0933  0.2415
 8411SOL    HW136695   4.096   4.541   5.572  1.2688  1.6816 -0.9016
 8411SOL    HW236696   4.219   4.581   5.651  0.1765 -1.2979 -3.2581
 8412SOL     OW36697   4.117   0.851   7.780 -0.3762 -0.1080 -0.4220
 8412SOL    HW136698   4.124   0.888   7.869 -2.5130 -0.6131 -0.0550
 8412SOL    HW236699   4.028   0.873   7.752 -0.1814  0.8107 -0.3398
 8413SOL     OW36700   2.560   2.801   9.870  0.3715 -0.1686  0.4940
 8413SOL    HW136701   2.539   2.720   9.825 -0.3854 -0.2165  0.9355
 8413SOL    HW236702   2.610   2.844   9.800 -0.6448  2.2792  1.2529
 8414SOL     OW36703   3.101   1.790  11.363 -0.2184  0.4677 -0.1097
 8414SOL    HW136704   3.154   1.843  11.423 -0.0662 -1.5931  1.5657
 8414SOL    HW236705   3.032   1.758  11.421 -0.6337 -0.4231 -1.1242
 8415SOL     OW36706   4.598   0.934  15.276 -0.2417  0.4650  0.3650
 8415SOL    HW136707   4.557   0.855  15.310 -0.0993 -0.9978 -2.8499
 8415SOL    HW236708   4.597   0.917  15.182  2.5138 -0.2586  0.4725
 8416SOL     OW36709   3.925   1.940  13.522 -0.3872  0.3400  0.0563
 8416SOL    HW136710   3.844   1.972  13.562  0.6704  2.3134  0.6281
 8416SOL    HW236711   3.907   1.910  13.433  2.2212  0.2210 -0.4358
 8417SOL     OW36712   0.273   0.391   2.580  0.0631 -0.6123 -0.6798
 8417SOL    HW136713   0.188   0.424   2.607 -0.2551 -0.2443 -2.1362
 8417SOL    HW236714   0.249   0.343   2.501 -0.2136 -2.0716  0.3042
 8418SOL     OW36715   4.469   2.693   7.691 -0.3571 -0.1911  0.1831
 8418SOL    HW136716   4.376   2.676   7.674  0.2880 -2.2809 -1.2952
 8418SOL    HW236717   4.483   2.735   7.606  0.1463 -0.9387 -0.1049
 8419SOL     OW36718   1.188   3.524   7.393  0.0741  0.2494  0.2317
 8419SOL    HW136719   1.108   3.524   7.447  0.7300  0.2922  1.1998
 8419SOL    HW236720   1.216   3.435   7.415  0.4397 -0.0645 -1.5224
 8420SOL     OW36721   3.943   2.329   5.941  0.2375  0.6226 -0.1787
 8420SOL    HW136722   3.935   2.424   5.941  0.8083  0.6713  0.4421
 8420SOL    HW236723   3.982   2.307   6.025  0.8707 -1.9388 -1.1356
 8421SOL     OW36724   3.831   2.186   2.592  0.7417 -0.0525  0.2315
 8421SOL    HW136725   3.840   2.163   2.500  0.8683 -1.2179  0.5399
 8421SOL    HW236726   3.919   2.168   2.626  0.4853  2.2173  2.1594
 8422SOL     OW36727   4.321   1.122   0.981 -0.3540  0.5121 -0.7947
 8422SOL    HW136728   4.388   1.178   0.942  0.4436 -0.2206 -0.4815
 8422SOL    HW236729   4.247   1.100   0.925 -1.9165  1.0925  1.0533
 8423SOL     OW36730   2.308   2.954  14.049 -0.0958 -0.3197 -0.0347
 8423SOL    HW136731   2.248   2.928  14.119  0.9792 -1.6464  0.3920
 8423SOL    HW236732   2.270   3.041  14.031  0.6155 -0.0508 -0.2449
 8424SOL     OW36733   1.737   2.382   6.322  1.1234 -0.4620  0.3440
 8424SOL    HW136734   1.806   2.416   6.266  1.2594  0.9489  1.3564
 8424SOL    HW236735   1.738   2.290   6.297  0.7894 -1.0500  2.4868
 8425SOL     OW36736   0.291   3.614   1.569  0.2205 -0.2966 -0.1615
 8425SOL    HW136737   0.323   3.525   1.583 -1.7124 -1.2099 -1.3715
 8425SOL    HW236738   0.358   3.651   1.512  1.3467 -1.2106  0.5777
 8426SOL     OW36739   1.435   4.217   1.437  0.1487 -0.2064 -0.7719
 8426SOL    HW136740   1.365   4.186   1.379  0.8759  0.8084 -2.1927
 8426SOL    HW236741   1.400   4.188   1.522  0.0539  1.3358 -0.2933
 8427SOL     OW36742   1.050   2.474  17.128  0.4694 -0.3387 -0.2757
 8427SOL    HW136743   1.053   2.441  17.038  0.4598  0.8653 -0.7161
 8427SOL    HW236744   1.144   2.480  17.138  0.4680 -0.7504 -0.0049
 8428SOL     OW36745   0.452   2.856   0.830  0.4706 -0.0422 -0.0825
 8428SOL    HW136746   0.510   2.865   0.906  0.0625  0.3159  0.1894
 8428SOL    HW236747   0.377   2.907   0.862 -0.7214 -2.6070  1.2084
 8429SOL     OW36748   0.468   2.818  11.145 -0.1365 -0.1467 -0.3344
 8429SOL    HW136749   0.375   2.840  11.139 -0.0104  0.0533 -1.6172
 8429SOL    HW236750   0.478   2.810  11.240 -0.4889 -0.2361 -0.3046
 8430SOL     OW36751   4.354   0.560   7.335  0.4152  0.0255  0.0970
 8430SOL    HW136752   4.405   0.546   7.415  1.4723 -0.9608 -0.7575
 8430SOL    HW236753   4.293   0.486   7.335  1.6705 -0.9852 -1.8886
 8431SOL     OW36754   0.276   4.483  11.026 -0.1354  0.2970  0.2216
 8431SOL    HW136755   0.272   4.459  11.118  1.1525 -0.6448  0.0190
 8431SOL    HW236756   0.184   4.482  10.997 -0.7837 -0.1448  2.2930
 8432SOL     OW36757   0.010   0.600   2.407 -0.4175 -0.4706  0.5898
 8432SOL    HW136758   0.041   0.538   2.473 -0.0549 -0.0235  0.8347
 8432SOL    HW236759   0.089   0.609   2.354 -0.1826 -1.1618  0.8291
 8433SOL     OW36760   1.818   3.717   0.792 -0.0374 -0.0533 -0.2188
 8433SOL    HW136761   1.884   3.696   0.726 -0.9096 -1.5185 -0.6276
 8433SOL    HW236762   1.754   3.774   0.748 -0.3515  1.1047  1.7543
 8434SOL     OW36763   0.523   2.661   2.815 -0.0466 -0.4490  0.4514
 8434SOL    HW136764   0.617   2.655   2.834 -0.8836 -2.4502  3.8314
 8434SOL    HW236765   0.494   2.685   2.903  2.0980  3.0417  0.2522
 8435SOL     OW36766   3.008   0.156  10.111  0.0320 -0.0141 -0.4727
 8435SOL    HW136767   3.057   0.185  10.035 -1.6101  0.7310 -1.2298
 8435SOL    HW236768   3.047   0.198  10.188  1.2686  0.1625 -1.2076
 8436SOL     OW36769   2.586   3.178   2.653 -0.5010 -0.1335 -0.2052
 8436SOL    HW136770   2.593   3.183   2.558 -1.4728 -0.3287 -0.2855
 8436SOL    HW236771   2.515   3.116   2.665 -1.7829  1.2728 -0.4737
 8437SOL     OW36772   3.603   3.910   4.338 -0.2358  0.3481 -0.0609
 8437SOL    HW136773   3.655   3.829   4.339 -1.1406 -0.2468 -1.0042
 8437SOL    HW236774   3.561   3.907   4.424  0.8722 -2.0036  0.3928
 8438SOL     OW36775   0.351   0.040   8.083  0.2226 -0.2108 -0.1569
 8438SOL    HW136776   0.388   4.677   8.044 -0.0777 -0.2093 -0.4427
 8438SOL    HW236777   0.386   0.103   8.020  1.7038 -0.6932  0.1867
 8439SOL     OW36778   3.695   4.698   7.976  0.3071  0.4748  0.1765
 8439SOL    HW136779   3.677   4.607   7.999  1.8214 -0.1676 -1.2285
 8439SOL    HW236780   3.617   0.025   8.011 -0.7451 -0.2478 -1.2982
 8440SOL     OW36781   1.266   2.791   7.835  0.5281 -0.4855  0.3162
 8440SOL    HW136782   1.208   2.738   7.891  1.1512 -0.4903  0.9643
 8440SOL    HW236783   1.266   2.878   7.875 -4.5573 -0.2903 -0.1033
 8441SOL     OW36784   2.676   3.929   1.139 -0.8548 -0.5737 -0.5381
 8441SOL    HW136785   2.649   3.844   1.103 -2.7139 -0.5261  0.7546
 8441SOL    HW236786   2.601   3.986   1.121 -0.9072 -0.1816  0.8560
 8442SOL     OW36787   4.376   4.528   6.122 -0.0661 -0.4179 -0.0989
 8442SOL    HW136788   4.361   4.463   6.055  0.8692 -0.5175 -0.2212
 8442SOL    HW236789   4.395   4.475   6.200  0.2020  2.2262  1.6667
 8443SOL     OW36790   3.343   4.575   6.275 -0.6554 -0.2016  0.9436
 8443SOL    HW136791   3.407   4.503   6.273 -0.0006  0.4553 -1.0708
 8443SOL    HW236792   3.394   4.650   6.246 -2.7704  0.9046  0.1171
 8444SOL     OW36793   0.144   2.289   5.691 -0.1034 -0.5987 -0.2470
 8444SOL    HW136794   0.199   2.366   5.706  1.8358 -2.1208  0.3801
 8444SOL    HW236795   0.207   2.220   5.671  0.4130 -0.2231  0.1190
 8445SOL     OW36796   4.716   0.284   6.228  0.2674 -0.0684  0.7510
 8445SOL    HW136797   0.009   0.302   6.321 -1.7199  0.0250  0.9285
 8445SOL    HW236798   0.089   0.295   6.195 -0.1318 -0.0100 -0.3327
 8446SOL     OW36799   4.274   2.837   1.521  0.1321 -0.7352  0.2268
 8446SOL    HW136800   4.258   2.750   1.558 -1.9364  0.1020  1.2947
 8446SOL    HW236801   4.248   2.813   1.432 -0.0020  1.4857 -0.3312
 8447SOL     OW36802   3.448   0.211  13.914  0.2235  0.0021 -0.1922
 8447SOL    HW136803   3.475   0.297  13.880 -2.5573  0.9510 -0.0182
 8447SOL    HW236804   3.468   0.147  13.845 -0.5405 -0.7133  0.2665
 8448SOL     OW36805   1.800   3.726  15.101 -0.6353  0.3270 -0.8084
 8448SOL    HW136806   1.766   3.733  15.012  0.3504 -0.0180 -1.2152
 8448SOL    HW236807   1.825   3.817  15.115  0.1721 -0.0821  0.4309
 8449SOL     OW36808   3.598   0.173   8.429 -0.1729 -0.8111  0.2867
 8449SOL    HW136809   3.596   0.258   8.475 -2.2189 -0.6731 -0.0403
 8449SOL    HW236810   3.664   0.190   8.362 -1.4343 -1.0359 -1.0067
 8450SOL     OW36811   1.753   2.257   5.298 -0.0294  0.3441  0.5666
 8450SOL    HW136812   1.847   2.266   5.283 -0.0045  0.0422  0.5450
 8450SOL    HW236813   1.725   2.187   5.239 -1.8739  0.0207  1.8102
 8451SOL     OW36814   0.568   3.082  16.059 -0.2142 -0.5909 -0.3227
 8451SOL    HW136815   0.568   2.993  16.093  2.5832 -0.9212 -1.1736
 8451SOL    HW236816   0.630   3.059  15.990  1.3417  1.0395  0.5141
 8452SOL     OW36817   4.496   1.260   2.509  0.6910  0.0020  0.0466
 8452SOL    HW136818   4.491   1.166   2.491  0.8189  0.3132 -1.6641
 8452SOL    HW236819   4.408   1.278   2.541  1.2150  1.0774  0.8949
 8453SOL     OW36820   2.638   3.376   6.253 -0.1418  0.1315 -0.4693
 8453SOL    HW136821   2.704   3.350   6.317  0.6706 -1.3970 -1.9302
 8453SOL    HW236822   2.636   3.469   6.276 -0.9685  0.1205 -0.4785
 8454SOL     OW36823   1.894   2.497   3.324 -0.3633  0.4386 -0.1807
 8454SOL    HW136824   1.985   2.467   3.319 -0.3169  0.9487 -2.4821
 8454SOL    HW236825   1.857   2.450   3.398 -1.5337  2.1660  0.3501
 8455SOL     OW36826   2.952   2.900  11.860 -0.2245 -0.1134 -0.3782
 8455SOL    HW136827   2.987   2.911  11.771 -1.1712  0.5842 -0.6653
 8455SOL    HW236828   2.890   2.973  11.861 -0.0566  0.0710 -2.2815
 8456SOL     OW36829   4.570   2.672   5.855  0.7384  0.3678 -0.4210
 8456SOL    HW136830   4.650   2.635   5.891  0.7552 -2.3475 -3.3484
 8456SOL    HW236831   4.577   2.692   5.762  1.6530 -3.3231 -1.1156
 8457SOL     OW36832   4.472   3.210   7.683 -0.1728 -0.2610 -0.4933
 8457SOL    HW136833   4.488   3.199   7.777 -0.4910 -2.0109 -0.6439
 8457SOL    HW236834   4.560   3.203   7.647 -0.3591  1.8485 -1.3888
 8458SOL     OW36835   4.656   3.413   7.993  0.5507  0.0787 -0.0026
 8458SOL    HW136836   4.672   3.492   7.942  2.1256 -1.0971 -1.2965
 8458SOL    HW236837   4.624   3.446   8.077  0.5820  0.3467 -0.0988
 8459SOL     OW36838   3.768   4.379   3.054 -0.5493 -0.8331  0.0250
 8459SOL    HW136839   3.780   4.284   3.049 -2.5091 -1.1305  1.3119
 8459SOL    HW236840   3.855   4.409   3.028 -0.4893 -2.0773 -1.2192
 8460SOL     OW36841   3.400   3.037   4.892  0.6857  0.1949  0.2143
 8460SOL    HW136842   3.407   2.953   4.937  0.6346  0.5308  0.8462
 8460SOL    HW236843   3.363   3.009   4.808  1.7330  0.1156 -0.2229
 8461SOL     OW36844   4.502   1.154  15.994 -0.4571  0.0375  0.5625
 8461SOL    HW136845   4.550   1.194  15.921  0.0681  1.7361  1.8381
 8461SOL    HW236846   4.574   1.115  16.043  1.3641  0.3783 -1.8419
 8462SOL     OW36847   0.595   3.899   2.697 -0.1801  0.2471 -0.2651
 8462SOL    HW136848   0.660   3.949   2.746 -0.3251 -0.1360  0.3170
 8462SOL    HW236849   0.603   3.952   2.617  0.7617  2.6076  1.3948
 8463SOL     OW36850   3.038   1.793   7.064 -0.0737  0.1277  0.1107
 8463SOL    HW136851   3.050   1.738   7.141 -1.5974 -1.2249 -0.6033
 8463SOL    HW236852   3.087   1.872   7.088 -1.0936 -0.0184  2.6675
 8464SOL     OW36853   0.670   0.156   9.361 -0.5262 -0.3038 -0.4449
 8464SOL    HW136854   0.656   0.212   9.284 -1.2966  1.7694  1.2199
 8464SOL    HW236855   0.763   0.133   9.356 -0.8471 -2.0248  1.8115
 8465SOL     OW36856   1.616   3.592   2.447 -0.0165 -0.2927  0.5646
 8465SOL    HW136857   1.581   3.505   2.425  0.8118 -0.5010  0.0715
 8465SOL    HW236858   1.656   3.629   2.369  0.0740 -0.2565  0.6286
 8466SOL     OW36859   4.548   3.316   2.463 -0.2150 -0.2875 -0.2943
 8466SOL    HW136860   4.634   3.336   2.426  0.3808  0.2169  1.3398
 8466SOL    HW236861   4.575   3.294   2.553 -0.5395  2.2591  0.4339
 8467SOL     OW36862   3.952   0.849   1.195  0.1507 -0.0499 -0.4636
 8467SOL    HW136863   3.861   0.819   1.184  0.0253 -0.8683  2.8949
 8467SOL    HW236864   3.989   0.838   1.108 -1.6703  0.2778 -1.2919
 8468SOL     OW36865   0.518   4.276   1.821  0.4467 -0.0743  0.1715
 8468SOL    HW136866   0.514   4.361   1.778  3.6684  1.7193  3.3651
 8468SOL    HW236867   0.491   4.214   1.754  0.3428  1.4319 -1.1799
 8469SOL     OW36868   0.128   3.272   8.599 -0.1093 -0.1545 -0.8468
 8469SOL    HW136869   0.149   3.302   8.688  2.7732  1.0954 -1.9429
 8469SOL    HW236870   0.199   3.313   8.550  0.4273  0.4408  0.4280
 8470SOL     OW36871   4.128   2.431  13.061 -0.7975 -0.3474  0.6524
 8470SOL    HW136872   4.078   2.367  13.111 -1.5143 -0.0734  0.2872
 8470SOL    HW236873   4.104   2.515  13.100  0.9746 -0.0648  1.1553
 8471SOL     OW36874   1.715   3.359  16.998  0.1994  0.0051  0.6660
 8471SOL    HW136875   1.642   3.394  16.945  1.1474  0.5020 -0.3180
 8471SOL    HW236876   1.789   3.407  16.960 -0.1557  0.0499  0.0144
 8472SOL     OW36877   1.210   2.112   3.394  0.4921  0.2603 -0.5492
 8472SOL    HW136878   1.289   2.066   3.365  0.0825 -1.0512  0.4203
 8472SOL    HW236879   1.160   2.031   3.383 -0.7102  0.8310  0.8104
 8473SOL     OW36880   1.788   3.439   3.352  0.0171 -0.0276  0.1693
 8473SOL    HW136881   1.776   3.508   3.418  2.4505 -0.6716  1.2923
 8473SOL    HW236882   1.722   3.473   3.292  1.5595  1.7453 -0.5273
 8474SOL     OW36883   4.029   1.714   3.593 -0.6068 -0.4572  0.2884
 8474SOL    HW136884   4.046   1.804   3.568 -0.8046  0.4004  3.2709
 8474SOL    HW236885   3.958   1.696   3.531  0.3489 -4.3274  0.3052
 8475SOL     OW36886   0.987   2.650   3.292 -0.4751 -0.0401 -0.0725
 8475SOL    HW136887   1.066   2.698   3.314 -0.8963  1.5954 -2.1394
 8475SOL    HW236888   0.953   2.645   3.381  1.5894 -0.9627  0.6544
 8476SOL     OW36889   0.778   3.833   3.979 -0.5119  0.3825 -0.6674
 8476SOL    HW136890   0.770   3.890   3.902  1.4431 -1.1448 -2.0027
 8476SOL    HW236891   0.843   3.886   4.024 -0.0119  0.0410 -0.9896
 8477SOL     OW36892   4.074   1.670   6.134  0.5383  0.4995  0.1819
 8477SOL    HW136893   4.055   1.589   6.182 -1.8658  0.7093 -0.4386
 8477SOL    HW236894   4.093   1.649   6.043 -1.9250  0.9438 -0.4221
 8478SOL     OW36895   2.513   2.611   9.290 -0.7660  0.0778  0.0141
 8478SOL    HW136896   2.607   2.602   9.277 -0.9524 -0.8647 -0.7676
 8478SOL    HW236897   2.500   2.688   9.345 -0.5707 -0.5764  0.9763
 8479SOL     OW36898   3.510   0.430   4.378  0.7981  0.0103 -0.2342
 8479SOL    HW136899   3.438   0.407   4.437  0.7850 -1.2862 -0.7479
 8479SOL    HW236900   3.489   0.378   4.300 -2.3065  0.8112  0.0587
 8480SOL     OW36901   2.863   0.706   5.407  0.1753  0.1995 -0.7598
 8480SOL    HW136902   2.794   0.764   5.375 -1.0576 -0.7800  0.1341
 8480SOL    HW236903   2.935   0.760   5.373  0.5151  1.3434  1.7907
 8481SOL     OW36904   1.135   3.765   9.112  0.1461 -0.1247 -0.1501
 8481SOL    HW136905   1.069   3.696   9.125  0.8437 -0.4881  1.5091
 8481SOL    HW236906   1.166   3.745   9.024 -2.2226 -0.3237 -0.9616
 8482SOL     OW36907   3.601   3.899   6.424 -0.2783  0.2373  0.8299
 8482SOL    HW136908   3.674   3.849   6.461  1.3155  1.3454 -0.7862
 8482SOL    HW236909   3.588   3.852   6.342  0.2190 -0.7880  1.3371
 8483SOL     OW36910   1.301   2.882   0.486  0.3737 -0.7639 -0.3804
 8483SOL    HW136911   1.389   2.885   0.448  0.3763  1.3805 -0.1565
 8483SOL    HW236912   1.312   2.853   0.576 -0.4343 -1.5006 -0.5148
 8484SOL     OW36913   2.030   2.351   5.513  0.1103 -0.1629  0.3277
 8484SOL    HW136914   2.063   2.263   5.492 -1.3846  0.1338 -3.1554
 8484SOL    HW236915   2.107   2.393   5.551  0.7019  0.4905 -1.5923
 8485SOL     OW36916   4.169   3.448   2.945  0.1038  0.3903  0.4474
 8485SOL    HW136917   4.143   3.384   2.879  1.0404  0.2749  0.1909
 8485SOL    HW236918   4.181   3.519   2.882 -1.5778  2.6789  2.7060
 8486SOL     OW36919   0.127   3.008   7.387 -0.2624 -0.3769 -0.0975
 8486SOL    HW136920   0.216   3.043   7.381  0.1756 -1.4009  0.4779
 8486SOL    HW236921   0.132   2.935   7.449  1.6246 -0.3619 -0.2429
 8487SOL     OW36922   0.300   4.418   1.962 -0.0028  0.7830 -0.0715
 8487SOL    HW136923   0.353   4.441   1.886  0.0169 -0.5128 -0.4468
 8487SOL    HW236924   0.261   4.502   1.988 -0.1228  0.8891 -0.6104
 8488SOL     OW36925   4.064   4.709  13.100  0.4283  0.4103 -0.1402
 8488SOL    HW136926   4.124   4.681  13.031  0.4448 -0.2560  0.1420
 8488SOL    HW236927   3.983   4.666  13.073  0.2333 -0.3599  1.6015
 8489SOL     OW36928   4.548   4.441   8.171  0.1853  0.0921 -0.1476
 8489SOL    HW136929   4.542   4.503   8.244 -1.7482  0.4509 -0.6113
 8489SOL    HW236930   4.532   4.496   8.094 -0.3405  0.0722 -0.0528
 8490SOL     OW36931   1.381   2.687   6.636  0.2672 -0.0883 -0.3658
 8490SOL    HW136932   1.384   2.598   6.602 -1.9775 -0.2304 -0.1814
 8490SOL    HW236933   1.297   2.721   6.606  0.6421  1.8853  0.8037
 8491SOL     OW36934   3.889   1.452   5.452 -0.3410  0.2972 -0.0713
 8491SOL    HW136935   3.906   1.509   5.528 -0.5859  1.7500 -1.1102
 8491SOL    HW236936   3.965   1.393   5.449 -1.9368 -1.6264 -2.0089
 8492SOL     OW36937   3.350   0.439   3.200  0.3564 -0.2965 -0.4444
 8492SOL    HW136938   3.262   0.435   3.238 -0.1094 -0.9854 -1.6036
 8492SOL    HW236939   3.336   0.491   3.121 -4.5272 -0.5633  0.2282
 8493SOL     OW36940   4.649   0.321   0.720 -0.2170 -0.1880  0.0321
 8493SOL    HW136941   4.644   0.377   0.643  1.6103  0.5924  0.4885
 8493SOL    HW236942   4.701   0.381   0.774  1.3043 -1.4719 -0.0256
 8494SOL     OW36943   3.101   3.800   6.061  0.1830  0.5624  0.3961
 8494SOL    HW136944   3.114   3.706   6.079 -1.4197  0.6071  1.9242
 8494SOL    HW236945   3.006   3.808   6.048  0.0928  0.1964  0.8063
 8495SOL     OW36946   3.189   2.579   9.799  0.3567 -0.5201 -0.3123
 8495SOL    HW136947   3.230   2.661   9.770 -0.6947  0.2718  0.4501
 8495SOL    HW236948   3.212   2.588   9.891 -0.0066 -1.0785 -0.1672
 8496SOL     OW36949   4.093   3.375   4.185  0.2340  0.5612  0.1828
 8496SOL    HW136950   4.125   3.438   4.250 -0.6528 -0.2047  1.3601
 8496SOL    HW236951   4.175   3.348   4.145 -0.4109  2.1765 -2.2277
 8497SOL     OW36952   0.883   3.727  14.619 -0.8374 -0.2790  0.2403
 8497SOL    HW136953   0.892   3.646  14.569 -0.2056  0.2490 -0.4969
 8497SOL    HW236954   0.832   3.782  14.559  0.1293 -1.2146 -1.4226
 8498SOL     OW36955   0.275   4.339  12.855  0.8551 -0.0147 -0.0951
 8498SOL    HW136956   0.225   4.257  12.862  0.5035  0.2777  0.8747
 8498SOL    HW236957   0.345   4.333  12.920  0.8417  1.5842  0.0626
 8499SOL     OW36958   0.931   0.607   5.329  0.5631 -0.0144 -0.4086
 8499SOL    HW136959   0.918   0.644   5.416 -1.0204  2.3319 -1.6649
 8499SOL    HW236960   1.014   0.652   5.317 -0.1042  1.2119 -0.4215
 8500SOL     OW36961   0.409   3.297  10.203  0.9718  0.5657  0.3082
 8500SOL    HW136962   0.441   3.296  10.293 -0.7875  2.3190  0.9495
 8500SOL    HW236963   0.412   3.389  10.177 -1.2882  0.5870  0.1276
 8501SOL     OW36964   0.865   2.499  12.712  0.2030 -0.4429  0.7819
 8501SOL    HW136965   0.777   2.517  12.747  0.3685 -1.8448  1.8989
 8501SOL    HW236966   0.887   2.420  12.761  0.5032  1.0503  3.0664
 8502SOL     OW36967   3.725   0.811   2.665  0.2923  0.1844  0.6783
 8502SOL    HW136968   3.746   0.847   2.751  0.8552  0.8062  0.2796
 8502SOL    HW236969   3.815   0.806   2.635  0.1820  0.0573  0.3679
 8503SOL     OW36970   1.865   1.226   9.028  0.3291 -0.2909 -0.0387
 8503SOL    HW136971   1.932   1.161   9.049  0.1314 -0.4404  0.1402
 8503SOL    HW236972   1.888   1.250   8.939  2.6485 -2.0087  0.0791
 8504SOL     OW36973   3.027   2.374   4.919  0.1822 -0.3179  0.1196
 8504SOL    HW136974   3.022   2.436   4.992  2.9833  2.9876 -2.5052
 8504SOL    HW236975   3.117   2.348   4.939  0.0806 -1.7034 -1.2576
 8505SOL     OW36976   1.231   1.883   3.961  0.0972 -0.4260 -0.2727
 8505SOL    HW136977   1.258   1.872   3.870 -0.1924 -0.5346 -0.3426
 8505SOL    HW236978   1.313   1.873   4.009  0.7970  0.2227 -1.3257
 8506SOL     OW36979   4.293   3.640  13.397 -0.0072  1.0458 -0.8941
 8506SOL    HW136980   4.231   3.679  13.335  0.2691  0.5797 -1.4651
 8506SOL    HW236981   4.356   3.593  13.341  0.2978  0.9442 -0.4672
 8507SOL     OW36982   1.491   4.037  16.536 -0.4760 -0.1966  0.2358
 8507SOL    HW136983   1.506   3.952  16.494  0.8256  0.0740  0.1453
 8507SOL    HW236984   1.576   4.042  16.579  0.4123 -0.6025 -1.4922
 8508SOL     OW36985   2.876   3.545   9.574 -0.3772  0.0917 -0.3700
 8508SOL    HW136986   2.799   3.566   9.521  0.8208  0.5752 -1.9267
 8508SOL    HW236987   2.846   3.562   9.663  0.9274  0.5221 -0.0156
 8509SOL     OW36988   3.375   0.497   5.199 -0.2027 -0.4036  0.3916
 8509SOL    HW136989   3.433   0.430   5.163 -0.6405  0.3490 -1.6752
 8509SOL    HW236990   3.330   0.454   5.272 -0.6166 -0.1430  0.2897
 8510SOL     OW36991   0.550   1.225   0.300 -0.7774  0.3225  0.1718
 8510SOL    HW136992   0.644   1.241   0.297 -0.7815  0.1492 -1.1400
 8510SOL    HW236993   0.516   1.288   0.235 -0.7683  0.0748 -0.0749
 8511SOL     OW36994   3.629   3.220   0.635 -0.3103  0.3204  0.1641
 8511SOL    HW136995   3.715   3.191   0.668 -1.2861 -0.1505  2.3570
 8511SOL    HW236996   3.652   3.238   0.544 -0.7509 -0.7840 -0.1721
 8512SOL     OW36997   2.166   4.194   3.853 -0.1180  0.8468 -0.8786
 8512SOL    HW136998   2.109   4.272   3.850  0.0699  1.0805  1.4755
 8512SOL    HW236999   2.239   4.215   3.911 -0.2667 -0.2465 -0.2978
 8513SOL     OW37000   3.260   1.338   3.025  0.0143 -0.2670 -0.5015
 8513SOL    HW137001   3.285   1.430   3.013  1.3605 -0.5770 -0.0108
 8513SOL    HW237002   3.279   1.340   3.119 -1.1462  2.5017 -0.3157
 8514SOL     OW37003   2.424   4.534   5.922 -0.4521  0.3067 -0.1079
 8514SOL    HW137004   2.458   4.504   6.006 -0.3274  1.5327  0.2831
 8514SOL    HW237005   2.440   4.461   5.862  1.7042  2.0591 -1.6460
 8515SOL     OW37006   1.383   1.643   7.606  0.2868  0.6108  0.1344
 8515SOL    HW137007   1.289   1.650   7.588 -0.0028  0.6002  1.6280
 8515SOL    HW237008   1.381   1.698   7.684 -0.1894  1.4145 -0.4504
 8516SOL     OW37009   4.202   1.118  11.373 -0.0298 -0.2883  0.1959
 8516SOL    HW137010   4.176   1.112  11.281 -2.3502  2.7280  0.6511
 8516SOL    HW237011   4.291   1.140  11.345 -0.7906 -0.0247 -2.0310
 8517SOL     OW37012   3.376   3.103   9.750 -0.1895  0.2797  0.2982
 8517SOL    HW137013   3.458   3.144   9.777  0.5003 -0.0321 -1.3007
 8517SOL    HW237014   3.328   3.168   9.698  1.5723  2.2658  1.1460
 8518SOL     OW37015   0.495   4.050   8.880  0.6364 -0.0753  0.1739
 8518SOL    HW137016   0.563   4.020   8.941 -0.1327 -1.9892  0.0945
 8518SOL    HW237017   0.452   4.113   8.938 -1.0745 -0.4523 -0.6955
 8519SOL     OW37018   3.788   0.298   4.142  0.3943 -0.5730  0.1521
 8519SOL    HW137019   3.798   0.377   4.195 -1.2395  0.8234 -1.6160
 8519SOL    HW237020   3.866   0.293   4.086 -1.2952  1.7995 -2.4105
 8520SOL     OW37021   1.372   1.006  14.174 -0.2209 -0.0738 -0.1168
 8520SOL    HW137022   1.404   0.918  14.153 -1.9371 -0.2631 -1.8842
 8520SOL    HW237023   1.452   1.058  14.184 -0.4183 -0.0750  1.5501
 8521SOL     OW37024   3.241   1.055   1.494 -0.0063 -0.2186  0.6852
 8521SOL    HW137025   3.157   1.013   1.477  0.2813 -0.4672 -0.0981
 8521SOL    HW237026   3.251   1.108   1.415  0.8611  0.1727  1.0506
 8522SOL     OW37027   3.713   0.960   8.823  0.2740 -0.7392  0.0472
 8522SOL    HW137028   3.652   1.034   8.820  0.6276 -0.4827 -0.9280
 8522SOL    HW237029   3.734   0.973   8.915 -1.7361 -1.0331  0.5372
 8523SOL     OW37030   1.059   0.627   3.349 -0.0306 -0.7944  0.2791
 8523SOL    HW137031   1.154   0.622   3.359  0.0010  0.6437  0.6099
 8523SOL    HW237032   1.040   0.654   3.438  2.3077 -2.5262  1.2992
 8524SOL     OW37033   1.973   4.528   7.882 -0.1179  0.2893 -0.0625
 8524SOL    HW137034   2.065   4.538   7.904 -0.0004  0.3097 -0.5787
 8524SOL    HW237035   1.976   4.477   7.802  0.1987  0.7997 -0.3790
 8525SOL     OW37036   2.194   4.210   2.904  0.7586  0.1158  0.5266
 8525SOL    HW137037   2.225   4.124   2.931  1.1640 -0.2702 -1.1470
 8525SOL    HW237038   2.232   4.228   2.817 -1.3134  0.4162 -0.3182
 8526SOL     OW37039   1.138   0.905  16.125 -0.0128 -0.0325  0.3173
 8526SOL    HW137040   1.089   0.836  16.170  0.2392  0.2061  0.9596
 8526SOL    HW237041   1.132   0.868  16.037  1.7392 -0.7029  0.4763
 8527SOL     OW37042   2.852   4.240   3.782  0.1806 -1.1105  0.0258
 8527SOL    HW137043   2.787   4.171   3.764 -0.3909 -0.3849 -0.7232
 8527SOL    HW237044   2.794   4.315   3.792 -2.6984 -3.3178  0.0672
 8528SOL     OW37045   3.311   3.456   5.576  1.0761 -0.2861 -0.3707
 8528SOL    HW137046   3.267   3.472   5.659  0.2045 -1.4331 -0.6144
 8528SOL    HW237047   3.315   3.361   5.583 -0.8884 -0.2588  1.0446
 8529SOL     OW37048   4.020   4.183   5.785 -0.0890  0.5250  0.2683
 8529SOL    HW137049   4.053   4.265   5.822  1.1869 -0.1952  0.6989
 8529SOL    HW237050   4.091   4.167   5.723  1.6661  3.0386  1.6305
 8530SOL     OW37051   4.205   2.720  12.854 -0.4667  1.1568 -0.2475
 8530SOL    HW137052   4.144   2.792  12.867  2.3443  3.0675  2.2190
 8530SOL    HW237053   4.247   2.720  12.940  0.1739 -1.7841 -0.5631
 8531SOL     OW37054   0.754   0.659  15.757  0.4260 -0.0769 -0.1951
 8531SOL    HW137055   0.814   0.640  15.829 -2.7792 -1.0400  2.2582
 8531SOL    HW237056   0.788   0.743  15.727 -2.4104  1.0424 -0.3313
 8532SOL     OW37057   4.477   2.925   1.733 -0.1941  0.2235 -0.4015
 8532SOL    HW137058   4.411   2.868   1.695 -0.4350  0.6475 -0.6201
 8532SOL    HW237059   4.459   3.007   1.687  0.9012  0.5681 -0.2221
 8533SOL     OW37060   3.930   4.114   1.712 -0.0747  0.3364 -0.3082
 8533SOL    HW137061   3.932   4.181   1.643  0.9229 -0.8436 -1.4385
 8533SOL    HW237062   4.024   4.100   1.722 -0.1922 -1.0236 -1.0330
 8534SOL     OW37063   3.969   1.902   2.983  0.0843 -0.1325  0.1292
 8534SOL    HW137064   4.047   1.954   3.003  0.2634 -0.1418 -0.5235
 8534SOL    HW237065   4.007   1.817   3.006 -0.9334 -0.3960  0.8310
 8535SOL     OW37066   4.318   0.100   5.821 -0.1555 -0.0385 -0.4437
 8535SOL    HW137067   4.316   0.105   5.916 -0.0977  1.5319 -0.5246
 8535SOL    HW237068   4.227   0.118   5.800  0.1009 -0.2670 -1.7944
 8536SOL     OW37069   2.103   4.031   1.592  0.2391 -0.0820  0.5774
 8536SOL    HW137070   2.039   3.968   1.625 -0.7194  1.1170  0.9928
 8536SOL    HW237071   2.178   3.976   1.617  0.2159 -0.9929 -1.3889
 8537SOL     OW37072   0.422   2.174   5.656 -0.0410 -0.5751  0.7006
 8537SOL    HW137073   0.485   2.197   5.588 -0.4085  1.4581  1.0751
 8537SOL    HW237074   0.467   2.216   5.730 -1.3386  1.7178  0.1644
 8538SOL     OW37075   3.629   2.393   3.247  0.3217 -0.4994  0.3015
 8538SOL    HW137076   3.545   2.354   3.224 -0.6129  0.8122  1.4527
 8538SOL    HW237077   3.658   2.435   3.167  0.2352 -0.1815  0.4369
 8539SOL     OW37078   4.417   2.578   9.028  0.0408  0.1661 -0.4187
 8539SOL    HW137079   4.392   2.562   8.937 -0.6173  3.4319 -0.7872
 8539SOL    HW237080   4.490   2.517   9.036 -1.1412 -1.1639  0.3683
 8540SOL     OW37081   0.377   2.194  14.069 -0.2116  0.2952  0.8794
 8540SOL    HW137082   0.457   2.205  14.121  1.0442  2.0836 -1.4037
 8540SOL    HW237083   0.322   2.185  14.146 -1.9655 -1.2413 -0.5483
 8541SOL     OW37084   3.155   1.970  17.073  0.4030  0.3897  0.2352
 8541SOL    HW137085   3.121   2.034  17.135 -0.1474 -1.9270  2.3264
 8541SOL    HW237086   3.198   1.904  17.127  1.9619  2.1004  1.0564
 8542SOL     OW37087   3.482   2.821   2.727  0.5746 -0.2225 -0.6691
 8542SOL    HW137088   3.401   2.799   2.681  0.6980  0.3259 -1.1559
 8542SOL    HW237089   3.538   2.832   2.651  0.5761 -1.1529 -0.8023
 8543SOL     OW37090   0.785   4.341  11.074 -0.1734 -0.0524 -0.1187
 8543SOL    HW137091   0.817   4.403  11.139 -2.7308 -0.0655  1.1308
 8543SOL    HW237092   0.767   4.259  11.120  2.4193  0.7848  2.3984
 8544SOL     OW37093   2.043   3.640   0.064  0.8743  0.5934  0.6083
 8544SOL    HW137094   2.032   3.693   0.143  0.9918  0.7622  0.5112
 8544SOL    HW237095   1.968   3.580   0.071 -0.3317  1.9583 -0.5948
 8545SOL     OW37096   0.056   4.671   6.300  0.4524 -0.2506 -0.0132
 8545SOL    HW137097   0.142   4.713   6.303  0.9509 -1.2162 -0.7989
 8545SOL    HW237098   0.024   4.677   6.390 -1.1768  0.0562 -0.5994
 8546SOL     OW37099   3.172   1.307   4.642  0.1206 -0.2679  0.3046
 8546SOL    HW137100   3.080   1.319   4.620  0.0918 -1.3380 -0.1642
 8546SOL    HW237101   3.176   1.381   4.703  0.0185 -1.4960  1.7828
 8547SOL     OW37102   3.620   3.751   9.210  0.0010 -1.1515 -0.0137
 8547SOL    HW137103   3.703   3.788   9.242 -0.2923 -0.8585  0.4100
 8547SOL    HW237104   3.611   3.801   9.130 -0.9181 -0.9715  0.2120
 8548SOL     OW37105   0.879   1.550   6.286  0.3646 -0.4350  0.3569
 8548SOL    HW137106   0.847   1.640   6.300  0.3907 -0.5498  1.1756
 8548SOL    HW237107   0.920   1.547   6.200 -1.5280  2.4998 -0.6561
 8549SOL     OW37108   4.096   2.407   6.862 -0.4429  0.4344  0.1321
 8549SOL    HW137109   4.174   2.462   6.875  1.0880 -1.6990 -0.0616
 8549SOL    HW237110   4.045   2.443   6.789  0.1890 -1.9833 -1.4974
 8550SOL     OW37111   0.254   2.998   4.916  0.4368 -0.0996 -0.0933
 8550SOL    HW137112   0.212   2.914   4.898  1.2369 -1.0600  2.4010
 8550SOL    HW237113   0.332   2.986   4.862  1.5778 -0.2512  1.5500
 8551SOL     OW37114   0.931   3.937   6.105  0.8108  0.4676  0.3025
 8551SOL    HW137115   0.907   3.986   6.027  1.0446 -0.3071 -0.2621
 8551SOL    HW237116   0.867   3.865   6.106  1.3696 -0.0364  0.1532
 8552SOL     OW37117   2.124   0.353   0.274  0.1176 -0.1496  0.3022
 8552SOL    HW137118   2.072   0.363   0.354  0.0611 -1.5817  0.4550
 8552SOL    HW237119   2.176   0.433   0.267  1.6450 -1.0725  0.8134
 8553SOL     OW37120   2.083   2.155   8.071 -0.2585  0.3314 -0.3949
 8553SOL    HW137121   2.177   2.156   8.089 -0.5760 -0.9218  1.2883
 8553SOL    HW237122   2.076   2.251   8.070 -2.7967  0.1818  2.4402
 8554SOL     OW37123   0.196   4.564  14.047 -0.0492 -0.7733  0.6167
 8554SOL    HW137124   0.290   4.547  14.042 -0.3275 -2.2130  0.5066
 8554SOL    HW237125   0.187   4.586  13.954  1.4816  0.4771  0.7607
 8555SOL     OW37126   3.670   4.135   3.752 -0.0882  0.5552 -0.2010
 8555SOL    HW137127   3.643   4.097   3.835  1.0799  1.8506  0.7625
 8555SOL    HW237128   3.620   4.078   3.693 -0.8671  0.1795  0.8240
 8556SOL     OW37129   3.681   0.789   1.098 -0.4008  0.0111  0.2933
 8556SOL    HW137130   3.587   0.799   1.083  0.0452 -0.6926 -3.1617
 8556SOL    HW237131   3.681   0.702   1.137  2.0989 -0.0233  0.2415
 8557SOL     OW37132   4.677   1.698   1.237  0.1803  0.7137  0.1839
 8557SOL    HW137133   4.585   1.722   1.238 -0.0961 -0.3809  0.6251
 8557SOL    HW237134   4.707   1.701   1.146  2.8702  1.0293  1.0846
 8558SOL     OW37135   2.379   2.844   8.867  0.7116 -0.2731 -0.4189
 8558SOL    HW137136   2.409   2.893   8.791  1.2678  1.8859  1.1818
 8558SOL    HW237137   2.284   2.844   8.854  0.9363  0.0155 -2.0082
 8559SOL     OW37138   3.429   3.186   0.404 -0.3914  0.2672 -0.1419
 8559SOL    HW137139   3.498   3.121   0.411  0.4554  1.0752 -0.8506
 8559SOL    HW237140   3.440   3.209   0.311 -1.2746  2.6784  0.3395
 8560SOL     OW37141   3.265   1.041   3.988 -0.0661  0.6745  0.2334
 8560SOL    HW137142   3.305   1.008   3.908  1.6732  1.1589  0.8885
 8560SOL    HW237143   3.281   0.961   4.038 -3.3108  0.5991  1.1056
 8561SOL     OW37144   4.569   3.984   6.236  0.2652  0.4483  0.4065
 8561SOL    HW137145   4.660   3.965   6.259  0.5456  2.0244  0.5929
 8561SOL    HW237146   4.565   3.907   6.179 -1.1280  0.7723  0.0860
 8562SOL     OW37147   3.035   0.915   7.210  0.4665  0.0117 -0.7696
 8562SOL    HW137148   2.964   0.959   7.257  0.3631  0.2739 -1.1692
 8562SOL    HW237149   3.069   0.852   7.273 -0.8835  1.7210  1.6739
 8563SOL     OW37150   0.286   3.568   7.638 -0.2762  0.7584  0.1745
 8563SOL    HW137151   0.256   3.477   7.637 -3.3524  1.8143 -2.5751
 8563SOL    HW237152   0.352   3.574   7.570  0.5396  1.3515  1.0131
 8564SOL     OW37153   3.730   4.243   3.366 -0.3050 -0.2534 -0.0290
 8564SOL    HW137154   3.751   4.335   3.354 -0.2010 -0.3030 -0.2313
 8564SOL    HW237155   3.675   4.226   3.289 -0.7277 -0.6471  0.3538
 8565SOL     OW37156   4.457   3.038   0.601 -0.3315  0.3531  0.1634
 8565SOL    HW137157   4.404   3.088   0.663  1.0564  0.2416  1.4256
 8565SOL    HW237158   4.506   3.100   0.547 -2.6887  0.3275 -2.0394
 8566SOL     OW37159   3.200   3.837   4.504 -0.3172  0.2875 -0.8184
 8566SOL    HW137160   3.130   3.774   4.522 -1.6269  1.7084 -0.8684
 8566SOL    HW237161   3.183   3.889   4.582  1.5124 -0.6260  0.1896
 8567SOL     OW37162   3.772   2.547  12.191  0.2083  0.0628 -0.5308
 8567SOL    HW137163   3.695   2.556  12.134  0.5662  1.7383 -0.7567
 8567SOL    HW237164   3.750   2.613  12.256  1.2124 -0.4906  0.3826
 8568SOL     OW37165   1.275   1.520  15.386  0.2334  0.4434  0.7969
 8568SOL    HW137166   1.269   1.518  15.291 -1.9898  0.8275  0.9210
 8568SOL    HW237167   1.367   1.496  15.395  0.0234 -0.4135  0.6645
 8569SOL     OW37168   1.714   3.982   4.257 -0.6145  0.1557  0.0000
 8569SOL    HW137169   1.644   3.987   4.322 -3.4408 -0.0241 -3.0088
 8569SOL    HW237170   1.680   4.038   4.187 -0.6910  0.8169  0.5679
 8570SOL     OW37171   3.984   1.589   5.144 -0.1945 -0.1740  0.5541
 8570SOL    HW137172   3.901   1.548   5.169 -1.1927  0.0762 -2.3180
 8570SOL    HW237173   4.041   1.514   5.129  0.2665  0.9258 -3.3206
 8571SOL     OW37174   3.472   3.307   7.081 -0.0810 -0.3276  0.0669
 8571SOL    HW137175   3.379   3.288   7.069 -0.5235  1.1797  1.0712
 8571SOL    HW237176   3.473   3.318   7.176  0.4492  2.3967 -0.2652
 8572SOL     OW37177   4.460   1.495  12.942 -0.2616 -0.5876  0.1179
 8572SOL    HW137178   4.416   1.478  12.859 -1.5739 -0.8884  0.8732
 8572SOL    HW237179   4.435   1.411  12.981 -1.3451 -0.1283  0.4355
 8573SOL     OW37180   1.482   3.533  10.933 -0.6527  0.2057 -0.7144
 8573SOL    HW137181   1.542   3.466  10.967  0.1051 -0.3473 -3.1158
 8573SOL    HW237182   1.531   3.551  10.853  1.9507  0.8100  0.9801
 8574SOL     OW37183   3.906   3.180   6.238 -0.2633 -0.1360 -0.0458
 8574SOL    HW137184   3.889   3.095   6.279  1.2985 -0.8180 -0.8182
 8574SOL    HW237185   3.989   3.162   6.195  1.2917 -0.1127  2.8880
 8575SOL     OW37186   2.850   0.008  12.946  0.1150 -0.6942 -0.0985
 8575SOL    HW137187   2.935   4.685  12.927 -0.5801 -2.5335  0.6402
 8575SOL    HW237188   2.827   4.686  13.031  0.9077  0.4340  0.6279
 8576SOL     OW37189   0.268   2.306  16.737 -0.3350 -0.0621 -0.3814
 8576SOL    HW137190   0.282   2.265  16.822 -1.6609 -0.0218 -0.1415
 8576SOL    HW237191   0.295   2.396  16.753 -1.1380  0.6281 -2.8999
 8577SOL     OW37192   3.308   1.129   7.386 -0.1864 -0.4192 -0.0584
 8577SOL    HW137193   3.333   1.038   7.404  0.6132 -0.2224 -0.1674
 8577SOL    HW237194   3.299   1.163   7.476 -0.1408 -0.4474 -0.0430
 8578SOL     OW37195   1.983   1.696   6.170 -0.0387 -0.4889 -0.1924
 8578SOL    HW137196   2.031   1.670   6.248 -0.5393 -0.3097  0.1798
 8578SOL    HW237197   2.049   1.708   6.102  1.5165  1.4297  1.6265
 8579SOL     OW37198   0.577   3.712  16.097 -0.8845  0.3579 -0.4370
 8579SOL    HW137199   0.483   3.704  16.084 -0.9767 -0.7555  0.9518
 8579SOL    HW237200   0.570   3.771  16.171  0.9701 -1.7049  1.3871
 8580SOL     OW37201   3.004   3.893   8.445 -0.2683  0.0106 -0.1482
 8580SOL    HW137202   2.994   3.956   8.373  0.0353 -0.2397 -0.4079
 8580SOL    HW237203   2.924   3.905   8.497 -0.4511  1.6867 -0.8103
 8581SOL     OW37204   0.296   2.726   3.710  0.8792 -0.0689  0.7479
 8581SOL    HW137205   0.327   2.804   3.664 -0.2748 -0.6271 -0.9950
 8581SOL    HW237206   0.258   2.666   3.645 -0.4957  0.9142  0.6370
 8582SOL     OW37207   2.004   4.364   7.604 -0.2199 -0.7293 -0.0619
 8582SOL    HW137208   2.099   4.369   7.590 -0.0385 -2.7666  0.4291
 8582SOL    HW237209   1.990   4.274   7.635  0.9378 -0.6698  0.6567
 8583SOL     OW37210   3.594   2.549   8.591 -0.3189  0.3356 -0.6968
 8583SOL    HW137211   3.661   2.606   8.552  1.8483 -1.4581  0.3889
 8583SOL    HW237212   3.587   2.581   8.681  3.1670  0.4726 -0.4753
 8584SOL     OW37213   1.733   2.987   5.405  0.6986  0.1379 -0.7360
 8584SOL    HW137214   1.727   2.894   5.381  2.3510 -0.0116 -0.5815
 8584SOL    HW237215   1.666   3.024   5.348 -2.0520 -0.2351  2.2508
 8585SOL     OW37216   1.703   3.110  14.639 -0.4621 -0.0863 -0.1737
 8585SOL    HW137217   1.644   3.170  14.592 -2.1304 -2.3161 -0.9070
 8585SOL    HW237218   1.749   3.066  14.568 -0.2923 -0.9657  0.4875
 8586SOL     OW37219   0.975   4.557  14.951  0.0392 -0.4130 -0.4488
 8586SOL    HW137220   0.886   4.532  14.976 -0.4801  1.1624 -0.7259
 8586SOL    HW237221   1.035   4.523  15.016 -1.1731  0.7689  1.2887
 8587SOL     OW37222   2.254   0.191  13.687  0.3681 -1.2076  0.2635
 8587SOL    HW137223   2.261   0.285  13.673  0.1546 -1.0152  1.4784
 8587SOL    HW237224   2.323   0.159  13.629  1.8591 -3.5908  3.3222
 8588SOL     OW37225   4.261   1.173   8.480 -0.0335 -0.1408 -0.7778
 8588SOL    HW137226   4.234   1.148   8.568  1.3221  1.0391 -0.0175
 8588SOL    HW237227   4.179   1.194   8.437 -0.8063 -0.5392  0.5061
 8589SOL     OW37228   3.663   4.616   0.834  0.4445 -0.0050  0.4469
 8589SOL    HW137229   3.736   4.582   0.782 -0.6092  0.1980 -1.1791
 8589SOL    HW237230   3.590   4.612   0.771  0.4642  1.3156  0.3519
 8590SOL     OW37231   4.256   0.890   5.490  0.1418 -0.0922 -0.7612
 8590SOL    HW137232   4.345   0.857   5.483 -0.3216 -1.2282 -1.3622
 8590SOL    HW237233   4.231   0.831   5.562  1.5522  0.5423  0.2366
 8591SOL     OW37234   2.906   4.602   5.427 -0.0144  0.5217  0.1150
 8591SOL    HW137235   2.820   4.644   5.433 -0.0812  0.3825  0.1288
 8591SOL    HW237236   2.895   4.518   5.383  0.4820  0.6702 -0.2892
 8592SOL     OW37237   4.010   2.734   7.483 -0.4640  0.2622 -0.4198
 8592SOL    HW137238   3.940   2.799   7.482  0.7599  1.5653 -1.8651
 8592SOL    HW237239   3.998   2.702   7.393 -1.9743  1.5486 -0.6744
 8593SOL     OW37240   0.834   4.356   1.713  0.0374 -0.7654  0.0369
 8593SOL    HW137241   0.839   4.438   1.763 -0.9427 -0.1884 -0.7964
 8593SOL    HW237242   0.907   4.380   1.656 -0.6589 -1.8899 -1.3390
 8594SOL     OW37243   4.093   2.760  13.132 -0.4952 -0.1128  0.3369
 8594SOL    HW137244   4.182   2.788  13.156 -0.9252  0.2390  1.5151
 8594SOL    HW237245   4.061   2.835  13.082  0.7268  0.6294  0.6523
 8595SOL     OW37246   3.863   3.312  10.745 -0.5412  0.3664  0.5111
 8595SOL    HW137247   3.907   3.378  10.692 -1.1836 -0.2425 -0.7704
 8595SOL    HW237248   3.866   3.226  10.704 -0.2808  0.1634  0.9515
 8596SOL     OW37249   2.587   3.165  17.149  0.2647  0.1869 -0.2056
 8596SOL    HW137250   2.614   3.212  17.227 -1.1981  0.6780 -0.0007
 8596SOL    HW237251   2.667   3.113  17.142  0.7477  1.1612 -1.8710
 8597SOL     OW37252   2.027   2.583   7.983  0.5024  0.2689  0.5885
 8597SOL    HW137253   2.006   2.677   7.987  1.3927  0.6656 -3.6970
 8597SOL    HW237254   2.056   2.565   8.072 -1.4498  0.4806  1.2555
 8598SOL     OW37255   0.691   4.642   6.404 -0.0736 -0.1818 -0.2510
 8598SOL    HW137256   0.777   4.683   6.412 -0.8056  0.4654  4.7081
 8598SOL    HW237257   0.665   4.671   6.317 -0.7069  0.9071  0.2849
 8599SOL     OW37258   1.388   2.001   7.062  0.0027 -0.1162 -0.5389
 8599SOL    HW137259   1.464   2.057   7.079 -0.5544  0.1463  1.0048
 8599SOL    HW237260   1.340   2.009   7.144 -0.0940 -1.6154 -0.4497
 8600SOL     OW37261   1.325   3.471   3.160 -0.8441  0.2266  0.1654
 8600SOL    HW137262   1.379   3.394   3.173 -1.5597 -0.2034  0.5741
 8600SOL    HW237263   1.368   3.509   3.083 -2.4162 -2.1594 -1.8885
 8601SOL     OW37264   4.338   1.105   6.810  0.1398 -0.3306  0.4376
 8601SOL    HW137265   4.432   1.118   6.795 -0.1565  0.3718 -0.8376
 8601SOL    HW237266   4.338   1.103   6.906  1.3885 -0.9190  0.4261
 8602SOL     OW37267   0.072   2.241  11.082  0.6098 -0.1910  0.2501
 8602SOL    HW137268   0.055   2.335  11.084  0.8120 -0.0776 -2.9694
 8602SOL    HW237269   0.020   2.210  11.156 -1.0938 -0.2108 -0.9262
 8603SOL     OW37270   1.948   3.310  17.221 -0.7845 -0.4531 -0.0697
 8603SOL    HW137271   2.027   3.270  17.255 -0.1728 -0.7786 -1.8370
 8603SOL    HW237272   1.969   3.315  17.127  2.5478 -1.4699  0.6173
 8604SOL     OW37273   3.940   4.389  17.281  0.4917 -0.4781  0.0543
 8604SOL    HW137274   3.884   4.446  17.228  0.9380  0.2182  0.3371
 8604SOL    HW237275   3.996   4.457  17.318 -1.5132  1.4336 -0.3877
 8605SOL     OW37276   4.604   3.763   9.644 -0.4857 -0.2346  0.3808
 8605SOL    HW137277   4.581   3.822   9.715  0.8069  0.0395  0.5730
 8605SOL    HW237278   4.554   3.805   9.574  0.2860  0.7525  0.4306
 8606SOL     OW37279   3.574   0.325   5.647  0.4144 -0.2456 -0.3970
 8606SOL    HW137280   3.606   0.237   5.627 -1.1063 -0.6937 -0.9312
 8606SOL    HW237281   3.482   0.298   5.639 -0.0621  1.3190 -0.1643
 8607SOL     OW37282   1.161   4.504  10.360 -0.0041 -0.0258  0.0825
 8607SOL    HW137283   1.256   4.497  10.362  0.0296 -0.1437 -1.4068
 8607SOL    HW237284   1.134   4.454  10.283  3.2209 -2.2098  0.3929
 8608SOL     OW37285   0.405   2.423  10.334 -0.8370  0.2869  0.2068
 8608SOL    HW137286   0.424   2.449  10.243  3.0462  2.0274  1.5194
 8608SOL    HW237287   0.326   2.476  10.351 -0.5807  1.1535 -1.3059
 8609SOL     OW37288   1.930   1.043   3.524 -0.2680 -0.0526 -0.3897
 8609SOL    HW137289   1.951   1.008   3.611  1.3894  3.3265  0.5875
 8609SOL    HW237290   1.858   0.989   3.493 -0.0159  0.1640 -1.3382
 8610SOL     OW37291   4.455   0.445  16.108 -0.0086 -0.0448 -0.5475
 8610SOL    HW137292   4.407   0.528  16.103 -2.3286 -1.3586 -0.1590
 8610SOL    HW237293   4.399   0.395  16.049 -1.4060 -1.5624  2.0370
 8611SOL     OW37294   1.069   2.725   1.668 -0.0817  0.3864  0.6633
 8611SOL    HW137295   1.029   2.752   1.585  1.4165  2.4537  0.6112
 8611SOL    HW237296   1.050   2.795   1.729 -0.2131  2.8319 -2.1965
 8612SOL     OW37297   4.694   4.569   7.514 -0.7316 -0.6715 -0.8198
 8612SOL    HW137298   4.611   4.543   7.475 -0.6698 -0.3511 -1.1720
 8612SOL    HW237299   4.712   4.652   7.470 -0.1396 -0.8741 -0.9607
 8613SOL     OW37300   2.552   0.634   7.062 -0.0813  0.4425 -0.0504
 8613SOL    HW137301   2.593   0.573   7.123 -0.4969  2.8355  2.6512
 8613SOL    HW237302   2.513   0.701   7.118  0.6876 -1.1369  2.3843
 8614SOL     OW37303   3.132   1.796   8.275  0.1554 -0.2115 -0.0225
 8614SOL    HW137304   3.151   1.814   8.367 -1.8155  0.4110  0.2785
 8614SOL    HW237305   3.192   1.722   8.276  1.1574  0.6078 -0.1768
 8615SOL     OW37306   4.668   0.083  17.406 -0.3749 -0.3851  0.0292
 8615SOL    HW137307   4.699   0.075  17.316  1.0595 -0.0877  0.4892
 8615SOL    HW237308   4.694   4.716  17.445 -0.6986 -0.9948 -1.0695
 8616SOL     OW37309   1.229   2.312   1.992  0.3009  0.0214 -0.0045
 8616SOL    HW137310   1.208   2.379   2.057  0.1011  2.3341 -2.4257
 8616SOL    HW237311   1.194   2.360   1.917 -0.6518 -0.0128  0.4203
 8617SOL     OW37312   2.261   0.578   3.555 -0.1415 -0.0416 -0.4508
 8617SOL    HW137313   2.328   0.511   3.566 -0.8305 -0.8443 -1.1390
 8617SOL    HW237314   2.273   0.639   3.628 -1.0411  0.9708 -1.1500
 8618SOL     OW37315   1.909   0.569  13.810  0.0474 -0.2668 -0.1930
 8618SOL    HW137316   1.920   0.583  13.716 -0.0596  1.4575  0.0613
 8618SOL    HW237317   1.894   0.474  13.812 -3.5425  0.3826  2.9753
 8619SOL     OW37318   0.101   2.528   8.567 -0.1125  0.2464  0.1691
 8619SOL    HW137319   0.091   2.523   8.472  1.4434 -0.3198  0.0261
 8619SOL    HW237320   0.075   2.619   8.582  3.1557  1.3334 -0.7992
 8620SOL     OW37321   2.107   3.073   7.856  0.3347 -0.5369  0.1610
 8620SOL    HW137322   2.196   3.108   7.864 -0.8219  2.5643 -0.7022
 8620SOL    HW237323   2.135   2.983   7.842  0.7263 -0.4942  0.6537
 8621SOL     OW37324   0.964   2.366   8.901 -0.6995 -0.2469 -0.7329
 8621SOL    HW137325   0.930   2.317   8.826  0.5647 -2.1330 -0.0518
 8621SOL    HW237326   0.977   2.288   8.954 -0.1304 -0.9917 -1.9678
 8622SOL     OW37327   4.662   1.756   3.404 -0.2177  0.2580 -0.0731
 8622SOL    HW137328   4.612   1.837   3.396 -1.5188 -0.5721 -0.4087
 8622SOL    HW237329   4.642   1.740   3.496 -0.7793  0.7248 -0.1129
 8623SOL     OW37330   1.045   1.706   7.905  0.2346  0.7732 -0.6584
 8623SOL    HW137331   1.051   1.665   7.819  1.4331  0.6745 -0.5336
 8623SOL    HW237332   1.025   1.635   7.966 -1.8076  1.9017 -0.0225
 8624SOL     OW37333   1.376   2.050  14.586  0.0837  0.2895 -0.1638
 8624SOL    HW137334   1.469   2.067  14.601  0.0040  1.0773 -0.5822
 8624SOL    HW237335   1.364   2.091  14.501  2.0338 -0.0477 -0.5902
 8625SOL     OW37336   3.669   1.282  12.210  0.1252  0.2117 -0.5145
 8625SOL    HW137337   3.583   1.310  12.178 -0.4698 -0.5546  0.3897
 8625SOL    HW237338   3.725   1.357  12.188 -0.5431  1.0412  0.5894
 8626SOL     OW37339   1.376   2.633  11.690  0.0871  0.2644 -0.0687
 8626SOL    HW137340   1.308   2.635  11.758  2.5250 -3.8318  2.5410
 8626SOL    HW237341   1.321   2.597  11.621  1.5054 -1.5101 -0.2486
 8627SOL     OW37342   4.429   4.031   6.644  0.1221  0.1727 -0.7734
 8627SOL    HW137343   4.401   3.949   6.685 -0.1576  0.9229  0.5482
 8627SOL    HW237344   4.511   4.004   6.604 -1.7503 -2.7313 -2.6457
 8628SOL     OW37345   1.868   3.272  16.239 -0.0629 -0.1103 -0.2692
 8628SOL    HW137346   1.909   3.236  16.161 -2.3629 -0.6130 -1.2442
 8628SOL    HW237347   1.811   3.338  16.199 -0.1538 -2.0148 -3.2900
 8629SOL     OW37348   3.990   3.483   5.427 -0.0351  0.1568  0.4176
 8629SOL    HW137349   3.961   3.489   5.336  0.4165  1.4609  0.3541
 8629SOL    HW237350   4.021   3.570   5.454 -0.0140  0.2169  0.2016
 8630SOL     OW37351   2.753   1.566   8.585 -0.4995 -0.3635  0.3017
 8630SOL    HW137352   2.711   1.484   8.561 -1.1031 -0.0504  0.2966
 8630SOL    HW237353   2.830   1.537   8.635 -0.2151 -0.0614  0.0437
 8631SOL     OW37354   3.930   4.649  10.328 -0.2247 -0.3420  0.6802
 8631SOL    HW137355   3.995   4.622  10.264  0.7745 -2.7229  2.7482
 8631SOL    HW237356   3.915   0.019  10.289  0.0894  0.2731  1.9463
 8632SOL     OW37357   2.038   1.570   7.981  0.4552  0.1286  0.0903
 8632SOL    HW137358   2.113   1.583   7.923  1.0798 -0.9957  0.6422
 8632SOL    HW237359   2.006   1.660   7.977  0.9771  0.2765 -0.7161
 8633SOL     OW37360   4.616   1.079   7.580  0.3824  0.2939 -0.1368
 8633SOL    HW137361   4.565   1.160   7.583  2.7435  1.8063 -1.0711
 8633SOL    HW237362   4.631   1.060   7.673 -2.5675 -2.5083 -0.2639
 8634SOL     OW37363   1.882   2.518   8.918  0.3229 -0.1630 -0.5878
 8634SOL    HW137364   1.882   2.608   8.949  0.4589 -0.2423 -0.3583
 8634SOL    HW237365   1.974   2.501   8.898 -0.2972 -1.7515 -2.0933
 8635SOL     OW37366   2.720   2.704   3.967  0.1896 -0.2919  0.4591
 8635SOL    HW137367   2.632   2.692   3.931  1.9189  0.6113 -4.0450
 8635SOL    HW237368   2.778   2.645   3.919 -0.5660 -2.4208  2.1337
 8636SOL     OW37369   1.406   4.090  11.643  0.1276 -0.0292 -0.7222
 8636SOL    HW137370   1.449   4.104  11.559  1.9087  1.0103  0.3583
 8636SOL    HW237371   1.454   4.011  11.667  0.8978  0.6268 -0.1035
 8637SOL     OW37372   2.606   2.399   2.526 -0.1994  0.7132  0.3433
 8637SOL    HW137373   2.608   2.303   2.519  1.6983  0.7853 -0.0534
 8637SOL    HW237374   2.536   2.425   2.466  0.3292  0.4578 -0.3711
 8638SOL     OW37375   1.216   4.260   7.812  0.1989 -0.5213  0.3914
 8638SOL    HW137376   1.261   4.211   7.881  2.1073 -0.5098 -0.8688
 8638SOL    HW237377   1.286   4.283   7.752 -0.0285 -0.9620 -0.0410
 8639SOL     OW37378   0.699   1.045   4.253 -0.1422  0.5602 -0.5308
 8639SOL    HW137379   0.738   0.962   4.227  1.2331  0.6765  1.2293
 8639SOL    HW237380   0.746   1.109   4.198 -0.5901  1.2121 -0.1561
 8640SOL     OW37381   3.296   0.639   3.003 -0.2216 -0.1725 -0.4930
 8640SOL    HW137382   3.320   0.683   2.922 -0.6985  0.7220 -0.1528
 8640SOL    HW237383   3.204   0.661   3.016 -0.2782 -0.7577  0.1037
 8641SOL     OW37384   2.420   0.823  11.269  0.0504 -0.1732  0.1345
 8641SOL    HW137385   2.483   0.804  11.200 -0.3110 -1.7027  0.2173
 8641SOL    HW237386   2.391   0.911  11.247  1.1029  0.0884 -0.1998
 8642SOL     OW37387   0.651   1.926   7.370 -0.4005  0.3428 -0.5185
 8642SOL    HW137388   0.622   1.939   7.460  2.2522  0.5675  0.3038
 8642SOL    HW237389   0.567   1.929   7.324  1.1552 -2.5352 -3.4933
 8643SOL     OW37390   0.268   4.663   4.522 -0.0850 -0.2077  0.0341
 8643SOL    HW137391   0.330   4.626   4.460  0.6014 -0.5807  0.9429
 8643SOL    HW237392   0.259   0.041   4.509 -1.4569 -0.2659  0.5415
 8644SOL     OW37393   3.040   0.283   5.534  0.1788  0.4051  0.1591
 8644SOL    HW137394   2.945   0.280   5.549  0.2726  0.5214  0.7758
 8644SOL    HW237395   3.058   0.218   5.466  0.5018  0.4912  0.1618
 8645SOL     OW37396   3.404   1.561   1.723  0.2728  0.3108  0.5245
 8645SOL    HW137397   3.409   1.505   1.800 -0.6363  0.1952  0.5040
 8645SOL    HW237398   3.311   1.562   1.698  0.6440  2.0296 -0.8338
 8646SOL     OW37399   3.090   2.455   1.284  0.0413 -0.3618 -0.6525
 8646SOL    HW137400   3.018   2.418   1.335  0.9429 -0.0132  0.8798
 8646SOL    HW237401   3.104   2.543   1.320  0.4447  0.1586 -2.0940
 8647SOL     OW37402   0.194   1.361   3.570 -0.1105 -0.2361 -0.5310
 8647SOL    HW137403   0.272   1.309   3.552  1.3865  1.2318  1.7662
 8647SOL    HW237404   0.125   1.300   3.598  0.0730 -0.4763 -0.6051
 8648SOL     OW37405   1.673   1.936   8.576 -0.2155 -0.9267  0.2360
 8648SOL    HW137406   1.612   1.966   8.509  1.5311 -1.1488 -1.4726
 8648SOL    HW237407   1.651   1.843   8.572 -1.0670 -0.8013  1.8937
 8649SOL     OW37408   3.435   1.707   1.268 -0.1381  0.1129 -0.7467
 8649SOL    HW137409   3.490   1.704   1.347 -0.2774  1.0476 -0.6189
 8649SOL    HW237410   3.354   1.737   1.307 -0.1406 -0.9775  0.0980
 8650SOL     OW37411   0.241   3.753   0.880 -0.4669  0.6310 -0.7641
 8650SOL    HW137412   0.255   3.754   0.785 -2.4067  1.9585 -1.0497
 8650SOL    HW237413   0.208   3.839   0.906 -1.9366 -0.4887  1.0617
 8651SOL     OW37414   0.648   4.431   0.195 -0.1462  0.3454 -0.0221
 8651SOL    HW137415   0.630   4.524   0.180 -1.3908  0.3690  1.6256
 8651SOL    HW237416   0.573   4.394   0.147  0.1545  0.0472 -0.2627
 8652SOL     OW37417   0.963   3.808   5.613  0.2615 -0.0617  0.0666
 8652SOL    HW137418   0.971   3.737   5.549 -1.5413  0.9999 -1.3404
 8652SOL    HW237419   0.909   3.765   5.680 -0.9543 -0.0464 -0.9113
 8653SOL     OW37420   3.399   2.950   7.334  0.1220  0.7521  0.5342
 8653SOL    HW137421   3.485   2.919   7.304 -0.9279 -0.0846 -1.6365
 8653SOL    HW237422   3.398   2.955   7.429  1.6786 -2.2950  0.7022
 8654SOL     OW37423   1.183   3.256   8.150  0.2417  0.1445 -0.1771
 8654SOL    HW137424   1.200   3.233   8.242 -0.2756 -1.0800 -0.3943
 8654SOL    HW237425   1.220   3.345   8.149 -1.0882  0.6625 -1.6320
 8655SOL     OW37426   1.665   4.287   2.893 -0.0465 -0.2389  0.3732
 8655SOL    HW137427   1.713   4.233   2.830 -0.6506 -1.7622  1.2125
 8655SOL    HW237428   1.623   4.343   2.829 -0.1829  1.6834  2.1434
 8656SOL     OW37429   1.536   3.395   1.409 -0.0585  0.2666 -0.0469
 8656SOL    HW137430   1.501   3.391   1.320 -1.4113  0.9486  0.4492
 8656SOL    HW237431   1.625   3.384   1.377  0.0986  2.0259 -0.2114
 8657SOL     OW37432   2.068   2.062   0.954 -0.1937  0.7161  0.1893
 8657SOL    HW137433   2.032   2.036   0.870  0.8676  0.6213 -0.2393
 8657SOL    HW237434   2.162   2.062   0.937 -0.3409 -0.5050 -0.5480
 8658SOL     OW37435   3.202   4.342  13.253  0.1312  0.6802 -0.2292
 8658SOL    HW137436   3.139   4.365  13.185 -1.1130 -2.9982 -0.3022
 8658SOL    HW237437   3.274   4.303  13.204  0.1071  0.8469 -0.3975
 8659SOL     OW37438   2.966   1.911   4.615  0.1780  0.5204  0.2702
 8659SOL    HW137439   3.030   1.954   4.671  0.4428  1.9351 -1.1376
 8659SOL    HW237440   2.889   1.893   4.668  0.6658  0.3942  0.9429
 8660SOL     OW37441   0.611   4.021   0.313 -0.1834 -0.1743  0.0922
 8660SOL    HW137442   0.627   4.045   0.222  0.8451 -0.2118  0.2732
 8660SOL    HW237443   0.535   4.077   0.330 -0.6565 -0.5363 -0.8160
 8661SOL     OW37444   3.338   1.452   1.210 -0.1119  0.0027  0.1844
 8661SOL    HW137445   3.395   1.441   1.135 -0.6952  1.0690 -0.4158
 8661SOL    HW237446   3.364   1.540   1.237 -2.9073  1.1410 -0.7842
 8662SOL     OW37447   4.171   3.166   9.101 -0.0343 -0.1720 -0.0852
 8662SOL    HW137448   4.126   3.180   9.184  1.6678  0.4760  0.7343
 8662SOL    HW237449   4.101   3.140   9.042 -1.4347 -3.5775  3.0773
 8663SOL     OW37450   1.815   0.715   0.133 -0.3249  0.0799  0.2995
 8663SOL    HW137451   1.757   0.787   0.160  0.5947  1.7270 -2.1322
 8663SOL    HW237452   1.845   0.744   0.047  1.3262  0.9075  1.1525
 8664SOL     OW37453   2.340   0.068  13.933  0.0607 -0.5637  0.1073
 8664SOL    HW137454   2.300   0.135  13.879 -0.6739 -1.0349  0.0727
 8664SOL    HW237455   2.285   4.708  13.917 -2.1192  1.1523 -0.5938
 8665SOL     OW37456   3.496   1.174   8.271  0.3347  0.0201  0.0665
 8665SOL    HW137457   3.581   1.134   8.254  0.9004  1.4154 -0.3466
 8665SOL    HW237458   3.476   1.138   8.358  0.7103 -2.0945 -0.7123
 8666SOL     OW37459   0.067   3.704   9.883  0.1064  0.0647 -0.1657
 8666SOL    HW137460   0.052   3.703   9.788 -2.5095 -1.1128  0.2402
 8666SOL    HW237461   0.028   3.620   9.907  1.2507  0.0875  1.7346
 8667SOL     OW37462   2.130   1.596   0.986 -0.0159 -0.7708 -0.1687
 8667SOL    HW137463   2.136   1.613   0.892 -0.7342  2.0983  0.3147
 8667SOL    HW237464   2.079   1.672   1.013  2.1561  1.1862 -1.5803
 8668SOL     OW37465   1.701   2.150   4.475 -0.4809 -0.2100 -0.2127
 8668SOL    HW137466   1.790   2.129   4.505 -0.0244  2.2901  0.2141
 8668SOL    HW237467   1.642   2.132   4.548 -1.0548  1.8335 -0.1543
 8669SOL     OW37468   1.868   0.192   2.965 -0.2738  0.6998  0.1313
 8669SOL    HW137469   1.844   0.267   3.019  1.1400  1.4217 -0.2447
 8669SOL    HW237470   1.817   0.215   2.887  0.8600 -0.3079 -0.9202
 8670SOL     OW37471   2.524   2.526   3.755  0.7625 -0.3353  0.4228
 8670SOL    HW137472   2.463   2.552   3.686  1.1330 -4.1769 -1.3625
 8670SOL    HW237473   2.608   2.541   3.712  0.9450 -0.2091  0.8249
 8671SOL     OW37474   0.113   0.357   1.444 -0.4228  0.1496 -0.0537
 8671SOL    HW137475   0.104   0.281   1.386  0.9575  0.1535 -0.2639
 8671SOL    HW237476   0.077   0.327   1.528 -4.0317 -0.1045 -1.6907
 8672SOL     OW37477   2.353   0.781   5.472 -0.5101 -0.1021  0.0112
 8672SOL    HW137478   2.283   0.835   5.510 -2.3352 -0.1228 -3.2449
 8672SOL    HW237479   2.400   0.750   5.549 -0.8641 -0.5258  0.0559
 8673SOL     OW37480   3.276   2.284   2.758 -0.0294  0.2466  0.1862
 8673SOL    HW137481   3.245   2.207   2.805  1.3070 -0.4956 -0.1701
 8673SOL    HW237482   3.267   2.266   2.665  0.9188 -0.0540  0.1549
 8674SOL     OW37483   1.699   3.385  14.784 -0.0268  0.0366 -0.3652
 8674SOL    HW137484   1.664   3.429  14.861  0.9125  0.9643 -0.4826
 8674SOL    HW237485   1.704   3.297  14.822  2.5015 -0.2762 -1.4056
 8675SOL     OW37486   1.077   4.060   1.561 -0.8943  0.5208 -0.3485
 8675SOL    HW137487   1.074   4.026   1.471 -3.4349  0.2597 -0.1561
 8675SOL    HW237488   1.109   3.984   1.609  2.7937  0.8868 -2.2018
 8676SOL     OW37489   1.193   1.924   5.976  0.4190  0.2533  0.1674
 8676SOL    HW137490   1.151   1.856   6.028 -0.0637  0.5681  0.1890
 8676SOL    HW237491   1.239   1.877   5.907 -0.5296  0.2378 -0.4536
 8677SOL     OW37492   1.074   1.255   4.394 -0.6278 -0.4331 -0.5778
 8677SOL    HW137493   1.137   1.227   4.327  0.3072 -1.6883  0.8249
 8677SOL    HW237494   1.120   1.223   4.472  0.5352  0.2800 -0.9650
 8678SOL     OW37495   3.306   4.259   8.152 -0.0756  0.1250 -0.1065
 8678SOL    HW137496   3.233   4.201   8.129  0.1085  0.4552 -1.5046
 8678SOL    HW237497   3.374   4.197   8.181 -0.3788 -0.7314 -1.2038
 8679SOL     OW37498   1.180   1.360   3.460  0.4838 -0.2262  0.0583
 8679SOL    HW137499   1.145   1.443   3.426  2.2364  0.9926  1.1986
 8679SOL    HW237500   1.122   1.294   3.422 -1.9743  1.3626  0.9882
 8680SOL     OW37501   1.818   3.367   1.375 -0.3787  0.4401 -0.3194
 8680SOL    HW137502   1.859   3.308   1.312  1.1269  0.5699  0.5343
 8680SOL    HW237503   1.833   3.454   1.338  1.4474 -0.3752 -1.5224
 8681SOL     OW37504   1.951   1.376  14.454  0.0907  0.4658 -0.1193
 8681SOL    HW137505   1.968   1.285  14.478  3.3858  0.7899 -1.3123
 8681SOL    HW237506   2.016   1.389  14.385 -0.5079  2.0601 -0.3863
 8682SOL     OW37507   4.049   1.257   1.841  0.5260 -0.5224 -0.0677
 8682SOL    HW137508   3.974   1.309   1.813  1.7487  1.3010  0.0549
 8682SOL    HW237509   4.018   1.224   1.926  2.6217 -3.4145 -0.4255
 8683SOL     OW37510   3.794   3.454   7.534 -0.6935  0.2338 -0.4641
 8683SOL    HW137511   3.705   3.420   7.540 -0.8002  0.4430 -0.8505
 8683SOL    HW237512   3.823   3.444   7.625  1.9934 -2.1044 -1.5838
 8684SOL     OW37513   1.126   4.220  13.924  0.0389 -0.1048 -0.2161
 8684SOL    HW137514   1.045   4.201  13.876  0.2753  0.1356 -0.7163
 8684SOL    HW237515   1.097   4.249  14.010 -1.5661 -1.6436 -0.2430
 8685SOL     OW37516   3.291   4.500   7.574 -0.3492 -0.4030  0.0220
 8685SOL    HW137517   3.321   4.411   7.559 -0.4365 -0.2686 -0.9508
 8685SOL    HW237518   3.229   4.481   7.645 -2.5670 -0.0477 -1.8329
 8686SOL     OW37519   3.959   0.582  11.798  0.0694  0.0820 -0.8907
 8686SOL    HW137520   3.939   0.536  11.717  0.0633  2.2370 -2.0888
 8686SOL    HW237521   3.877   0.629  11.810  0.4322 -0.0663  2.2281
 8687SOL     OW37522   4.524   1.126  13.611 -0.3370 -0.1016 -0.3927
 8687SOL    HW137523   4.607   1.108  13.567 -0.7056  1.9091 -1.8625
 8687SOL    HW237524   4.539   1.059  13.679  0.8073 -0.4500 -0.9906
 8688SOL     OW37525   0.252   4.629   8.586 -0.6679  0.4212  0.2836
 8688SOL    HW137526   0.286   4.627   8.497 -1.3596  1.9794 -0.0131
 8688SOL    HW237527   0.325   4.672   8.631 -0.7852 -0.6554  1.5085
 8689SOL     OW37528   3.324   1.445   7.563  0.5659 -0.4444 -0.6316
 8689SOL    HW137529   3.330   1.484   7.476 -2.8962  1.3959 -0.0550
 8689SOL    HW237530   3.398   1.497   7.596 -0.1952  0.0384  0.3332
 8690SOL     OW37531   3.997   4.705   8.994  0.3862  0.4888  0.2997
 8690SOL    HW137532   3.919   0.039   9.016 -0.9790  0.2948 -4.0892
 8690SOL    HW237533   3.958   4.632   8.945 -0.5212  0.8124  0.5561
 8691SOL     OW37534   2.775   0.166   5.165  0.1073  0.2261  0.2664
 8691SOL    HW137535   2.823   0.182   5.083  0.9733  0.6165  0.8483
 8691SOL    HW237536   2.691   0.130   5.137 -0.3422 -0.1783  2.1368
 8692SOL     OW37537   1.412   3.610  15.725  0.0299 -1.0230  0.5201
 8692SOL    HW137538   1.401   3.699  15.759  1.9609 -1.1737  1.5118
 8692SOL    HW237539   1.347   3.561  15.776 -0.6299 -1.1702 -0.4517
 8693SOL     OW37540   4.450   1.702   2.307  0.5796  0.0530 -0.6188
 8693SOL    HW137541   4.399   1.664   2.235  0.1770 -1.5870  0.5085
 8693SOL    HW237542   4.475   1.618   2.347 -1.5684 -0.9145 -1.2586
 8694SOL     OW37543   3.488   1.577   7.355 -0.7988  0.4378  0.2215
 8694SOL    HW137544   3.549   1.579   7.429  0.2506  2.8590 -0.7021
 8694SOL    HW237545   3.542   1.627   7.294 -1.9262 -0.0382 -1.1622
 8695SOL     OW37546   1.785   4.358   4.828  0.2947  0.3853  0.0542
 8695SOL    HW137547   1.855   4.422   4.824 -0.1147  0.7478 -1.3752
 8695SOL    HW237548   1.833   4.281   4.798  1.0459  1.3869 -1.3026
 8696SOL     OW37549   0.913   1.979  12.078 -0.1879 -0.9854 -0.0875
 8696SOL    HW137550   0.941   1.973  12.169  1.2573 -1.7474 -0.5652
 8696SOL    HW237551   0.861   1.899  12.072  0.0065 -1.2257  1.3329
 8697SOL     OW37552   4.628   3.040  12.690 -0.2555 -0.4960 -0.5435
 8697SOL    HW137553   4.622   3.135  12.677  1.4284 -0.3993 -0.5789
 8697SOL    HW237554   4.663   3.005  12.608  1.2923 -0.9044  0.2967
 8698SOL     OW37555   1.374   2.408   1.458  0.1069  0.2021  0.3152
 8698SOL    HW137556   1.425   2.402   1.538  0.2809 -3.8082 -0.1290
 8698SOL    HW237557   1.312   2.479   1.473  0.6833 -0.1408  4.3271
 8699SOL     OW37558   1.412   4.508  11.357  0.0785  0.1281 -0.8297
 8699SOL    HW137559   1.323   4.508  11.323 -0.0262 -2.3968 -0.5825
 8699SOL    HW237560   1.457   4.517  11.273  0.2881 -0.5249 -0.7909
 8700SOL     OW37561   0.148   3.602   1.229  0.2022  0.3551  0.0530
 8700SOL    HW137562   0.061   3.629   1.198  0.4180  1.2774  0.2244
 8700SOL    HW237563   0.135   3.515   1.265  2.1711 -0.6263 -1.6141
 8701SOL     OW37564   2.360   2.353   6.151  0.0947  0.5349 -0.2084
 8701SOL    HW137565   2.402   2.401   6.080  0.7409  0.4261  0.1023
 8701SOL    HW237566   2.275   2.332   6.113 -0.5064  2.1089  0.2800
 8702SOL     OW37567   2.734   4.210  14.877 -0.2680 -0.2962 -0.0995
 8702SOL    HW137568   2.820   4.214  14.835 -0.2655 -0.1414 -0.0812
 8702SOL    HW237569   2.761   4.183  14.964  1.9553 -0.2518 -0.7714
 8703SOL     OW37570   0.542   2.640   6.308 -0.2133 -0.3248 -0.1313
 8703SOL    HW137571   0.542   2.613   6.216 -2.9156  1.2533 -0.5975
 8703SOL    HW237572   0.449   2.643   6.330 -0.3350  3.0617 -1.1540
 8704SOL     OW37573   2.873   2.610   7.303 -0.2651 -0.2580 -0.2088
 8704SOL    HW137574   2.941   2.612   7.371 -0.8937  0.5782  0.3950
 8704SOL    HW237575   2.803   2.637   7.362 -0.7322 -1.6682 -0.1162
 8705SOL     OW37576   4.434   0.496   2.569  0.4389 -0.2571  0.3438
 8705SOL    HW137577   4.515   0.480   2.521  0.2117 -0.3669 -0.0122
 8705SOL    HW237578   4.449   0.441   2.646  2.3578  0.3420  0.3767
 8706SOL     OW37579   0.794   1.879   8.129  0.0120  0.1569 -0.0925
 8706SOL    HW137580   0.815   1.840   8.214 -0.5081 -0.5991 -0.3126
 8706SOL    HW237581   0.733   1.814   8.094  0.2430 -0.5098  0.7249
 8707SOL     OW37582   3.903   1.741   8.434  0.3212  0.5956 -0.3504
 8707SOL    HW137583   3.892   1.833   8.412 -0.1748  0.1662 -1.8688
 8707SOL    HW237584   3.936   1.746   8.524 -1.7321  1.2360  0.3581
 8708SOL     OW37585   1.159   0.032  11.784 -0.2338  0.1097  0.1062
 8708SOL    HW137586   1.185   4.709  11.867  2.0438  1.3330 -0.0467
 8708SOL    HW237587   1.153   4.671  11.727  3.8637  0.6568 -1.0662
 8709SOL     OW37588   0.589   3.415   7.946 -0.0679 -0.2760  0.1732
 8709SOL    HW137589   0.661   3.463   7.905  0.8325 -0.2174  1.8357
 8709SOL    HW237590   0.527   3.488   7.947 -0.1431 -0.3317 -0.3899
 8710SOL     OW37591   0.550   0.652  11.833 -0.2165  0.2663 -0.0673
 8710SOL    HW137592   0.522   0.644  11.742  1.8506  0.9729 -0.7587
 8710SOL    HW237593   0.572   0.560  11.852  1.0515  0.8653  1.3577
 8711SOL     OW37594   2.757   3.929   3.342 -0.7267  0.5950 -0.7443
 8711SOL    HW137595   2.810   4.008   3.344  1.1757 -0.6526 -1.7295
 8711SOL    HW237596   2.761   3.890   3.430 -2.3325  0.2352 -0.8312
 8712SOL     OW37597   4.036   2.330   3.176  0.2118 -0.0585 -0.2563
 8712SOL    HW137598   4.038   2.338   3.081  1.1345 -0.2328 -0.2565
 8712SOL    HW237599   4.003   2.420   3.180  2.8461  0.9862 -1.6860
 8713SOL     OW37600   0.341   2.559   4.804  0.1735  0.5189 -0.1055
 8713SOL    HW137601   0.395   2.619   4.753 -0.6316  1.6697  0.4010
 8713SOL    HW237602   0.270   2.617   4.833 -0.4152 -1.4621  2.3614
 8714SOL     OW37603   4.271   0.903   9.025 -0.0440  0.3047  0.4797
 8714SOL    HW137604   4.199   0.853   9.065 -0.9078 -1.8927 -3.7706
 8714SOL    HW237605   4.353   0.856   9.039 -1.0769 -0.8779  2.4892
 8715SOL     OW37606   1.500   3.661   8.975  0.3800 -0.0195  0.4538
 8715SOL    HW137607   1.406   3.682   8.983 -0.1938 -2.7588  0.7024
 8715SOL    HW237608   1.503   3.572   8.942 -0.0273  0.3984 -0.7282
 8716SOL     OW37609   4.628   4.063   8.979  0.1525  0.3036 -0.2794
 8716SOL    HW137610   4.541   4.070   9.017  0.7557  0.6374  1.0266
 8716SOL    HW237611   4.637   4.147   8.933 -0.5367  2.1168  2.9086
 8717SOL     OW37612   0.176   3.033  10.175 -0.5765 -0.2798  0.8750
 8717SOL    HW137613   0.184   2.965  10.242 -2.4078 -0.8475  0.5195
 8717SOL    HW237614   0.261   3.029  10.133 -0.8006  2.0863  0.2217
 8718SOL     OW37615   0.783   3.599   5.727 -0.2024 -0.7109  0.2394
 8718SOL    HW137616   0.689   3.617   5.731  0.0714  1.0613 -1.2430
 8718SOL    HW237617   0.788   3.521   5.673  1.1747 -0.0540 -0.5509
 8719SOL     OW37618   3.316   2.228  16.496  0.3536 -0.1546  0.2850
 8719SOL    HW137619   3.336   2.293  16.429 -0.5042 -0.5776 -0.3760
 8719SOL    HW237620   3.227   2.256  16.515  1.1082  2.0549  0.5816
 8720SOL     OW37621   3.079   2.109   2.897  0.6566 -0.2983  0.4314
 8720SOL    HW137622   3.009   2.066   2.848  0.8221 -0.2731  0.1752
 8720SOL    HW237623   3.092   2.040   2.961 -2.1270 -0.2245  1.0996
 8721SOL     OW37624   0.112   1.536   9.631 -0.1610  0.1537 -0.2703
 8721SOL    HW137625   0.123   1.536   9.536  2.2303 -1.5106  0.0158
 8721SOL    HW237626   0.160   1.619   9.641 -1.1285  1.0127 -2.6239
 8722SOL     OW37627   1.656   1.916  17.007  0.1822 -0.1770 -0.4287
 8722SOL    HW137628   1.626   2.005  17.027  0.3015 -0.3223  0.4114
 8722SOL    HW237629   1.751   1.921  17.007  0.2418 -1.3659 -0.1549
 8723SOL     OW37630   1.337   2.032   2.795 -0.0037 -0.0423 -0.3132
 8723SOL    HW137631   1.283   2.091   2.743  1.8600  3.1775  1.3817
 8723SOL    HW237632   1.277   2.014   2.868  0.0434  0.2677 -0.1983
 8724SOL     OW37633   0.055   4.311   1.919 -0.2461  0.2582 -0.4401
 8724SOL    HW137634   0.137   4.348   1.950 -0.1733  0.0529 -0.3898
 8724SOL    HW237635   0.017   4.391   1.882 -0.0648 -1.2120 -3.8741
 8725SOL     OW37636   0.302   3.679  15.413 -0.4009 -0.0244 -0.3648
 8725SOL    HW137637   0.224   3.720  15.378 -0.0718  1.8683  1.1176
 8725SOL    HW237638   0.263   3.620  15.478  0.2718  2.4654  2.3232
 8726SOL     OW37639   1.164   4.545   3.057 -0.0757  0.3899  0.1591
 8726SOL    HW137640   1.231   4.597   3.102 -1.1773  0.1060  2.1433
 8726SOL    HW237641   1.140   4.594   2.978  0.7169 -0.1377 -0.4102
 8727SOL     OW37642   1.789   0.781  12.994  0.2078 -0.0963  0.1739
 8727SOL    HW137643   1.842   0.829  12.930 -0.0790  0.8653  0.6613
 8727SOL    HW237644   1.698   0.808  12.984  0.0743 -0.6503 -0.1118
 8728SOL     OW37645   3.743   0.346   7.231 -0.7224 -0.4585 -0.3424
 8728SOL    HW137646   3.694   0.365   7.151 -1.0202 -0.0577 -0.0646
 8728SOL    HW237647   3.827   0.339   7.186 -0.3346  0.1486  0.2759
 8729SOL     OW37648   3.484   3.930   2.929 -0.1109  0.4885  0.3397
 8729SOL    HW137649   3.427   3.855   2.912  0.5666  0.4809 -1.8621
 8729SOL    HW237650   3.533   3.947   2.849 -0.4709  2.5917  0.5707
 8730SOL     OW37651   1.459   2.604   1.746 -0.3519  0.3334 -0.9158
 8730SOL    HW137652   1.418   2.647   1.821 -0.0770  1.8151 -1.5990
 8730SOL    HW237653   1.429   2.514   1.756  1.7848 -0.1390  1.2660
 8731SOL     OW37654   1.131   4.374  10.110  0.6439 -0.0965 -0.0200
 8731SOL    HW137655   1.107   4.425  10.033  0.8630  3.5456  2.3334
 8731SOL    HW237656   1.058   4.311  10.107  1.3469 -1.0056  2.0693
 8732SOL     OW37657   4.642   3.734   8.159 -0.3342 -0.0611  0.4513
 8732SOL    HW137658   4.633   3.639   8.167  0.2486 -0.0585  1.0667
 8732SOL    HW237659   4.618   3.755   8.249 -0.4764 -1.5146  0.7627
 8733SOL     OW37660   3.112   3.623  11.516 -0.1931  0.2274  0.3015
 8733SOL    HW137661   3.161   3.680  11.575 -1.6379  1.0831  0.6538
 8733SOL    HW237662   3.108   3.673  11.435 -0.8365  0.3676  0.4221
 8734SOL     OW37663   0.164   0.913   5.174 -0.0701 -0.5417  0.1611
 8734SOL    HW137664   0.235   0.954   5.223  0.1477 -0.8061  0.0724
 8734SOL    HW237665   0.169   0.832   5.225  1.2568 -0.2289  0.5368
 8735SOL     OW37666   3.978   3.152   8.924  0.2956  0.4904  0.1155
 8735SOL    HW137667   3.968   3.098   8.845  0.6995  1.1318 -0.3787
 8735SOL    HW237668   3.942   3.229   8.880 -0.7103  1.1780  2.1743
 8736SOL     OW37669   2.069   4.477   6.849  0.1295 -0.5623  0.0409
 8736SOL    HW137670   1.993   4.446   6.898 -2.8802  1.9840 -3.0228
 8736SOL    HW237671   2.055   4.439   6.762  2.7019  1.8129 -1.4132
 8737SOL     OW37672   2.434   4.354   6.395  0.3241 -0.2526  0.2340
 8737SOL    HW137673   2.358   4.301   6.420  0.3020 -0.7363 -0.8551
 8737SOL    HW237674   2.493   4.320   6.462 -0.3942 -2.3129 -0.1744
 8738SOL     OW37675   4.585   1.315  10.265 -0.3361  0.3528  0.7267
 8738SOL    HW137676   4.664   1.286  10.309 -1.6455 -1.9522  1.5918
 8738SOL    HW237677   4.587   1.408  10.289  0.8932  0.8607 -1.3590
 8739SOL     OW37678   4.552   1.373   5.422  0.4523  0.0734  0.2788
 8739SOL    HW137679   4.509   1.305   5.473  0.1444 -0.4166 -0.6471
 8739SOL    HW237680   4.592   1.327   5.349 -1.5074 -1.3834  0.1542
 8740SOL     OW37681   4.151   0.604  12.014 -0.5925  1.0888  0.4299
 8740SOL    HW137682   4.197   0.534  11.966 -1.3164  0.0088  1.2961
 8740SOL    HW237683   4.071   0.598  11.961 -0.4844 -2.0894  0.5743
 8741SOL     OW37684   2.328   1.213   1.878 -0.0606 -0.1201 -0.4297
 8741SOL    HW137685   2.383   1.288   1.855 -0.0976  0.0668  0.1007
 8741SOL    HW237686   2.390   1.154   1.921  0.2198  0.6500  0.2273
 8742SOL     OW37687   4.562   1.611   4.408 -0.2458  0.1506 -0.3392
 8742SOL    HW137688   4.492   1.559   4.448  0.8955 -1.4968 -0.4434
 8742SOL    HW237689   4.534   1.612   4.316 -0.9340 -1.3921 -0.1513
 8743SOL     OW37690   2.456   3.467  16.808 -0.2678 -0.5823 -0.2377
 8743SOL    HW137691   2.395   3.435  16.742 -0.9591  1.8885 -0.8184
 8743SOL    HW237692   2.420   3.448  16.895  0.9038 -0.3637  0.2880
 8744SOL     OW37693   0.228   4.157   8.443  0.4860  0.2851  1.0309
 8744SOL    HW137694   0.235   4.233   8.500 -0.3864  0.4795  0.8739
 8744SOL    HW237695   0.172   4.099   8.495 -1.4687 -0.6148 -2.0671
 8745SOL     OW37696   0.747   2.842  17.204 -0.0591 -0.2291  0.8290
 8745SOL    HW137697   0.685   2.785  17.250  1.0187 -1.5616  0.6174
 8745SOL    HW237698   0.803   2.871  17.276 -0.0226  1.5148  0.1070
 8746SOL     OW37699   4.317   1.832   8.722 -0.2540  0.1190  0.0539
 8746SOL    HW137700   4.261   1.845   8.646 -0.1583 -0.0987 -0.0562
 8746SOL    HW237701   4.393   1.869   8.679 -0.5703  0.9671  0.2303
 8747SOL     OW37702   2.466   2.797   9.484  0.3103 -0.5890  0.2162
 8747SOL    HW137703   2.532   2.810   9.553  1.0379 -0.8992 -0.4212
 8747SOL    HW237704   2.406   2.868   9.505  0.2991 -0.8039  0.8906
 8748SOL     OW37705   4.620   2.093   4.714 -0.1537 -0.1103  0.3317
 8748SOL    HW137706   4.601   2.051   4.630 -0.4645 -1.1534  0.9255
 8748SOL    HW237707   4.709   2.065   4.732  0.6110  0.3075 -2.6594
 8749SOL     OW37708   0.535   3.008  17.136 -0.5523 -0.3251 -0.1334
 8749SOL    HW137709   0.614   2.970  17.174 -0.5870 -0.1459  0.1158
 8749SOL    HW237710   0.544   3.096  17.171 -0.3296 -0.2844 -0.2954
 8750SOL     OW37711   3.664   1.908   0.475 -0.5204 -0.1926  0.3034
 8750SOL    HW137712   3.636   1.843   0.411 -0.7715 -0.0194  0.2377
 8750SOL    HW237713   3.724   1.955   0.416  0.2357 -0.5404  0.8020
 8751SOL     OW37714   3.968   3.138   4.209  0.4029  0.6093 -0.9339
 8751SOL    HW137715   3.964   3.147   4.304 -1.2626  4.0866 -1.3521
 8751SOL    HW237716   4.003   3.225   4.190  1.3545  0.9249  2.1955
 8752SOL     OW37717   3.146   2.361  10.695  0.0391 -0.4343 -0.2641
 8752SOL    HW137718   3.174   2.452  10.691  0.3394 -0.4938  0.4742
 8752SOL    HW237719   3.136   2.350  10.790 -0.1919 -0.0234 -0.2398
 8753SOL     OW37720   4.455   0.984   5.180  0.0607  0.4369 -0.2456
 8753SOL    HW137721   4.441   0.916   5.114 -1.2130  2.2641 -1.8443
 8753SOL    HW237722   4.493   0.929   5.249  0.1374 -0.1158 -0.7286
 8754SOL     OW37723   0.931   1.576   3.892  0.1112 -0.2164  0.0130
 8754SOL    HW137724   0.947   1.482   3.879 -2.4679 -0.2586 -2.9233
 8754SOL    HW237725   0.869   1.573   3.965  0.5539 -2.1099  0.3043
 8755SOL     OW37726   4.381   1.293   8.009 -0.1067 -0.7843 -0.4358
 8755SOL    HW137727   4.353   1.357   7.943  1.0206 -1.2106 -1.3351
 8755SOL    HW237728   4.307   1.235   8.024 -1.2954  0.8782  0.0419
 8756SOL     OW37729   2.960   2.650   3.635  0.5067  0.3154 -0.1668
 8756SOL    HW137730   2.912   2.570   3.654  1.9368 -0.5440 -0.1592
 8756SOL    HW237731   3.045   2.621   3.600  0.5129 -0.3135  0.3596
 8757SOL     OW37732   0.740   3.729   6.151 -0.2276 -0.3687 -0.1610
 8757SOL    HW137733   0.718   3.691   6.236  2.9116  0.1627  0.8595
 8757SOL    HW237734   0.661   3.778   6.129  0.4607  1.0156  0.4985
 8758SOL     OW37735   3.412   1.325   4.257 -0.5160 -0.0789 -0.0695
 8758SOL    HW137736   3.380   1.238   4.280 -1.2879 -0.1453 -1.4102
 8758SOL    HW237737   3.450   1.350   4.341  0.5497 -1.6702 -0.0901
 8759SOL     OW37738   2.258   2.079  15.336 -0.7066  0.6162  0.5068
 8759SOL    HW137739   2.185   2.048  15.283 -0.0466  0.3306 -0.2462
 8759SOL    HW237740   2.304   2.129  15.268 -1.0272 -0.5820 -0.5910
 8760SOL     OW37741   3.904   3.881   5.042 -0.2240  0.2871  0.2356
 8760SOL    HW137742   3.943   3.967   5.035  0.2768  0.0311 -0.0846
 8760SOL    HW237743   3.986   3.831   5.037  0.1125  0.8136  0.5235
 8761SOL     OW37744   1.662   3.553   5.021  0.3143  0.0388 -1.1661
 8761SOL    HW137745   1.679   3.536   4.928  1.2400  1.2951 -1.2209
 8761SOL    HW237746   1.657   3.649   5.024  1.3212  0.0452  0.0772
 8762SOL     OW37747   3.387   0.825   4.973  0.0657 -0.4031  0.0871
 8762SOL    HW137748   3.312   0.766   4.964 -0.5437  0.5733 -1.2666
 8762SOL    HW237749   3.350   0.912   4.960  2.8292  0.5846 -1.1608
 8763SOL     OW37750   3.421   1.942   7.342  0.1848  0.1060  0.0261
 8763SOL    HW137751   3.487   1.964   7.277 -0.6163  0.1060 -0.7896
 8763SOL    HW237752   3.452   1.868   7.394 -0.8328 -0.8039 -0.6710
 8764SOL     OW37753   2.957   0.956  15.588  0.1858 -0.2504 -0.3452
 8764SOL    HW137754   2.989   0.920  15.505 -0.2757  0.3406 -0.7802
 8764SOL    HW237755   3.000   1.041  15.591  2.5433 -1.5200  2.1976
 8765SOL     OW37756   0.316   4.305   2.347  0.3025  0.0008  0.1335
 8765SOL    HW137757   0.401   4.349   2.342 -0.6522  1.7645 -0.5435
 8765SOL    HW237758   0.326   4.230   2.288  0.4807  0.4422 -0.4035
 8766SOL     OW37759   1.708   1.104   7.283 -0.0327 -0.2726 -0.1001
 8766SOL    HW137760   1.688   1.029   7.338 -0.7732 -1.4638 -2.0159
 8766SOL    HW237761   1.800   1.088   7.260 -0.1892  0.8517 -1.5448
 8767SOL     OW37762   3.190   3.535   2.637  0.2281 -0.4247 -0.3464
 8767SOL    HW137763   3.272   3.535   2.587  0.7012 -0.8117  0.4310
 8767SOL    HW237764   3.226   3.503   2.720 -1.6603  2.1320  1.4393
 8768SOL     OW37765   4.059   4.155   5.305 -0.8176  0.0759 -0.4239
 8768SOL    HW137766   4.144   4.198   5.319 -1.9292  1.9860  0.5355
 8768SOL    HW237767   4.053   4.146   5.210 -1.3018  0.6015 -0.4461
 8769SOL     OW37768   1.291   4.663   3.946 -0.3444  0.5625  0.3881
 8769SOL    HW137769   1.207   4.620   3.931  1.7204 -3.5026  0.6297
 8769SOL    HW237770   1.295   4.652   4.041  0.7221 -1.5052  0.0998
 8770SOL     OW37771   4.624   4.485   3.957 -0.6087 -0.8229  0.3236
 8770SOL    HW137772   4.543   4.448   3.922 -0.1393  0.8645 -2.5276
 8770SOL    HW237773   4.603   4.575   3.978 -0.9101 -1.6688  3.5861
 8771SOL     OW37774   4.609   2.962   6.293 -0.1980  0.1865  0.2783
 8771SOL    HW137775   4.691   2.913   6.301  0.0630  0.9531  2.2301
 8771SOL    HW237776   4.564   2.895   6.241 -1.1712  0.7244  0.4300
 8772SOL     OW37777   0.026   3.632   7.869  0.8221 -0.0756 -0.2246
 8772SOL    HW137778   4.715   3.669   7.785 -1.5042  1.1941  1.0958
 8772SOL    HW237779   0.111   3.610   7.830  0.3676 -0.1269 -1.1837
 8773SOL     OW37780   2.245   4.331   1.755  0.1307  0.3854 -0.8206
 8773SOL    HW137781   2.190   4.327   1.677 -0.5303  1.6328 -0.4184
 8773SOL    HW237782   2.259   4.425   1.768 -1.1708  0.4548  0.0438
 8774SOL     OW37783   3.352   3.529   4.442  0.2603  0.8140  0.0740
 8774SOL    HW137784   3.264   3.561   4.463 -0.2677 -0.1902 -0.6320
 8774SOL    HW237785   3.385   3.597   4.383  3.0162 -0.4509  0.1640
 8775SOL     OW37786   2.811   0.415  12.293  0.8609 -0.7061  0.2094
 8775SOL    HW137787   2.871   0.340  12.294  0.1265 -1.3010 -0.6522
 8775SOL    HW237788   2.839   0.448  12.378  1.7520 -0.4585 -0.1679
 8776SOL     OW37789   4.319   1.729   3.490 -0.0346 -0.6220 -0.0032
 8776SOL    HW137790   4.289   1.803   3.543 -0.4531  0.7754 -2.1817
 8776SOL    HW237791   4.288   1.757   3.404 -1.1377  0.5095  0.7478
 8777SOL     OW37792   4.017   2.449  12.805 -0.5448 -0.1556 -0.3128
 8777SOL    HW137793   4.051   2.423  12.891 -0.9129  1.2182  0.2593
 8777SOL    HW237794   4.089   2.506  12.777 -1.2129  1.3557  1.0128
 8778SOL     OW37795   4.011   2.803   7.881  0.0611  0.1119 -0.0532
 8778SOL    HW137796   4.098   2.770   7.903  0.1067  0.0188 -0.3639
 8778SOL    HW237797   4.023   2.894   7.856  3.9073 -0.2755  0.4882
 8779SOL     OW37798   1.366   2.915   4.802  0.1728  0.2295 -0.2088
 8779SOL    HW137799   1.370   2.833   4.752 -2.1908 -0.3796  0.6000
 8779SOL    HW237800   1.358   2.983   4.734  2.3944 -0.2475 -0.9471
 8780SOL     OW37801   4.362   1.536  12.671 -0.4463  0.1648  0.3132
 8780SOL    HW137802   4.389   1.613  12.621 -2.5508 -0.6892 -2.1640
 8780SOL    HW237803   4.363   1.467  12.604 -0.4049  0.3405  0.1306
 8781SOL     OW37804   4.369   1.896  16.396  0.5006  0.3581 -0.7590
 8781SOL    HW137805   4.372   1.988  16.371 -1.9982  0.3669 -1.0201
 8781SOL    HW237806   4.290   1.875  16.446 -0.6068  0.8876 -2.2741
 8782SOL     OW37807   4.434   4.330  16.600  0.2818 -0.0150  0.8586
 8782SOL    HW137808   4.473   4.312  16.686  1.8264  3.1945  0.8311
 8782SOL    HW237809   4.433   4.426  16.605  1.8688  0.1453 -1.9341
 8783SOL     OW37810   4.452   1.259  17.233  0.1473  0.2493 -0.4078
 8783SOL    HW137811   4.374   1.311  17.212 -0.3363  0.0232  0.8259
 8783SOL    HW237812   4.524   1.318  17.257 -0.2295  0.7052 -0.3969
 8784SOL     OW37813   2.643   3.210  17.410  0.3170 -0.1504  0.0831
 8784SOL    HW137814   2.575   3.267  17.445  1.4320  1.7580 -0.8263
 8784SOL    HW237815   2.717   3.270  17.420 -0.1367  0.7219 -1.7514
 8785SOL     OW37816   2.591   3.710  16.318 -0.0707  0.2983  0.0306
 8785SOL    HW137817   2.607   3.762  16.397  4.1964 -2.4252  0.9118
 8785SOL    HW237818   2.665   3.650  16.319 -0.2534  0.0586 -1.1275
 8786SOL     OW37819   2.897   0.159   3.942 -0.2096  0.1406 -0.4847
 8786SOL    HW137820   2.848   0.240   3.956 -0.2007 -0.0904  0.9107
 8786SOL    HW237821   2.986   0.192   3.954 -0.9215  2.3172 -1.3243
 8787SOL     OW37822   1.026   2.873   2.209  0.2604  0.7787 -0.3527
 8787SOL    HW137823   1.108   2.868   2.158  1.4791 -1.5177  1.8230
 8787SOL    HW237824   0.958   2.862   2.143  0.0138  0.9241 -0.1220
 8788SOL     OW37825   4.158   1.607   5.837 -0.2468  0.4178 -0.0835
 8788SOL    HW137826   4.219   1.578   5.770 -1.3442  2.0212 -1.7645
 8788SOL    HW237827   4.150   1.536   5.901  0.8177  2.9333  2.8302
 8789SOL     OW37828   1.379   0.052  12.486  0.3983  0.2805  0.6411
 8789SOL    HW137829   1.300   0.003  12.463 -0.1967  2.2966 -1.5652
 8789SOL    HW237830   1.441   0.027  12.417  0.4196 -0.4546  0.9238
 8790SOL     OW37831   0.296   0.979   6.325  0.3096  0.6499 -0.3017
 8790SOL    HW137832   0.353   0.991   6.249  0.3904  0.7936 -0.2171
 8790SOL    HW237833   0.207   0.985   6.290  0.0046  0.1874  0.4162
 8791SOL     OW37834   3.504   3.371   8.231 -0.0403  0.5254  0.4716
 8791SOL    HW137835   3.483   3.300   8.171  2.8827 -2.3187  2.8111
 8791SOL    HW237836   3.595   3.389   8.207 -0.0849 -0.2088 -0.2443
 8792SOL     OW37837   4.315   2.794   3.690 -0.2588  0.2864  0.0362
 8792SOL    HW137838   4.406   2.826   3.684  0.5146 -1.8795  0.3684
 8792SOL    HW237839   4.284   2.803   3.600  0.6524  0.7180 -0.2432
 8793SOL     OW37840   4.213   2.189  10.162 -0.4726  0.6276  0.1554
 8793SOL    HW137841   4.277   2.200  10.232 -1.5391 -0.1766  1.2769
 8793SOL    HW237842   4.130   2.192  10.210 -0.4629  0.2161  0.2044
 8794SOL     OW37843   1.934   0.979   5.418  0.0814  0.1882  0.3616
 8794SOL    HW137844   2.015   0.932   5.440  0.2845  0.7977  0.9410
 8794SOL    HW237845   1.965   1.011   5.334  3.4345 -1.2870  1.0170
 8795SOL     OW37846   2.911   1.494  14.994 -0.5656  0.1624  0.4069
 8795SOL    HW137847   2.947   1.490  14.906  0.6644  1.3444  0.8563
 8795SOL    HW237848   2.843   1.427  14.988  0.9143 -1.2606 -0.3410
 8796SOL     OW37849   1.939   4.574   4.855 -0.2956  0.5621 -0.0715
 8796SOL    HW137850   1.964   4.662   4.883 -0.2874  0.0284  1.6082
 8796SOL    HW237851   1.946   4.574   4.760 -3.7064  0.7555 -0.3258
 8797SOL     OW37852   0.538   0.965   1.976  0.3924 -0.4069 -0.3037
 8797SOL    HW137853   0.502   0.907   2.042 -0.8487  1.6790  0.8672
 8797SOL    HW237854   0.515   1.052   2.010  3.0257  0.1227  0.1366
 8798SOL     OW37855   3.600   3.605   2.849 -0.7817 -0.0100 -0.3837
 8798SOL    HW137856   3.609   3.596   2.754 -4.6571 -1.6324 -0.5894
 8798SOL    HW237857   3.694   3.591   2.864 -1.1453  1.3112  2.9556
 8799SOL     OW37858   2.906   0.691  16.515  0.5384  0.0166 -0.3945
 8799SOL    HW137859   2.905   0.642  16.597 -1.0032 -0.3017 -0.6136
 8799SOL    HW237860   2.816   0.717  16.498  0.4912  1.0598  1.4838
 8800SOL     OW37861   2.425   4.215   0.666  0.7317 -0.2276  1.0395
 8800SOL    HW137862   2.413   4.190   0.574 -0.8762 -1.0653  1.4737
 8800SOL    HW237863   2.510   4.258   0.670  2.0053 -2.4305 -2.4785
 8801SOL     OW37864   4.255   2.478   7.955  0.3373  0.0889  0.2976
 8801SOL    HW137865   4.317   2.407   7.938 -1.3320 -1.2527 -0.1904
 8801SOL    HW237866   4.182   2.454   7.898 -1.0220  0.2751  1.9412
 8802SOL     OW37867   1.944   2.128  14.694  0.0772 -0.3207 -0.0389
 8802SOL    HW137868   1.919   2.204  14.642 -0.0729 -0.7570 -0.5987
 8802SOL    HW237869   1.866   2.109  14.746 -1.0005  0.1911 -1.4558
 8803SOL     OW37870   2.570   3.938   5.850 -0.1890 -0.1885 -0.0214
 8803SOL    HW137871   2.540   3.853   5.880 -1.1911  0.6196  1.2510
 8803SOL    HW237872   2.507   3.945   5.778  1.8358 -1.2119 -1.9084
 8804SOL     OW37873   0.624   2.691   4.955  0.2343 -0.2620 -0.6224
 8804SOL    HW137874   0.707   2.715   4.996 -0.1387  0.1988 -0.1348
 8804SOL    HW237875   0.565   2.760   4.987  1.5329  0.8119 -0.5462
 8805SOL     OW37876   2.984   0.639  12.786 -0.4527 -0.1166  0.1609
 8805SOL    HW137877   3.079   0.637  12.775 -0.6127 -3.4382 -0.7027
 8805SOL    HW237878   2.964   0.732  12.798 -1.0046  0.0131 -1.8055
 8806SOL     OW37879   2.767   3.847  11.243  0.1274 -0.2977 -0.0874
 8806SOL    HW137880   2.691   3.851  11.186 -0.0447 -0.3417  0.1388
 8806SOL    HW237881   2.732   3.793  11.314 -1.0764 -0.6152 -0.9323
 8807SOL     OW37882   2.515   4.538   0.907 -0.3490  0.2341 -0.0245
 8807SOL    HW137883   2.547   4.465   0.853  2.0486 -0.5757  2.4873
 8807SOL    HW237884   2.499   4.610   0.846  2.6004  0.0983 -0.9730
 8808SOL     OW37885   3.276   1.185   1.263  0.0051  0.4643 -0.0751
 8808SOL    HW137886   3.228   1.160   1.183 -1.9663  1.0003  0.9412
 8808SOL    HW237887   3.298   1.277   1.250  2.2062  0.2295  2.0486
 8809SOL     OW37888   3.077   3.205   1.476 -0.1964 -0.2346  0.2049
 8809SOL    HW137889   3.146   3.254   1.521 -0.2123  0.8431 -0.9765
 8809SOL    HW237890   2.995   3.219   1.523  0.3744 -0.3045  1.2482
 8810SOL     OW37891   1.775   1.768   5.204  0.1474  0.0448  0.5458
 8810SOL    HW137892   1.868   1.774   5.225  0.0003 -0.7917  1.4493
 8810SOL    HW237893   1.733   1.720   5.276  1.4915 -3.3889 -0.9482
 8811SOL     OW37894   0.043   4.034   9.819  0.5836  0.3472  0.2753
 8811SOL    HW137895   0.030   4.126   9.797 -2.3908 -0.6274 -2.1279
 8811SOL    HW237896   4.667   4.013   9.828  0.6559 -0.8218 -1.5964
 8812SOL     OW37897   0.728   4.226   4.017  1.1840  0.2266  0.3413
 8812SOL    HW137898   0.666   4.193   3.952  0.7879  0.5728  0.5434
 8812SOL    HW237899   0.812   4.191   3.990  0.4908  0.1434 -1.6874
 8813SOL     OW37900   2.333   4.677  15.370 -0.0805 -0.0423 -0.0370
 8813SOL    HW137901   2.267   4.676  15.301 -0.1268 -0.8695  0.0183
 8813SOL    HW237902   2.343   0.055  15.381 -1.0617  0.2231 -1.4628
 8814SOL     OW37903   4.366   3.567  10.358 -0.1706 -0.1009  0.1905
 8814SOL    HW137904   4.329   3.654  10.344 -1.2492 -0.6934 -0.6185
 8814SOL    HW237905   4.433   3.580  10.291 -1.1562 -2.3367 -1.2401
 8815SOL     OW37906   0.113   2.239   8.002 -0.4310 -0.3807  0.4931
 8815SOL    HW137907   0.169   2.162   8.015  1.2378  0.7929  0.3063
 8815SOL    HW237908   0.053   2.244   8.076  1.2637  1.2041  1.7872
 8816SOL     OW37909   0.674   2.212   3.423 -0.6318  0.2355  0.2190
 8816SOL    HW137910   0.736   2.141   3.439 -0.8504 -0.1721 -0.7314
 8816SOL    HW237911   0.610   2.206   3.493 -0.5531 -0.1045  0.2630
 8817SOL     OW37912   4.068   2.981   5.308 -0.4891  0.3196  0.1354
 8817SOL    HW137913   4.009   2.908   5.326  0.4871 -0.6951 -0.7622
 8817SOL    HW237914   4.047   3.037   5.383 -3.1243  0.1318 -0.4684
 8818SOL     OW37915   3.770   1.068   7.237  0.3766 -0.4659 -0.5871
 8818SOL    HW137916   3.859   1.084   7.204  0.7427 -0.6084  0.3212
 8818SOL    HW237917   3.752   1.153   7.278  3.6958  1.4323 -3.0741
 8819SOL     OW37918   4.503   1.427  16.429 -0.2360  0.1981  0.0156
 8819SOL    HW137919   4.490   1.517  16.458  0.0311  0.1729  0.2142
 8819SOL    HW237920   4.418   1.399  16.395 -0.4295  0.7310  0.0652
 8820SOL     OW37921   1.688   2.010   5.171  0.5438  0.4013  0.7476
 8820SOL    HW137922   1.709   1.919   5.152 -0.6624  0.0891  0.8864
 8820SOL    HW237923   1.668   1.999   5.265 -2.0725 -0.5726  0.0953
 8821SOL     OW37924   1.805   2.404  15.433  0.0538 -0.3385 -0.0546
 8821SOL    HW137925   1.771   2.394  15.344  1.0721 -1.3802 -0.3248
 8821SOL    HW237926   1.881   2.346  15.442 -1.1078 -1.7846  0.4386
 8822SOL     OW37927   0.177   3.723   5.821 -0.4968  0.0996  0.0144
 8822SOL    HW137928   0.103   3.662   5.811  0.1166 -0.4805 -0.8986
 8822SOL    HW237929   0.252   3.672   5.850  0.0032  0.4575 -0.6744
 8823SOL     OW37930   4.634   1.268  15.461  0.1001  0.4351 -0.1443
 8823SOL    HW137931   4.687   1.196  15.427  0.6263  1.5712 -1.6857
 8823SOL    HW237932   4.681   1.305  15.536 -2.5897  1.6730  0.9384
 8824SOL     OW37933   2.930   4.683  13.606 -0.0388 -0.5312  0.0604
 8824SOL    HW137934   2.942   0.032  13.674  0.8563 -2.4650  1.7834
 8824SOL    HW237935   2.888   0.011  13.532  0.2378  0.3651  0.4499
 8825SOL     OW37936   4.689   1.193   7.888  0.5428 -0.4819 -0.3629
 8825SOL    HW137937   4.692   1.104   7.852  2.2273 -0.2170 -0.8745
 8825SOL    HW237938   0.050   1.188   7.944 -1.1756  0.6713  2.1024
 8826SOL     OW37939   2.902   1.712   7.615 -0.4822  0.3184 -0.3305
 8826SOL    HW137940   2.830   1.743   7.670 -0.6342 -0.5561 -0.0335
 8826SOL    HW237941   2.964   1.783   7.632 -0.3531 -0.1838  1.3430
 8827SOL     OW37942   2.012   4.437   8.705  0.2364  0.3618 -0.1909
 8827SOL    HW137943   2.012   4.450   8.610 -0.5323 -0.4451 -0.3016
 8827SOL    HW237944   1.945   4.370   8.708  0.7103 -0.1030  0.0223
 8828SOL     OW37945   0.990   2.267   3.481 -0.1179 -0.0619  0.3308
 8828SOL    HW137946   0.931   2.286   3.408 -0.0432  1.7269  0.7290
 8828SOL    HW237947   1.043   2.206   3.429  1.9305  1.5849  0.4912
 8829SOL     OW37948   3.269   2.634  16.092  0.5437  0.2616 -0.4643
 8829SOL    HW137949   3.288   2.726  16.071 -0.9415  0.3734 -1.4059
 8829SOL    HW237950   3.349   2.606  16.136 -0.2866  2.3201  2.3982
 8830SOL     OW37951   3.763   2.436   6.949  0.3198  0.5398 -0.4406
 8830SOL    HW137952   3.773   2.380   6.872  1.3340  0.7847 -0.4858
 8830SOL    HW237953   3.819   2.390   7.012 -0.1337  1.9426  0.9938
 8831SOL     OW37954   2.629   3.420  11.843 -0.2368  0.2200 -0.0182
 8831SOL    HW137955   2.645   3.361  11.769 -0.6012  0.5516 -0.3668
 8831SOL    HW237956   2.572   3.364  11.895 -1.2134  0.4048 -0.8835
 8832SOL     OW37957   0.856   0.903   4.861 -0.1803  0.4923  0.3124
 8832SOL    HW137958   0.825   0.922   4.950 -1.3808  0.1376 -0.0416
 8832SOL    HW237959   0.948   0.921   4.881  0.2687  0.0836 -1.4528
 8833SOL     OW37960   1.210   4.045   6.683 -0.5385  0.2398 -0.0519
 8833SOL    HW137961   1.279   4.098   6.723  0.0927  0.5440 -1.5871
 8833SOL    HW237962   1.132   4.085   6.722 -1.2843 -1.4066  0.1545
 8834SOL     OW37963   0.906   2.225  17.501  0.6275  0.7949  0.0537
 8834SOL    HW137964   0.875   2.300  17.553 -0.8393 -0.6917  1.3398
 8834SOL    HW237965   0.998   2.249  17.493  0.9228 -0.5173 -0.3219
 8835SOL     OW37966   2.652   3.404   4.737  0.4030 -0.2808  0.6256
 8835SOL    HW137967   2.634   3.494   4.711 -1.4793 -1.1663 -1.1761
 8835SOL    HW237968   2.582   3.398   4.801 -0.1260  1.3473  0.2014
 8836SOL     OW37969   1.955   3.388  12.231  0.0962 -0.1748  0.4201
 8836SOL    HW137970   2.024   3.322  12.235  0.4730  0.1400 -0.7778
 8836SOL    HW237971   1.969   3.425  12.318 -2.1326 -1.8629  1.4698
 8837SOL     OW37972   3.067   1.266   0.816  0.1323  0.2611 -0.5614
 8837SOL    HW137973   3.045   1.329   0.883 -1.2057 -1.2271  0.3898
 8837SOL    HW237974   3.065   1.313   0.732 -0.2289 -0.2402 -0.8316
 8838SOL     OW37975   3.523   2.786   8.011  0.3823  0.3534  0.0803
 8838SOL    HW137976   3.464   2.746   8.076  1.2148  0.4175  0.8843
 8838SOL    HW237977   3.584   2.713   7.997 -0.8519 -0.1007 -2.8644
 8839SOL     OW37978   0.269   4.399   6.792  0.2356  0.2059  0.1250
 8839SOL    HW137979   0.330   4.325   6.782  0.9660  0.5763  1.8830
 8839SOL    HW237980   0.319   4.458   6.849 -1.1519  0.4862  1.0481
 8840SOL     OW37981   0.076   2.916   4.464  0.5643 -0.5581 -0.2798
 8840SOL    HW137982   0.084   3.006   4.496 -1.0933 -0.4224 -0.2764
 8840SOL    HW237983   0.004   2.884   4.518 -0.2015 -1.8059 -2.0438
 8841SOL     OW37984   4.240   3.929  15.204  0.4527 -0.1872  0.1498
 8841SOL    HW137985   4.334   3.923  15.192  0.4472 -2.3105  1.2097
 8841SOL    HW237986   4.214   3.844  15.171 -0.9444  1.4107 -2.8430
 8842SOL     OW37987   0.244   1.238   4.306  0.0505 -0.0528 -0.5346
 8842SOL    HW137988   0.203   1.321   4.282 -0.7656  0.0943  1.3350
 8842SOL    HW237989   0.324   1.264   4.352  0.4030  0.5341 -1.4742
 8843SOL     OW37990   1.792   2.947   7.610  0.0894  0.0883  0.4086
 8843SOL    HW137991   1.791   2.992   7.695 -1.0682 -0.2500  0.5746
 8843SOL    HW237992   1.838   2.866   7.630  0.3718 -0.3553 -2.0326
 8844SOL     OW37993   3.310   2.250   2.258  0.0819 -0.6532 -0.3217
 8844SOL    HW137994   3.404   2.271   2.250 -0.7153  2.5445 -1.3566
 8844SOL    HW237995   3.299   2.222   2.349 -1.2810 -0.5108 -0.4435
 8845SOL     OW37996   4.559   4.537   8.465  0.2655  0.6889 -0.2933
 8845SOL    HW137997   4.512   4.460   8.499 -0.3773  0.2355 -2.2189
 8845SOL    HW237998   4.601   4.579   8.540 -0.7130  1.4455 -0.1685
 8846SOL     OW37999   0.762   3.797   1.894  0.0563 -0.4199  0.2133
 8846SOL    HW138000   0.832   3.839   1.944 -0.0076 -0.7906  0.6118
 8846SOL    HW238001   0.735   3.731   1.958  1.8723  0.2412  1.6467
 8847SOL     OW38002   4.318   4.440  13.070  0.2502 -0.1913  0.0016
 8847SOL    HW138003   4.250   4.473  13.012  0.3874 -1.1327 -0.7014
 8847SOL    HW238004   4.396   4.488  13.043 -0.6647  1.8156  1.0038
 8848SOL     OW38005   0.657   4.331   0.692 -0.0208 -0.2705 -0.4311
 8848SOL    HW138006   0.622   4.316   0.604  0.2050 -0.5986 -0.4634
 8848SOL    HW238007   0.657   4.426   0.704 -0.8210 -0.4643  1.0552
 8849SOL     OW38008   4.418   3.252   9.730 -0.4368  0.4928 -0.1107
 8849SOL    HW138009   4.334   3.206   9.732 -1.1190  1.7184 -0.6551
 8849SOL    HW238010   4.436   3.269   9.638 -4.3767 -0.1795 -0.9945
 8850SOL     OW38011   4.716   1.526  13.018  0.1086 -0.1426  0.0318
 8850SOL    HW138012   4.694   1.605  13.068 -3.2047 -1.7110  1.0547
 8850SOL    HW238013   4.626   1.497  13.005  0.7846 -2.0627 -0.2751
 8851SOL     OW38014   3.564   3.316   4.357  0.0044  0.3480  0.1069
 8851SOL    HW138015   3.472   3.294   4.366 -0.2184  1.4258  0.4521
 8851SOL    HW238016   3.592   3.356   4.439 -0.9638 -0.8517  1.0217
 8852SOL     OW38017   1.659   4.361   1.324 -0.3843  0.0065  0.0625
 8852SOL    HW138018   1.646   4.319   1.409 -1.1317  2.1176  0.9952
 8852SOL    HW238019   1.568   4.358   1.294 -0.5849 -0.0605  0.6867
 8853SOL     OW38020   1.140   3.398   5.853  0.0763  0.2802  0.1008
 8853SOL    HW138021   1.172   3.346   5.779  0.3131 -0.9135  1.0405
 8853SOL    HW238022   1.047   3.375   5.854  0.4564 -1.2777 -1.3355
 8854SOL     OW38023   1.765   2.196   8.187  0.2363 -0.0354  0.4161
 8854SOL    HW138024   1.672   2.201   8.205  0.3743 -1.0705  1.3911
 8854SOL    HW238025   1.800   2.267   8.240  1.0330 -0.4115  0.3991
 8855SOL     OW38026   3.905   0.306   9.000  0.4181  0.3247 -0.0889
 8855SOL    HW138027   3.970   0.306   8.930  2.4130  2.2202  1.7784
 8855SOL    HW238028   3.966   0.265   9.062 -1.1574 -0.3365  1.0380
 8856SOL     OW38029   2.870   3.305   1.257 -0.4543 -0.2319  0.5366
 8856SOL    HW138030   2.922   3.287   1.179 -0.4298 -0.7601  0.6805
 8856SOL    HW238031   2.932   3.293   1.328  0.7023 -2.1636 -0.8132
 8857SOL     OW38032   4.491   1.715   5.138 -0.2559 -0.2591  0.1167
 8857SOL    HW138033   4.578   1.677   5.126  0.6278  1.6205  0.5980
 8857SOL    HW238034   4.480   1.749   5.049  1.3089  0.8942  0.3753
 8858SOL     OW38035   1.085   2.881  16.394 -0.4343 -0.4735 -0.1121
 8858SOL    HW138036   1.069   2.800  16.441  1.3337 -1.0739 -0.5143
 8858SOL    HW238037   1.054   2.846  16.310  3.8924 -1.0045 -1.5293
 8859SOL     OW38038   3.062   3.663   1.619 -1.0535 -0.1619  0.4347
 8859SOL    HW138039   3.033   3.750   1.591 -1.9133 -0.7447 -0.4967
 8859SOL    HW238040   3.013   3.649   1.699 -1.4525 -0.1141  0.1966
 8860SOL     OW38041   1.168   2.439   5.039  0.1016 -0.0487 -0.1271
 8860SOL    HW138042   1.135   2.446   4.949 -2.2271  1.9900  0.8931
 8860SOL    HW238043   1.258   2.467   5.023 -0.0901  0.3010 -0.6172
 8861SOL     OW38044   2.884   1.787  15.174 -0.4296  0.4227 -0.6529
 8861SOL    HW138045   2.933   1.740  15.107 -0.1885  1.2045 -1.0169
 8861SOL    HW238046   2.923   1.874  15.167 -0.0071  0.2859 -0.0184
 8862SOL     OW38047   0.626   2.176   6.720 -0.0722 -0.0923 -0.0572
 8862SOL    HW138048   0.555   2.175   6.785 -1.9222 -0.5765 -2.0859
 8862SOL    HW238049   0.693   2.125   6.765  1.6974  0.6208 -1.8889
 8863SOL     OW38050   4.257   1.919   4.300  1.0937  0.2315  0.2994
 8863SOL    HW138051   4.236   1.902   4.392 -0.2303 -1.8034 -0.3852
 8863SOL    HW238052   4.212   2.002   4.282 -2.5587 -1.5771  1.1377
 8864SOL     OW38053   1.598   3.283  10.999 -0.2636  0.2690 -0.8429
 8864SOL    HW138054   1.685   3.258  11.030  0.2559  2.1453 -0.7628
 8864SOL    HW238055   1.560   3.197  11.014  2.8568 -1.3108 -1.9649
 8865SOL     OW38056   3.443   4.357  10.272 -0.1064 -0.0025  0.1998
 8865SOL    HW138057   3.519   4.378  10.325  0.8765 -2.1279 -0.3787
 8865SOL    HW238058   3.476   4.278  10.229 -1.0651 -0.7005  0.7431
 8866SOL     OW38059   0.165   4.036   9.119  0.0773  0.1429 -0.0527
 8866SOL    HW138060   0.142   3.951   9.158 -0.8599  0.5994  0.3714
 8866SOL    HW238061   0.082   4.052   9.075  1.3763  1.8883 -1.8605
 8867SOL     OW38062   2.353   1.981   7.520  0.4802 -0.6207  0.0989
 8867SOL    HW138063   2.308   1.952   7.599 -0.2216  1.5476  0.5059
 8867SOL    HW238064   2.438   1.938   7.528  0.8622  0.5046  2.1358
 8868SOL     OW38065   2.871   3.134   9.093 -0.0306 -0.4084  0.1473
 8868SOL    HW138066   2.858   3.226   9.067 -1.5700 -0.3247  1.2164
 8868SOL    HW238067   2.782   3.108   9.117 -0.7034  1.0865 -0.7110
 8869SOL     OW38068   0.568   2.249  13.549 -0.1211  0.1031  0.1127
 8869SOL    HW138069   0.517   2.182  13.504  0.4819 -0.1769 -0.1667
 8869SOL    HW238070   0.534   2.239  13.638  1.0462 -0.2770  0.5189
 8870SOL     OW38071   1.936   2.183   9.441  0.0122 -0.0824 -0.2456
 8870SOL    HW138072   1.966   2.170   9.351 -2.6624  0.6486 -1.2552
 8870SOL    HW238073   1.923   2.278   9.443  0.2011 -0.0606  0.0424
 8871SOL     OW38074   3.648   3.387  14.113 -0.2648 -0.1317 -0.9948
 8871SOL    HW138075   3.741   3.369  14.126 -0.2298  1.5741  1.3430
 8871SOL    HW238076   3.615   3.328  14.181  1.8550  0.8181  0.8733
 8872SOL     OW38077   1.586   2.794   3.249 -0.3464 -0.3899 -0.6720
 8872SOL    HW138078   1.523   2.865   3.239 -0.2566  0.0888  2.1387
 8872SOL    HW238079   1.606   2.783   3.156 -0.4300  0.0049 -0.7347
 8873SOL     OW38080   4.569   0.097   6.720  0.3609  0.1915  0.7488
 8873SOL    HW138081   4.559   0.004   6.702  0.5431  0.4051 -0.4191
 8873SOL    HW238082   4.662   0.098   6.743  0.3096 -0.0660  0.9673
 8874SOL     OW38083   1.590   1.748   6.392  0.1077  0.7070  0.7023
 8874SOL    HW138084   1.614   1.744   6.299  1.9755  2.7845  1.0969
 8874SOL    HW238085   1.521   1.814   6.388 -0.4826  0.0538  0.1129
 8875SOL     OW38086   1.267   0.284   2.428 -0.4376  0.1871 -0.2681
 8875SOL    HW138087   1.172   0.285   2.414 -0.1326 -1.2886 -2.3900
 8875SOL    HW238088   1.280   0.189   2.438  0.8676  0.4214  0.1949
 8876SOL     OW38089   4.021   2.987   9.827 -0.2706  0.4793  0.0089
 8876SOL    HW138090   3.964   2.981   9.750 -0.0368 -0.3465 -0.1009
 8876SOL    HW238091   4.000   2.905   9.871 -1.9235  0.9829  0.1695
 8877SOL     OW38092   3.999   4.610   6.915  0.5919 -0.2245  0.6547
 8877SOL    HW138093   3.980   4.554   6.991  4.9128 -2.0529  0.4283
 8877SOL    HW238094   3.913   4.648   6.900  1.1246  1.0563  0.8897
 8878SOL     OW38095   1.610   2.571   7.287  0.7912 -0.4849  0.2774
 8878SOL    HW138096   1.631   2.576   7.380  1.3439 -0.6382  0.1596
 8878SOL    HW238097   1.610   2.661   7.257  1.8975  0.4914  3.2051
 8879SOL     OW38098   4.126   4.201   4.623  0.2781 -0.5062 -0.0463
 8879SOL    HW138099   4.075   4.278   4.648  0.1090 -0.3846 -0.7639
 8879SOL    HW238100   4.147   4.235   4.536 -2.1488 -1.6360 -1.0901
 8880SOL     OW38101   3.138   3.456   7.291  0.1484  0.0328 -0.2102
 8880SOL    HW138102   3.230   3.458   7.318  0.4597  1.4472 -1.3797
 8880SOL    HW238103   3.155   3.488   7.203  2.0449  0.2780  0.2289
 8881SOL     OW38104   3.462   0.207  12.659 -0.5409  0.8947  0.1467
 8881SOL    HW138105   3.547   0.219  12.701 -0.0975 -0.8968 -0.2205
 8881SOL    HW238106   3.465   0.275  12.592  0.2058  0.5556 -0.1707
 8882SOL     OW38107   0.481   1.470   6.549 -0.2161 -0.0140  0.0037
 8882SOL    HW138108   0.466   1.478   6.455 -0.2175 -1.1182 -0.0875
 8882SOL    HW238109   0.458   1.561   6.572 -1.9922 -0.8611  1.5989
 8883SOL     OW38110   0.196   4.091  12.241 -0.2040 -0.2405 -0.1706
 8883SOL    HW138111   0.144   4.132  12.173 -0.6113  1.4767  1.1716
 8883SOL    HW238112   0.197   4.163  12.305  1.0636  1.9280 -2.6637
 8884SOL     OW38113   2.987   4.113   0.579  0.0558 -0.3306  0.0576
 8884SOL    HW138114   3.020   4.195   0.614  0.4861 -0.6561  0.4096
 8884SOL    HW238115   3.062   4.057   0.600  1.3638  1.4271  0.1163
 8885SOL     OW38116   3.165   3.387   4.863 -0.4663  0.1851 -0.3215
 8885SOL    HW138117   3.097   3.430   4.916  1.5401  1.2439  1.3690
 8885SOL    HW238118   3.241   3.444   4.866  1.1847 -2.0889  0.3678
 8886SOL     OW38119   1.217   0.185  12.252 -0.0896  0.1210 -0.4859
 8886SOL    HW138120   1.183   0.125  12.319 -3.3133  0.3303 -1.9210
 8886SOL    HW238121   1.234   0.125  12.179 -1.7718 -0.3589 -0.4903
 8887SOL     OW38122   0.072   0.827   4.637  0.6709  0.1078  0.0421
 8887SOL    HW138123   0.128   0.806   4.712 -0.8412  1.6634  1.6105
 8887SOL    HW238124   0.034   0.910   4.664 -0.9212 -0.3440 -0.7849
 8888SOL     OW38125   0.119   3.499  10.919 -0.0066  0.1312 -0.2138
 8888SOL    HW138126   0.047   3.561  10.909 -0.0159  0.2615  0.7127
 8888SOL    HW238127   0.111   3.456  11.004 -1.0603  2.0671  0.6627
 8889SOL     OW38128   4.241   2.857   0.914  0.0738 -0.1182 -0.2632
 8889SOL    HW138129   4.270   2.877   0.825  0.1534 -0.6203 -0.3534
 8889SOL    HW238130   4.146   2.855   0.902  0.1040 -1.7528 -0.3199
 8890SOL     OW38131   3.970   0.835   5.853  0.0186  0.5043 -0.5143
 8890SOL    HW138132   4.017   0.789   5.783 -1.6328  0.7088 -1.7738
 8890SOL    HW238133   3.922   0.756   5.880 -1.6716  0.4565 -3.5777
 8891SOL     OW38134   2.462   1.906  15.874  0.2376  0.5769  0.2334
 8891SOL    HW138135   2.423   1.955  15.946  0.3434  2.1437 -0.7863
 8891SOL    HW238136   2.522   1.842  15.912 -0.8660 -0.2139  0.6234
 8892SOL     OW38137   2.334   2.572   8.539 -0.1016  0.4889 -0.0660
 8892SOL    HW138138   2.326   2.511   8.613 -0.1186 -2.5721 -2.5591
 8892SOL    HW238139   2.354   2.522   8.460 -1.6417 -1.4831  0.7861
 8893SOL     OW38140   2.029   1.195   6.381  0.4782 -0.1320  0.4369
 8893SOL    HW138141   2.047   1.134   6.452 -0.6293  0.2816  1.0740
 8893SOL    HW238142   2.050   1.139   6.307 -0.6732  1.0579 -0.7957
 8894SOL     OW38143   0.804   3.327   0.182  0.5509  0.4361  0.2086
 8894SOL    HW138144   0.843   3.409   0.153 -0.7927  1.2400  0.6752
 8894SOL    HW238145   0.751   3.360   0.254 -1.3640 -1.5008 -0.2849
 8895SOL     OW38146   2.496   3.540   2.934 -0.1087  0.1268  0.2512
 8895SOL    HW138147   2.538   3.491   3.006 -1.2765 -2.3866 -0.7699
 8895SOL    HW238148   2.435   3.474   2.901 -2.7360  2.4358  0.5166
 8896SOL     OW38149   2.340   1.546   8.151 -0.2571  0.2056 -0.3246
 8896SOL    HW138150   2.320   1.637   8.129 -2.2469 -0.4116 -1.0561
 8896SOL    HW238151   2.412   1.529   8.090  0.5335  1.8982  0.1338
 8897SOL     OW38152   3.159   3.622   5.087 -0.5136  0.0221 -0.2036
 8897SOL    HW138153   3.094   3.667   5.141  0.8581 -0.0797  1.5199
 8897SOL    HW238154   3.235   3.638   5.143 -0.5756 -1.7302  0.3608
 8898SOL     OW38155   0.926   4.694   8.659 -0.9110 -0.2379  0.2813
 8898SOL    HW138156   0.959   4.716   8.572 -0.7848 -1.7266 -0.0549
 8898SOL    HW238157   0.832   4.705   8.645 -1.0816 -0.2072  1.4334
 8899SOL     OW38158   3.147   3.228   5.822 -0.1442 -0.0460 -0.6528
 8899SOL    HW138159   3.092   3.173   5.877 -0.1187  1.0793  0.4887
 8899SOL    HW238160   3.233   3.185   5.814  0.1012  0.5116 -1.0210
 8900SOL     OW38161   3.542   4.708   3.516  0.0864 -0.3238 -0.1412
 8900SOL    HW138162   3.561   0.075   3.472 -0.3934  0.7728  1.7482
 8900SOL    HW238163   3.447   4.706   3.522  0.0615  0.3427 -0.2793
 8901SOL     OW38164   2.744   3.249  11.652 -0.0971  0.0286 -0.5150
 8901SOL    HW138165   2.697   3.259  11.569  0.1904 -0.4235 -0.7357
 8901SOL    HW238166   2.788   3.168  11.625 -1.4279 -1.1959  1.0453
 8902SOL     OW38167   4.285   1.631  17.181  0.3180  0.1294  0.1229
 8902SOL    HW138168   4.273   1.536  17.186 -2.4036  0.5265  1.4100
 8902SOL    HW238169   4.335   1.638  17.100 -0.2731 -1.4467 -0.3852
 8903SOL     OW38170   3.352   4.375   3.666  0.3799 -0.1098 -0.7834
 8903SOL    HW138171   3.373   4.353   3.575 -1.2022  0.0533 -1.1837
 8903SOL    HW238172   3.258   4.390   3.664  0.2880 -0.2837  2.2860
 8904SOL     OW38173   0.717   0.427   6.852 -0.3067 -0.2712 -0.4360
 8904SOL    HW138174   0.742   0.364   6.919 -0.5540  0.5912  0.4727
 8904SOL    HW238175   0.724   0.502   6.911  0.8950  0.2394 -1.2158
 8905SOL     OW38176   4.273   1.076  11.767  0.2795  0.1821  0.0628
 8905SOL    HW138177   4.333   1.018  11.813 -1.3837  0.9176  3.1597
 8905SOL    HW238178   4.195   1.021  11.760 -0.3592  0.8464  2.0781
 8906SOL     OW38179   0.312   2.477   0.973  0.1397  0.4799 -0.3570
 8906SOL    HW138180   0.224   2.445   0.954  0.1080  1.1369 -1.3545
 8906SOL    HW238181   0.343   2.514   0.890  1.7754 -1.0985 -0.4476
 8907SOL     OW38182   4.617   0.282  16.301 -0.3049  0.2667 -0.1424
 8907SOL    HW138183   4.689   0.256  16.244  1.6682  2.3826  1.3936
 8907SOL    HW238184   4.557   0.327  16.241 -0.0150 -1.2276 -1.5403
 8908SOL     OW38185   3.522   4.505   5.667 -0.1460 -0.1404 -0.0832
 8908SOL    HW138186   3.606   4.460   5.678 -0.0045  0.6345  2.0337
 8908SOL    HW238187   3.467   4.447   5.719 -1.4743 -0.3920 -1.7514
 8909SOL     OW38188   0.899   4.198  13.774  0.3752 -0.2385  0.0500
 8909SOL    HW138189   0.862   4.250  13.702 -0.4093  1.1120  1.4482
 8909SOL    HW238190   0.846   4.216  13.852  0.0058 -0.8634 -0.0568
 8910SOL     OW38191   0.140   0.518   8.247  0.0121 -0.5362 -0.3788
 8910SOL    HW138192   0.049   0.500   8.274  0.1009 -0.2210  0.1381
 8910SOL    HW238193   0.189   0.451   8.295  2.6596  2.0705  0.5322
 8911SOL     OW38194   0.309   2.192   2.894 -0.1740  0.1836 -0.0824
 8911SOL    HW138195   0.265   2.119   2.936 -1.8889  0.1998 -1.8683
 8911SOL    HW238196   0.301   2.164   2.802  3.2202 -0.2200 -0.2824
 8912SOL     OW38197   1.383   3.234   6.716  0.4190 -0.2758 -0.1951
 8912SOL    HW138198   1.367   3.149   6.673 -1.9264 -0.2036  0.5288
 8912SOL    HW238199   1.357   3.231   6.808 -1.1451  1.8287 -0.5796
 8913SOL     OW38200   1.961   3.016   9.204 -0.0966  0.2578 -0.2121
 8913SOL    HW138201   2.049   2.979   9.196  0.0485  0.6710 -0.5315
 8913SOL    HW238202   1.977   3.109   9.217 -2.6647  0.2779  2.7312
 8914SOL     OW38203   2.805   0.002   8.620 -0.2480  0.0414  0.1096
 8914SOL    HW138204   2.802   4.632   8.580  1.2804 -0.1253  0.3499
 8914SOL    HW238205   2.762   4.696   8.702  1.0531 -1.3054  0.4305
 8915SOL     OW38206   2.224   1.722  14.441 -0.6634 -0.4017  0.2291
 8915SOL    HW138207   2.204   1.731  14.347  1.3795 -1.7989 -0.3295
 8915SOL    HW238208   2.316   1.745  14.450 -0.2726 -1.0804 -1.8896
 8916SOL     OW38209   0.838   2.978   5.503 -0.0828  0.0476  0.5751
 8916SOL    HW138210   0.905   2.910   5.513 -0.3223 -0.3080 -0.2311
 8916SOL    HW238211   0.881   3.037   5.564 -1.4063 -0.1556  1.7025
 8917SOL     OW38212   2.820   0.501  16.742  0.3335  0.3300 -0.5168
 8917SOL    HW138213   2.874   0.436  16.786  0.5902 -0.3828 -1.8658
 8917SOL    HW238214   2.736   0.458  16.730  0.4993 -0.5400  1.4799
 8918SOL     OW38215   2.924   3.811   3.133 -0.6120 -0.0591 -0.5153
 8918SOL    HW138216   2.848   3.759   3.158 -0.6264  0.8364  1.3717
 8918SOL    HW238217   2.937   3.864   3.212 -0.3271 -1.9703  0.7314
 8919SOL     OW38218   2.732   3.824   2.820 -0.1227  0.0213  0.3476
 8919SOL    HW138219   2.652   3.834   2.768 -0.0345 -1.4422 -0.0611
 8919SOL    HW238220   2.710   3.880   2.895 -2.8711 -2.0265  1.0924
 8920SOL     OW38221   2.748   1.991   2.034 -0.5259 -0.1613 -0.2514
 8920SOL    HW138222   2.705   1.952   1.959  1.9449 -1.3294 -1.0563
 8920SOL    HW238223   2.812   2.045   1.988  0.0519 -0.8378 -0.2371
 8921SOL     OW38224   0.942   4.175   2.093 -0.7283 -0.2196 -0.1548
 8921SOL    HW138225   0.990   4.245   2.049  0.2155  0.0581  1.3326
 8921SOL    HW238226   0.907   4.132   2.014 -2.3972  1.4823 -0.3433
 8922SOL     OW38227   4.100   1.428   4.923 -0.4397  0.7965 -0.0653
 8922SOL    HW138228   4.102   1.353   4.983 -1.0261  0.2087 -0.7797
 8922SOL    HW238229   4.187   1.427   4.884 -0.2557  0.0243  0.3639
 8923SOL     OW38230   2.116   1.645   6.464 -0.7741  0.4381 -0.7041
 8923SOL    HW138231   2.093   1.729   6.503  2.5572 -0.1128  2.4674
 8923SOL    HW238232   2.208   1.642   6.489 -0.6513 -0.3080 -1.2811
 8924SOL     OW38233   1.595   1.722  15.947 -0.4215  0.0955  0.2592
 8924SOL    HW138234   1.638   1.804  15.971 -0.1622  0.6295 -2.0412
 8924SOL    HW238235   1.530   1.753  15.884  0.1851 -0.2514 -0.5280
 8925SOL     OW38236   1.025   0.477   5.888 -0.5211  0.2978  0.2732
 8925SOL    HW138237   1.093   0.521   5.838 -0.6847 -0.3140 -0.4887
 8925SOL    HW238238   1.058   0.388   5.879  0.6975  0.8273 -0.4304
 8926SOL     OW38239   1.093   4.207   0.728 -0.1740  0.4668  0.5600
 8926SOL    HW138240   1.047   4.290   0.716  0.4471  0.7755  0.3429
 8926SOL    HW238241   1.024   4.142   0.711 -0.0200  0.4772 -0.0930
 8927SOL     OW38242   1.109   4.291   1.403  0.0415  0.3570  0.4367
 8927SOL    HW138243   1.101   4.211   1.455  0.4188 -0.1594 -0.2896
 8927SOL    HW238244   1.060   4.351   1.460 -1.1777 -0.3436  0.1260
 8928SOL     OW38245   3.506   2.332  17.349  0.0344  0.4066 -0.0237
 8928SOL    HW138246   3.580   2.373  17.304  1.0306 -1.1463  0.1897
 8928SOL    HW238247   3.483   2.270  17.279 -1.2738 -0.3494  1.0711
 8929SOL     OW38248   2.626   4.230  11.070  0.3367 -0.3973  0.4627
 8929SOL    HW138249   2.569   4.303  11.097  1.7428  0.9571 -0.2584
 8929SOL    HW238250   2.676   4.271  11.000 -0.1929  1.2968  1.0529
 8930SOL     OW38251   3.185   2.375   3.249 -0.0550  0.0139 -0.1603
 8930SOL    HW138252   3.178   2.380   3.344 -0.1920  0.2378 -0.1832
 8930SOL    HW238253   3.198   2.467   3.228 -1.5277 -0.0185 -1.1827
 8931SOL     OW38254   3.725   1.912   2.807 -0.0310 -0.1749  0.2751
 8931SOL    HW138255   3.751   1.883   2.895  1.6360  1.5957  0.3769
 8931SOL    HW238256   3.794   1.873   2.754  0.4440 -1.0308  1.5246
 8932SOL     OW38257   0.466   2.873   5.098  0.3655  0.6803 -0.2864
 8932SOL    HW138258   0.504   2.893   5.183  0.7726  0.3820 -0.3999
 8932SOL    HW238259   0.489   2.956   5.055  0.6193 -0.2321 -1.9155
 8933SOL     OW38260   2.402   1.448   9.648  0.3018 -0.0467  0.0317
 8933SOL    HW138261   2.451   1.445   9.566 -0.5707 -0.5604 -0.4784
 8933SOL    HW238262   2.415   1.542   9.660 -0.3518 -0.2841  2.6958
 8934SOL     OW38263   1.697   3.033   1.818  0.3243 -0.4286  0.4835
 8934SOL    HW138264   1.689   2.946   1.781  1.1085 -1.6013  3.0785
 8934SOL    HW238265   1.604   3.056   1.828  1.2360  2.5349  2.3265
 8935SOL     OW38266   4.403   3.329   8.417 -0.1424 -0.0160  0.2471
 8935SOL    HW138267   4.461   3.260   8.449  1.5033  1.9200  1.4376
 8935SOL    HW238268   4.317   3.288   8.413 -1.0026  1.6546  1.5001
 8936SOL     OW38269   4.571   1.689   6.742  0.1715  0.0232 -0.1333
 8936SOL    HW138270   4.650   1.680   6.689  0.1220 -0.9598 -0.0405
 8936SOL    HW238271   4.507   1.640   6.692  0.3040  0.6711 -0.9375
 8937SOL     OW38272   1.079   1.715   4.611 -0.6604 -0.1223 -0.3562
 8937SOL    HW138273   1.103   1.665   4.533  1.2308  1.8286 -1.0372
 8937SOL    HW238274   1.036   1.795   4.579  1.2989  0.4229 -1.6337
 8938SOL     OW38275   2.921   1.352  11.534  0.2668  0.2591  0.3201
 8938SOL    HW138276   2.981   1.368  11.461 -0.9041 -1.2699 -0.9434
 8938SOL    HW238277   2.842   1.322  11.491 -0.0053  0.2481  0.8325
 8939SOL     OW38278   4.448   2.777  16.435 -0.9914 -0.0666 -0.1810
 8939SOL    HW138279   4.499   2.842  16.484  0.4537 -1.3559  0.0183
 8939SOL    HW238280   4.446   2.689  16.474 -0.2610  0.3826  0.8829
 8940SOL     OW38281   2.475   1.810   9.386 -0.4369 -0.1224  0.3320
 8940SOL    HW138282   2.426   1.859   9.453  2.5538  1.0276  1.6436
 8940SOL    HW238283   2.488   1.728   9.434 -2.0766 -1.2184 -1.1281
 8941SOL     OW38284   4.037   0.851   8.535  0.6462  0.2906  0.1158
 8941SOL    HW138285   4.060   0.760   8.557 -1.7970 -0.5734 -0.8615
 8941SOL    HW238286   4.079   0.892   8.611 -0.5512  0.2032  0.8293
 8942SOL     OW38287   1.205   1.678  15.639  0.0931  0.2005  0.3224
 8942SOL    HW138288   1.290   1.637  15.626  0.7172  0.7151  2.7538
 8942SOL    HW238289   1.156   1.597  15.657  0.6704 -0.3795 -0.7451
 8943SOL     OW38290   2.271   1.331   2.869 -0.5080  0.0696  0.0018
 8943SOL    HW138291   2.288   1.244   2.905  1.9092  0.2274 -0.7069
 8943SOL    HW238292   2.187   1.352   2.909  0.4424 -0.2414  2.1438
 8944SOL     OW38293   2.355   3.229   5.162 -0.5177 -0.5479 -0.1231
 8944SOL    HW138294   2.430   3.284   5.182 -2.2470  1.9090 -0.4352
 8944SOL    HW238295   2.322   3.224   5.252  1.5963 -0.5736  0.6471
 8945SOL     OW38296   3.937   4.234  16.621  0.2655 -0.3511  0.0780
 8945SOL    HW138297   3.847   4.202  16.621  0.0713  0.1807  2.3137
 8945SOL    HW238298   3.970   4.227  16.711 -0.3156  1.5694  0.4407
 8946SOL     OW38299   1.203   0.748   7.805  0.0840 -0.1664 -0.7297
 8946SOL    HW138300   1.130   0.709   7.852 -0.5165  2.1129  0.2306
 8946SOL    HW238301   1.163   0.811   7.744 -0.3246 -0.5291 -0.8357
 8947SOL     OW38302   0.624   3.114  13.982 -0.1518  0.1573 -0.7342
 8947SOL    HW138303   0.594   3.048  13.919 -1.7445 -1.3781  1.6229
 8947SOL    HW238304   0.712   3.130  13.948  0.1593  1.3419  0.5987
 8948SOL     OW38305   4.195   2.647   4.471 -0.2180  0.4406  0.2805
 8948SOL    HW138306   4.187   2.676   4.380  0.4613 -0.8882 -0.1956
 8948SOL    HW238307   4.220   2.556   4.458  0.5195  0.9320 -1.7932
 8949SOL     OW38308   4.576   3.612   6.832  0.2770 -0.4492 -0.8626
 8949SOL    HW138309   4.635   3.653   6.895 -0.5383 -0.0786 -0.3365
 8949SOL    HW238310   4.610   3.650   6.752 -1.2230  1.2988 -0.6619
 8950SOL     OW38311   1.759   0.481  17.646 -0.1135  0.0838  0.0220
 8950SOL    HW138312   1.804   0.540   0.036  1.8850 -0.5629 -0.8361
 8950SOL    HW238313   1.764   0.398   0.024  0.7233  1.8384  2.9686
 8951SOL     OW38314   3.042   0.753   3.748  0.3649 -0.0138 -0.1304
 8951SOL    HW138315   3.055   0.763   3.654 -3.8018 -2.1251 -0.9598
 8951SOL    HW238316   3.047   0.843   3.780  1.8340 -0.6392  1.3753
 8952SOL     OW38317   0.608   2.964   3.247  0.0822 -0.2254 -0.2801
 8952SOL    HW138318   0.698   2.934   3.239  0.5383  0.6041  1.7644
 8952SOL    HW238319   0.558   2.885   3.228  0.2291 -0.6857  1.2880
 8953SOL     OW38320   1.868   0.569   9.121 -1.2778  0.6350 -0.3884
 8953SOL    HW138321   1.881   0.479   9.151  1.0437  1.2680  0.4898
 8953SOL    HW238322   1.804   0.560   9.050 -2.9716  0.9812  1.0925
 8954SOL     OW38323   3.469   1.454  13.726 -0.4847 -0.0637 -0.5279
 8954SOL    HW138324   3.556   1.459  13.685 -0.1822 -1.5085 -0.0832
 8954SOL    HW238325   3.461   1.362  13.753  0.7605  0.3754  1.3544
 8955SOL     OW38326   4.419   1.016   1.677  0.4436  0.0315  0.2240
 8955SOL    HW138327   4.441   0.993   1.586 -2.0930 -0.5208 -0.2706
 8955SOL    HW238328   4.362   1.092   1.667  2.1558  1.5891  2.3521
 8956SOL     OW38329   3.740   2.240  11.153  0.0670 -0.3442 -0.1299
 8956SOL    HW138330   3.651   2.272  11.140 -0.2062 -1.0370  0.0178
 8956SOL    HW238331   3.758   2.180  11.080 -1.0817 -0.9460  0.0821
 8957SOL     OW38332   2.267   2.156   5.505 -0.0556 -0.0198 -0.5411
 8957SOL    HW138333   2.313   2.241   5.503 -1.6548  0.8547  0.4681
 8957SOL    HW238334   2.345   2.101   5.502  0.1168  0.2650 -1.6470
 8958SOL     OW38335   2.265   4.472   4.646 -0.2083 -0.1797  0.1071
 8958SOL    HW138336   2.281   4.565   4.664  0.3645  0.3413 -3.0664
 8958SOL    HW238337   2.309   4.453   4.563  0.6421 -0.9637  0.7337
 8959SOL     OW38338   3.012   3.851   8.790 -0.1326 -0.4391 -0.1715
 8959SOL    HW138339   2.953   3.875   8.861 -0.9375 -0.6424 -0.7740
 8959SOL    HW238340   2.947   3.850   8.720  0.9647 -1.5102 -1.1737
 8960SOL     OW38341   3.084   3.623   3.558 -0.0134 -0.1999  0.2779
 8960SOL    HW138342   3.152   3.686   3.533 -0.4070 -0.0505 -0.4120
 8960SOL    HW238343   3.138   3.544   3.554 -2.1169 -1.5874 -0.4180
 8961SOL     OW38344   2.840   2.788  13.177 -0.2286 -0.2442 -0.9085
 8961SOL    HW138345   2.776   2.725  13.145 -3.4876  1.0230  3.2626
 8961SOL    HW238346   2.871   2.829  13.096  2.3429 -1.7523 -0.7016
 8962SOL     OW38347   1.716   4.315   5.653 -0.6496 -0.0444  0.4086
 8962SOL    HW138348   1.634   4.270   5.633 -0.7472  0.3497 -0.0722
 8962SOL    HW238349   1.786   4.253   5.633 -2.5237 -2.5221  1.4978
 8963SOL     OW38350   3.496   2.826   1.606 -0.2478  0.3637 -0.4065
 8963SOL    HW138351   3.530   2.833   1.695 -1.1402  0.0339 -0.0437
 8963SOL    HW238352   3.467   2.735   1.606 -0.6739  0.4977 -2.1843
 8964SOL     OW38353   1.796   2.551   5.767 -0.3531  0.8712  0.1177
 8964SOL    HW138354   1.769   2.505   5.846  0.1201 -1.5534 -1.1136
 8964SOL    HW238355   1.715   2.590   5.734  0.6156  1.1423 -1.9602
 8965SOL     OW38356   4.197   1.945  13.548  0.4622 -0.4557  0.2347
 8965SOL    HW138357   4.112   1.907  13.568  0.5056  0.2953  1.8742
 8965SOL    HW238358   4.224   1.901  13.467 -0.8018  2.8963 -2.0250
 8966SOL     OW38359   0.974   0.866   9.784 -0.5043 -0.0675 -0.1714
 8966SOL    HW138360   0.929   0.806   9.844 -1.3957  1.2005  0.4302
 8966SOL    HW238361   1.012   0.805   9.721 -0.9147 -0.4714 -0.0318
 8967SOL     OW38362   0.349   0.723   9.840 -0.1677 -0.1483 -0.2090
 8967SOL    HW138363   0.305   0.739   9.757 -1.2434  4.5985  1.2701
 8967SOL    HW238364   0.410   0.796   9.841 -1.4621  0.9248  0.6301
 8968SOL     OW38365   3.139   0.281   2.486 -0.0453  0.0156  0.3976
 8968SOL    HW138366   3.200   0.219   2.446  1.8588  2.3822 -0.3687
 8968SOL    HW238367   3.054   0.238   2.491 -1.3314  2.2615 -1.6497
 8969SOL     OW38368   0.473   0.711  12.088 -0.1754  0.2177  0.1467
 8969SOL    HW138369   0.531   0.700  12.013  1.3120 -1.8699  1.6042
 8969SOL    HW238370   0.448   0.803  12.073 -1.8004 -0.3615 -0.7197
 8970SOL     OW38371   0.627   1.391  13.847 -0.1467 -0.2580  0.1748
 8970SOL    HW138372   0.535   1.371  13.832 -0.1711  1.6268 -2.2218
 8970SOL    HW238373   0.618   1.479  13.883  1.8348 -0.1143  0.3123
 8971SOL     OW38374   3.670   4.305   7.684 -0.0457  0.3910  0.1463
 8971SOL    HW138375   3.728   4.381   7.683  0.4611  0.0050  0.2940
 8971SOL    HW238376   3.594   4.348   7.723 -1.0549 -0.8379 -0.4668
 8972SOL     OW38377   2.329   0.283  15.660  0.0723  0.4345 -0.5071
 8972SOL    HW138378   2.377   0.356  15.622  1.3178  0.0806  0.3962
 8972SOL    HW238379   2.398   0.245  15.714 -1.7768 -2.4740 -0.1973
 8973SOL     OW38380   4.358   3.901  14.588  0.3829 -0.0304  0.6871
 8973SOL    HW138381   4.334   3.936  14.674  1.4708  0.1819  0.9028
 8973SOL    HW238382   4.278   3.850  14.574 -0.7072  1.9383 -0.3725
 8974SOL     OW38383   1.064   4.437   5.206 -0.1841  0.3156 -0.1342
 8974SOL    HW138384   0.999   4.491   5.252 -1.8065 -1.8743  0.1449
 8974SOL    HW238385   1.067   4.357   5.258 -1.5721 -0.0838 -0.6620
 8975SOL     OW38386   2.086   4.515   0.813 -0.2996 -0.4115  0.1277
 8975SOL    HW138387   1.993   4.523   0.793 -0.5768 -1.3309  1.0094
 8975SOL    HW238388   2.127   4.482   0.733 -1.2472  2.1635 -1.3884
 8976SOL     OW38389   2.695   0.009   7.533  0.3192  0.5533  0.0636
 8976SOL    HW138390   2.755   0.084   7.527  0.0186  0.8213  0.4539
 8976SOL    HW238391   2.664   0.022   7.622 -0.5139 -1.9489  0.1278
 8977SOL     OW38392   4.218   2.409  15.587  0.0830 -0.2026 -0.3710
 8977SOL    HW138393   4.197   2.320  15.556  3.4811 -1.6060  1.3163
 8977SOL    HW238394   4.138   2.423  15.637 -0.0577 -2.0929 -0.0460
 8978SOL     OW38395   0.584   3.788   0.071 -0.0941 -0.8701 -0.1846
 8978SOL    HW138396   0.587   3.760  17.649  2.1402 -1.8946  0.2120
 8978SOL    HW238397   0.509   3.736   0.100 -0.4267  0.1960  0.8938
 8979SOL     OW38398   1.162   2.849   4.964  0.1100 -0.3288 -0.1453
 8979SOL    HW138399   1.180   2.895   5.046 -1.3288  1.1616 -0.6698
 8979SOL    HW238400   1.239   2.881   4.916  0.2484  1.4189  1.2324
 8980SOL     OW38401   2.381   0.114  11.051 -0.0708  0.0493 -0.6825
 8980SOL    HW138402   2.286   0.125  11.045 -0.0920  0.6237  0.5555
 8980SOL    HW238403   2.383   0.020  11.065 -0.3898  0.2471  0.7338
 8981SOL     OW38404   3.699   3.036  12.810 -0.0835  0.5720  0.3397
 8981SOL    HW138405   3.611   3.038  12.772  0.0546  1.8733  0.0824
 8981SOL    HW238406   3.715   2.950  12.850  0.8091  0.5180 -0.1343
 8982SOL     OW38407   1.601   3.280   9.969 -0.0954 -0.0480  0.4318
 8982SOL    HW138408   1.648   3.239   9.897  1.3865  0.1254  1.3008
 8982SOL    HW238409   1.512   3.259   9.941  0.5609 -1.5136 -0.5297
 8983SOL     OW38410   0.319   2.700   6.889  0.0549 -0.8745 -0.8540
 8983SOL    HW138411   0.350   2.683   6.800  1.4463 -0.5082 -0.4394
 8983SOL    HW238412   0.404   2.684   6.930 -0.1662 -0.6188 -0.2944
 8984SOL     OW38413   0.366   2.632   5.436 -0.2997 -0.0172  0.3899
 8984SOL    HW138414   0.445   2.580   5.425 -0.5902 -0.2528 -0.5677
 8984SOL    HW238415   0.342   2.658   5.347 -1.2002  4.9040  2.0769
 8985SOL     OW38416   4.595   2.274   8.518 -0.0914 -0.2310 -0.6074
 8985SOL    HW138417   4.522   2.317   8.474 -1.1372 -1.8444 -0.4662
 8985SOL    HW238418   4.550   2.192   8.541 -3.0344  0.4286 -4.1333
 8986SOL     OW38419   0.032   1.991   7.806  0.5138  0.5193  0.6064
 8986SOL    HW138420   0.105   2.029   7.757  0.3816  0.5020  0.3915
 8986SOL    HW238421   4.671   2.032   7.766  1.9638  2.6954  0.0304
 8987SOL     OW38422   4.117   3.203   5.758  0.5971 -0.2841 -0.5574
 8987SOL    HW138423   4.036   3.157   5.780  0.6623  0.0448  0.3827
 8987SOL    HW238424   4.165   3.125   5.732  0.6781 -0.4720  0.1395
 8988SOL     OW38425   1.156   4.637  12.462  0.2052 -0.2098  0.0934
 8988SOL    HW138426   1.190   4.575  12.527 -1.0879 -0.4540  0.5377
 8988SOL    HW238427   1.062   4.644  12.481  0.3999  0.6239  0.7255
 8989SOL     OW38428   2.559   2.725   5.051 -0.2287  0.1771 -0.1009
 8989SOL    HW138429   2.538   2.729   5.144  1.5598 -0.6486  0.3333
 8989SOL    HW238430   2.501   2.794   5.017  1.9257  1.7411 -0.6581
 8990SOL     OW38431   0.185   2.667  14.561 -0.0809  0.0008 -0.5439
 8990SOL    HW138432   0.240   2.729  14.609  0.1427 -1.4224  1.0019
 8990SOL    HW238433   0.235   2.616  14.497  0.3090 -0.0877 -0.1695
 8991SOL     OW38434   2.835   3.729  15.007  0.2480  0.0485  0.0542
 8991SOL    HW138435   2.858   3.767  14.922  0.6344  2.8949  1.4476
 8991SOL    HW238436   2.772   3.796  15.033 -0.3517 -0.5998  0.2691
 8992SOL     OW38437   1.140   3.764   4.109 -0.4887  0.4645  0.3809
 8992SOL    HW138438   1.177   3.834   4.163  1.6365 -1.3116  1.2362
 8992SOL    HW238439   1.175   3.777   4.021 -2.0122  2.1076  0.0209
 8993SOL     OW38440   1.833   3.444   2.008  0.0359  0.5235  0.1550
 8993SOL    HW138441   1.806   3.375   1.947  1.5085  0.9395 -0.9707
 8993SOL    HW238442   1.752   3.433   2.057  1.7249  0.7966  2.9505
 8994SOL     OW38443   4.514   4.418  15.846 -0.1495  0.3851  0.3815
 8994SOL    HW138444   4.589   4.470  15.876  0.2264  0.1313 -0.1372
 8994SOL    HW238445   4.489   4.463  15.765  1.0861 -0.3806 -0.4184
 8995SOL     OW38446   4.523   2.705   6.526  0.4165 -0.0831  0.2043
 8995SOL    HW138447   4.548   2.635   6.465  0.8659  1.1502 -1.0068
 8995SOL    HW238448   4.548   2.660   6.607 -2.3310 -2.0167 -0.0041
 8996SOL     OW38449   0.928   1.681   8.506  0.0002 -0.4472  0.4575
 8996SOL    HW138450   0.940   1.623   8.581 -2.2133  0.0169  1.1822
 8996SOL    HW238451   0.978   1.754   8.542  2.2967 -0.2970 -3.0963
 8997SOL     OW38452   2.567   2.374   8.456  0.6372 -0.2924  0.3952
 8997SOL    HW138453   2.547   2.460   8.421 -0.7192 -0.7669 -0.0290
 8997SOL    HW238454   2.632   2.343   8.393  0.9152  2.3710 -0.6019
 8998SOL     OW38455   3.488   4.380   5.108  0.2037  0.1838 -0.1032
 8998SOL    HW138456   3.581   4.360   5.100  0.1518  0.2040 -0.7650
 8998SOL    HW238457   3.483   4.420   5.195  0.0848  0.4421 -0.2287
 8999SOL     OW38458   1.339   4.167   3.299 -0.0023  0.7223  0.7337
 8999SOL    HW138459   1.433   4.186   3.305  1.2841 -4.9737 -1.2612
 8999SOL    HW238460   1.334   4.195   3.208 -0.8057  2.1297  1.2037
 9000SOL     OW38461   0.843   2.056   8.504 -0.0567 -0.1383  0.1090
 9000SOL    HW138462   0.759   2.037   8.462  0.0789  1.5205 -0.8947
 9000SOL    HW238463   0.897   2.027   8.430 -2.2952 -1.4584 -1.0216
 9001SOL     OW38464   2.988   3.301   6.175 -0.0101  0.1592  0.0844
 9001SOL    HW138465   2.923   3.321   6.242  3.0337 -0.7359  3.2951
 9001SOL    HW238466   3.009   3.208   6.183 -1.8133 -0.3167 -0.7255
 9002SOL     OW38467   4.164   0.145   7.122  0.1068 -0.2942 -0.1106
 9002SOL    HW138468   4.137   0.064   7.166 -1.6292  1.5196  2.1021
 9002SOL    HW238469   4.086   0.200   7.119  0.4580  0.2379  0.5230
 9003SOL     OW38470   3.811   2.003  12.770  0.2104  0.4696  0.4144
 9003SOL    HW138471   3.863   2.055  12.708  1.8301 -0.8718  0.6556
 9003SOL    HW238472   3.750   2.070  12.801 -0.4097 -0.8870  2.1499
 9004SOL     OW38473   0.618   1.618  11.098 -0.2198 -0.1920  0.2675
 9004SOL    HW138474   0.660   1.592  11.016  0.9237 -1.6214  1.3215
 9004SOL    HW238475   0.604   1.712  11.089  2.6311  0.2744  0.8366
 9005SOL     OW38476   0.747   0.796   3.394  0.2263  0.7096 -0.3901
 9005SOL    HW138477   0.707   0.836   3.471  0.4859  0.9439 -0.3783
 9005SOL    HW238478   0.832   0.837   3.384  0.9824 -1.3321 -2.3358
 9006SOL     OW38479   4.569   3.758   5.490  0.4082 -0.4165  0.4563
 9006SOL    HW138480   4.578   3.721   5.577 -1.3843  1.5051  1.4764
 9006SOL    HW238481   4.511   3.691   5.453  1.5285 -1.4007  0.4899
 9007SOL     OW38482   3.014   2.648  14.434 -0.4127  0.6162  0.3646
 9007SOL    HW138483   3.020   2.677  14.343  0.1434  1.7224  0.7495
 9007SOL    HW238484   3.035   2.728  14.484  2.1078 -0.9272  1.7635
 9008SOL     OW38485   4.171   4.261   2.972 -0.3323 -0.0779 -0.1078
 9008SOL    HW138486   4.155   4.191   3.035  1.7057  0.4973  1.0369
 9008SOL    HW238487   4.200   4.218   2.891 -2.5398  1.0803 -1.5243
 9009SOL     OW38488   0.247   2.106   2.632  0.1151  0.4035 -0.2853
 9009SOL    HW138489   0.174   2.049   2.656 -0.1582  0.7040 -0.4067
 9009SOL    HW238490   0.242   2.108   2.537 -2.6456 -0.2121 -0.1383
 9010SOL     OW38491   2.354   0.327   4.113  0.3002 -0.4967 -0.0808
 9010SOL    HW138492   2.271   0.318   4.065 -0.0477 -0.9227  0.5962
 9010SOL    HW238493   2.318   0.309   4.200 -1.0741  0.5576 -0.4289
 9011SOL     OW38494   4.414   2.203   6.167 -0.1887  0.5373 -0.0495
 9011SOL    HW138495   4.380   2.164   6.247  0.6893  0.5525  0.3262
 9011SOL    HW238496   4.391   2.133   6.105 -0.2676  0.7496 -0.2634
 9012SOL     OW38497   1.683   2.837  10.200  0.3356 -0.5161 -0.0875
 9012SOL    HW138498   1.624   2.902  10.163 -0.6196 -2.2553 -1.5715
 9012SOL    HW238499   1.642   2.800  10.278  0.1151 -0.2636 -0.0825
 9013SOL     OW38500   0.082   4.350   6.469  0.1109 -0.0987  0.2106
 9013SOL    HW138501   0.173   4.345   6.439  0.0577  0.0708  0.0177
 9013SOL    HW238502   0.057   4.442   6.456  1.5707  0.3420  0.4600
 9014SOL     OW38503   1.594   3.598  11.787 -0.0116 -0.6651  0.7005
 9014SOL    HW138504   1.632   3.511  11.777  2.4373  0.8325 -2.9710
 9014SOL    HW238505   1.592   3.609  11.882 -0.0838  1.3406  0.4763
 9015SOL     OW38506   1.015   0.883  10.869 -0.4522 -1.1417  0.4610
 9015SOL    HW138507   1.100   0.883  10.825 -1.7648 -0.9936 -2.0606
 9015SOL    HW238508   1.029   0.834  10.950 -0.6471  4.3556  3.8050
 9016SOL     OW38509   0.146   4.647   5.826  0.1628 -0.0403 -0.1182
 9016SOL    HW138510   0.225   4.643   5.880 -1.3080 -0.1201  2.0516
 9016SOL    HW238511   0.096   4.712   5.876 -0.8246 -0.7100 -0.2318
 9017SOL     OW38512   0.050   1.928   2.718 -0.0455  0.1174  0.1490
 9017SOL    HW138513   0.098   1.855   2.680  0.3204 -0.1657  1.1573
 9017SOL    HW238514   4.688   1.878   2.744 -1.5315  1.6519 -1.3769
 9018SOL     OW38515   3.871   3.520   2.856  0.3390 -0.7060  0.6038
 9018SOL    HW138516   3.942   3.582   2.870 -1.1906  1.4727 -1.2223
 9018SOL    HW238517   3.908   3.483   2.776 -0.0380  2.6510 -1.1143
 9019SOL     OW38518   0.754   2.564  15.646 -0.4535 -0.0019  0.9705
 9019SOL    HW138519   0.740   2.596  15.557  0.3653  0.0919  0.8802
 9019SOL    HW238520   0.763   2.473  15.617 -1.1043 -0.1184  1.1284
 9020SOL     OW38521   3.981   0.625  17.565  0.0934 -0.0484  0.9421
 9020SOL    HW138522   4.053   0.606  17.625  1.0485 -0.7987 -0.4328
 9020SOL    HW238523   3.974   0.720  17.577  2.5787  0.0930  1.2520
 9021SOL     OW38524   3.322   0.214   5.645 -0.2253  0.2902  0.5808
 9021SOL    HW138525   3.232   0.237   5.622  0.0778  0.3266 -0.5653
 9021SOL    HW238526   3.338   0.134   5.595  2.5808  0.2461  1.5769
 9022SOL     OW38527   2.506   4.416   7.003  0.1683 -0.2887 -0.2207
 9022SOL    HW138528   2.588   4.371   6.983  0.5515  0.4287 -0.2940
 9022SOL    HW238529   2.507   4.421   7.098 -0.6628  1.4729 -0.2882
 9023SOL     OW38530   2.273   3.561   0.555  0.2706  0.0651  0.5682
 9023SOL    HW138531   2.313   3.482   0.518  0.1845 -1.8095  4.5019
 9023SOL    HW238532   2.270   3.537   0.648  0.2842 -2.7250 -0.1460
 9024SOL     OW38533   0.378   1.733  10.597 -0.1043  0.2145  0.3409
 9024SOL    HW138534   0.349   1.821  10.571  1.0398  0.5320  0.1426
 9024SOL    HW238535   0.313   1.680  10.550 -0.2788  1.6052 -1.0213
 9025SOL     OW38536   3.901   1.275   8.535  0.1351  0.9300  0.0725
 9025SOL    HW138537   3.908   1.232   8.621  5.7258 -0.0757 -0.8573
 9025SOL    HW238538   3.807   1.269   8.522 -0.0320  1.2416  1.1255
 9026SOL     OW38539   3.143   4.304   6.906 -0.0751  0.3962  0.6551
 9026SOL    HW138540   3.212   4.360   6.870 -1.2917  1.4661 -0.0181
 9026SOL    HW238541   3.063   4.353   6.885  0.0112  0.9087  1.4988
 9027SOL     OW38542   4.010   2.508   6.579  0.5247  0.0368 -0.1506
 9027SOL    HW138543   4.097   2.475   6.555  0.9483  1.0174  0.0492
 9027SOL    HW238544   4.009   2.593   6.535  0.3130  0.0046 -0.2090
 9028SOL     OW38545   3.255   4.098   2.906  0.2678 -0.2731 -0.3880
 9028SOL    HW138546   3.323   4.032   2.921  0.2699 -0.0797  0.4686
 9028SOL    HW238547   3.181   4.041   2.926  0.1355  0.9226  2.4580
 9029SOL     OW38548   2.725   3.882   7.764  0.1291  0.4079  0.1345
 9029SOL    HW138549   2.657   3.948   7.748  0.9571  0.4407 -3.2885
 9029SOL    HW238550   2.710   3.834   7.683  0.3245 -0.2996  0.5268
 9030SOL     OW38551   0.552   4.030  10.433  0.1103  0.1409  0.1046
 9030SOL    HW138552   0.543   4.099  10.499 -2.7474  1.4462 -1.6591
 9030SOL    HW238553   0.629   3.979  10.457  0.7166  1.1302  0.2554
 9031SOL     OW38554   1.078   3.779   0.380  0.2483  0.1924  0.1417
 9031SOL    HW138555   1.081   3.868   0.345  2.2627  0.2593  0.4859
 9031SOL    HW238556   1.033   3.735   0.308 -2.1786  0.2735  1.6127
 9032SOL     OW38557   1.366   4.660   8.856 -0.1854 -0.1822  0.2473
 9032SOL    HW138558   1.454   4.640   8.888 -0.0868  1.9232  1.2903
 9032SOL    HW238559   1.322   4.590   8.904 -0.4843  0.8051  1.4000
 9033SOL     OW38560   3.367   3.135  10.198  0.5924  0.2581 -0.1454
 9033SOL    HW138561   3.315   3.106  10.273 -0.8187 -1.5833 -1.8470
 9033SOL    HW238562   3.338   3.073  10.132 -1.3708 -2.2390  3.0566
 9034SOL     OW38563   0.639   1.533   0.273 -0.6504 -0.3510 -0.4506
 9034SOL    HW138564   0.683   1.450   0.257 -3.3163 -1.8604  0.0323
 9034SOL    HW238565   0.653   1.568   0.185  0.5418 -1.4936 -0.7075
 9035SOL     OW38566   0.402   3.710  12.434  0.0982 -0.4033 -0.3842
 9035SOL    HW138567   0.449   3.729  12.515 -1.3992  0.0458  0.3844
 9035SOL    HW238568   0.468   3.662  12.384 -1.0281 -0.3677 -1.8986
 9036SOL     OW38569   3.958   0.120   1.098 -0.2925  0.2601  0.1772
 9036SOL    HW138570   3.883   0.144   1.044  0.3189  0.2770 -0.6657
 9036SOL    HW238571   4.037   0.107   1.046  0.0453 -1.2451  1.0773
 9037SOL     OW38572   2.669   0.265   3.160  0.5197 -0.1294  0.0394
 9037SOL    HW138573   2.640   0.229   3.076 -1.3439 -0.9102  1.0106
 9037SOL    HW238574   2.618   0.209   3.219  0.4723 -1.0170 -0.8553
 9038SOL     OW38575   2.925   2.351  10.052  0.2976  0.4828 -0.4044
 9038SOL    HW138576   2.913   2.426   9.995 -0.4228  0.6501 -0.0285
 9038SOL    HW238577   2.836   2.320  10.066  0.6869 -1.8260 -3.0813
 9039SOL     OW38578   1.944   3.821   7.917  0.3987  0.1503 -0.1057
 9039SOL    HW138579   1.928   3.782   8.003  0.5236 -0.2272 -0.2533
 9039SOL    HW238580   1.865   3.789   7.873 -1.0254  2.4506  0.7577
 9040SOL     OW38581   2.398   0.706  16.551  0.7295  0.5107  0.1978
 9040SOL    HW138582   2.488   0.733  16.534  0.8823  1.7602  3.0451
 9040SOL    HW238583   2.398   0.672  16.640 -0.4152 -1.8211 -0.6711
 9041SOL     OW38584   0.773   3.043  15.866 -0.5480 -0.6720 -0.4073
 9041SOL    HW138585   0.765   3.092  15.784  0.5789  0.2148  0.0037
 9041SOL    HW238586   0.835   3.105  15.905 -1.5026  0.1591 -0.2275
 9042SOL     OW38587   3.001   2.801   6.879 -0.1097  0.3122 -0.0908
 9042SOL    HW138588   3.028   2.731   6.819  0.7310  0.2140  0.4109
 9042SOL    HW238589   2.910   2.780   6.902 -0.5614  0.8803 -1.3474
 9043SOL     OW38590   2.949   2.684   0.057  0.5509  0.1341  0.0711
 9043SOL    HW138591   2.986   2.761   0.101 -0.4229  1.5348 -1.5782
 9043SOL    HW238592   3.026   2.628   0.043  0.5639  0.4462 -1.1033
 9044SOL     OW38593   1.885   0.499  11.395 -0.1239 -0.1087 -0.0570
 9044SOL    HW138594   1.909   0.453  11.475 -1.2082 -0.4682  0.0549
 9044SOL    HW238595   1.798   0.463  11.378 -0.3574  1.7526 -2.9382
 9045SOL     OW38596   4.632   4.660   1.835 -0.3593 -0.0635 -0.0566
 9045SOL    HW138597   4.630   4.614   1.751 -1.6072 -1.6982  0.8639
 9045SOL    HW238598   4.637   0.031   1.798 -0.5418  2.0975  4.9469
 9046SOL     OW38599   0.545   3.490   3.391 -0.0434  0.2493  0.2064
 9046SOL    HW138600   0.489   3.496   3.313 -0.1378 -0.3618  0.2214
 9046SOL    HW238601   0.560   3.396   3.376  1.6696  0.4550  0.6764
 9047SOL     OW38602   1.592   3.195   5.806  0.2456  0.4190 -0.0375
 9047SOL    HW138603   1.543   3.277   5.800  1.0245  0.8609 -0.5092
 9047SOL    HW238604   1.679   3.227   5.781  0.2211 -0.4065 -1.1702
 9048SOL     OW38605   2.097   0.239   4.008  0.0345  0.4854 -0.2833
 9048SOL    HW138606   2.047   0.320   4.015 -1.0177 -0.0905 -1.1523
 9048SOL    HW238607   2.066   0.204   3.924 -0.4592  0.0332  0.0921
 9049SOL     OW38608   0.263   0.345   3.745  0.2117  0.0397  0.4800
 9049SOL    HW138609   0.241   0.369   3.655 -0.4151 -3.1198 -0.2147
 9049SOL    HW238610   0.283   0.252   3.732  2.5603  0.8123 -1.5821
 9050SOL     OW38611   3.277   2.786   3.641 -0.0373 -0.0359  0.7347
 9050SOL    HW138612   3.346   2.848   3.665 -0.1253 -0.1037  1.1754
 9050SOL    HW238613   3.223   2.855   3.604  2.0576  0.4568 -1.3875
 9051SOL     OW38614   1.669   2.611   3.445 -0.0306  0.1289  0.1518
 9051SOL    HW138615   1.635   2.668   3.376  0.3410 -1.2617 -1.1925
 9051SOL    HW238616   1.748   2.580   3.401  0.6404  0.9652  0.7511
 9052SOL     OW38617   2.849   3.902   9.010 -1.0431  0.5225 -0.3196
 9052SOL    HW138618   2.867   3.965   9.079  0.9086  0.5170 -0.8056
 9052SOL    HW238619   2.818   3.827   9.061  2.4983  0.2958  1.4763
 9053SOL     OW38620   2.206   4.425   3.360  0.2108  0.3087 -0.5430
 9053SOL    HW138621   2.213   4.331   3.348  1.1124  0.1596  1.1120
 9053SOL    HW238622   2.203   4.449   3.268  0.3008 -0.1251 -0.6567
 9054SOL     OW38623   4.439   2.852   1.187 -0.4331 -0.2466 -0.0446
 9054SOL    HW138624   4.354   2.895   1.189  0.6940  1.9718 -0.1528
 9054SOL    HW238625   4.420   2.765   1.223  1.0105 -1.0447 -1.1822
 9055SOL     OW38626   4.549   3.890   7.891 -0.4299  0.3164 -0.3653
 9055SOL    HW138627   4.481   3.942   7.935 -0.8175  0.8396 -1.6038
 9055SOL    HW238628   4.523   3.798   7.903  0.9925 -0.0089  0.2491
 9056SOL     OW38629   4.430   4.653   7.414 -0.7939 -0.0081 -0.3181
 9056SOL    HW138630   4.340   4.684   7.426 -0.5480  0.7339 -0.4105
 9056SOL    HW238631   4.482   0.017   7.411  0.4533 -0.7541  0.8165
 9057SOL     OW38632   0.668   2.150   3.089  0.4685 -0.8741  0.4609
 9057SOL    HW138633   0.710   2.105   3.016  1.1591 -1.0288  0.9562
 9057SOL    HW238634   0.613   2.217   3.048  0.5320 -1.4318 -0.5206
 9058SOL     OW38635   3.730   0.218  13.218  0.2487  0.0856 -0.8458
 9058SOL    HW138636   3.792   0.291  13.222 -0.2557  0.4464  0.3411
 9058SOL    HW238637   3.714   0.204  13.311 -0.4007  1.2829 -0.7840
 9059SOL     OW38638   1.134   1.244   8.174 -0.6053 -0.2282  0.0048
 9059SOL    HW138639   1.075   1.179   8.211  1.5706 -2.7382 -1.0140
 9059SOL    HW238640   1.187   1.211   8.101 -0.2430 -3.5651  1.7839
 9060SOL     OW38641   1.224   3.744  16.589  0.2684 -0.6526 -0.4530
 9060SOL    HW138642   1.268   3.822  16.556  1.8522 -2.2871 -2.2364
 9060SOL    HW238643   1.303   3.694  16.610  0.0399 -0.4145  0.9788
 9061SOL     OW38644   2.885   3.952   6.294  0.1789 -0.4686 -0.1882
 9061SOL    HW138645   2.920   3.977   6.209  1.0239  1.4768  0.7248
 9061SOL    HW238646   2.905   3.859   6.285 -2.3571 -1.3452  3.2188
 9062SOL     OW38647   2.770   1.775   4.811  0.2505  0.0174  0.2156
 9062SOL    HW138648   2.815   1.768   4.896  0.7842 -0.2605 -0.0884
 9062SOL    HW238649   2.678   1.760   4.830  0.5001 -1.6171  0.1311
 9063SOL     OW38650   0.185   1.263   9.654  0.2722 -0.6227 -0.3988
 9063SOL    HW138651   0.145   1.350   9.644  0.3909 -0.4943  0.2421
 9063SOL    HW238652   0.113   1.218   9.699 -1.0186  1.2098 -0.6380
 9064SOL     OW38653   3.889   0.119   1.710 -0.3029 -0.3882  0.2754
 9064SOL    HW138654   3.932   0.067   1.778 -1.1939 -0.0358  1.1099
 9064SOL    HW238655   3.930   0.074   1.637 -1.2761 -0.0828 -0.4547
 9065SOL     OW38656   1.729   1.618   5.425  0.2366 -0.0676  0.1153
 9065SOL    HW138657   1.771   1.532   5.424  0.6197  0.1100  1.2360
 9065SOL    HW238658   1.661   1.609   5.491 -1.4764  0.1238 -1.6102
 9066SOL     OW38659   3.061   2.123   1.476 -0.0001 -0.3083 -0.1040
 9066SOL    HW138660   3.004   2.119   1.399 -0.9294 -2.4053  0.6900
 9066SOL    HW238661   3.054   2.214   1.505 -0.8335 -0.1746 -0.7451
 9067SOL     OW38662   1.961   2.149   9.725 -0.4015 -0.5744 -0.1985
 9067SOL    HW138663   1.974   2.237   9.760 -1.4488 -0.6449  0.3878
 9067SOL    HW238664   1.990   2.170   9.637  1.6083  1.0400  0.8677
 9068SOL     OW38665   0.749   3.875   4.833 -0.0164 -0.4844  0.0812
 9068SOL    HW138666   0.741   3.828   4.750  5.2847 -0.2814 -0.5425
 9068SOL    HW238667   0.843   3.890   4.825 -0.4438  1.7780 -0.5665
 9069SOL     OW38668   1.295   2.288  15.640  0.2036  0.1717  0.2848
 9069SOL    HW138669   1.268   2.380  15.643 -1.3855 -0.2599 -0.6909
 9069SOL    HW238670   1.336   2.283  15.554 -2.1032  1.1582 -0.8733
 9070SOL     OW38671   3.130   0.589   7.051 -0.8334 -0.0023 -0.7923
 9070SOL    HW138672   3.147   0.640   7.130  1.2001  0.0420 -1.2512
 9070SOL    HW238673   3.074   0.650   7.004 -0.8121  1.2042  0.7610
 9071SOL     OW38674   0.683   1.013   5.902 -0.1100 -0.1365 -0.3144
 9071SOL    HW138675   0.741   0.963   5.959  0.3355 -0.2281 -0.8418
 9071SOL    HW238676   0.742   1.020   5.827  3.1904 -2.0388  2.1477
 9072SOL     OW38677   0.929   1.915   7.309  0.7287 -0.1694  0.0539
 9072SOL    HW138678   0.949   2.004   7.337 -0.3390 -0.0322  0.3645
 9072SOL    HW238679   0.837   1.915   7.334  0.3654 -1.4657 -1.2567
 9073SOL     OW38680   4.403   4.312   1.987  0.0924 -0.4098  0.2593
 9073SOL    HW138681   4.475   4.257   2.017  0.2165 -0.4657 -0.1382
 9073SOL    HW238682   4.430   4.396   2.023  2.1520 -0.2419 -1.7052
 9074SOL     OW38683   0.219   0.998   3.595  0.0839  0.5202  0.4633
 9074SOL    HW138684   0.290   1.058   3.573  0.5369  0.5316  1.8964
 9074SOL    HW238685   0.186   1.020   3.682 -0.4635 -2.3864  0.9959
 9075SOL     OW38686   2.147   4.653  15.177 -0.1978  0.0300 -0.2668
 9075SOL    HW138687   2.140   0.030  15.157  0.8185 -0.0090 -0.8034
 9075SOL    HW238688   2.065   4.637  15.224 -0.0200  0.1838  0.0987
 9076SOL     OW38689   1.182   2.077  17.576 -0.4914  0.3483 -0.0439
 9076SOL    HW138690   1.134   2.105  17.654  1.9524 -1.0441  1.9749
 9076SOL    HW238691   1.231   2.157  17.556  1.2559 -0.3375  1.4848
 9077SOL     OW38692   2.908   0.805   8.033 -0.4388  0.0553  0.1172
 9077SOL    HW138693   2.922   0.899   8.037  0.0889  0.0572 -1.7725
 9077SOL    HW238694   2.995   0.789   8.070 -0.4486 -0.5576 -0.1255
 9078SOL     OW38695   3.031   1.390  17.229  0.9288 -0.3381  0.3433
 9078SOL    HW138696   2.955   1.392  17.287  0.2535 -0.6579 -0.5301
 9078SOL    HW238697   3.101   1.431  17.281  0.3330 -0.1278  0.9828
 9079SOL     OW38698   3.009   3.616   6.402 -0.4891 -0.1933  0.2776
 9079SOL    HW138699   2.975   3.567   6.327 -3.0319  2.5519 -0.3397
 9079SOL    HW238700   3.002   3.552   6.473 -2.2656 -2.2273 -1.7327
 9080SOL     OW38701   1.894   2.664   8.498 -0.2505  0.1620  0.6950
 9080SOL    HW138702   1.936   2.588   8.539  2.1545  1.4876  0.7040
 9080SOL    HW238703   1.839   2.699   8.567 -2.2421 -2.2656  0.3417
 9081SOL     OW38704   1.287   2.312   4.559  0.0816  0.5732  0.3053
 9081SOL    HW138705   1.361   2.366   4.535  0.6606 -0.6618 -0.6760
 9081SOL    HW238706   1.221   2.380   4.572  0.1522  0.3782  1.6824
 9082SOL     OW38707   4.134   1.754   5.273  0.0640 -0.2958 -0.1112
 9082SOL    HW138708   4.219   1.711   5.283 -1.6323 -4.0397 -1.8079
 9082SOL    HW238709   4.092   1.686   5.220  1.7692 -2.4035  1.2375
 9083SOL     OW38710   1.191   3.063   7.280  0.4854  0.5999  0.4197
 9083SOL    HW138711   1.217   3.068   7.188  2.0500 -0.4656  0.8013
 9083SOL    HW238712   1.200   2.969   7.296 -3.4564 -0.1143 -1.5682
 9084SOL     OW38713   2.574   3.463   5.796 -0.4272  0.2607 -0.0566
 9084SOL    HW138714   2.598   3.371   5.807  0.6617  0.8204  2.3197
 9084SOL    HW238715   2.580   3.480   5.702  2.8433 -1.9839 -0.2422
 9085SOL     OW38716   2.317   2.325   6.410  0.2019 -0.7801 -0.1083
 9085SOL    HW138717   2.349   2.337   6.320  1.2909 -0.4926  0.3147
 9085SOL    HW238718   2.225   2.352   6.400 -0.5395 -1.8198  3.9152
 9086SOL     OW38719   1.701   1.769   9.931 -0.3171 -0.4910 -0.2666
 9086SOL    HW138720   1.640   1.716   9.881  1.6329 -1.7923 -1.2737
 9086SOL    HW238721   1.747   1.824   9.868  1.9372 -1.2989  0.6443
 9087SOL     OW38722   4.104   1.708   4.899  0.1798 -0.0331  0.1664
 9087SOL    HW138723   4.118   1.614   4.899 -0.2382 -0.0830 -2.3067
 9087SOL    HW238724   4.061   1.708   4.985 -1.5596 -0.7762 -0.7165
 9088SOL     OW38725   1.139   3.796  14.635  0.1260 -0.0118  0.4229
 9088SOL    HW138726   1.044   3.783  14.630  0.2020 -0.6296  0.5126
 9088SOL    HW238727   1.152   3.783  14.729  0.0357  1.4517  0.6342
 9089SOL     OW38728   4.287   1.839   4.734 -0.2369 -0.1284  0.3540
 9089SOL    HW138729   4.218   1.815   4.671 -1.3389 -0.7935  1.8078
 9089SOL    HW238730   4.251   1.815   4.819  2.3121 -1.1257  1.1272
 9090SOL     OW38731   4.211   3.279   5.418  0.0308  0.0139  0.2821
 9090SOL    HW138732   4.127   3.250   5.451 -0.5576  0.3064 -0.9526
 9090SOL    HW238733   4.190   3.372   5.419 -0.1599 -0.0496  1.4960
 9091SOL     OW38734   1.332   1.211   3.942 -0.0861 -0.4437  0.1871
 9091SOL    HW138735   1.403   1.270   3.916  1.1934 -0.3210  3.9912
 9091SOL    HW238736   1.268   1.207   3.871 -0.2334 -0.1960  0.3033
 9092SOL     OW38737   2.607   0.970  10.277 -0.0373  0.9715  0.5566
 9092SOL    HW138738   2.637   0.894  10.325 -0.3547  0.8999  0.6389
 9092SOL    HW238739   2.562   0.925  10.205 -0.6189  1.5736  0.5395
 9093SOL     OW38740   0.756   2.441   6.391  0.6096  0.0237 -0.3379
 9093SOL    HW138741   0.804   2.386   6.329 -0.3924 -0.0022 -1.1004
 9093SOL    HW238742   0.743   2.525   6.347  0.8147  0.0138 -0.4193
 9094SOL     OW38743   3.958   0.123   0.668 -0.0930  0.2780 -0.1184
 9094SOL    HW138744   4.012   0.162   0.737  2.0460 -1.0782 -1.0530
 9094SOL    HW238745   4.017   0.065   0.621  1.7397  0.2760  2.1591
 9095SOL     OW38746   2.846   0.592   2.461  0.1033 -0.4185 -0.3066
 9095SOL    HW138747   2.909   0.583   2.532 -1.2799  2.4461  1.2557
 9095SOL    HW238748   2.861   0.684   2.439  0.7692  0.0873  2.3269
 9096SOL     OW38749   1.852   4.476  16.027 -0.1547  0.5342  0.0088
 9096SOL    HW138750   1.777   4.445  16.076  2.1750 -3.2647  1.2422
 9096SOL    HW238751   1.829   4.568  16.017 -1.7868  0.5325  3.7913
 9097SOL     OW38752   3.573   2.048   4.649  0.0666  0.0828 -0.5052
 9097SOL    HW138753   3.548   2.119   4.708 -1.9183 -0.6567 -0.4429
 9097SOL    HW238754   3.665   2.061   4.625  0.2935  2.3372  1.5987
 9098SOL     OW38755   4.202   3.197  17.260 -0.0870 -0.4024  0.0952
 9098SOL    HW138756   4.249   3.136  17.203 -2.6345  0.0070 -2.4276
 9098SOL    HW238757   4.256   3.274  17.277 -1.9163  1.1447 -1.0480
 9099SOL     OW38758   1.035   3.333   0.597 -0.1204  0.0219  0.2619
 9099SOL    HW138759   1.100   3.402   0.585  0.9884 -1.6234 -3.0859
 9099SOL    HW238760   1.077   3.258   0.556  1.0774  0.0337  1.4694
 9100SOL     OW38761   0.716   2.957   2.858 -0.9600  0.4657 -0.2805
 9100SOL    HW138762   0.746   2.870   2.887  0.7516  1.1079 -0.1279
 9100SOL    HW238763   0.649   2.932   2.794 -1.0170 -0.3928  0.1147
 9101SOL     OW38764   1.793   2.504   9.238  0.4358 -0.5096 -0.1840
 9101SOL    HW138765   1.875   2.477   9.198  1.2492  0.7480  0.6390
 9101SOL    HW238766   1.805   2.477   9.329 -0.4127 -0.2713  0.0020
 9102SOL     OW38767   3.141   0.252   3.944  0.3518 -0.3665 -0.3101
 9102SOL    HW138768   3.193   0.209   3.876  1.0742 -0.3494  0.2316
 9102SOL    HW238769   3.194   0.224   4.018 -0.8705  0.0570  0.7169
 9103SOL     OW38770   0.145   2.305   6.289 -0.0479 -0.2319  0.3124
 9103SOL    HW138771   0.062   2.281   6.329 -0.1577 -0.3742  0.0020
 9103SOL    HW238772   0.201   2.327   6.363 -1.5182  1.7606  0.8501
 9104SOL     OW38773   3.629   4.690   4.743 -0.1145  0.2411  0.3677
 9104SOL    HW138774   3.653   0.009   4.657  0.6134 -0.6952  0.1914
 9104SOL    HW238775   3.639   0.054   4.796 -1.1564 -0.6502  1.9290
 9105SOL     OW38776   2.044   2.949   1.310 -0.0955  0.2498 -0.0726
 9105SOL    HW138777   2.005   2.862   1.322 -1.4980  1.2863  3.0228
 9105SOL    HW238778   2.078   2.933   1.222  1.1975 -0.6757  0.6034
 9106SOL     OW38779   0.618   2.232   1.141  0.2776 -0.2918  0.0112
 9106SOL    HW138780   0.620   2.191   1.054 -1.1139 -1.5985  0.6130
 9106SOL    HW238781   0.686   2.186   1.191  0.6071 -1.2833 -1.3350
 9107SOL     OW38782   3.166   3.130   5.010 -0.1205  0.3329 -0.1080
 9107SOL    HW138783   3.156   3.205   4.951 -1.1122  0.5507  0.3397
 9107SOL    HW238784   3.249   3.093   4.981 -1.1087  0.6150 -3.2674
 9108SOL     OW38785   2.701   2.408  10.350 -0.6738 -0.3743  0.2322
 9108SOL    HW138786   2.669   2.329  10.306  1.7973  0.2062 -2.6351
 9108SOL    HW238787   2.697   2.483  10.291  1.0460 -0.1293  0.4284
 9109SOL     OW38788   0.906   2.249  12.837 -0.2493 -0.2241 -1.0950
 9109SOL    HW138789   0.909   2.157  12.863  1.1112  0.2791  0.5236
 9109SOL    HW238790   0.923   2.279  12.926 -0.2371  0.2386 -1.2525
 9110SOL     OW38791   4.210   4.642  12.890  0.0413 -0.2326  0.2062
 9110SOL    HW138792   4.278   4.708  12.878  0.1150 -0.9736 -3.4394
 9110SOL    HW238793   4.180   4.643  12.799 -0.4315 -0.0048  0.3606
 9111SOL     OW38794   3.699   1.290   5.953  0.7163 -0.5697  1.0263
 9111SOL    HW138795   3.665   1.365   5.905  1.6107 -0.6178  0.3299
 9111SOL    HW238796   3.746   1.236   5.890 -0.6392 -0.6746  0.1116
 9112SOL     OW38797   2.245   4.249  17.664  0.0680  0.3497  0.1389
 9112SOL    HW138798   2.270   4.341  17.651 -0.1685  0.5945  1.4576
 9112SOL    HW238799   2.192   4.230  17.586 -0.1385  1.0566  0.1034
 9113SOL     OW38800   4.637   3.188   2.751  0.1264  0.0206 -0.0641
 9113SOL    HW138801   4.704   3.154   2.692  0.4330  1.2566 -0.4328
 9113SOL    HW238802   4.574   3.116   2.738 -0.6062  0.7892 -0.7594
 9114SOL     OW38803   3.656   4.287  14.235  0.0870  0.0958  0.0085
 9114SOL    HW138804   3.748   4.280  14.257 -0.2710 -0.0118  1.4712
 9114SOL    HW238805   3.666   4.333  14.151  2.1885  0.0284  0.2290
 9115SOL     OW38806   3.702   1.185   5.345  0.4680  0.4702  0.1919
 9115SOL    HW138807   3.770   1.118   5.346 -1.9595 -1.9631  1.9796
 9115SOL    HW238808   3.689   1.196   5.439 -1.9062  0.7153 -0.1670
 9116SOL     OW38809   3.745   4.703   7.681  0.4401 -0.0134 -0.7944
 9116SOL    HW138810   3.749   0.000   7.775  1.7055 -0.7944 -0.7336
 9116SOL    HW238811   3.775   4.612   7.675  0.7540  0.0454 -0.0407
 9117SOL     OW38812   0.412   3.535   3.115  0.0578  0.1311 -0.4852
 9117SOL    HW138813   0.378   3.615   3.156  0.5509 -0.3548  0.8686
 9117SOL    HW238814   0.329   3.499   3.083 -0.1172  0.2236 -0.1464
 9118SOL     OW38815   3.388   2.834   7.786  0.1856 -0.3255  0.5791
 9118SOL    HW138816   3.411   2.819   7.878 -0.8323 -2.5525  0.4774
 9118SOL    HW238817   3.332   2.761   7.760  0.7512  0.5377 -3.1352
 9119SOL     OW38818   2.675   2.230   8.994 -0.1071  0.3612  0.0898
 9119SOL    HW138819   2.617   2.234   8.917 -0.3297 -0.9037  0.1968
 9119SOL    HW238820   2.618   2.178   9.050 -0.7258  0.7322 -0.1939
 9120SOL     OW38821   1.766   1.580  16.996  0.5537 -0.8584 -0.5908
 9120SOL    HW138822   1.741   1.540  16.913  0.2320 -0.7236 -0.5603
 9120SOL    HW238823   1.840   1.624  16.954  1.5298 -1.5594  0.4114
 9121SOL     OW38824   0.234   2.372   2.496  0.0657 -0.0611  0.4126
 9121SOL    HW138825   0.177   2.301   2.524 -1.2845  0.2825 -1.4366
 9121SOL    HW238826   0.302   2.375   2.563  0.4268  0.5240  0.0228
 9122SOL     OW38827   2.463   4.516   2.797  0.3546  0.6417 -0.2125
 9122SOL    HW138828   2.446   4.610   2.806 -1.9205  0.1322  0.6489
 9122SOL    HW238829   2.380   4.487   2.760 -0.5638  1.4953  1.1726
 9123SOL     OW38830   0.447   2.716   1.729  0.8395 -0.1824  0.0154
 9123SOL    HW138831   0.369   2.713   1.785  1.7680 -0.6046  1.2958
 9123SOL    HW238832   0.436   2.797   1.679 -1.0557 -0.6356 -0.2788
 9124SOL     OW38833   2.561   0.176   8.220 -0.4973  0.2409 -0.0228
 9124SOL    HW138834   2.497   0.231   8.265  0.7069  0.1389  1.7976
 9124SOL    HW238835   2.635   0.237   8.219  0.8086 -1.3648 -0.2275
 9125SOL     OW38836   4.463   0.952   2.722 -0.1310  0.9027 -0.4938
 9125SOL    HW138837   4.445   0.952   2.628 -0.8552 -2.0810 -0.3546
 9125SOL    HW238838   4.375   0.982   2.744 -0.4592  0.0593 -0.6381
 9126SOL     OW38839   0.458   3.397   0.620  0.1324  0.1068 -0.6088
 9126SOL    HW138840   0.503   3.470   0.662 -1.0923  0.6075 -0.1631
 9126SOL    HW238841   0.433   3.344   0.696  0.9955 -0.3824 -0.6672
 9127SOL     OW38842   0.488   3.492   1.858  0.0944 -0.2712 -0.1823
 9127SOL    HW138843   0.580   3.468   1.849  0.5199  0.9913  0.6735
 9127SOL    HW238844   0.458   3.448   1.938 -1.3087 -1.4752 -1.3765
 9128SOL     OW38845   0.943   1.965   4.460 -0.2970 -0.6416  0.2006
 9128SOL    HW138846   0.919   1.953   4.368 -2.7146 -0.2581  0.7789
 9128SOL    HW238847   1.006   2.037   4.451 -1.6273  0.5080 -0.0203
 9129SOL     OW38848   4.481   3.140  12.398  0.1486  0.4109 -0.2274
 9129SOL    HW138849   4.425   3.070  12.432  4.2585 -2.2631  1.0689
 9129SOL    HW238850   4.542   3.078  12.358  1.9130  1.0153  1.5541
 9130SOL     OW38851   1.970   3.714   6.883 -0.6364  0.3676  0.9308
 9130SOL    HW138852   1.995   3.627   6.853 -1.1232  0.5846 -0.0829
 9130SOL    HW238853   1.975   3.769   6.805 -1.7801  1.0526  1.3456
 9131SOL     OW38854   3.605   2.200   2.196  0.4189  0.4681  0.4446
 9131SOL    HW138855   3.638   2.253   2.123 -0.2066 -0.0597 -0.2202
 9131SOL    HW238856   3.586   2.108   2.176 -2.2675  1.0509  0.3901
 9132SOL     OW38857   4.308   1.737   9.532  0.3632  0.8878  0.5490
 9132SOL    HW138858   4.399   1.731   9.560  0.4245 -0.0539  0.1669
 9132SOL    HW238859   4.308   1.701   9.443 -0.3884  1.8605  0.1599
 9133SOL     OW38860   3.626   1.231   8.553  0.0561  0.1075  0.1035
 9133SOL    HW138861   3.603   1.201   8.641 -2.0419  1.0429 -0.1365
 9133SOL    HW238862   3.538   1.251   8.521 -0.6294 -1.3346  1.1070
 9134SOL     OW38863   2.021   1.724   7.240 -0.3384  0.6402 -0.3322
 9134SOL    HW138864   2.020   1.694   7.149 -3.6359 -0.0225 -0.0750
 9134SOL    HW238865   2.011   1.639   7.282 -2.9791  1.0631 -0.0780
 9135SOL     OW38866   0.702   3.612   2.545  0.0743  0.0838 -0.1788
 9135SOL    HW138867   0.756   3.630   2.622  2.4776 -0.7518 -1.6718
 9135SOL    HW238868   0.728   3.522   2.524 -3.1507 -0.2815 -2.6447
 9136SOL     OW38869   3.809   3.408   8.849 -0.4796  0.0375  0.3107
 9136SOL    HW138870   3.847   3.480   8.798  0.5731 -1.1441 -0.5788
 9136SOL    HW238871   3.827   3.429   8.941  0.9418  0.6240 -0.0923
 9137SOL     OW38872   4.422   3.641   1.605 -0.6738  0.0752 -0.0618
 9137SOL    HW138873   4.432   3.555   1.563  0.6385 -0.6603  1.7724
 9137SOL    HW238874   4.502   3.640   1.658 -0.9182  2.1398  0.3280
 9138SOL     OW38875   4.640   0.637   4.517 -0.0371  0.0781  0.6123
 9138SOL    HW138876   4.691   0.568   4.560 -0.8604  0.0655  1.5519
 9138SOL    HW238877   4.682   0.716   4.552  0.3027 -0.3194  1.1138
 9139SOL     OW38878   1.088   1.003   4.624  0.2029 -0.0091 -0.2508
 9139SOL    HW138879   1.064   1.017   4.716  1.6215 -1.8231  0.4084
 9139SOL    HW238880   1.169   1.054   4.617  0.0683  0.2593  0.1043
 9140SOL     OW38881   3.627   3.519   6.057  0.2709  0.7297 -0.0746
 9140SOL    HW138882   3.709   3.481   6.088 -1.0073 -2.1049 -0.2315
 9140SOL    HW238883   3.561   3.453   6.079  0.3166  0.1544 -1.7094
 9141SOL     OW38884   0.236   1.189   5.322  0.6764 -0.1502 -0.4038
 9141SOL    HW138885   0.142   1.188   5.342  0.5100 -0.3715 -1.2082
 9141SOL    HW238886   0.257   1.243   5.398  0.6700 -4.3128  2.5643
 9142SOL     OW38887   3.851   2.390   1.317  0.5282  0.6351 -0.6056
 9142SOL    HW138888   3.828   2.304   1.282 -1.0498 -0.1050  2.2513
 9142SOL    HW238889   3.766   2.413   1.355  1.4370  1.7881  0.7235
 9143SOL     OW38890   0.166   2.822   5.808 -0.1155  0.4652 -0.0595
 9143SOL    HW138891   0.226   2.839   5.736 -0.5789 -1.6135 -0.9540
 9143SOL    HW238892   0.234   2.781   5.862 -0.8654 -2.0204 -0.9914
 9144SOL     OW38893   3.863   2.055  13.071 -0.2630  0.1974  0.2096
 9144SOL    HW138894   3.885   2.075  12.980  1.7203  0.9377  0.8574
 9144SOL    HW238895   3.865   2.137  13.119 -0.4548  0.8399 -0.8838
 9145SOL     OW38896   4.306   1.641   7.568 -0.4119  0.4214  0.8068
 9145SOL    HW138897   4.280   1.635   7.476  0.5711  0.1186  0.5505
 9145SOL    HW238898   4.386   1.589   7.562  1.8267  3.8010  1.5411
 9146SOL     OW38899   3.335   2.188   8.384  0.3505  0.5695 -0.2398
 9146SOL    HW138900   3.386   2.268   8.372  0.0307  0.3286 -3.2326
 9146SOL    HW238901   3.314   2.199   8.477 -1.1050 -1.1020 -0.3834
 9147SOL     OW38902   3.846   4.307   3.629 -0.1298 -0.0855 -0.8327
 9147SOL    HW138903   3.798   4.249   3.687  0.6920  0.1888  0.1240
 9147SOL    HW238904   3.790   4.299   3.552 -1.7161 -1.6377  0.5010
 9148SOL     OW38905   3.797   1.791  12.985 -0.6012  0.1080  0.1153
 9148SOL    HW138906   3.733   1.854  12.953  1.3290  1.0023 -2.0188
 9148SOL    HW238907   3.867   1.856  12.998  0.1408 -0.9117  1.2213
 9149SOL     OW38908   3.032   2.711   4.873  0.6119 -0.1489 -0.0789
 9149SOL    HW138909   2.957   2.712   4.814  1.1099  4.4104 -0.5967
 9149SOL    HW238910   2.975   2.722   4.949 -0.3975 -1.2296 -0.6838
 9150SOL     OW38911   3.863   2.340  10.086  0.1195 -0.1464  0.4819
 9150SOL    HW138912   3.886   2.386  10.005 -1.3315 -0.8528 -0.3177
 9150SOL    HW238913   3.835   2.258  10.046 -1.9737  0.7974  0.0161
 9151SOL     OW38914   4.355   0.408   4.076 -0.3274  0.2920 -0.1885
 9151SOL    HW138915   4.423   0.431   4.013 -0.8609 -0.7396 -1.1387
 9151SOL    HW238916   4.342   0.484   4.133  3.2495 -0.2584  1.3519
 9152SOL     OW38917   1.411   1.872   0.539 -0.3329 -0.7609 -0.3651
 9152SOL    HW138918   1.362   1.950   0.566  1.2036  0.1778 -0.3376
 9152SOL    HW238919   1.446   1.913   0.460 -0.0529  0.9595  0.6625
 9153SOL     OW38920   0.504   4.188   8.656  0.5500  0.2681  0.6018
 9153SOL    HW138921   0.438   4.255   8.642 -0.4994 -0.6424  1.2000
 9153SOL    HW238922   0.516   4.176   8.750  2.8276  1.9222  0.5362
 9154SOL     OW38923   1.902   0.414  14.244 -0.0597  0.8357 -0.6066
 9154SOL    HW138924   1.894   0.325  14.210 -0.2992  0.1669  1.1792
 9154SOL    HW238925   1.985   0.441  14.206  0.3692  0.2823 -0.0580
 9155SOL     OW38926   3.030   2.528   8.230 -0.4131  0.3264 -0.4397
 9155SOL    HW138927   3.050   2.441   8.196 -1.0381  0.5050 -1.2727
 9155SOL    HW238928   3.121   2.559   8.220 -0.3348  0.3477  0.3057
 9156SOL     OW38929   0.337   2.624   3.120  0.3224  0.4825 -0.1236
 9156SOL    HW138930   0.289   2.577   3.189 -0.7710 -0.3454 -1.4323
 9156SOL    HW238931   0.281   2.620   3.042 -2.0486  1.1162  1.5430
 9157SOL     OW38932   2.867   1.601  11.829 -0.4952  0.0402  0.2432
 9157SOL    HW138933   2.868   1.633  11.739  0.9474 -1.3530 -0.2263
 9157SOL    HW238934   2.938   1.653  11.866 -0.9867 -1.3416  3.2052
 9158SOL     OW38935   0.891   1.400   3.295  0.6086  0.0875  0.4349
 9158SOL    HW138936   0.903   1.305   3.303  1.8453  0.1772 -0.4994
 9158SOL    HW238937   0.855   1.420   3.382 -1.5718 -0.0337 -0.4402
 9159SOL     OW38938   4.616   0.513   5.060 -0.0603  0.3646 -0.2012
 9159SOL    HW138939   4.710   0.513   5.040  0.1644 -0.8913  0.9215
 9159SOL    HW238940   4.577   0.474   4.982 -0.6062 -2.8691  1.7157
 9160SOL     OW38941   4.025   4.498   8.785  0.6324 -0.4557 -0.5058
 9160SOL    HW138942   3.989   4.494   8.696  0.2081 -0.3597 -0.3406
 9160SOL    HW238943   4.065   4.584   8.790  1.5728 -0.9223 -0.0295
 9161SOL     OW38944   1.255   3.454  11.176 -0.0089  0.2935 -0.0151
 9161SOL    HW138945   1.203   3.534  11.182 -1.4378 -0.6800  0.6453
 9161SOL    HW238946   1.337   3.487  11.213 -0.9947  1.9268  0.6842
 9162SOL     OW38947   1.943   1.566  16.358 -0.2074 -0.0430  0.3447
 9162SOL    HW138948   1.971   1.476  16.336 -1.3784 -0.1105 -0.8166
 9162SOL    HW238949   1.997   1.580  16.437  1.3338 -2.5473 -0.2387
 9163SOL     OW38950   1.594   2.421   4.953  0.1005  0.3511  0.8541
 9163SOL    HW138951   1.623   2.331   4.967 -0.8320 -0.1994 -0.8149
 9163SOL    HW238952   1.664   2.454   4.896  0.2019 -1.4582 -0.0443
 9164SOL     OW38953   0.715   2.784  16.458 -0.3664 -0.1581  0.0392
 9164SOL    HW138954   0.741   2.692  16.460 -1.8148 -0.6037 -2.1215
 9164SOL    HW238955   0.655   2.781  16.533  2.2556 -1.3608  2.1279
 9165SOL     OW38956   3.810   4.417   9.122  0.0724 -0.3582  0.0355
 9165SOL    HW138957   3.777   4.476   9.054  0.7740  0.9103  0.8110
 9165SOL    HW238958   3.886   4.389   9.071  0.0549  0.1876 -0.2959
 9166SOL     OW38959   2.548   4.066   7.726 -0.6060 -0.0270  0.8798
 9166SOL    HW138960   2.486   4.087   7.795  0.1042 -1.6778  2.0049
 9166SOL    HW238961   2.582   4.154   7.711  0.7285 -0.9582 -1.5442
 9167SOL     OW38962   3.214   4.111   2.170 -0.3894  0.4554  0.0321
 9167SOL    HW138963   3.215   4.050   2.243 -0.6718  2.9382  2.1385
 9167SOL    HW238964   3.130   4.153   2.191 -0.3443  0.3981  0.3240
 9168SOL     OW38965   1.023   1.828   7.077  0.2869  0.6161 -0.4732
 9168SOL    HW138966   0.975   1.849   7.158 -1.3130  2.0523 -1.7923
 9168SOL    HW238967   0.997   1.736   7.063  0.0812  0.5140  0.5638
 9169SOL     OW38968   2.533   2.825   2.493 -0.4039 -0.9024  0.6746
 9169SOL    HW138969   2.457   2.784   2.452 -0.4955  0.7968 -0.8949
 9169SOL    HW238970   2.482   2.858   2.567  0.0780 -0.5051  0.8336
 9170SOL     OW38971   4.338   1.384   8.288 -0.1081 -0.5206  0.3666
 9170SOL    HW138972   4.373   1.368   8.201  0.3502  2.1755  0.0378
 9170SOL    HW238973   4.300   1.297   8.296 -1.8749  0.2190  0.0254
 9171SOL     OW38974   2.017   1.278   3.786  0.1859 -0.0893 -0.0651
 9171SOL    HW138975   1.931   1.272   3.828 -0.2675 -1.0371 -1.1540
 9171SOL    HW238976   2.071   1.241   3.855 -1.7012  1.1600  2.0913
 9172SOL     OW38977   4.342   2.781   5.400 -0.2547 -0.4535  0.1556
 9172SOL    HW138978   4.251   2.807   5.413 -0.1329 -0.7399  1.6312
 9172SOL    HW238979   4.360   2.826   5.318 -1.7786  2.4017  1.3645
 9173SOL     OW38980   3.519   2.453   5.850  0.1369 -0.8965 -0.5973
 9173SOL    HW138981   3.572   2.499   5.914 -1.2377  0.0627 -0.1431
 9173SOL    HW238982   3.433   2.482   5.880  0.0126 -0.6183 -1.2145
 9174SOL     OW38983   3.209   0.297  14.441 -0.3260 -0.5467  0.1193
 9174SOL    HW138984   3.183   0.242  14.366 -0.1460 -1.7048  0.8992
 9174SOL    HW238985   3.149   0.274  14.512 -0.1618 -1.0942  0.0847
 9175SOL     OW38986   4.291   1.782   3.951 -0.6106 -0.0062  0.2054
 9175SOL    HW138987   4.273   1.714   3.886 -0.8948 -1.8342  2.2023
 9175SOL    HW238988   4.210   1.832   3.949 -0.1340  0.8423  2.4077
 9176SOL     OW38989   0.667   3.541  10.115  0.5220  0.2939 -0.5725
 9176SOL    HW138990   0.760   3.558  10.131 -0.1208  0.6761  2.7337
 9176SOL    HW238991   0.671   3.448  10.093  3.4048  0.2841 -0.0987
 9177SOL     OW38992   1.925   3.497  11.965  0.0021 -0.3708  0.0542
 9177SOL    HW138993   1.852   3.442  11.936  2.5360 -3.5823 -0.1294
 9177SOL    HW238994   1.937   3.464  12.054  1.6411  0.1120  0.0202
 9178SOL     OW38995   4.075   3.812  16.658 -0.3518 -0.0290  0.8806
 9178SOL    HW138996   4.096   3.754  16.585 -2.9046  0.5560 -0.2874
 9178SOL    HW238997   4.062   3.898  16.618 -1.3808 -1.3944 -1.7116
 9179SOL     OW38998   2.505   0.876   9.177 -0.4823 -0.0233  0.3907
 9179SOL    HW138999   2.549   0.905   9.257 -1.4572  1.4680  0.3887
 9179SOL    HW239000   2.524   0.782   9.182 -1.8734 -0.2916  0.6050
 9180SOL     OW39001   4.256   2.790   1.897 -0.2862 -0.0518  0.1142
 9180SOL    HW139002   4.230   2.864   1.952 -0.6134 -0.1321  0.0709
 9180SOL    HW239003   4.177   2.791   1.842  1.8639  0.1343 -3.0010
 9181SOL     OW39004   4.473   3.621   0.847  0.0077  0.0948 -0.5615
 9181SOL    HW139005   4.427   3.586   0.923 -0.1967  1.8429  0.1083
 9181SOL    HW239006   4.391   3.617   0.797  0.8152 -1.7677 -1.7774
 9182SOL     OW39007   0.431   2.492   8.165  0.5120  0.1784  0.2540
 9182SOL    HW139008   0.357   2.539   8.127  1.3670  1.7266  0.4965
 9182SOL    HW239009   0.398   2.402   8.163  0.6778  0.1218  0.1023
 9183SOL     OW39010   4.694   0.065   6.025  0.4696  0.1291 -0.7465
 9183SOL    HW139011   0.014   0.052   6.113  2.0595  0.6193 -1.3533
 9183SOL    HW239012   4.667   0.156   6.042  0.9266  0.3288 -1.1017
 9184SOL     OW39013   3.431   0.003  11.198  0.0072  0.0599  0.5268
 9184SOL    HW139014   3.441   4.664  11.275  0.6573 -1.7370 -0.8609
 9184SOL    HW239015   3.337   4.708  11.187 -0.2134 -1.2372  3.7306
 9185SOL     OW39016   0.493   0.706  14.897  0.1555 -0.2709  0.6350
 9185SOL    HW139017   0.477   0.651  14.820 -0.6611  0.1483  0.5062
 9185SOL    HW239018   0.494   0.794  14.859 -1.3805  0.1798  1.6590
 9186SOL     OW39019   2.837   2.560   9.942  0.1656  0.0967 -0.1519
 9186SOL    HW139020   2.818   2.537   9.851  1.4507  0.4063 -0.5049
 9186SOL    HW239021   2.913   2.618   9.934 -1.2037  2.3894  3.7058
 9187SOL     OW39022   1.993   3.960   3.093 -0.2482  0.2761 -0.3218
 9187SOL    HW139023   2.061   3.900   3.063 -3.1458 -2.7809 -0.7591
 9187SOL    HW239024   1.959   3.998   3.012  0.1366 -1.0121 -1.0777
 9188SOL     OW39025   1.535   0.601   0.216  0.0067 -0.2358 -0.0441
 9188SOL    HW139026   1.517   0.690   0.248  1.3246 -0.1405  0.4338
 9188SOL    HW239027   1.629   0.586   0.231  0.0053  0.6945  0.9058
 9189SOL     OW39028   2.301   3.004   9.574  0.7457  0.3256 -0.1026
 9189SOL    HW139029   2.344   3.035   9.654 -0.4960  1.8788 -0.0378
 9189SOL    HW239030   2.246   3.081   9.558 -2.1299 -1.5833  0.7107
 9190SOL     OW39031   1.225   2.459   2.992 -0.6479  0.1110  0.3909
 9190SOL    HW139032   1.234   2.405   3.071  0.0772  0.1522  0.3403
 9190SOL    HW239033   1.305   2.512   2.998 -1.1727  1.1235 -1.7619
 9191SOL     OW39034   1.473   4.042   7.332  0.1976  0.6221 -0.0063
 9191SOL    HW139035   1.401   4.104   7.337  0.0715  0.5195 -0.6738
 9191SOL    HW239036   1.497   4.047   7.240  0.7342 -1.1131  0.0350
 9192SOL     OW39037   4.227   3.792  10.348 -0.2344  0.6437  0.1807
 9192SOL    HW139038   4.169   3.821  10.278 -0.2356 -1.9860 -0.8939
 9192SOL    HW239039   4.151   3.761  10.396  1.9083  0.5681  3.5788
 9193SOL     OW39040   3.519   0.413  12.493 -0.0094 -0.1091 -0.0913
 9193SOL    HW139041   3.578   0.486  12.510 -0.1964 -0.1866  0.8853
 9193SOL    HW239042   3.580   0.374  12.430  1.3259  1.8470  0.0129
 9194SOL     OW39043   0.775   2.940   6.238 -0.9851 -0.4754  0.1513
 9194SOL    HW139044   0.805   2.849   6.235  1.7521  0.3948  0.3942
 9194SOL    HW239045   0.727   2.930   6.320  0.3903  0.2739  1.0496
 9195SOL     OW39046   2.713   0.036   3.457 -0.4681 -0.4795  0.2769
 9195SOL    HW139047   2.740   0.059   3.546 -0.7837 -1.0329  0.5140
 9195SOL    HW239048   2.728   4.659   3.462  2.6345  0.0138 -0.1223
 9196SOL     OW39049   1.368   1.354   7.241  0.0026 -0.1216  0.3582
 9196SOL    HW139050   1.392   1.317   7.155 -0.2524 -1.3837  0.8335
 9196SOL    HW239051   1.450   1.343   7.288 -0.6651 -0.9136  1.3223
 9197SOL     OW39052   1.740   2.568  15.188 -0.3902 -0.3159 -0.1470
 9197SOL    HW139053   1.659   2.577  15.238 -0.3698 -1.5951  0.1070
 9197SOL    HW239054   1.723   2.490  15.135 -0.5797 -2.1709  2.6733
 9198SOL     OW39055   3.514   0.900   5.371  0.2411  0.1936 -0.1947
 9198SOL    HW139056   3.441   0.848   5.404  0.0495 -0.7621 -2.0916
 9198SOL    HW239057   3.466   0.968   5.325  0.4480  0.5770  0.1581
 9199SOL     OW39058   3.265   3.185   4.661 -0.4884 -0.0696  0.2654
 9199SOL    HW139059   3.209   3.175   4.584 -1.7857  1.0566  1.0779
 9199SOL    HW239060   3.206   3.227   4.723  0.2443  0.4953  0.5899
 9200SOL     OW39061   1.863   1.554   4.101 -0.3155 -0.3698 -0.2044
 9200SOL    HW139062   1.825   1.564   4.014 -0.9711 -0.0645  0.1205
 9200SOL    HW239063   1.936   1.615   4.091  0.2466 -0.9615  0.2459
 9201SOL     OW39064   3.192   0.404  12.529 -0.0653 -0.2928  0.2675
 9201SOL    HW139065   3.171   0.340  12.597  1.3017  1.4378  2.3132
 9201SOL    HW239066   3.282   0.379  12.510  0.1177  0.2782  0.4011
 9202SOL     OW39067   1.622   3.388   6.680 -0.3987 -0.7035  0.3221
 9202SOL    HW139068   1.568   3.311   6.696 -0.3550 -0.1010  3.3494
 9202SOL    HW239069   1.683   3.378   6.753 -0.6526 -2.6092  0.2669
 9203SOL     OW39070   0.996   3.379   2.669 -0.1715 -0.3266  0.2562
 9203SOL    HW139071   0.981   3.473   2.677 -1.1301 -0.3285 -1.5938
 9203SOL    HW239072   0.956   3.346   2.749 -0.5347  1.6892  0.8990
 9204SOL     OW39073   3.493   1.804   0.978 -0.2470  0.1829 -0.3044
 9204SOL    HW139074   3.466   1.776   1.065  2.3301 -0.7923  0.1655
 9204SOL    HW239075   3.422   1.766   0.925 -1.3928  0.0314  1.3266
 9205SOL     OW39076   3.250   1.375   1.533  0.6284 -0.3123 -0.2564
 9205SOL    HW139077   3.163   1.361   1.571  0.5850  1.4069  0.2787
 9205SOL    HW239078   3.218   1.419   1.454  0.3132 -1.5846 -0.8347
 9206SOL     OW39079   2.915   2.797  15.336 -0.1363  0.7334 -0.4808
 9206SOL    HW139080   2.889   2.885  15.364 -0.8113 -0.2631  2.0514
 9206SOL    HW239081   3.004   2.786  15.371 -0.0116  2.8994 -0.1281
 9207SOL     OW39082   3.597   4.336   6.567 -0.0305 -0.8017  0.2556
 9207SOL    HW139083   3.634   4.352   6.480 -0.8066  0.1618  0.1060
 9207SOL    HW239084   3.591   4.240   6.566  0.7654 -0.8487  0.0607
 9208SOL     OW39085   4.182   0.845   7.010 -0.1576 -0.2010 -0.1088
 9208SOL    HW139086   4.200   0.836   7.103  1.4192  1.4117 -0.2374
 9208SOL    HW239087   4.220   0.761   6.985  2.1668  0.2506  1.8926
 9209SOL     OW39088   0.967   3.165   7.447  0.1803  0.1088  0.6541
 9209SOL    HW139089   0.961   3.086   7.501  0.8920 -0.8149 -0.6338
 9209SOL    HW239090   1.045   3.142   7.397 -0.7076 -2.7356  0.5914
 9210SOL     OW39091   0.764   0.815   6.057  0.2028 -0.5427 -0.0341
 9210SOL    HW139092   0.833   0.749   6.043  0.2452 -0.3122 -0.9421
 9210SOL    HW239093   0.688   0.757   6.062  0.0889 -0.4527 -0.7223
 9211SOL     OW39094   4.420   3.686  17.511  0.1839  0.7207 -0.6421
 9211SOL    HW139095   4.404   3.738  17.432 -1.2665  0.8641 -0.2625
 9211SOL    HW239096   4.492   3.633  17.478  0.1227 -1.8105  3.2196
 9212SOL     OW39097   3.249   3.490  15.585  0.8703 -0.2989  0.5767
 9212SOL    HW139098   3.304   3.413  15.599  0.2099 -0.9060 -0.1921
 9212SOL    HW239099   3.218   3.472  15.496 -1.0173 -1.1689  1.4335
 9213SOL     OW39100   4.446   0.848   8.186  0.2560  0.2412  0.1058
 9213SOL    HW139101   4.361   0.837   8.144  0.3701 -1.8345  0.4340
 9213SOL    HW239102   4.422   0.877   8.275 -1.8450 -4.8889  1.2427
 9214SOL     OW39103   3.604   1.346   3.355  0.3136 -0.1913  0.0691
 9214SOL    HW139104   3.659   1.269   3.365 -1.5905 -1.6693 -0.9693
 9214SOL    HW239105   3.595   1.373   3.447  0.0522 -3.1207  0.9076
 9215SOL     OW39106   1.661   0.112   2.569  0.2867 -0.7282 -0.0182
 9215SOL    HW139107   1.703   0.027   2.555 -0.3311 -0.9261 -0.6704
 9215SOL    HW239108   1.707   0.150   2.644 -1.3570 -0.4665  0.8392
 9216SOL     OW39109   4.068   3.556   2.395  0.1803  0.0119  0.1427
 9216SOL    HW139110   4.161   3.555   2.418  0.8673 -0.5917 -2.7153
 9216SOL    HW239111   4.065   3.622   2.325  5.3756  1.9471  1.7415
 9217SOL     OW39112   4.296   0.703   9.844 -0.1101  0.0286  0.7212
 9217SOL    HW139113   4.361   0.771   9.827  0.8755 -0.8468  0.9997
 9217SOL    HW239114   4.226   0.728   9.784 -1.1962 -4.0240  0.2711
 9218SOL     OW39115   2.673   1.662  15.928  0.0813  0.6922  0.1717
 9218SOL    HW139116   2.668   1.657  16.024 -1.0134  1.2715  0.1451
 9218SOL    HW239117   2.597   1.607  15.910  0.4565  0.0756  0.4704
 9219SOL     OW39118   2.733   1.011  11.054 -0.6642  1.2353  0.6321
 9219SOL    HW139119   2.803   0.982  10.996 -2.1024 -0.3670 -0.3162
 9219SOL    HW239120   2.659   0.957  11.024  1.7799 -1.2647 -0.8640
 9220SOL     OW39121   3.923   2.291  15.582 -0.1816 -0.0207  0.3916
 9220SOL    HW139122   3.880   2.264  15.663  0.7821  0.1482  0.9576
 9220SOL    HW239123   3.898   2.382  15.567  0.5514 -0.3837 -3.1743
 9221SOL     OW39124   0.324   0.364  16.983 -0.2826 -0.8617 -0.1751
 9221SOL    HW139125   0.272   0.373  17.062  0.0932  3.0275 -0.3932
 9221SOL    HW239126   0.410   0.328  17.008 -0.4446 -0.3255  1.1190
 9222SOL     OW39127   1.680   0.805  13.650 -0.0443  0.1514  0.0566
 9222SOL    HW139128   1.729   0.750  13.589  1.0972  1.5687 -0.3099
 9222SOL    HW239129   1.641   0.743  13.712 -2.4327 -1.7655 -3.4003
 9223SOL     OW39130   4.289   4.586  13.716  0.1807  0.0372  0.0310
 9223SOL    HW139131   4.297   4.492  13.732  0.7932  0.2606  1.0744
 9223SOL    HW239132   4.382   4.608  13.704  0.3236 -0.5328  0.1289
 9224SOL     OW39133   0.673   3.638   6.400  0.5621  0.0519 -0.5178
 9224SOL    HW139134   0.675   3.601   6.488  0.1836  1.5522  0.1197
 9224SOL    HW239135   0.645   3.568   6.341 -2.5511 -0.1594  1.2346
 9225SOL     OW39136   0.918   2.915  10.456 -0.1007  0.2597  0.3003
 9225SOL    HW139137   0.868   2.836  10.439  2.7427 -1.7634  1.1901
 9225SOL    HW239138   0.955   2.902  10.544  1.8803 -1.4217 -0.7727
 9226SOL     OW39139   3.770   2.993  14.209  0.1764 -0.3641 -0.4715
 9226SOL    HW139140   3.684   3.007  14.169 -0.0698  1.4503  0.6662
 9226SOL    HW239141   3.780   3.075  14.258  0.4592 -0.2350 -0.7404
 9227SOL     OW39142   1.562   4.034   4.500  0.0071  0.2195  0.1883
 9227SOL    HW139143   1.477   4.005   4.531  0.2980  0.6054  1.3484
 9227SOL    HW239144   1.552   4.125   4.471  1.7081 -0.2269 -1.8123
 9228SOL     OW39145   3.001   2.077   8.379 -0.0797  0.1796  0.7352
 9228SOL    HW139146   3.007   2.144   8.446 -0.2335 -1.0529  1.9779
 9228SOL    HW239147   3.080   2.024   8.392 -0.5692 -0.4171  1.2683
 9229SOL     OW39148   1.887   0.040   8.243 -1.0070 -0.4125 -0.0184
 9229SOL    HW139149   1.981   0.050   8.228 -0.9870  1.3015  1.3087
 9229SOL    HW239150   1.852   0.119   8.202  0.1134 -0.3456 -0.8387
 9230SOL     OW39151   4.530   3.918   3.669  0.0298  0.3376 -0.2280
 9230SOL    HW139152   4.612   3.870   3.661 -1.2270 -1.8739  0.3267
 9230SOL    HW239153   4.468   3.846   3.678  0.3039 -0.1672 -2.2471
 9231SOL     OW39154   4.359   2.245   3.451 -0.2230 -0.3920  0.2095
 9231SOL    HW139155   4.309   2.323   3.475  2.0173  1.1571 -0.2035
 9231SOL    HW239156   4.371   2.191   3.529  0.0935 -0.2091  0.2854
 9232SOL     OW39157   2.570   1.495   6.087 -0.0010 -0.3118  0.2229
 9232SOL    HW139158   2.561   1.494   6.182  0.7830  2.1165  0.3212
 9232SOL    HW239159   2.478   1.482   6.063 -0.2674  0.0490  1.0502
 9233SOL     OW39160   4.436   1.624   3.003 -0.5423  0.2248 -0.6386
 9233SOL    HW139161   4.509   1.597   2.948  1.5114  1.9739  1.2171
 9233SOL    HW239162   4.367   1.634   2.938  0.8132  2.8713 -1.6715
 9234SOL     OW39163   0.808   1.004   3.134 -0.2933  0.0709  0.2297
 9234SOL    HW139164   0.878   1.030   3.074  0.8093 -0.1022  1.4299
 9234SOL    HW239165   0.857   0.934   3.176 -0.6344 -0.0916  0.3588
 9235SOL     OW39166   0.609   2.071  11.894  0.2670  0.2128  0.6282
 9235SOL    HW139167   0.621   2.000  11.830  0.9016  1.0161 -0.1441
 9235SOL    HW239168   0.520   2.055  11.925 -0.6028  1.0466 -1.4566
 9236SOL     OW39169   1.121   0.187   6.785 -0.0302  0.5729 -0.0409
 9236SOL    HW139170   1.146   0.160   6.874  0.6853  2.5828  0.3578
 9236SOL    HW239171   1.154   0.277   6.784  0.6735  0.3062 -0.7255
 9237SOL     OW39172   4.116   1.106   1.190 -0.4475  0.0415  0.2943
 9237SOL    HW139173   4.039   1.158   1.165  0.5911  1.2091 -0.4851
 9237SOL    HW239174   4.176   1.116   1.116 -0.9050  0.3880 -0.0238
 9238SOL     OW39175   2.265   3.151   4.500 -0.1849  0.4771  0.0609
 9238SOL    HW139176   2.305   3.153   4.413  1.4476 -0.9172  0.7810
 9238SOL    HW239177   2.218   3.069   4.489 -2.9703  1.7962  1.9891
 9239SOL     OW39178   2.424   3.518  15.050 -0.5954 -0.2846 -0.4053
 9239SOL    HW139179   2.407   3.459  14.977 -0.0686 -1.8447  0.7280
 9239SOL    HW239180   2.430   3.460  15.126 -1.2390 -0.2686 -0.3366
 9240SOL     OW39181   4.058   3.086   3.867 -0.4395  0.4049  0.1153
 9240SOL    HW139182   4.008   3.161   3.899  0.9003  1.0011  0.8023
 9240SOL    HW239183   3.986   3.052   3.814  0.2022 -0.0460 -0.4678
 9241SOL     OW39184   0.976   0.356   5.210 -0.1015  0.1335  0.5349
 9241SOL    HW139185   0.933   0.424   5.260  0.1677  0.2896  0.5550
 9241SOL    HW239186   0.942   0.367   5.122  0.5607  2.3802  0.5615
 9242SOL     OW39187   3.563   2.707  10.742  0.0750  0.5131  0.1096
 9242SOL    HW139188   3.474   2.718  10.710 -0.1682  0.2236  0.6943
 9242SOL    HW239189   3.586   2.799  10.758  0.0763  0.5937 -0.3499
 9243SOL     OW39190   3.181   3.738  15.622 -0.2953  0.0307 -0.1178
 9243SOL    HW139191   3.120   3.716  15.692 -0.9283  1.3751 -0.2493
 9243SOL    HW239192   3.199   3.648  15.596  1.6736  0.0961  0.9953
 9244SOL     OW39193   2.334   0.132   6.633  0.0117  0.2159 -0.5250
 9244SOL    HW139194   2.326   0.082   6.552 -1.5293  0.9163 -0.8053
 9244SOL    HW239195   2.383   0.074   6.692  0.3794  2.0744  1.0195
 9245SOL     OW39196   0.325   3.416   4.388  0.1413 -0.6898  0.5614
 9245SOL    HW139197   0.395   3.349   4.390  0.0425 -0.7589  1.6387
 9245SOL    HW239198   0.367   3.501   4.382  0.3077 -0.8572 -0.8389
 9246SOL     OW39199   0.616   0.001  13.828  0.4306  0.0527 -0.2838
 9246SOL    HW139200   0.642   4.627  13.810 -1.8706 -0.5682 -0.5109
 9246SOL    HW239201   0.637   0.037  13.742 -1.1882  1.7778  0.0321
 9247SOL     OW39202   2.724   3.153   7.437 -0.1436  0.0134 -0.1222
 9247SOL    HW139203   2.692   3.151   7.347 -0.4904 -0.2106  0.0054
 9247SOL    HW239204   2.797   3.211   7.418  0.2654 -0.9119 -1.3950
 9248SOL     OW39205   0.974   3.729   6.659 -0.0480  0.0372 -0.5637
 9248SOL    HW139206   0.912   3.686   6.601 -0.6190  1.1263 -0.7592
 9248SOL    HW239207   0.907   3.786   6.696 -1.4027 -1.4923 -0.6292
 9249SOL     OW39208   1.950   1.422   7.039 -0.1822  0.6928  0.5887
 9249SOL    HW139209   1.889   1.361   7.079 -2.0590  2.0714 -0.1576
 9249SOL    HW239210   1.888   1.495   7.042 -1.5401 -0.3341 -2.1848
 9250SOL     OW39211   3.625   0.536  11.443  0.2295  0.2400  0.5339
 9250SOL    HW139212   3.571   0.521  11.521 -2.0707 -0.7172 -1.2586
 9250SOL    HW239213   3.560   0.560  11.377 -0.3252  0.0171  0.9973
 9251SOL     OW39214   2.140   3.873   4.786 -0.7287 -0.0823  0.0599
 9251SOL    HW139215   2.143   3.782   4.755 -1.9489 -0.2198  0.3387
 9251SOL    HW239216   2.180   3.862   4.872  1.2495  0.2170 -0.8350
 9252SOL     OW39217   4.105   0.337   0.544  0.3241  0.4740 -0.1300
 9252SOL    HW139218   4.104   0.279   0.620  3.2079 -0.1460 -0.5501
 9252SOL    HW239219   4.014   0.344   0.517  0.6923  1.3072 -1.1690
 9253SOL     OW39220   3.304   2.950   9.989 -0.4882  0.4376  0.2417
 9253SOL    HW139221   3.361   2.873   9.988 -0.9446  0.0851  1.0188
 9253SOL    HW239222   3.308   2.982   9.899  1.9334  1.9645  0.8708
 9254SOL     OW39223   0.569   3.132   3.022  0.2584  0.9169 -0.2778
 9254SOL    HW139224   0.647   3.104   2.973  1.2516  0.4911  1.5342
 9254SOL    HW239225   0.579   3.081   3.103 -1.2199  0.3273 -0.4622
 9255SOL     OW39226   4.368   1.551   5.307 -0.1529 -0.1542  0.0357
 9255SOL    HW139227   4.411   1.612   5.248 -1.9443  0.7616 -0.3398
 9255SOL    HW239228   4.431   1.496   5.353 -1.4746 -1.8956 -0.2224
 9256SOL     OW39229   1.907   3.514   4.203 -0.6390  0.0529 -0.1866
 9256SOL    HW139230   1.893   3.595   4.155  0.2156 -0.3308 -1.0740
 9256SOL    HW239231   2.002   3.514   4.190 -0.5993  1.1678  0.0644
 9257SOL     OW39232   0.437   0.339   9.413 -0.5512 -0.2929 -0.6504
 9257SOL    HW139233   0.438   0.257   9.363 -2.9745 -2.9027  3.6206
 9257SOL    HW239234   0.532   0.351   9.419 -0.8161  0.5600  1.9041
 9258SOL     OW39235   3.160   1.749  14.885 -0.4142 -0.2888 -0.4045
 9258SOL    HW139236   3.166   1.714  14.974  2.3323 -1.4688 -1.0546
 9258SOL    HW239237   3.083   1.804  14.899  0.6302  1.4706 -1.5923
 9259SOL     OW39238   1.121   0.797  14.352  0.3242 -0.4808  0.7062
 9259SOL    HW139239   1.110   0.891  14.340  0.4201 -0.6274 -0.5753
 9259SOL    HW239240   1.151   0.765  14.267 -0.1465 -0.3574  0.4939
 9260SOL     OW39241   1.429   2.984  11.431  0.4280  0.1346  0.3128
 9260SOL    HW139242   1.400   2.971  11.521  2.1047 -0.1948  0.8031
 9260SOL    HW239243   1.520   3.014  11.438  0.6856 -0.3327 -0.9032
 9261SOL     OW39244   1.550   3.438   1.675  0.0088 -0.6154 -0.6574
 9261SOL    HW139245   1.603   3.367   1.711 -0.2815 -0.6270 -0.2562
 9261SOL    HW239246   1.559   3.437   1.580  0.4854  1.5369 -0.6426
 9262SOL     OW39247   3.541   4.077  14.379  0.0323 -0.6177  0.5614
 9262SOL    HW139248   3.453   4.108  14.400  0.3920  1.0306 -0.3187
 9262SOL    HW239249   3.581   4.152  14.335  2.7186 -1.2793  1.8573
 9263SOL     OW39250   1.064   3.102  14.601  0.0358 -0.6723 -0.8522
 9263SOL    HW139251   1.131   3.043  14.637 -0.0598 -0.5890 -0.5421
 9263SOL    HW239252   1.082   3.087  14.508  2.2695  0.0538 -0.5335
 9264SOL     OW39253   3.486   0.993   1.298  0.3741 -0.1191 -0.0807
 9264SOL    HW139254   3.401   1.037   1.291 -0.8052 -2.5411 -0.9606
 9264SOL    HW239255   3.492   0.984   1.394 -0.9371 -1.5498 -0.1452
 9265SOL     OW39256   2.380   3.078   2.117 -0.6220 -0.2673 -0.3173
 9265SOL    HW139257   2.464   3.122   2.124  0.3185 -2.0296 -0.4529
 9265SOL    HW239258   2.415   3.026   2.045  1.1375  0.5389 -0.0467
 9266SOL     OW39259   0.121   3.829   7.215  0.1752  0.3072  0.1691
 9266SOL    HW139260   0.133   3.820   7.310 -2.4722 -0.8745  0.3867
 9266SOL    HW239261   0.028   3.846   7.201 -0.1891  0.4089  2.6616
 9267SOL     OW39262   1.708   4.654   5.204  0.0840 -0.1487 -0.1693
 9267SOL    HW139263   1.799   4.636   5.180  0.0404 -0.7727  0.1260
 9267SOL    HW239264   1.719   0.010   5.264 -0.0222  0.3191 -0.7133
 9268SOL     OW39265   1.954   2.438  12.697 -0.2441  0.2799 -0.0314
 9268SOL    HW139266   2.038   2.456  12.738 -0.1976  2.5688 -1.1270
 9268SOL    HW239267   1.984   2.445  12.606  0.2156 -0.7789  0.0334
 9269SOL     OW39268   3.438   0.898   1.560  0.1535 -0.7277 -0.4626
 9269SOL    HW139269   3.440   0.889   1.655 -0.4443  0.9942 -0.2873
 9269SOL    HW239270   3.359   0.951   1.546  0.6154 -0.2855 -1.4572
 9270SOL     OW39271   1.595   1.248   7.594  0.3726 -0.5112 -0.1740
 9270SOL    HW139272   1.598   1.288   7.507 -0.9346 -0.9429 -0.4083
 9270SOL    HW239273   1.539   1.174   7.574  0.3352 -1.5149  3.6639
 9271SOL     OW39274   3.695   0.224   1.222  0.1016 -0.0360 -0.0868
 9271SOL    HW139275   3.658   0.136   1.211  2.1688 -0.6664 -1.9639
 9271SOL    HW239276   3.683   0.267   1.137 -0.1128 -0.9840 -0.5414
 9272SOL     OW39277   1.493   3.642  12.608 -0.3788 -0.3281 -0.3947
 9272SOL    HW139278   1.569   3.585  12.594  2.0593  2.3636  2.1385
 9272SOL    HW239279   1.537   3.725  12.592  0.3441 -0.7185 -0.4370
 9273SOL     OW39280   2.443   0.894   6.674 -0.0351  0.1150  0.5855
 9273SOL    HW139281   2.510   0.960   6.654 -1.3269  1.4403  0.6692
 9273SOL    HW239282   2.447   0.880   6.769  1.1511  0.4101  0.5821
 9274SOL     OW39283   3.562   2.514   6.687  1.0380  0.1877 -0.1449
 9274SOL    HW139284   3.622   2.543   6.618  0.4068  0.1523 -0.7066
 9274SOL    HW239285   3.493   2.574   6.661  0.4138 -0.8180 -0.8067
 9275SOL     OW39286   2.660   4.442   3.836 -0.3185 -0.6419 -0.0384
 9275SOL    HW139287   2.702   4.525   3.813  0.8910 -1.3986 -0.5400
 9275SOL    HW239288   2.574   4.481   3.851  0.2359  0.4103  0.4396
 9276SOL     OW39289   3.520   1.974   4.092 -0.0803 -0.0688 -0.0109
 9276SOL    HW139290   3.519   1.984   4.187  0.5442  1.0953 -0.1282
 9276SOL    HW239291   3.478   1.888   4.085  1.5755 -1.0089  1.5404
 9277SOL     OW39292   3.777   1.547   2.292  0.1784  0.2368  0.1227
 9277SOL    HW139293   3.696   1.582   2.254 -0.8050  0.2355  2.2143
 9277SOL    HW239294   3.813   1.512   2.210  1.4185  1.6208  0.0827
 9278SOL     OW39295   4.591   2.295   4.459  0.3421  0.4783 -0.2210
 9278SOL    HW139296   4.589   2.199   4.464  2.3068  0.4702  0.5977
 9278SOL    HW239297   4.580   2.332   4.546  1.5255 -0.2123  0.2239
 9279SOL     OW39298   2.114   0.890   3.961  0.2160 -0.1775  0.6199
 9279SOL    HW139299   2.037   0.901   4.016 -1.4007  0.1033 -1.7177
 9279SOL    HW239300   2.180   0.885   4.031  2.4130  2.8524 -1.2269
 9280SOL     OW39301   2.401   0.670   2.576  0.2247 -0.1555 -0.5096
 9280SOL    HW139302   2.332   0.707   2.521  0.0587  2.6578  1.5823
 9280SOL    HW239303   2.456   0.621   2.515  1.6842 -0.0459  0.7094
 9281SOL     OW39304   0.396   3.915  13.703 -0.2437  0.4172 -0.1051
 9281SOL    HW139305   0.452   3.862  13.646 -2.1239 -0.9305 -0.7220
 9281SOL    HW239306   0.410   3.881  13.792 -0.4775 -0.4148 -0.3873
 9282SOL     OW39307   0.863   2.600  11.325  1.1813  0.0715  0.2488
 9282SOL    HW139308   0.841   2.574  11.414 -0.6314  1.8844  0.3269
 9282SOL    HW239309   0.879   2.693  11.341 -1.4554  0.4744  0.5224
 9283SOL     OW39310   0.482   0.956  12.356  0.5633  0.8664 -0.0591
 9283SOL    HW139311   0.436   1.006  12.288 -3.4147 -2.6867  0.0336
 9283SOL    HW239312   0.553   0.928  12.298 -1.4037  2.7570 -3.3734
 9284SOL     OW39313   0.275   0.467   7.300 -0.4749  0.3665  0.1699
 9284SOL    HW139314   0.240   0.509   7.378  0.5187  1.1299  0.2148
 9284SOL    HW239315   0.228   0.515   7.231  0.9358  0.7918 -0.5028
 9285SOL     OW39316   0.374   4.220   5.240 -0.2598 -0.1818  0.8501
 9285SOL    HW139317   0.438   4.167   5.287  2.9015  3.1464  0.2823
 9285SOL    HW239318   0.358   4.162   5.165 -0.3736  2.0537 -0.8358
 9286SOL     OW39319   2.357   3.116   8.184 -0.0078  0.1371 -0.3774
 9286SOL    HW139320   2.329   3.200   8.219 -2.5866 -1.0469  0.3942
 9286SOL    HW239321   2.294   3.052   8.217 -0.7156 -0.4061 -2.7791
 9287SOL     OW39322   4.422   1.861   6.880 -0.1569  0.2730 -0.1541
 9287SOL    HW139323   4.484   1.899   6.943 -0.8108 -2.0973  1.9266
 9287SOL    HW239324   4.482   1.798   6.840  0.1971 -0.1850  1.0764
 9288SOL     OW39325   1.463   0.097   6.954 -0.0632  0.0550 -0.1873
 9288SOL    HW139326   1.500   0.139   6.876 -3.0584  0.1553 -1.5244
 9288SOL    HW239327   1.508   0.014   6.937 -0.0807 -0.4005  1.9258
 9289SOL     OW39328   3.343   1.344  16.465 -0.2228 -0.2628  0.0293
 9289SOL    HW139329   3.252   1.314  16.469 -0.1323 -0.2438  2.2783
 9289SOL    HW239330   3.386   1.289  16.530 -0.1852 -0.4628 -0.1631
 9290SOL     OW39331   0.641   1.828   4.816  0.3650  0.5317 -0.0935
 9290SOL    HW139332   0.602   1.851   4.900  0.2949  1.0697 -0.2767
 9290SOL    HW239333   0.733   1.849   4.826  0.2854  0.9907 -0.3283
 9291SOL     OW39334   4.536   2.323   7.105 -0.2632  0.0378 -0.3207
 9291SOL    HW139335   4.486   2.384   7.158 -0.9638 -0.4670 -0.3912
 9291SOL    HW239336   4.612   2.303   7.160  0.4252  0.2872 -1.1759
 9292SOL     OW39337   4.181   1.119   3.759  0.6991 -0.7021  0.7720
 9292SOL    HW139338   4.234   1.104   3.681  1.0367 -2.4721  1.3474
 9292SOL    HW239339   4.157   1.211   3.750  0.7959 -0.7356  0.1464
 9293SOL     OW39340   1.832   4.563   1.109 -0.0777  0.1656 -0.5389
 9293SOL    HW139341   1.787   4.481   1.129  0.6006  0.1057  0.7431
 9293SOL    HW239342   1.796   4.614   1.182  1.0581 -1.9642  1.5222
 9294SOL     OW39343   2.429   3.442   1.029 -0.3370  0.3857 -0.1988
 9294SOL    HW139344   2.359   3.397   1.076  1.0996 -3.0844 -1.3663
 9294SOL    HW239345   2.505   3.430   1.086  0.9205 -2.1285 -2.4134
 9295SOL     OW39346   2.157   3.376   7.901  0.0276  0.0370  0.1219
 9295SOL    HW139347   2.232   3.317   7.914  0.4143  0.6604  0.7188
 9295SOL    HW239348   2.114   3.354   7.983 -0.8381 -0.2263 -0.4100
 9296SOL     OW39349   4.577   1.671   3.652 -0.3954 -0.2319 -0.3007
 9296SOL    HW139350   4.522   1.593   3.655  1.0016 -1.1801  0.5115
 9296SOL    HW239351   4.634   1.654   3.728  0.9958  1.7038 -0.9282
 9297SOL     OW39352   3.932   4.133  13.839  0.2146  0.2903 -0.4171
 9297SOL    HW139353   3.908   4.175  13.757 -0.4723 -1.6215 -1.2052
 9297SOL    HW239354   4.019   4.161  13.867  0.0277  1.5831 -1.1557
 9298SOL     OW39355   0.286   4.596   1.330 -0.3460  0.5033 -0.0135
 9298SOL    HW139356   0.330   4.583   1.246  2.0972 -0.1657  1.3809
 9298SOL    HW239357   0.313   4.519   1.380 -0.9978  0.7441  0.7182
 9299SOL     OW39358   3.488   3.061   1.897  0.5293 -0.2927 -0.2902
 9299SOL    HW139359   3.552   3.123   1.932 -0.0923  0.6436 -0.8425
 9299SOL    HW239360   3.546   2.985   1.903  1.0464 -0.0597 -2.7001
 9300SOL     OW39361   3.067   1.252   8.559  0.5880  0.4686  0.4384
 9300SOL    HW139362   3.009   1.201   8.503  1.1519 -1.0965  1.2587
 9300SOL    HW239363   3.107   1.183   8.613  0.1071 -0.2976 -0.1808
 9301SOL     OW39364   1.036   1.025   1.953  0.2127  0.0085  0.9502
 9301SOL    HW139365   0.964   0.966   1.976 -0.9051  0.8042 -0.5297
 9301SOL    HW239366   1.014   1.033   1.860  3.7487  0.9104  0.2087
 9302SOL     OW39367   3.539   0.973  12.913  0.0260 -0.2976  0.8032
 9302SOL    HW139368   3.634   0.970  12.901 -0.1069  1.7076 -0.6853
 9302SOL    HW239369   3.534   0.980  13.008 -1.5571 -2.8624  0.8972
 9303SOL     OW39370   1.429   3.266  16.999  0.3694 -0.4107  0.0839
 9303SOL    HW139371   1.411   3.182  16.957 -0.9400 -0.1596  0.1169
 9303SOL    HW239372   1.348   3.314  16.981  0.8820  0.6672  0.6643
 9304SOL     OW39373   3.222   0.066   7.910 -0.1212 -0.2115 -0.0526
 9304SOL    HW139374   3.209   4.693   7.944  2.4515 -0.6133 -0.1575
 9304SOL    HW239375   3.183   0.122   7.977 -0.9276 -1.8465  0.8615
 9305SOL     OW39376   4.575   2.036   3.405  0.0471 -0.1447  0.6079
 9305SOL    HW139377   4.514   2.108   3.422  0.8415  0.4613  0.8803
 9305SOL    HW239378   4.596   2.060   3.315 -0.4727 -1.0049  0.2529
 9306SOL     OW39379   3.001   1.602   5.224  0.2472 -0.0309  0.1012
 9306SOL    HW139380   3.093   1.623   5.205  0.3052  0.8650  1.3885
 9306SOL    HW239381   3.005   1.554   5.307  0.1994 -0.4708 -0.1498
 9307SOL     OW39382   3.066   3.001  15.945 -0.4364 -0.2340  0.3878
 9307SOL    HW139383   3.009   2.977  16.018 -1.4164 -1.2749 -0.7137
 9307SOL    HW239384   3.154   2.979  15.976 -0.4891  1.8270  1.9578
 9308SOL     OW39385   4.715   2.793   8.612 -0.4395 -0.2718  0.1612
 9308SOL    HW139386   0.033   2.880   8.590 -0.5292 -0.2183  0.2324
 9308SOL    HW239387   4.631   2.784   8.568  0.2286  0.5592 -1.2590
 9309SOL     OW39388   3.012   4.687   9.050 -0.1129 -0.1901 -0.3846
 9309SOL    HW139389   2.937   4.686   9.111  1.1431  1.8791  1.2094
 9309SOL    HW239390   2.988   4.617   8.989 -0.8152 -1.8764  1.8127
 9310SOL     OW39391   2.438   1.313   6.297 -0.5002  0.0442 -0.2510
 9310SOL    HW139392   2.356   1.362   6.300 -0.3972  0.0891  1.3293
 9310SOL    HW239393   2.414   1.233   6.249 -0.4465 -0.5323  0.6922
 9311SOL     OW39394   4.270   3.310   3.184 -0.0620 -0.5688  0.6360
 9311SOL    HW139395   4.353   3.283   3.147  1.1117  1.4688  1.7725
 9311SOL    HW239396   4.238   3.360   3.109  1.6427  1.8307  1.5162
 9312SOL     OW39397   1.949   3.886   0.475 -0.7612  0.6135 -0.2078
 9312SOL    HW139398   1.871   3.932   0.507  1.7106  2.9866  2.3157
 9312SOL    HW239399   1.965   3.925   0.389  1.9437  2.9686  1.3634
 9313SOL     OW39400   0.471   2.794   7.139 -0.5037 -0.1863 -0.2995
 9313SOL    HW139401   0.427   2.719   7.179 -0.9902 -0.0929 -0.6597
 9313SOL    HW239402   0.401   2.859   7.143 -0.0210  0.3275 -0.3049
 9314SOL     OW39403   4.422   0.216  13.699  0.0853  0.1153 -0.1571
 9314SOL    HW139404   4.478   0.195  13.624  0.0043  1.6812 -0.6684
 9314SOL    HW239405   4.488   0.189  13.763  0.9023  0.5355 -0.8228
 9315SOL     OW39406   2.984   4.615   7.992 -0.0784 -0.0711 -0.0366
 9315SOL    HW139407   2.945   4.648   8.073 -0.8069  0.0926 -0.4590
 9315SOL    HW239408   3.004   4.525   8.018  0.6288  0.1462  0.1803
 9316SOL     OW39409   2.752   3.793   4.861 -0.6458 -0.0941 -0.2260
 9316SOL    HW139410   2.666   3.769   4.895 -0.2769 -0.2519  0.6014
 9316SOL    HW239411   2.751   3.877   4.907  0.4942  0.1401 -0.6465
 9317SOL     OW39412   0.113   2.431   6.566  0.7336 -0.2520 -0.5374
 9317SOL    HW139413   0.128   2.496   6.636  0.4523 -0.1372 -0.5828
 9317SOL    HW239414   0.072   2.487   6.500  1.0709 -1.3254 -1.6441
 9318SOL     OW39415   2.872   3.747  12.786 -0.1762 -0.3346  0.3079
 9318SOL    HW139416   2.808   3.816  12.767  0.9983  0.0439 -2.1990
 9318SOL    HW239417   2.914   3.777  12.866  0.3911 -1.8231  0.5649
 9319SOL     OW39418   4.714   2.892   9.258 -0.0442  0.0495 -0.4596
 9319SOL    HW139419   0.082   2.860   9.290 -0.3919 -2.2508 -1.8528
 9319SOL    HW239420   4.652   2.824   9.287  1.5190 -1.2180 -0.0639
 9320SOL     OW39421   2.037   2.489   6.391  0.2722  0.2795 -0.0051
 9320SOL    HW139422   1.979   2.494   6.315 -0.7970 -1.5581  0.6884
 9320SOL    HW239423   1.978   2.446   6.453  0.9713 -2.3390 -1.1832
 9321SOL     OW39424   0.069   1.300  17.444  0.0765 -0.2904  0.0405
 9321SOL    HW139425   0.008   1.369  17.418  0.0239 -0.3710 -0.0475
 9321SOL    HW239426   0.047   1.233  17.379 -1.6019  1.0533 -0.7765
 9322SOL     OW39427   4.653   0.013   2.922 -0.0684  0.2805  0.0356
 9322SOL    HW139428   4.568   0.047   2.950 -0.0256  0.2690  0.1770
 9322SOL    HW239429   4.710   0.022   2.998  0.7622  0.3665 -0.6074
 9323SOL     OW39430   4.590   2.717   9.406 -0.2620  0.0168  0.0155
 9323SOL    HW139431   4.514   2.660   9.419  0.2585 -1.0960 -1.8454
 9323SOL    HW239432   4.630   2.712   9.492  0.7659  0.4920 -0.4383
 9324SOL     OW39433   2.235   2.164   8.536 -0.4098  0.3578 -0.4389
 9324SOL    HW139434   2.277   2.225   8.596 -0.6399  1.4504 -1.3812
 9324SOL    HW239435   2.242   2.087   8.592 -0.7438 -1.1117 -2.3981
 9325SOL     OW39436   0.936   1.674   2.737  0.0745  0.4116 -0.6646
 9325SOL    HW139437   0.903   1.595   2.782  1.1771  0.8174  0.8635
 9325SOL    HW239438   0.857   1.708   2.694 -0.3029  0.3330 -0.0415
 9326SOL     OW39439   3.667   3.782   5.975  0.1956 -0.0076  0.2876
 9326SOL    HW139440   3.666   3.694   6.013  1.1853  0.1594  0.7027
 9326SOL    HW239441   3.640   3.847   6.040 -0.1647 -1.2682  1.4074
 9327SOL     OW39442   0.522   0.674   4.041  0.2614 -0.0531 -0.0440
 9327SOL    HW139443   0.559   0.659   4.128 -0.3929 -2.2267 -0.1323
 9327SOL    HW239444   0.544   0.589   4.004  1.7365  0.4157 -0.2464
 9328SOL     OW39445   2.173   3.972   8.671 -0.1524 -0.6016 -0.6088
 9328SOL    HW139446   2.266   3.972   8.690 -0.0135  0.8603 -1.3172
 9328SOL    HW239447   2.153   3.878   8.675  2.1029 -0.9138  3.1903
 9329SOL     OW39448   1.377   3.932   4.210  0.2599  0.1003  0.5392
 9329SOL    HW139449   1.321   4.010   4.222  4.4765  3.0268  1.2556
 9329SOL    HW239450   1.393   3.946   4.117 -2.3282  2.4666  0.4222
 9330SOL     OW39451   2.025   1.928  14.391 -0.3023 -0.4640 -0.0565
 9330SOL    HW139452   2.063   1.873  14.323  0.0248  0.8438 -0.9289
 9330SOL    HW239453   2.053   1.888  14.474  0.5309 -0.9085 -0.5554
 9331SOL     OW39454   2.273   4.230   0.896  0.3232  0.2274 -0.1697
 9331SOL    HW139455   2.244   4.318   0.918 -0.4581 -0.1948  0.5079
 9331SOL    HW239456   2.318   4.233   0.812  0.5950 -0.4500 -0.0500
 9332SOL     OW39457   2.302   0.794   7.215 -0.2233 -0.4186  0.5018
 9332SOL    HW139458   2.275   0.740   7.289 -1.3205 -0.3206  0.1703
 9332SOL    HW239459   2.357   0.857   7.262 -0.4204  0.2483 -0.1503
 9333SOL     OW39460   2.990   1.085   5.196  0.6091  0.0821 -0.5209
 9333SOL    HW139461   2.972   1.018   5.131  2.6481 -2.1386  1.2455
 9333SOL    HW239462   2.996   1.160   5.137 -0.4027 -0.0534 -0.8038
 9334SOL     OW39463   3.911   2.914   2.365  0.2450 -0.4625 -0.8112
 9334SOL    HW139464   3.955   2.996   2.347 -0.2344 -0.3596 -1.5012
 9334SOL    HW239465   3.984   2.868   2.407  0.0713 -0.9527 -1.0383
 9335SOL     OW39466   2.330   4.270  13.386  0.0223  0.0851 -0.0783
 9335SOL    HW139467   2.313   4.187  13.343  0.6040 -1.7375  3.1691
 9335SOL    HW239468   2.261   4.323  13.347 -2.9297 -3.6660  0.0625
 9336SOL     OW39469   1.927   3.974   0.061 -0.6322  0.1179  0.0205
 9336SOL    HW139470   1.999   3.961   0.123  0.9835 -1.1211 -2.1138
 9336SOL    HW239471   1.865   4.016   0.121 -0.9266  1.5858 -1.3111
 9337SOL     OW39472   2.590   1.441   7.186  0.5649 -0.8156 -0.0541
 9337SOL    HW139473   2.675   1.414   7.151  1.3128  0.1800  0.9950
 9337SOL    HW239474   2.578   1.532   7.158  2.0498 -0.9026 -0.9659
 9338SOL     OW39475   4.518   3.380   6.942 -0.0705  0.3085  0.0826
 9338SOL    HW139476   4.527   3.460   6.891  0.1113 -0.2380 -0.7334
 9338SOL    HW239477   4.424   3.382   6.963 -0.0143 -0.3032  0.3839
 9339SOL     OW39478   3.348   1.071   7.114  0.1197 -0.1755 -0.0653
 9339SOL    HW139479   3.438   1.041   7.097 -0.1794 -1.5739  0.7975
 9339SOL    HW239480   3.346   1.087   7.208 -2.9468  0.2875 -0.2239
 9340SOL     OW39481   4.157   0.516   2.728  0.2921 -0.1547 -0.4024
 9340SOL    HW139482   4.243   0.510   2.771 -0.6899 -1.1545  1.4044
 9340SOL    HW239483   4.174   0.555   2.642 -0.7354  2.7163  0.6950
 9341SOL     OW39484   0.575   0.431   8.656 -0.3118 -0.6351 -0.3831
 9341SOL    HW139485   0.496   0.377   8.661 -0.4721 -0.4742 -1.1553
 9341SOL    HW239486   0.550   0.514   8.615  0.1697 -0.1377  0.3257
 9342SOL     OW39487   2.042   3.695   3.615  0.1391 -0.2377  0.5946
 9342SOL    HW139488   1.999   3.705   3.700 -0.1059 -0.1279  0.4585
 9342SOL    HW239489   1.971   3.709   3.553 -0.4374  1.7687  1.6918
 9343SOL     OW39490   0.705   3.378   4.956 -0.1298  0.0350  0.2970
 9343SOL    HW139491   0.645   3.452   4.968 -1.1705 -1.0419  1.7323
 9343SOL    HW239492   0.721   3.395   4.863 -1.5090 -0.2175  0.0181
 9344SOL     OW39493   4.051   1.408   6.004  0.2846 -0.2478 -0.4984
 9344SOL    HW139494   3.964   1.370   6.016  0.2196 -1.0663 -3.5391
 9344SOL    HW239495   4.100   1.330   6.027 -0.3105 -0.0920  1.2403
 9345SOL     OW39496   4.467   1.256   8.831  0.0891 -1.3033  0.7338
 9345SOL    HW139497   4.489   1.209   8.750  1.2546 -1.0473  0.8975
 9345SOL    HW239498   4.554   1.268   8.869 -0.0967 -0.1526  0.7869
 9346SOL     OW39499   1.716   4.244   3.156  0.0302  0.0242  0.1321
 9346SOL    HW139500   1.687   4.250   3.065  1.6689  1.2649 -0.3088
 9346SOL    HW239501   1.812   4.244   3.151  0.0690  3.0283  0.8163
 9347SOL     OW39502   1.490   1.183  10.279 -0.2513 -0.0637  0.4192
 9347SOL    HW139503   1.531   1.108  10.236  0.1536 -1.1693  2.7254
 9347SOL    HW239504   1.437   1.227  10.212  0.3350  0.7293  0.4777
 9348SOL     OW39505   1.794   1.072   7.988 -0.4394 -0.0223 -0.2788
 9348SOL    HW139506   1.824   1.082   8.078 -0.2028 -0.1597 -0.3422
 9348SOL    HW239507   1.812   1.158   7.951  1.8704  0.0320  0.9536
 9349SOL     OW39508   0.568   3.230   3.372  1.1059  0.6795 -0.1366
 9349SOL    HW139509   0.523   3.165   3.319 -0.8672  1.4240  0.6029
 9349SOL    HW239510   0.599   3.178   3.446 -3.0764 -1.8835 -0.2066
 9350SOL     OW39511   0.405   2.805   5.955 -0.8729 -0.3091 -0.3872
 9350SOL    HW139512   0.400   2.860   6.034 -1.3118 -1.9180  0.7021
 9350SOL    HW239513   0.474   2.739   5.965 -0.1310  0.5410  0.1073
 9351SOL     OW39514   3.381   1.586   4.990 -0.3190  0.1965 -0.1725
 9351SOL    HW139515   3.346   1.564   5.076  2.0664 -0.3689  0.6685
 9351SOL    HW239516   3.448   1.519   4.982 -0.0195  0.3621  0.8976
 9352SOL     OW39517   1.474   3.230  15.120  0.2775  0.6824 -0.4753
 9352SOL    HW139518   1.418   3.214  15.196 -0.2182 -1.4696 -1.3033
 9352SOL    HW239519   1.411   3.248  15.050 -2.9221 -0.7856  2.0261
 9353SOL     OW39520   0.597   4.201  17.351  0.1749  0.0724  0.1446
 9353SOL    HW139521   0.612   4.110  17.378 -1.7655  0.5333  2.8468
 9353SOL    HW239522   0.687   4.233  17.352  0.0570  0.4000  0.0980
 9354SOL     OW39523   3.336   3.140   8.785  0.4629 -0.0290  0.0478
 9354SOL    HW139524   3.412   3.189   8.818  1.3239 -1.9915  0.9708
 9354SOL    HW239525   3.347   3.135   8.690 -1.0034  1.5020 -0.1965
 9355SOL     OW39526   4.358   2.880  13.050  0.3458  0.3034  0.1614
 9355SOL    HW139527   4.435   2.861  12.997  0.3385  1.7523 -0.3730
 9355SOL    HW239528   4.345   2.975  13.042 -2.8896 -0.1362 -0.0572
 9356SOL     OW39529   2.404   4.033   5.604 -0.0108 -0.0975 -0.2106
 9356SOL    HW139530   2.455   4.100   5.558 -1.0868  0.9220  0.0886
 9356SOL    HW239531   2.344   4.002   5.537  0.9977  1.2490 -1.7468
 9357SOL     OW39532   2.286   2.830   7.204  0.5766  0.2862 -0.0595
 9357SOL    HW139533   2.376   2.850   7.228  0.2831  1.0647  0.3701
 9357SOL    HW239534   2.225   2.891   7.245  2.3727  0.9783  1.5476
 9358SOL     OW39535   0.665   2.721  17.629  0.1121  0.2543 -0.4239
 9358SOL    HW139536   0.605   2.788  17.663  0.6466  0.2846  0.4581
 9358SOL    HW239537   0.743   2.731   0.014  0.0439  1.7230 -0.5965
 9359SOL     OW39538   3.488   4.139   5.732 -0.2618 -0.1150  0.4836
 9359SOL    HW139539   3.579   4.123   5.756 -0.4521 -2.1211 -0.0853
 9359SOL    HW239540   3.454   4.184   5.809 -1.4903 -1.0835  0.4984
 9360SOL     OW39541   1.412   2.564   5.647 -0.0032 -0.2801  0.4321
 9360SOL    HW139542   1.489   2.619   5.630  1.3934 -1.8381  1.7062
 9360SOL    HW239543   1.395   2.531   5.559  0.1414  3.4074 -0.9698
 9361SOL     OW39544   1.590   3.530  17.235  0.0204  0.3172  0.1399
 9361SOL    HW139545   1.517   3.591  17.249  0.9090  1.6644 -1.0456
 9361SOL    HW239546   1.646   3.579  17.175 -0.1208  2.0324  1.4215
 9362SOL     OW39547   1.420   1.549   6.965  0.1877  0.6607 -0.1041
 9362SOL    HW139548   1.454   1.462   6.985 -1.3513 -0.1725 -1.1239
 9362SOL    HW239549   1.331   1.527   6.937 -0.0357  1.6015 -0.1495
 9363SOL     OW39550   3.323   4.229   9.366  0.4352 -0.0336 -0.2211
 9363SOL    HW139551   3.250   4.262   9.314  0.9430  0.9195 -0.3319
 9363SOL    HW239552   3.356   4.170   9.298 -2.5794 -1.2680 -0.6174
 9364SOL     OW39553   2.931   4.078  13.222  0.1265 -0.2441 -0.2892
 9364SOL    HW139554   2.898   4.073  13.312  0.0181  0.7513 -0.2789
 9364SOL    HW239555   2.849   4.106  13.181  0.5841 -2.0847 -2.4492
 9365SOL     OW39556   0.555   3.130  11.354 -0.1085  0.8088  0.4189
 9365SOL    HW139557   0.620   3.155  11.420  1.8011 -1.9122 -0.4841
 9365SOL    HW239558   0.549   3.036  11.365 -1.7490  0.7649 -0.8992
 9366SOL     OW39559   2.020   4.161   9.517 -0.3483 -0.2912  0.2604
 9366SOL    HW139560   2.041   4.131   9.428 -0.0981  2.9223 -0.7656
 9366SOL    HW239561   2.098   4.212   9.538 -0.5850  0.5768 -0.9143
 9367SOL     OW39562   1.830   2.096   7.910  0.9483 -0.4671 -0.2826
 9367SOL    HW139563   1.904   2.125   7.858  1.4520 -3.0882 -0.9987
 9367SOL    HW239564   1.807   2.182   7.948  2.3493 -0.7120  1.1139
 9368SOL     OW39565   0.911   4.317   3.266  0.4998 -0.8911 -0.5232
 9368SOL    HW139566   0.890   4.365   3.186  0.9155 -0.5625 -0.4376
 9368SOL    HW239567   0.823   4.284   3.284  0.8763 -3.1081 -2.7237
 9369SOL     OW39568   3.052   2.200   6.606  0.5285  0.5823 -0.3487
 9369SOL    HW139569   3.028   2.260   6.535  1.3446 -0.9978 -1.9760
 9369SOL    HW239570   3.057   2.123   6.550  1.2169 -0.5209  1.2538
 9370SOL     OW39571   1.047   0.195   4.277  0.3376 -0.0124 -0.0415
 9370SOL    HW139572   1.023   0.151   4.196 -0.6590 -1.1776  0.8849
 9370SOL    HW239573   0.960   0.216   4.311  0.9601  2.2043  0.1778
 9371SOL     OW39574   2.246   1.587   7.795 -0.4001  0.6660  0.1555
 9371SOL    HW139575   2.240   1.540   7.711  1.4784 -1.3593  1.1642
 9371SOL    HW239576   2.312   1.532   7.835 -2.2561 -0.0769  2.1762
 9372SOL     OW39577   4.392   3.415   3.411 -0.3422  0.9421 -0.1058
 9372SOL    HW139578   4.378   3.365   3.330  0.1036 -0.6488  0.7969
 9372SOL    HW239579   4.314   3.392   3.461  0.4290  0.1783  0.7453
 9373SOL     OW39580   1.874   1.754   4.948 -0.1102  0.9261  0.3498
 9373SOL    HW139581   1.819   1.747   4.870 -0.7178  3.4410  0.5397
 9373SOL    HW239582   1.813   1.792   5.011 -1.0442  1.6371 -0.9955
 9374SOL     OW39583   1.424   2.331   1.784 -0.0265  0.4488  0.1639
 9374SOL    HW139584   1.388   2.322   1.872  1.4480 -1.4089  0.5773
 9374SOL    HW239585   1.491   2.263   1.775 -0.5778 -0.1969  0.9915
 9375SOL     OW39586   0.036   2.366   0.920 -0.6066  0.2843  0.4362
 9375SOL    HW139587   0.050   2.299   0.853  0.7112  1.0323 -0.0332
 9375SOL    HW239588   4.671   2.403   0.888 -1.0463 -0.6501  0.4654
 9376SOL     OW39589   0.252   2.080   7.663 -0.0124 -0.4533 -0.2251
 9376SOL    HW139590   0.279   2.008   7.606  1.4515  0.0027 -0.0981
 9376SOL    HW239591   0.334   2.127   7.678  0.6470 -1.9671  0.9325
 9377SOL     OW39592   1.020   0.565   8.349  0.3833 -0.0556  0.2148
 9377SOL    HW139593   1.103   0.566   8.302 -0.1215  0.3107 -0.6654
 9377SOL    HW239594   1.046   0.502   8.416 -0.8453 -0.9363 -0.1447
 9378SOL     OW39595   1.196   3.301   2.445 -0.2749 -0.1128 -0.1132
 9378SOL    HW139596   1.175   3.327   2.534  1.6908  0.2494  0.2493
 9378SOL    HW239597   1.136   3.226   2.444 -0.2190 -0.1290 -1.6728
 9379SOL     OW39598   0.865   2.658   5.565  0.6431  0.6387 -0.7829
 9379SOL    HW139599   0.849   2.704   5.483  0.3174  2.1758  0.1435
 9379SOL    HW239600   0.949   2.701   5.581 -0.6081  1.6798  3.1194
 9380SOL     OW39601   2.121   3.313   3.562  0.0651 -0.1966 -0.3622
 9380SOL    HW139602   2.074   3.394   3.541  3.0026  1.6770  0.2807
 9380SOL    HW239603   2.071   3.241   3.524  0.7578 -0.3258 -1.0125
 9381SOL     OW39604   0.094   2.176   5.956 -0.3937  0.3209 -0.1601
 9381SOL    HW139605   0.070   2.186   5.864 -0.8266  0.5227 -0.0232
 9381SOL    HW239606   0.182   2.212   5.969  0.1444 -0.6663 -1.0642
 9382SOL     OW39607   3.481   3.614   3.071 -0.0677  0.1222 -0.2464
 9382SOL    HW139608   3.397   3.579   3.040 -0.0283 -2.9716  3.1308
 9382SOL    HW239609   3.538   3.617   2.995 -0.0381  1.2822 -0.1657
 9383SOL     OW39610   2.851   2.344   7.508 -0.3567 -0.4116 -0.8839
 9383SOL    HW139611   2.798   2.328   7.587 -1.5578  1.0873 -1.3836
 9383SOL    HW239612   2.774   2.352   7.452  0.5634 -2.2146 -2.3810
 9384SOL     OW39613   2.394   3.617   3.854  0.2919 -0.4359  0.2413
 9384SOL    HW139614   2.482   3.629   3.892  1.2525 -3.4403 -1.0141
 9384SOL    HW239615   2.414   3.638   3.763 -0.8693  1.0519  0.3338
 9385SOL     OW39616   1.193   2.668  11.898 -0.6520 -0.0398  0.3529
 9385SOL    HW139617   1.122   2.732  11.904  0.5365  1.3666 -0.7801
 9385SOL    HW239618   1.247   2.695  11.972 -1.9273  0.7841  0.9964
 9386SOL     OW39619   0.373   3.565   5.929  0.1704 -0.1383 -0.6394
 9386SOL    HW139620   0.332   3.485   5.897  0.3946  0.1978 -1.7780
 9386SOL    HW239621   0.445   3.571   5.867 -0.2797  1.5236 -1.0024
 9387SOL     OW39622   0.336   3.658  14.977 -0.0109  0.2069 -0.1629
 9387SOL    HW139623   0.392   3.668  14.900 -0.1235 -2.0127 -0.5233
 9387SOL    HW239624   0.333   3.751  15.000 -1.3553  0.0155  0.4221
 9388SOL     OW39625   3.394   1.074  12.703  0.1394  0.3824 -0.2303
 9388SOL    HW139626   3.434   1.030  12.778 -1.6331  0.4061  0.7165
 9388SOL    HW239627   3.355   0.993  12.670  1.2549  0.0815 -0.8138
 9389SOL     OW39628   2.612   4.294  15.373 -0.7454 -0.0172 -0.1530
 9389SOL    HW139629   2.536   4.315  15.320 -0.4263 -2.3344 -1.5625
 9389SOL    HW239630   2.637   4.384  15.393 -0.0893  0.1071 -1.5104
 9390SOL     OW39631   0.618   2.069   6.456 -0.0052 -0.0629  0.1140
 9390SOL    HW139632   0.606   2.105   6.544 -0.7131 -1.6738  0.6759
 9390SOL    HW239633   0.617   1.974   6.464  0.1739 -0.1964 -1.3764
 9391SOL     OW39634   2.878   1.059   4.817 -0.1110  0.1849 -0.2491
 9391SOL    HW139635   2.903   1.129   4.876 -0.2646 -0.1067  0.1588
 9391SOL    HW239636   2.964   1.024   4.796 -0.6852 -1.9710  1.0155
 9392SOL     OW39637   2.735   2.752   2.195  0.0828 -0.4009  0.3354
 9392SOL    HW139638   2.654   2.705   2.175  0.6037 -0.9445 -0.4857
 9392SOL    HW239639   2.767   2.698   2.267 -1.2915  0.2752  1.4541
 9393SOL     OW39640   1.325   2.184  12.013 -0.2098  0.3088  0.1669
 9393SOL    HW139641   1.349   2.215  11.926  0.0567  1.4061  0.6290
 9393SOL    HW239642   1.243   2.141  11.989  0.3278 -1.9517  2.3992
 9394SOL     OW39643   2.713   2.852  15.836  0.4941  0.4493  0.5104
 9394SOL    HW139644   2.735   2.945  15.824  0.4142  0.6058  1.6129
 9394SOL    HW239645   2.651   2.872  15.906 -0.1288 -0.9058  0.3488
 9395SOL     OW39646   3.808   1.488   7.395 -0.3905 -0.2912  0.0920
 9395SOL    HW139647   3.869   1.428   7.438  0.1643  0.0234 -0.2559
 9395SOL    HW239648   3.865   1.552   7.353 -1.2125  1.6630  1.9719
 9396SOL     OW39649   0.144   1.701   2.001 -0.0583 -0.2413 -0.7062
 9396SOL    HW139650   0.213   1.701   2.067  1.3098 -1.8927 -2.1029
 9396SOL    HW239651   0.186   1.702   1.914  1.7211  0.0047  0.1562
 9397SOL     OW39652   2.391   2.368  14.899 -0.4613 -0.0540  0.0760
 9397SOL    HW139653   2.460   2.434  14.899  1.5062 -2.1298 -1.0468
 9397SOL    HW239654   2.405   2.322  14.817 -0.8095  1.2959 -0.7417
 9398SOL     OW39655   2.166   4.566   6.278 -0.2144  0.3161 -0.1062
 9398SOL    HW139656   2.075   4.569   6.248  0.0499 -1.0278 -1.0623
 9398SOL    HW239657   2.195   4.482   6.241 -0.6385  0.0164  0.2390
 9399SOL     OW39658   2.504   0.763  17.432  0.0964 -0.8050  0.6600
 9399SOL    HW139659   2.513   0.699  17.362 -1.2350 -1.5475  1.1639
 9399SOL    HW239660   2.592   0.800  17.434 -0.0542 -0.5472  2.9687
 9400SOL     OW39661   3.172   1.856   3.055 -0.5262  0.5777  0.3861
 9400SOL    HW139662   3.200   1.824   2.969  1.5786 -2.1782  2.0933
 9400SOL    HW239663   3.248   1.911   3.071 -0.1660 -0.4048  2.0960
 9401SOL     OW39664   2.546   2.313   7.081 -0.3377 -0.4230  0.3219
 9401SOL    HW139665   2.634   2.348   7.064 -0.5414 -0.5532 -0.9677
 9401SOL    HW239666   2.554   2.222   7.054  0.1940 -0.1342 -0.5127
 9402SOL     OW39667   2.287   3.064   0.829  0.1134  0.0754  0.5377
 9402SOL    HW139668   2.274   3.121   0.905 -1.0255 -1.7784  1.7269
 9402SOL    HW239669   2.198   3.042   0.804 -0.0848  3.5325 -1.7575
 9403SOL     OW39670   3.627   1.747   0.676 -0.0061  0.0838  0.3454
 9403SOL    HW139671   3.667   1.800   0.746 -1.1636  1.3250  0.0579
 9403SOL    HW239672   3.633   1.807   0.602 -1.0509 -1.5233 -1.0186
 9404SOL     OW39673   0.354   2.231  17.610  0.4420 -0.4658  0.3406
 9404SOL    HW139674   0.318   2.283   0.012  0.3034 -0.0710 -0.0228
 9404SOL    HW239675   0.422   2.188  17.662  1.5700  1.4032  0.4017
 9405SOL     OW39676   2.295   1.614  13.288  0.1142 -0.3035  0.4605
 9405SOL    HW139677   2.342   1.685  13.244  1.5398 -0.6002  1.5308
 9405SOL    HW239678   2.328   1.619  13.378 -1.6137 -1.2679  1.1525
 9406SOL     OW39679   1.153   1.323   3.738  0.3595  0.1902 -0.3797
 9406SOL    HW139680   1.174   1.415   3.751 -1.3436  0.3578  1.2858
 9406SOL    HW239681   1.164   1.308   3.644  0.2091  0.4922 -0.4453
 9407SOL     OW39682   4.584   3.404   7.221 -0.2857 -0.1632 -0.5517
 9407SOL    HW139683   4.567   3.400   7.127  1.0818  2.0085 -0.8896
 9407SOL    HW239684   4.679   3.392   7.230  0.0130  2.5904 -0.0704
 9408SOL     OW39685   3.631   1.408   9.921  0.5341 -0.1249 -0.2929
 9408SOL    HW139686   3.685   1.487   9.918  0.5775 -0.2898 -3.3406
 9408SOL    HW239687   3.697   1.349   9.956 -1.7848 -2.4027  0.2442
 9409SOL     OW39688   4.610   1.782   8.704  0.3558 -0.1091 -0.2262
 9409SOL    HW139689   4.563   1.709   8.744 -0.1701  0.6549  0.5553
 9409SOL    HW239690   4.677   1.796   8.770  1.1480 -0.3195 -0.9816
 9410SOL     OW39691   1.529   3.177   6.331  0.4096 -0.2787  0.6882
 9410SOL    HW139692   1.580   3.143   6.405 -0.2759 -1.7157  0.4931
 9410SOL    HW239693   1.477   3.243   6.377 -1.0341 -1.8253  1.2758
 9411SOL     OW39694   4.263   4.280  17.122  0.0059  0.0735  0.1172
 9411SOL    HW139695   4.341   4.225  17.123 -0.4888 -0.6321 -0.0630
 9411SOL    HW239696   4.258   4.312  17.212  1.0101 -1.5553  0.7413
 9412SOL     OW39697   4.703   2.264   8.815  0.4068 -0.1716  0.1236
 9412SOL    HW139698   4.644   2.190   8.831 -0.6346  0.5996 -0.1609
 9412SOL    HW239699   4.647   2.337   8.789  0.1377 -1.0590 -1.7671
 9413SOL     OW39700   2.108   1.196   8.583 -0.0638  0.2015  0.1054
 9413SOL    HW139701   2.160   1.162   8.510 -0.2891 -0.2143  0.1366
 9413SOL    HW239702   2.041   1.128   8.578 -0.3394  0.4937 -0.1718
 9414SOL     OW39703   1.071   3.074   2.488  0.5124  0.2635  0.4136
 9414SOL    HW139704   1.100   2.982   2.484 -0.1989  0.1244 -1.7177
 9414SOL    HW239705   1.007   3.073   2.559 -0.0015  3.3487 -0.0277
 9415SOL     OW39706   2.547   3.500   4.331  0.1958 -0.6283  0.4540
 9415SOL    HW139707   2.460   3.509   4.371  0.5876  0.7601  0.9577
 9415SOL    HW239708   2.587   3.585   4.348 -1.9110  0.7436 -1.3315
 9416SOL     OW39709   0.983   0.258   6.389 -0.0931  0.2813 -0.6013
 9416SOL    HW139710   0.979   0.201   6.466  0.8793  0.8380 -0.1453
 9416SOL    HW239711   0.889   0.246   6.374 -0.2184 -0.8237  1.0108
 9417SOL     OW39712   4.368   4.344  10.102  0.4573  0.6029  0.2378
 9417SOL    HW139713   4.387   4.398  10.179  1.3950 -0.1747  0.5576
 9417SOL    HW239714   4.412   4.401  10.040  1.1746  0.5669  0.7077
 9418SOL     OW39715   3.869   3.068  12.560  0.0727  0.6509  0.1250
 9418SOL    HW139716   3.803   3.003  12.538  2.2261 -0.3113 -3.4071
 9418SOL    HW239717   3.840   3.089  12.649  0.0918 -2.3756  0.8554
 9419SOL     OW39718   4.274   3.582   8.530 -0.0613 -0.3351 -0.8665
 9419SOL    HW139719   4.286   3.488   8.541 -0.1883 -0.0885  1.2741
 9419SOL    HW239720   4.360   3.615   8.504  0.0717  0.6024  0.7559
 9420SOL     OW39721   0.865   1.700   3.199  0.3285  0.1131  0.5317
 9420SOL    HW139722   0.884   1.606   3.196 -0.0996  0.0394  0.0448
 9420SOL    HW239723   0.772   1.713   3.216  0.4715  0.1332  1.2665
 9421SOL     OW39724   1.708   3.099  16.927  0.0078 -0.4381  0.5949
 9421SOL    HW139725   1.693   3.113  16.833  1.1180  0.9345  0.6249
 9421SOL    HW239726   1.726   3.188  16.958  0.9942 -0.9864  1.5884
 9422SOL     OW39727   3.321   2.924  10.396 -0.5216  0.0543  0.1385
 9422SOL    HW139728   3.361   2.840  10.375 -1.7786 -0.0947 -1.6148
 9422SOL    HW239729   3.231   2.900  10.377 -0.3336 -2.1645  2.0014
 9423SOL     OW39730   3.466   3.046   4.495 -0.2725 -0.0645 -0.0324
 9423SOL    HW139731   3.402   2.976   4.487  0.1160 -0.6013  1.6873
 9423SOL    HW239732   3.423   3.087   4.570  0.1227 -0.6852  0.5277
 9424SOL     OW39733   4.002   0.401   0.968  0.0199 -0.3421 -0.3056
 9424SOL    HW139734   3.991   0.442   1.054  0.9613  1.8479 -1.2120
 9424SOL    HW239735   3.977   0.475   0.912  0.1416  0.8706  1.2341
 9425SOL     OW39736   4.423   2.374   5.041  0.0127 -0.4341  0.1199
 9425SOL    HW139737   4.484   2.431   5.088  0.1696 -0.2786 -0.2721
 9425SOL    HW239738   4.454   2.289   5.072  1.2350 -0.0627 -0.0908
 9426SOL     OW39739   4.142   4.523  10.165  0.1794  0.2150  0.5725
 9426SOL    HW139740   4.181   4.562  10.087 -1.2632 -0.2874 -0.3982
 9426SOL    HW239741   4.088   4.452  10.130 -0.3057  0.4604  0.8072
 9427SOL     OW39742   3.454   3.049   2.851  0.2954 -0.3027 -0.2064
 9427SOL    HW139743   3.435   2.961   2.820 -0.0802 -0.3468  0.1549
 9427SOL    HW239744   3.457   3.092   2.766 -2.0201 -1.7855 -1.0205
 9428SOL     OW39745   0.321   1.143   2.296 -0.2783 -0.4850  0.4005
 9428SOL    HW139746   0.308   1.235   2.273 -1.0446  0.1656  3.4064
 9428SOL    HW239747   0.376   1.116   2.222  0.1718 -2.9815  1.6796
 9429SOL     OW39748   3.355   2.543   8.446  0.1461 -0.1879 -0.3405
 9429SOL    HW139749   3.443   2.550   8.484 -0.1144  1.7625 -0.0788
 9429SOL    HW239750   3.315   2.502   8.523  2.4841  1.6326  1.8743
 9430SOL     OW39751   4.569   2.761  16.196 -0.3235 -0.1214 -0.6336
 9430SOL    HW139752   4.544   2.771  16.288  0.8572  2.1277 -0.5784
 9430SOL    HW239753   4.589   2.851  16.170 -0.6430 -0.5488 -2.3583
 9431SOL     OW39754   2.556   0.019   1.940  0.3146  0.4576 -0.4410
 9431SOL    HW139755   2.571   4.653   1.988  0.1608  1.2932  1.0570
 9431SOL    HW239756   2.642   0.049   1.910 -0.4097  1.5602 -1.3946
 9432SOL     OW39757   3.418   2.396   9.056 -0.5177 -0.0305 -0.3499
 9432SOL    HW139758   3.479   2.337   9.012 -0.3656  1.3761 -2.0271
 9432SOL    HW239759   3.333   2.364   9.026 -0.4077 -0.8300  0.1846
 9433SOL     OW39760   4.676   4.174  17.424  0.1786 -0.2192 -0.0096
 9433SOL    HW139761   4.673   4.102  17.488  0.0836  0.8853  1.2311
 9433SOL    HW239762   4.596   4.216  17.456  0.2884  1.9106 -2.5294
 9434SOL     OW39763   1.379   4.322  17.172 -0.4443 -0.0730  0.1785
 9434SOL    HW139764   1.383   4.316  17.077 -1.0332  1.1276  0.0721
 9434SOL    HW239765   1.445   4.388  17.196  0.5591 -1.3179  0.8205
 9435SOL     OW39766   4.714   1.262   1.571 -0.0823  0.1788 -0.2321
 9435SOL    HW139767   0.018   1.183   1.621  0.1065  1.4582  1.7065
 9435SOL    HW239768   0.028   1.235   1.484  1.9058 -0.2193  0.5819
 9436SOL     OW39769   0.063   2.634   0.540  0.4043 -0.7104  0.0880
 9436SOL    HW139770   0.101   2.547   0.525 -0.7533 -1.2689  0.3500
 9436SOL    HW239771   4.687   2.610   0.533 -0.1474  1.1704  1.0323
 9437SOL     OW39772   0.823   3.076   5.203  0.4275  0.3092 -0.7680
 9437SOL    HW139773   0.826   3.037   5.291  0.0740 -0.7827 -1.2450
 9437SOL    HW239774   0.895   3.138   5.200  0.9658 -0.2100  0.9991
 9438SOL     OW39775   0.649   4.475  15.497 -0.2430 -0.4609  0.0455
 9438SOL    HW139776   0.553   4.474  15.502 -0.2695  2.0560  0.1724
 9438SOL    HW239777   0.662   4.460  15.404  0.9778  1.5636 -0.1126
 9439SOL     OW39778   0.563   2.220   6.214 -0.6065  1.1269  0.6199
 9439SOL    HW139779   0.592   2.213   6.305 -1.9108 -0.1813  0.9410
 9439SOL    HW239780   0.629   2.165   6.170 -4.2105 -1.6275 -1.3352
 9440SOL     OW39781   1.091   1.662   0.716  0.9689 -0.2258  0.0403
 9440SOL    HW139782   1.066   1.748   0.680  0.9443  0.0914  0.8307
 9440SOL    HW239783   1.185   1.658   0.698  0.9027 -0.4127 -0.2791
 9441SOL     OW39784   2.252   3.092   7.321  0.2062  0.0316 -0.2410
 9441SOL    HW139785   2.189   3.155   7.287  1.3605  1.2620 -0.0775
 9441SOL    HW239786   2.263   3.118   7.413 -0.6281 -1.6241  0.3393
 9442SOL     OW39787   2.198   1.157   3.578 -0.4843 -0.4202  0.6548
 9442SOL    HW139788   2.116   1.182   3.620 -1.5066 -1.4281 -0.7459
 9442SOL    HW239789   2.185   1.062   3.578  0.8696 -0.5985  0.3923
 9443SOL     OW39790   2.464   4.636   6.776  0.3334  0.7515 -0.5318
 9443SOL    HW139791   2.489   4.560   6.830 -0.7239  0.7143 -0.0915
 9443SOL    HW239792   2.464   4.587   6.694 -2.7753  0.2662 -0.2413
 9444SOL     OW39793   0.222   0.133   9.283  0.2896 -0.0902 -0.1563
 9444SOL    HW139794   0.212   0.061   9.344  0.0238  0.8655  0.9290
 9444SOL    HW239795   0.298   0.107   9.230 -0.0236 -2.4985  0.5921
 9445SOL     OW39796   3.692   0.501   0.267  0.0105 -0.1176  0.5890
 9445SOL    HW139797   3.753   0.426   0.267 -1.6461 -1.4554 -0.6832
 9445SOL    HW239798   3.683   0.514   0.361  0.5754 -0.0451  0.6353
 9446SOL     OW39799   0.691   4.259   6.539  0.2133  0.6022  0.4636
 9446SOL    HW139800   0.784   4.266   6.515 -0.7122  1.6216 -2.8833
 9446SOL    HW239801   0.655   4.270   6.451 -2.4095  3.2708  1.8600
 9447SOL     OW39802   3.117   4.140  17.078 -0.4105  0.2790  0.2552
 9447SOL    HW139803   3.085   4.185  17.156  1.1974 -0.4482  1.3301
 9447SOL    HW239804   3.199   4.188  17.065 -1.2400  1.6986  0.2585
 9448SOL     OW39805   2.299   3.786   6.648 -0.3854 -0.5000 -0.6101
 9448SOL    HW139806   2.333   3.700   6.674  2.7628  0.3032 -2.0118
 9448SOL    HW239807   2.255   3.812   6.729 -2.0755 -2.4424 -0.8930
 9449SOL     OW39808   2.241   4.626  10.337  0.3296 -0.2334 -0.2483
 9449SOL    HW139809   2.252   4.530  10.337 -2.0311 -0.4980 -0.5714
 9449SOL    HW239810   2.318   4.649  10.284  0.7567  0.5632  0.7320
 9450SOL     OW39811   1.313   4.074   0.652 -0.6044  0.3150  0.0029
 9450SOL    HW139812   1.345   4.092   0.741 -1.9673  1.5773  0.2333
 9450SOL    HW239813   1.223   4.107   0.654 -1.4911 -2.1987  1.1958
 9451SOL     OW39814   4.167   2.447   9.653 -0.0424  0.0585  0.0408
 9451SOL    HW139815   4.100   2.514   9.644 -0.4050 -0.2821  0.2213
 9451SOL    HW239816   4.247   2.500   9.642 -0.8363  1.2585  0.0792
 9452SOL     OW39817   0.387   3.338   8.459 -0.1336  0.4918 -0.0670
 9452SOL    HW139818   0.417   3.259   8.505  0.4177  2.3629  2.7738
 9452SOL    HW239819   0.378   3.303   8.370  1.8508  1.2481 -0.5708
 9453SOL     OW39820   0.575   0.289  15.294  0.1035  0.2755  0.8567
 9453SOL    HW139821   0.535   0.262  15.376 -2.8861  1.5679 -0.1851
 9453SOL    HW239822   0.556   0.383  15.298 -0.3905  0.2585 -0.8399
 9454SOL     OW39823   4.476   1.466  10.569  0.2554 -0.5534 -0.1003
 9454SOL    HW139824   4.423   1.517  10.629 -0.4425 -1.6110  0.1781
 9454SOL    HW239825   4.420   1.440  10.495 -0.7485 -0.9921  0.8239
 9455SOL     OW39826   3.107   1.225   4.112  0.2508 -0.5299 -0.1287
 9455SOL    HW139827   3.109   1.201   4.205  0.3061 -3.0386 -0.7864
 9455SOL    HW239828   3.176   1.168   4.078  0.8582  0.9389 -1.3317
 9456SOL     OW39829   2.617   3.351  12.717  0.0605  0.1574 -0.1605
 9456SOL    HW139830   2.569   3.293  12.776 -0.7590 -1.0234 -1.9751
 9456SOL    HW239831   2.656   3.286  12.658  2.2871  0.9391  0.4671
 9457SOL     OW39832   1.612   3.537   7.019  0.7139 -0.1143 -0.2749
 9457SOL    HW139833   1.605   3.444   7.042  4.3684  0.1545  1.9111
 9457SOL    HW239834   1.684   3.562   7.077  1.4622 -2.7368 -0.0692
 9458SOL     OW39835   2.503   0.971   3.730  0.4158  0.6011 -0.1867
 9458SOL    HW139836   2.433   0.906   3.738  0.7901  0.2981  0.6257
 9458SOL    HW239837   2.577   0.911   3.733 -0.6335 -0.6972 -0.6984
 9459SOL     OW39838   2.570   1.194   8.919  0.0871 -0.2468 -0.2641
 9459SOL    HW139839   2.497   1.223   8.864  1.4407  0.0896 -1.8557
 9459SOL    HW239840   2.588   1.111   8.875  0.1010  0.5930 -1.8343
 9460SOL     OW39841   4.353   4.697   2.251 -0.0313 -0.2456 -0.3025
 9460SOL    HW139842   4.416   4.679   2.321 -0.7476 -0.7934  0.2040
 9460SOL    HW239843   4.401   4.659   2.178  0.2839  1.5086 -1.0086
 9461SOL     OW39844   0.354   3.644   7.064 -0.1991  0.1645  0.0422
 9461SOL    HW139845   0.432   3.593   7.086 -2.6478 -3.1826  0.9981
 9461SOL    HW239846   0.387   3.731   7.086 -0.9315  0.4415  0.0269
 9462SOL     OW39847   0.859   2.088   5.104  0.4286 -0.1992 -0.0948
 9462SOL    HW139848   0.780   2.062   5.056  0.1598  0.4225  0.0096
 9462SOL    HW239849   0.877   1.997   5.128 -0.5042 -0.2450  0.4103
 9463SOL     OW39850   3.408   3.153  15.148 -0.0148  0.3976 -0.5162
 9463SOL    HW139851   3.320   3.123  15.171 -0.9019  1.9752 -1.8614
 9463SOL    HW239852   3.440   3.080  15.095 -0.5606 -0.3959  0.2549
 9464SOL     OW39853   2.923   1.989  14.261 -0.7118 -0.1821  0.0107
 9464SOL    HW139854   2.828   1.983  14.253 -0.7144 -1.8013  1.0584
 9464SOL    HW239855   2.925   2.041  14.341 -1.1882  1.5515 -1.1114
 9465SOL     OW39856   1.581   2.751   0.124  0.6230  0.3240  0.7062
 9465SOL    HW139857   1.581   2.838   0.083  0.5122 -1.0140 -2.1446
 9465SOL    HW239858   1.655   2.750   0.184  0.6114  1.0684  0.7276
 9466SOL     OW39859   2.826   4.396  12.451 -0.1119  0.1779 -0.2239
 9466SOL    HW139860   2.770   4.411  12.375  0.5130 -0.2775 -0.7778
 9466SOL    HW239861   2.789   4.319  12.493  2.5918 -1.5809 -1.0674
 9467SOL     OW39862   1.025   2.658   3.036 -0.0627  0.0448  0.3696
 9467SOL    HW139863   0.996   2.665   3.127 -1.8078  0.0220 -0.1809
 9467SOL    HW239864   1.091   2.588   3.031 -0.5933 -0.4416  0.1609
 9468SOL     OW39865   0.953   2.323   6.269  0.4391 -0.1811 -0.0206
 9468SOL    HW139866   1.015   2.271   6.319  1.7853 -0.1223 -1.6300
 9468SOL    HW239867   0.942   2.269   6.191  2.7325  1.7192 -1.6541
 9469SOL     OW39868   2.009   1.493   7.408 -0.1643 -0.1398 -0.0694
 9469SOL    HW139869   1.927   1.504   7.457  0.6652 -0.8083  1.4778
 9469SOL    HW239870   2.070   1.471   7.479 -0.2216 -0.2616 -0.0596
 9470SOL     OW39871   3.374   4.244  13.496  0.1005  0.0422 -0.5099
 9470SOL    HW139872   3.438   4.242  13.567 -0.2346 -2.1580 -0.2850
 9470SOL    HW239873   3.434   4.223  13.424 -0.5589 -1.0347 -0.7520
 9471SOL     OW39874   2.715   1.982   6.518 -0.0145  0.6987  0.0998
 9471SOL    HW139875   2.715   1.973   6.613  0.1501  1.7317  0.1964
 9471SOL    HW239876   2.768   1.913   6.478  0.4065  0.3143  1.3301
 9472SOL     OW39877   2.359   4.662  17.244 -0.6904  0.1590  0.1543
 9472SOL    HW139878   2.340   4.610  17.166  0.6797 -0.7317  0.4067
 9472SOL    HW239879   2.279   4.645  17.295 -0.2552 -0.0408  0.7682
 9473SOL     OW39880   3.065   1.215   3.661 -0.8453  0.0586  0.4264
 9473SOL    HW139881   3.079   1.167   3.579  1.0121  0.3763  0.5432
 9473SOL    HW239882   3.066   1.308   3.638 -0.2654 -0.3342 -1.1583
 9474SOL     OW39883   1.955   4.133   7.709 -0.1192 -0.2362 -0.0917
 9474SOL    HW139884   2.024   4.078   7.747  0.1620  0.5372  0.5140
 9474SOL    HW239885   1.873   4.106   7.751 -0.4120 -0.9696 -1.1355
 9475SOL     OW39886   1.715   1.957  14.293 -0.8107  0.2219  0.2891
 9475SOL    HW139887   1.635   1.987  14.251 -0.4081  0.1615 -0.5321
 9475SOL    HW239888   1.767   1.938  14.214 -0.3007 -2.5087  1.2661
 9476SOL     OW39889   4.379   3.030   7.007 -0.2036 -0.6297 -0.2609
 9476SOL    HW139890   4.438   3.022   7.082  1.1697  0.2149 -1.2659
 9476SOL    HW239891   4.346   3.118   7.022  2.2434  0.2988 -0.2556
 9477SOL     OW39892   0.415   1.675   4.356  0.0779  0.6309 -0.1457
 9477SOL    HW139893   0.509   1.657   4.361  0.0482  1.1470  2.5727
 9477SOL    HW239894   0.419   1.756   4.405 -0.0724  1.3847 -1.3854
 9478SOL     OW39895   0.011   0.990   8.842  0.5048 -0.0333 -0.4676
 9478SOL    HW139896   4.673   0.947   8.908  0.1031  3.1571  1.3132
 9478SOL    HW239897   0.099   0.970   8.874 -0.0638 -0.7269  0.6544
 9479SOL     OW39898   1.789   3.797   9.416 -0.5077 -0.7559 -0.2966
 9479SOL    HW139899   1.807   3.878   9.369  0.6562 -0.2099  1.1059
 9479SOL    HW239900   1.765   3.741   9.342  0.6872 -1.4359 -0.1719
 9480SOL     OW39901   3.923   1.461   3.312 -0.4774 -0.1810 -0.2249
 9480SOL    HW139902   3.892   1.550   3.324 -2.5165 -0.7478 -1.1615
 9480SOL    HW239903   3.890   1.418   3.392 -0.5354  0.1825 -0.0530
 9481SOL     OW39904   1.813   1.140   4.176  0.6679  0.0477  0.0081
 9481SOL    HW139905   1.886   1.201   4.187 -0.5329  1.3587  0.7010
 9481SOL    HW239906   1.824   1.095   4.259  1.0447 -2.7318 -1.5248
 9482SOL     OW39907   1.613   3.279   7.093 -0.5289 -0.3918  0.2432
 9482SOL    HW139908   1.564   3.198   7.081  1.0111 -1.2323 -0.4755
 9482SOL    HW239909   1.602   3.293   7.187 -2.8574  0.6984 -0.1881
 9483SOL     OW39910   2.555   4.242   4.993 -0.6348 -0.2254  0.1574
 9483SOL    HW139911   2.499   4.269   4.920  2.2484  2.0802 -1.2118
 9483SOL    HW239912   2.491   4.204   5.053  0.7450  1.1871  2.5001
 9484SOL     OW39913   1.876   4.700  14.572  0.5208  0.2210 -0.1532
 9484SOL    HW139914   1.800   4.699  14.630  0.2134  0.6714 -0.5494
 9484SOL    HW239915   1.893   4.608  14.553  0.2956  0.3820 -1.1606
 9485SOL     OW39916   2.666   1.189   8.165  0.0663  0.3038 -0.2779
 9485SOL    HW139917   2.643   1.103   8.202  1.7020  0.8358  1.9647
 9485SOL    HW239918   2.584   1.237   8.179  0.3557  0.6569  0.1969
 9486SOL     OW39919   0.079   0.136   1.266  0.5788  0.2106  0.0917
 9486SOL    HW139920   0.017   0.084   1.216  2.1444  1.7406 -3.4608
 9486SOL    HW239921   0.143   0.065   1.270  0.8610  0.3979 -1.0844
 9487SOL     OW39922   2.295   1.678   3.184  0.6379  0.0466  0.0527
 9487SOL    HW139923   2.270   1.586   3.193 -0.2977  0.3389  0.3867
 9487SOL    HW239924   2.338   1.671   3.098  1.1769 -0.0803  0.3318
 9488SOL     OW39925   2.696   3.435   8.693 -0.1284 -0.2778 -0.4589
 9488SOL    HW139926   2.717   3.347   8.660  0.4442  0.2971 -1.6262
 9488SOL    HW239927   2.783   3.473   8.705 -0.3922  0.8550 -2.2229
 9489SOL     OW39928   2.409   0.622  16.866  0.2904 -0.8810  0.5711
 9489SOL    HW139929   2.400   0.614  16.960 -1.3865 -0.4867  0.4368
 9489SOL    HW239930   2.374   0.539  16.831  1.8656 -1.0441 -0.6536
 9490SOL     OW39931   4.458   1.884   5.368 -0.2117 -0.2083 -0.0625
 9490SOL    HW139932   4.503   1.813   5.413  0.3544  0.5371  0.5344
 9490SOL    HW239933   4.495   1.884   5.279  0.4483  0.0907  0.2097
 9491SOL     OW39934   2.450   3.665   1.679 -0.6452  0.2437  0.6437
 9491SOL    HW139935   2.428   3.726   1.749  3.5798  0.7449  1.5265
 9491SOL    HW239936   2.524   3.708   1.637 -1.4755  2.0422  1.0231
 9492SOL     OW39937   4.643   3.496   8.540  0.4471 -0.1573 -0.1553
 9492SOL    HW139938   0.007   3.467   8.583  0.4576  1.0037  0.5945
 9492SOL    HW239939   4.579   3.496   8.611 -0.7798  0.6280 -1.2587
 9493SOL     OW39940   2.247   3.519   5.881  0.0786  0.3989 -0.0398
 9493SOL    HW139941   2.229   3.485   5.793 -0.4155 -1.7289  0.8708
 9493SOL    HW239942   2.275   3.436   5.920  3.1081  0.0576 -2.8578
 9494SOL     OW39943   1.201   4.355   1.738 -0.2822  0.2225 -0.4272
 9494SOL    HW139944   1.242   4.442   1.736  0.5498 -0.1961 -1.3421
 9494SOL    HW239945   1.137   4.366   1.669  0.5584  2.3692 -0.8668
 9495SOL     OW39946   4.671   1.116   4.579 -0.5419 -0.2037  0.0619
 9495SOL    HW139947   4.713   1.202   4.578  0.9414 -0.9120  0.4833
 9495SOL    HW239948   4.651   1.104   4.487 -1.7448 -2.1123  0.5782
 9496SOL     OW39949   3.038   2.755   5.597  0.3198 -0.3642 -0.2682
 9496SOL    HW139950   2.998   2.766   5.511  0.4531  1.3670 -0.0940
 9496SOL    HW239951   3.122   2.708   5.594 -0.0822 -1.1829  1.0909
 9497SOL     OW39952   3.843   2.411   4.696  0.6550 -0.5572 -0.2304
 9497SOL    HW139953   3.750   2.436   4.696  0.8482  0.1636  1.6973
 9497SOL    HW239954   3.878   2.476   4.636  0.5514 -0.4840 -0.2115
 9498SOL     OW39955   2.420   4.683  10.110  0.3008 -0.3203  0.2698
 9498SOL    HW139956   2.346   4.716  10.059  0.7085 -0.2108 -0.2477
 9498SOL    HW239957   2.407   4.588  10.104 -1.8083  0.0673 -1.3065
 9499SOL     OW39958   3.151   1.890  11.625 -0.2858  0.3653 -0.3461
 9499SOL    HW139959   3.228   1.933  11.663 -0.9456  1.8750 -0.7428
 9499SOL    HW239960   3.178   1.798  11.624 -0.6758  0.2586 -1.2596
 9500SOL     OW39961   3.484   3.794  10.401  0.1767 -0.2890 -0.2598
 9500SOL    HW139962   3.454   3.731  10.467 -1.4688  0.5586 -0.2119
 9500SOL    HW239963   3.495   3.731  10.330  0.0298 -0.3716 -0.2092
 9501SOL     OW39964   0.194   1.224   6.467  0.2565 -0.2001  0.2641
 9501SOL    HW139965   0.284   1.204   6.443  0.0809 -0.4364 -0.2047
 9501SOL    HW239966   0.167   1.143   6.510  2.0483  0.3628  2.4829
 9502SOL     OW39967   2.055   1.968   9.280 -0.6317  0.3163 -0.1724
 9502SOL    HW139968   2.039   2.034   9.213  0.9498 -1.5238 -2.3778
 9502SOL    HW239969   2.118   1.909   9.237  1.1182  2.8498 -1.0602
 9503SOL     OW39970   1.798   3.552   8.011  0.6312  0.0441 -0.0642
 9503SOL    HW139971   1.796   3.507   7.926  0.7043  0.3831 -0.2450
 9503SOL    HW239972   1.876   3.513   8.051 -0.6788 -3.1240 -0.6305
 9504SOL     OW39973   0.402   4.155   9.097 -0.1419  0.4381 -0.1002
 9504SOL    HW139974   0.321   4.127   9.140  0.5235 -1.0810  0.1786
 9504SOL    HW239975   0.469   4.136   9.162 -1.5526  0.0444  1.2279
 9505SOL     OW39976   2.794   0.332   6.121  0.0999  0.0026 -0.3793
 9505SOL    HW139977   2.783   0.405   6.060 -1.9179 -1.1090 -1.3622
 9505SOL    HW239978   2.704   0.301   6.107 -0.5460  1.4750  0.5726
 9506SOL     OW39979   4.225   0.782   5.235 -0.2980  0.3773  0.0483
 9506SOL    HW139980   4.238   0.829   5.318 -0.3939  2.1722 -0.9370
 9506SOL    HW239981   4.173   0.851   5.194 -0.9955  0.7871  1.6102
 9507SOL     OW39982   1.046   0.026   4.878 -0.0694  0.1624 -0.4199
 9507SOL    HW139983   0.986   4.685   4.831  1.7752 -0.1761 -2.3671
 9507SOL    HW239984   1.066   0.084   4.804  1.0833 -0.9256 -0.9551
 9508SOL     OW39985   0.723   0.295   7.232 -0.3073 -0.2098 -0.2461
 9508SOL    HW139986   0.733   0.369   7.291 -0.2636 -0.4882  0.0938
 9508SOL    HW239987   0.637   0.258   7.251 -1.1739  2.5454  1.1824
 9509SOL     OW39988   1.036   4.169  17.581  0.7736 -0.0758  0.4738
 9509SOL    HW139989   1.100   4.240  17.577  0.0032  0.6178  0.4004
 9509SOL    HW239990   0.976   4.202  17.648 -1.2464 -2.7793  0.0151
 9510SOL     OW39991   1.137   2.228   6.466  0.5373 -0.1837 -0.6516
 9510SOL    HW139992   1.229   2.209   6.486  1.1885  1.4298 -2.0796
 9510SOL    HW239993   1.096   2.191   6.544 -2.6456 -2.0228 -3.2135
 9511SOL     OW39994   3.844   1.339  16.337 -0.0189 -0.1982  0.3952
 9511SOL    HW139995   3.800   1.328  16.253  0.6313 -0.3778  0.0757
 9511SOL    HW239996   3.925   1.292  16.315 -0.8182 -1.4790  0.1571
 9512SOL     OW39997   3.170   4.081   4.990 -0.5340  0.1105 -0.3158
 9512SOL    HW139998   3.118   4.161   4.988  0.5266  0.8471  1.7238
 9512SOL    HW239999   3.222   4.101   5.067  0.0536 -2.3403 -0.0842
 9513SOL     OW40000   1.957   3.011   7.388 -0.5359  0.2005 -0.2143
 9513SOL    HW140001   1.873   3.001   7.434 -0.2113 -0.8024  0.1629
 9513SOL    HW240002   2.014   3.019   7.465 -0.9612  2.8448 -0.1741
 9514SOL     OW40003   1.708   4.195   1.561  0.4555 -0.3163  0.1323
 9514SOL    HW140004   1.779   4.236   1.610  0.3110 -0.1186  0.1777
 9514SOL    HW240005   1.656   4.147   1.625  0.1714 -1.4132 -0.9028
 9515SOL     OW40006   3.476   1.408   4.519 -0.4139  0.7460 -0.2422
 9515SOL    HW140007   3.411   1.475   4.502  0.3607  1.2124 -1.3317
 9515SOL    HW240008   3.529   1.455   4.584  0.4419 -0.6291  0.0762
 9516SOL     OW40009   0.994   0.285   1.928  0.3899  0.1514  0.7025
 9516SOL    HW140010   1.034   0.267   1.843  0.1731 -0.4036  0.7181
 9516SOL    HW240011   1.006   0.380   1.938 -0.3110  0.4744 -1.5078
 9517SOL     OW40012   0.558   2.545  11.496 -0.1250 -0.1141  0.1493
 9517SOL    HW140013   0.547   2.464  11.546 -0.7064 -0.3226 -0.3217
 9517SOL    HW240014   0.652   2.560  11.505 -0.1487  0.3036 -0.2844
 9518SOL     OW40015   0.546   2.763  16.039 -0.0810  0.1351  0.6181
 9518SOL    HW140016   0.555   2.728  15.950  0.7634 -2.0337  1.5437
 9518SOL    HW240017   0.457   2.756  16.074 -1.3619  2.0507 -2.3085
 9519SOL     OW40018   4.149   0.233   0.806  0.2641  0.8558  0.3095
 9519SOL    HW140019   4.093   0.275   0.871 -2.4996  0.4130 -1.7973
 9519SOL    HW240020   4.234   0.263   0.838  0.8432 -2.2376  1.6248
 9520SOL     OW40021   2.012   1.054   7.453 -0.4303 -0.4968 -0.2597
 9520SOL    HW140022   2.014   1.113   7.377  0.6252  1.9378  1.6657
 9520SOL    HW240023   1.968   1.115   7.511  1.6034  2.1710 -1.5009
 9521SOL     OW40024   0.142   2.288   3.466  0.0461 -0.5803 -1.1150
 9521SOL    HW140025   0.126   2.268   3.374 -0.7568  0.9796 -1.3113
 9521SOL    HW240026   0.118   2.211   3.518 -0.1746 -0.4835 -1.0731
 9522SOL     OW40027   4.279   1.490   1.517 -0.5367 -0.1275  0.0740
 9522SOL    HW140028   4.346   1.487   1.586  1.1356  0.7532 -1.4973
 9522SOL    HW240029   4.266   1.585   1.510  0.3395  0.0969  1.3395
 9523SOL     OW40030   0.526   0.020   5.292  0.2855 -0.8133  0.9765
 9523SOL    HW140031   0.434   0.008   5.314  0.4484 -0.4573  1.8300
 9523SOL    HW240032   0.521   0.006   5.197 -2.5562 -1.2151  1.1812
 9524SOL     OW40033   0.187   3.661   2.784 -0.4943 -0.1094 -0.2589
 9524SOL    HW140034   0.280   3.664   2.761 -1.0446 -2.7352 -2.8551
 9524SOL    HW240035   0.175   3.740   2.836  2.5057 -1.1743  2.0343
 9525SOL     OW40036   0.030   0.700  10.845 -0.0411 -0.5800  0.4051
 9525SOL    HW140037   0.102   0.762  10.853  0.5191 -1.3227  1.0617
 9525SOL    HW240038   4.688   0.737  10.911 -0.6310 -0.1710 -0.3414
 9526SOL     OW40039   0.232   1.600   2.482  0.2562  0.1128  0.9478
 9526SOL    HW140040   0.324   1.622   2.500  1.0321 -1.1628 -1.4705
 9526SOL    HW240041   0.222   1.525   2.542  1.3355  0.3526  1.4342
 9527SOL     OW40042   0.483   4.053   8.418 -0.7232 -0.2768  0.1617
 9527SOL    HW140043   0.391   4.059   8.444 -1.0417 -0.7305 -0.8538
 9527SOL    HW240044   0.522   4.115   8.480 -0.3794 -0.6872  0.3598
 9528SOL     OW40045   4.382   3.046   2.288 -0.1840  0.0402  0.4073
 9528SOL    HW140046   4.413   3.136   2.280 -1.0060  0.0825 -2.4372
 9528SOL    HW240047   4.418   3.006   2.209  2.3507  0.5569  1.3043
 9529SOL     OW40048   3.634   4.241  16.240 -0.6420  0.3319  0.1127
 9529SOL    HW140049   3.549   4.225  16.199  0.0377 -0.2423 -1.0708
 9529SOL    HW240050   3.670   4.158  16.210 -0.4814 -0.0633  1.3883
 9530SOL     OW40051   1.220   2.933   6.330  0.1361 -0.5096  0.2805
 9530SOL    HW140052   1.270   2.965   6.406  1.3918 -3.1315  0.5444
 9530SOL    HW240053   1.245   2.841   6.324 -0.1792 -0.6691  1.4120
 9531SOL     OW40054   3.333   3.608   5.350  0.4448 -0.5371  0.4668
 9531SOL    HW140055   3.295   3.558   5.423  2.5113 -0.7271  1.4023
 9531SOL    HW240056   3.416   3.633   5.390 -0.4785  3.7539 -0.3723
 9532SOL     OW40057   2.140   4.307   1.507 -0.1610 -0.4926  0.1587
 9532SOL    HW140058   2.142   4.212   1.512  0.3025 -0.4904  0.0753
 9532SOL    HW240059   2.047   4.329   1.513 -0.3111 -0.9822 -0.4369
 9533SOL     OW40060   1.517   0.630   7.393 -0.0151 -0.2187 -0.5668
 9533SOL    HW140061   1.437   0.680   7.373  0.0809  0.2161  0.1145
 9533SOL    HW240062   1.501   0.611   7.486  0.9387 -2.8046 -0.9237
 9534SOL     OW40063   0.247   2.419   8.755 -0.8348  0.0934  0.1198
 9534SOL    HW140064   0.301   2.409   8.677 -1.3114  3.1605 -0.6151
 9534SOL    HW240065   0.162   2.432   8.712 -0.4727 -1.4441 -1.0454
 9535SOL     OW40066   2.824   4.314   5.107 -0.1976  0.5743  0.2284
 9535SOL    HW140067   2.756   4.288   5.044  0.7642 -0.4863 -0.3702
 9535SOL    HW240068   2.783   4.401   5.114 -1.0381  0.1810  0.2618
 9536SOL     OW40069   0.762   0.100   4.876 -0.2012  0.0430  0.1125
 9536SOL    HW140070   0.666   0.104   4.875 -0.1786  0.4277 -0.8949
 9536SOL    HW240071   0.775   0.006   4.887  1.1027  0.3185  0.9382
 9537SOL     OW40072   4.533   3.750   6.557 -0.0525 -0.3271 -0.2033
 9537SOL    HW140073   4.599   3.820   6.558  1.2609 -1.5949  1.3567
 9537SOL    HW240074   4.561   3.690   6.487  2.0004 -0.6304  0.8752
 9538SOL     OW40075   4.666   2.627  10.345  0.3463 -0.2826  0.3765
 9538SOL    HW140076   4.634   2.713  10.373 -2.6102 -0.6044 -2.0240
 9538SOL    HW240077   0.043   2.631  10.366  0.2941 -2.1186  0.9921
 9539SOL     OW40078   2.370   4.407   3.680  0.2860 -0.4769  0.1775
 9539SOL    HW140079   2.343   4.317   3.664 -0.9430  0.0274 -0.5643
 9539SOL    HW240080   2.330   4.417   3.766 -0.6397 -1.3849 -0.1513
 9540SOL     OW40081   2.173   2.675   6.229  0.1744  0.0376 -0.5729
 9540SOL    HW140082   2.188   2.610   6.161 -1.4776 -1.0262  0.0525
 9540SOL    HW240083   2.138   2.621   6.300 -0.5795  0.4519 -0.6171
 9541SOL     OW40084   2.335   1.117   7.373 -0.3937 -0.6658 -0.0253
 9541SOL    HW140085   2.375   1.123   7.286 -0.0130  0.3653  0.2154
 9541SOL    HW240086   2.309   1.209   7.379 -1.6098 -0.9724 -0.6889
 9542SOL     OW40087   3.343   4.301   3.398  0.2590  0.5374 -0.3808
 9542SOL    HW140088   3.388   4.358   3.336 -0.0191  1.1990  0.0178
 9542SOL    HW240089   3.254   4.307   3.363  1.0878  1.3633 -2.3566
 9543SOL     OW40090   0.094   2.984  11.348 -0.0331 -0.0667 -0.5568
 9543SOL    HW140091   0.081   3.013  11.258 -1.1739  0.7238 -0.1526
 9543SOL    HW240092   0.143   2.906  11.323  0.1104  0.3024 -1.4421
 9544SOL     OW40093   3.534   1.617   4.725  0.1578 -0.2723  0.1740
 9544SOL    HW140094   3.459   1.647   4.776 -0.2670 -3.3671  1.3700
 9544SOL    HW240095   3.597   1.597   4.794 -0.3007  0.4912  0.8161
 9545SOL     OW40096   1.627   0.515   3.776 -0.6859  0.1404 -0.1259
 9545SOL    HW140097   1.647   0.589   3.720  2.8600 -0.4082  0.4553
 9545SOL    HW240098   1.621   0.562   3.860  0.2441 -2.2006  1.2550
 9546SOL     OW40099   0.514   1.645  10.816 -0.0510  0.3830  0.2581
 9546SOL    HW140100   0.594   1.623  10.767  0.3545 -0.6860  1.4211
 9546SOL    HW240101   0.450   1.667  10.748 -2.4976 -0.7033  2.2146
 9547SOL     OW40102   2.612   1.324   4.305  0.5204  0.6591  0.2493
 9547SOL    HW140103   2.705   1.302   4.296  0.2895 -0.5331  0.7289
 9547SOL    HW240104   2.591   1.263   4.375  1.5373  0.0204  0.0069
 9548SOL     OW40105   1.910   3.581   8.980 -0.1709  0.3034 -0.4361
 9548SOL    HW140106   1.947   3.567   8.892  2.9534 -0.7370  1.0112
 9548SOL    HW240107   1.875   3.493   8.995  2.2193 -0.7155 -0.7264
 9549SOL     OW40108   3.154   3.806  16.416 -0.0526  0.1890  0.0127
 9549SOL    HW140109   3.072   3.843  16.450  0.0671  0.9815 -0.5740
 9549SOL    HW240110   3.208   3.883  16.404  0.6495 -0.6099 -2.0079
 9550SOL     OW40111   0.687   2.115   5.834 -0.1511 -0.4262 -0.0244
 9550SOL    HW140112   0.775   2.146   5.815  0.2017 -2.2322 -1.3036
 9550SOL    HW240113   0.642   2.200   5.844  1.0540  0.4979 -2.5555
 9551SOL     OW40114   3.998   4.513   5.079  0.2183  0.2761  0.2803
 9551SOL    HW140115   4.089   4.485   5.074 -0.6537 -2.1825 -1.9346
 9551SOL    HW240116   3.998   4.598   5.033 -1.5994  0.1155 -0.0299
 9552SOL     OW40117   2.660   4.135  12.501  0.3295 -0.4122  0.5593
 9552SOL    HW140118   2.598   4.205  12.481  0.5172 -0.2681  0.4816
 9552SOL    HW240119   2.662   4.093  12.416 -0.4191  2.2244 -0.7778
 9553SOL     OW40120   2.494   1.822   4.863 -0.8703  0.3722  0.2169
 9553SOL    HW140121   2.424   1.874   4.823 -1.2128 -1.3826 -1.4056
 9553SOL    HW240122   2.557   1.891   4.884 -0.7807  0.5898 -0.7724
 9554SOL     OW40123   3.989   1.251   9.087  0.7017  0.6899 -0.2918
 9554SOL    HW140124   4.081   1.235   9.064  0.3686  1.7975 -2.3749
 9554SOL    HW240125   4.000   1.338   9.124 -0.8700  1.3642 -1.4024
 9555SOL     OW40126   2.228   1.845   7.743  0.0709  0.0058 -0.0284
 9555SOL    HW140127   2.149   1.832   7.691 -0.0808  2.0574 -0.3018
 9555SOL    HW240128   2.240   1.751   7.760  0.4946 -0.2873 -1.9108
 9556SOL     OW40129   2.465   2.755   5.311 -0.5196 -0.1763 -0.7567
 9556SOL    HW140130   2.371   2.775   5.317 -0.7747 -1.8081  0.7463
 9556SOL    HW240131   2.481   2.702   5.389  0.6375  0.0974 -0.8041
 9557SOL     OW40132   1.447   1.333  16.979 -0.0320  0.2283  0.0878
 9557SOL    HW140133   1.422   1.411  16.930  1.7773  0.4807 -0.4412
 9557SOL    HW240134   1.515   1.303  16.919 -0.7329  0.8656 -1.0157
 9558SOL     OW40135   4.664   3.683   4.236  0.0771 -0.4070 -0.5931
 9558SOL    HW140136   4.707   3.602   4.210  1.2993  0.3989 -1.1014
 9558SOL    HW240137   4.572   3.664   4.222  0.0256  1.2600 -2.5550
 9559SOL     OW40138   2.350   0.383   0.903  0.0417 -0.1271 -0.3679
 9559SOL    HW140139   2.288   0.431   0.958 -2.0342 -2.0159 -1.0761
 9559SOL    HW240140   2.359   0.303   0.954  0.5971 -1.2026 -2.1747
 9560SOL     OW40141   2.593   0.382  10.045 -0.2786  0.3101  0.4057
 9560SOL    HW140142   2.661   0.426   9.995 -2.5985  0.5118 -2.5739
 9560SOL    HW240143   2.615   0.291  10.022 -2.8204 -0.5412  1.3723
 9561SOL     OW40144   2.851   0.388   6.972 -0.2860  0.5837  0.3629
 9561SOL    HW140145   2.829   0.462   6.915  1.4031  1.2740  0.5972
 9561SOL    HW240146   2.793   0.392   7.048  1.3008  2.5890  1.4708
 9562SOL     OW40147   1.028   4.693   7.998  0.9295  0.4556  0.0369
 9562SOL    HW140148   0.974   0.054   8.017  0.3671 -0.3296  1.6975
 9562SOL    HW240149   0.969   4.620   8.017  1.4806  0.2577  0.9927
 9563SOL     OW40150   0.094   3.082   2.572 -0.1649 -0.4165  0.1732
 9563SOL    HW140151   0.186   3.081   2.598  0.2610  0.2677 -1.3633
 9563SOL    HW240152   0.089   3.122   2.486  2.9060 -2.0754 -0.7822
 9564SOL     OW40153   4.258   2.038   9.476  0.3650 -0.3175  0.1574
 9564SOL    HW140154   4.196   2.066   9.543  1.3775  0.4138  0.7894
 9564SOL    HW240155   4.332   1.997   9.520  1.6671  0.0099 -1.6954
 9565SOL     OW40156   3.793   0.467  14.121 -0.1015  0.3501 -0.0592
 9565SOL    HW140157   3.879   0.461  14.163 -0.2754  4.1465  0.8439
 9565SOL    HW240158   3.745   0.478  14.204 -0.6670  0.3044 -0.3806
 9566SOL     OW40159   1.598   0.068  13.766 -0.5621  0.1071  0.9341
 9566SOL    HW140160   1.674   0.019  13.800 -0.0194 -0.5028 -1.1642
 9566SOL    HW240161   1.631   0.157  13.779 -2.5972  0.5179  3.3372
 9567SOL     OW40162   2.930   2.389   3.163 -0.6096  0.2029  0.3569
 9567SOL    HW140163   2.918   2.376   3.069 -3.9393 -2.2707  1.1442
 9567SOL    HW240164   2.994   2.324   3.191 -1.4879 -1.0093 -0.4360
 9568SOL     OW40165   3.138   4.144   0.127 -0.1152 -0.0378  0.6895
 9568SOL    HW140166   3.164   4.054   0.147  0.6653 -0.4801 -2.2605
 9568SOL    HW240167   3.157   4.204   0.199 -0.4311  0.1782  0.5906
   4.71651   4.71651  17.66963
