Membrane in water
40167
    1TCq1    O1    1   0.189   1.980  11.314 -0.3480 -0.0708 -0.0303
    1TCq1    C1    2   0.213   1.929  11.435  0.1819 -0.1710  0.2139
    1TCq1    O2    3   0.295   1.971  11.514  0.3489  0.6596  0.0649
    1TCq1    C2    4   0.106   1.852  11.487  0.3326  0.1526  0.4614
    1TCq1    C3    5   4.707   1.840  11.426 -0.2084 -1.1775 -0.0856
    1TCq1    C4    6   4.603   1.778  11.483  0.5726 -0.4568  0.5812
    1TCq1    C5    7   4.614   1.748  11.615  0.0743  0.2629 -0.3692
    1TCq1    C6    8   0.012   1.758  11.683  0.3843  0.0160  0.0635
    1TCq1    C7    9   0.121   1.806  11.612 -0.2636 -0.3900 -0.0165
    1TCq1    C8   10   0.023   1.714  11.820 -0.4984  0.5922 -0.0884
    1TCq1    O4   11   4.640   1.717  11.876  0.3001 -0.2683 -0.2311
    1TCq1    C9   12   4.478   1.763  11.410  0.5506 -0.1075  0.4982
    1TCq1    O5   13   4.484   1.778  11.285 -0.3036 -0.3572  0.0794
    1TCq1    O6   14   4.374   1.745  11.479  0.0128  0.4967  0.0274
    1TCq1    H1   15   0.130   1.921  11.262  1.4133  0.7813 -2.9910
    1TCq1    H2   16   4.700   1.851  11.319 -2.6792 -0.4191  0.1560
    1TCq1    H3   17   4.539   1.691  11.669  1.4054 -0.4360  0.7400
    1TCq1    H4   18   0.218   1.804  11.661 -0.4741  0.3228  0.4383
    2MPD2     C   19   0.258   1.520  12.225  0.1727  0.4076  0.1639
    2MPD2    C1   20   0.136   1.579  12.225  0.3593 -0.0045  0.2090
    2MPD2    C2   21   0.091   1.641  12.105 -0.4512  0.4928  0.0135
    2MPD2    C3   22   0.176   1.632  11.993 -0.3532  0.0871 -0.3227
    2MPD2    C4   23   0.295   1.565  11.999 -0.6747  0.7797 -0.3247
    2MPD2    C5   24   0.335   1.509  12.116  0.1383  0.2332 -0.6927
    2MPD2     H   25   4.716   1.678  12.103 -0.6210  0.0403  0.1601
    2MPD2    H1   26   0.352   1.540  11.911 -0.5171  1.3408 -0.3843
    2MPD2    H2   27   0.279   1.467  12.317  0.2415  0.1197 -0.0181
    2MPD2    H3   28   0.424   1.448  12.123  0.2794  0.3209 -1.7348
    2MPD2     N   29   0.148   1.677  11.866  0.2143  0.0302  0.7147
    2MPD2    H5   30   0.222   1.674  11.797  0.4524 -0.1773  0.9772
    2MPD2    N1   31   0.044   1.585  12.336  0.0420 -0.1299 -0.5800
    2MPD2    H7   32   4.687   1.643  12.325 -0.8111 -0.7108  2.8499
    3TCq1    O1   33   4.030   2.679  12.089  0.2810 -0.3696  0.0938
    3TCq1    C1   34   4.101   2.669  11.976 -0.1677 -0.3340 -0.2785
    3TCq1    O2   35   4.060   2.608  11.878 -0.0661  0.4346 -0.3633
    3TCq1    C2   36   4.207   2.764  11.976  0.2635 -1.0449 -0.8222
    3TCq1    C3   37   4.237   2.818  11.857 -0.3036  0.9195  0.2672
    3TCq1    C4   38   4.305   2.937  11.848 -0.0437 -0.3227 -0.0673
    3TCq1    C5   39   4.359   2.999  11.962 -0.1284  0.2839  0.0311
    3TCq1    C6   40   4.329   2.931  12.083  0.0697 -0.4957  0.3690
    3TCq1    C7   41   4.256   2.816  12.096  0.5454  0.0494 -0.1898
    3TCq1    C8   42   4.310   3.029  12.187 -0.0835 -1.1008 -0.1473
    3TCq1    O4   43   4.316   2.993  12.303  0.4375 -0.0330 -0.7836
    3TCq1    C9   44   4.348   2.985  11.723  0.6521 -0.4914 -0.0038
    3TCq1    O5   45   4.306   2.918  11.621  0.3941  0.1339 -0.5268
    3TCq1    O6   46   4.431   3.085  11.722 -0.1348  0.1499 -0.5942
    3TCq1    H1   47   4.055   2.744  12.159  0.4601 -0.5040  0.1562
    3TCq1    H2   48   4.201   2.774  11.765  1.0601  3.0228 -1.2583
    3TCq1    H3   49   4.407   3.096  11.965  1.0104 -0.2435 -1.0121
    3TCq1    H4   50   4.235   2.771  12.192  2.1486  2.3328  1.2232
    4MPD2     C   51   3.995   3.421  12.280 -0.9949 -0.0929  0.0889
    4MPD2    C1   52   4.008   3.407  12.140 -0.0931  0.7579 -0.1051
    4MPD2    C2   53   4.103   3.319  12.107  0.1371  1.2455 -0.1876
    4MPD2    C3   54   4.171   3.234  12.192  0.4839 -0.0220 -0.1939
    4MPD2    C4   55   4.156   3.249  12.326 -0.5475  0.3152 -0.0557
    4MPD2    C5   56   4.070   3.344  12.366 -0.1640 -0.3918 -0.0404
    4MPD2     H   57   4.132   3.309  12.003  0.6842 -2.5195  0.3043
    4MPD2    H1   58   4.214   3.190  12.397 -1.8945  0.5458  1.2501
    4MPD2    H2   59   3.918   3.480  12.328 -1.4770 -1.0740  0.5032
    4MPD2    H3   60   4.046   3.356  12.471 -0.9539  0.9945 -0.3806
    4MPD2     N   61   4.252   3.137  12.133 -0.5355  0.2198  0.1448
    4MPD2    H5   62   4.243   3.134  12.032  1.0062  1.3372 -0.0197
    4MPD2    N1   63   3.946   3.482  12.036  0.8621  0.6175  0.1680
    4MPD2    H7   64   3.976   3.466  11.940 -1.7491  0.8879 -0.7001
    5TCq1    O1   65   0.657   4.372  11.789  0.0231 -0.0999  0.3952
    5TCq1    C1   66   0.542   4.311  11.835  0.5214 -0.5391  0.4736
    5TCq1    O2   67   0.556   4.192  11.870  0.1736  0.0075 -0.3179
    5TCq1    C2   68   0.443   4.361  11.739  0.4656  0.3598  0.4675
    5TCq1    C3   69   0.393   4.485  11.741  0.6507 -0.2928 -0.6375
    5TCq1    C4   70   0.282   4.518  11.664 -0.2643 -0.0537  0.9193
    5TCq1    C5   71   0.225   4.426  11.586 -0.1157 -0.2015  0.0761
    5TCq1    C6   72   0.271   4.295  11.584  0.1315 -0.0422  0.3249
    5TCq1    C7   73   0.384   4.261  11.662  0.3277 -0.2891 -1.0047
    5TCq1    C8   74   0.195   4.191  11.512 -0.1133 -0.0233  0.3593
    5TCq1    O4   75   0.246   4.079  11.501  0.4793  0.0993 -0.0625
    5TCq1    C9   76   0.227   4.650  11.669  0.6016  0.6230 -0.2599
    5TCq1    O5   77   0.309   0.018  11.672  0.7594  0.8280 -0.0741
    5TCq1    O6   78   0.104   4.656  11.645  0.3986 -0.4410 -0.1565
    5TCq1    H1   79   0.662   4.468  11.769 -0.9153 -0.0409  0.4530
    5TCq1    H2   80   0.426   4.561  11.811 -1.5594 -0.3185  0.4214
    5TCq1    H3   81   0.136   4.458  11.534  0.5970  1.0206 -0.4017
    5TCq1    H4   82   0.437   4.167  11.658 -1.8238 -1.5105 -0.4155
    6MPD2     C   83   4.557   4.188  11.439 -0.7102  0.0287 -0.3151
    6MPD2    C1   84   4.691   4.156  11.430  0.9443 -0.5786 -0.0032
    6MPD2    C2   85   4.726   4.063  11.337 -0.2987  0.2799  0.1216
    6MPD2    C3   86   4.630   3.995  11.260  0.3641 -0.2402  0.9057
    6MPD2    C4   87   4.497   4.024  11.272  0.0394 -0.6474  0.1226
    6MPD2    C5   88   4.464   4.127  11.355  0.3307  0.2215  0.2405
    6MPD2     H   89   0.102   4.033  11.317 -0.6060 -0.6341 -0.0870
    6MPD2    H1   90   4.423   3.966  11.216 -0.3129 -1.8770  1.8703
    6MPD2    H2   91   4.526   4.268  11.505  0.5326  1.8969 -1.9985
    6MPD2    H3   92   4.361   4.161  11.364  0.1364 -0.8456  2.0658
    6MPD2     N   93   4.680   3.890  11.177  0.5152 -0.2893  0.1697
    6MPD2    H5   94   0.044   3.856  11.209 -0.0601 -0.7146  1.3348
    6MPD2    N1   95   0.062   4.225  11.507  0.5545 -1.0105  0.0536
    6MPD2    H7   96   0.033   4.307  11.560 -0.3224 -0.6246 -1.0251
    7TCq1    O1   97   1.517   3.408  13.231 -0.0627 -0.6543 -0.6453
    7TCq1    C1   98   1.470   3.516  13.291 -0.2344  0.0265  0.9759
    7TCq1    O2   99   1.371   3.585  13.256 -0.1891  0.4856 -0.1110
    7TCq1    C2  100   1.573   3.555  13.388 -0.0487  0.1036 -0.9565
    7TCq1    C3  101   1.528   3.591  13.509 -0.1820 -0.6201  0.4239
    7TCq1    C4  102   1.619   3.602  13.609 -0.2653  0.0981  0.2410
    7TCq1    C5  103   1.746   3.573  13.583 -0.1589  0.0866  0.1925
    7TCq1    C6  104   1.792   3.559  13.453 -0.1144  0.5317 -0.0431
    7TCq1    C7  105   1.704   3.545  13.355  0.4378 -0.2446  0.3798
    7TCq1    C8  106   1.922   3.504  13.426  0.3844  0.1391 -0.1269
    7TCq1    O4  107   1.938   3.433  13.328  0.2770  0.2207  0.2422
    7TCq1    C9  108   1.577   3.627  13.751  0.5567  0.2071 -0.1229
    7TCq1    O5  109   1.667   3.635  13.841 -0.1987 -0.2509 -0.5527
    7TCq1    O6  110   1.454   3.648  13.769  0.1333 -0.1573  0.2097
    7TCq1    H1  111   1.594   3.362  13.272 -1.4145 -2.7293 -0.4105
    7TCq1    H2  112   1.424   3.617  13.527 -0.9241 -1.1331 -3.1611
    7TCq1    H3  113   1.808   3.562  13.672 -1.0929 -1.7090  0.6247
    7TCq1    H4  114   1.735   3.530  13.253  1.0096 -1.0128  0.6626
    8MPD2     C  115   2.412   3.436  13.538  0.3863 -0.1301 -0.8491
    8MPD2    C1  116   2.330   3.353  13.466 -0.1785 -0.6090 -0.4724
    8MPD2    C2  117   2.194   3.392  13.454  0.2551 -0.0583  0.3177
    8MPD2    C3  118   2.145   3.502  13.522  0.9305  0.1172  0.3836
    8MPD2    C4  119   2.231   3.579  13.595  0.5596  0.0521  0.3791
    8MPD2    C5  120   2.363   3.546  13.602  0.0465  0.8692  0.2419
    8MPD2     H  121   2.122   3.319  13.418  2.1563  1.4956 -6.5663
    8MPD2    H1  122   2.199   3.676  13.632  2.3533  2.0134 -3.2559
    8MPD2    H2  123   2.518   3.414  13.540  0.4997  0.4548 -0.2028
    8MPD2    H3  124   2.438   3.609  13.649 -1.4956  1.4447  1.9291
    8MPD2     N  125   2.013   3.540  13.520 -0.1995  0.3523  0.0065
    8MPD2    H5  126   1.984   3.603  13.594 -1.8723 -0.0375 -0.3174
    8MPD2    N1  127   2.372   3.225  13.420 -0.1006  0.3762 -0.7024
    8MPD2    H7  128   2.466   3.197  13.447 -1.5807 -1.8333  2.1566
    9TCq1    O1  129   4.183   1.748  10.615 -0.1579  0.2143  0.0106
    9TCq1    C1  130   4.249   1.765  10.732 -0.7578 -1.4870  0.5415
    9TCq1    O2  131   4.213   1.847  10.815 -0.1005 -0.0912 -0.1420
    9TCq1    C2  132   4.391   1.737  10.705  0.3813  0.3304  0.0804
    9TCq1    C3  133   4.426   1.642  10.618 -0.0151  0.5119  0.1627
    9TCq1    C4  134   4.545   1.649  10.549  0.3845  0.7832 -0.2518
    9TCq1    C5  135   4.634   1.744  10.582  0.4572  0.1072  0.1073
    9TCq1    C6  136   4.603   1.832  10.687  0.0181 -0.3103 -0.1904
    9TCq1    C7  137   4.480   1.843  10.737  0.0198  0.8668  0.0490
    9TCq1    C8  138   4.704   1.926  10.718 -0.5530 -0.2633 -0.1368
    9TCq1    O4  139   0.080   1.926  10.650  0.0024 -0.3155  0.1921
    9TCq1    C9  140   4.571   1.553  10.438  0.0869  0.1822 -0.1422
    9TCq1    O5  141   4.680   1.563  10.373 -0.8200 -0.3789  0.1148
    9TCq1    O6  142   4.472   1.491  10.400  0.6957  0.0417  0.1052
    9TCq1    H1  143   4.232   1.702  10.544 -0.0015  0.8472 -0.2918
    9TCq1    H2  144   4.351   1.569  10.588  1.6496 -0.3175 -1.9641
    9TCq1    H3  145   0.002   1.746  10.529 -1.7933  0.0852 -3.9633
    9TCq1    H4  146   4.443   1.921  10.803 -0.6175  1.4162 -0.9396
   10MPD2     C  147   0.150   2.128  10.870  0.4080 -0.3191  0.2754
   10MPD2    C1  148   0.028   2.081  10.910 -0.4329  0.0913  0.1887
   10MPD2    C2  149   4.702   2.120  11.027  0.1533  0.4724  0.1973
   10MPD2    C3  150   0.045   2.204  11.113 -0.2056  0.2141  0.2851
   10MPD2    C4  151   0.171   2.250  11.084  0.0798  0.6393  0.3314
   10MPD2    C5  152   0.218   2.215  10.956 -0.3361  0.3932  0.4449
   10MPD2     H  153   4.598   2.095  11.049 -0.4664  2.1985 -0.8385
   10MPD2    H1  154   0.236   2.301  11.154 -0.8325  1.7375  0.3639
   10MPD2    H2  155   0.191   2.103  10.773  0.8790  1.9627 -0.1214
   10MPD2    H3  156   0.314   2.256  10.926  0.3007 -2.1646 -0.9807
   10MPD2     N  157   4.723   2.240  11.244  0.6455  0.8510  0.1300
   10MPD2    H5  158   0.064   2.280  11.308 -0.6141  1.5367  1.0244
   10MPD2    N1  159   4.675   1.996  10.833  0.4459 -0.2951 -0.6414
   10MPD2    H7  160   4.584   1.979  10.876  0.5825  1.9075  0.5152
   11TCq1    O1  161   1.034   2.148  13.879  0.1898  0.6166  0.3980
   11TCq1    C1  162   0.985   2.058  13.970 -0.3987 -0.2812  0.0997
   11TCq1    O2  163   0.927   1.956  13.936  0.1105 -0.0655 -0.7599
   11TCq1    C2  164   0.973   2.124  14.100 -0.0588 -0.4410 -0.9603
   11TCq1    C3  165   1.077   2.202  14.136  0.6699 -0.2728 -0.5821
   11TCq1    C4  166   1.063   2.265  14.253 -0.4327  0.8805 -0.4468
   11TCq1    C5  167   0.961   2.251  14.331 -0.1138 -0.3810 -0.0591
   11TCq1    C6  168   0.850   2.180  14.286  0.0014 -0.0651 -0.1668
   11TCq1    C7  169   0.860   2.106  14.175 -0.2682 -0.2187 -0.1582
   11TCq1    C8  170   0.752   2.156  14.382  0.5060  0.5007  0.4173
   11TCq1    O4  171   0.761   2.206  14.492  0.5531  0.3668 -0.1564
   11TCq1    C9  172   1.177   2.339  14.302 -0.0732 -0.0857 -0.2676
   11TCq1    O5  173   1.165   2.389  14.413 -0.1960 -0.6238  0.4921
   11TCq1    O6  174   1.281   2.337  14.231 -0.0560 -0.2662  0.1884
   11TCq1    H1  175   1.065   2.232  13.917 -2.1058  1.4331  0.5102
   11TCq1    H2  176   1.165   2.211  14.073  0.5240 -2.9558 -1.1573
   11TCq1    H3  177   0.966   2.292  14.431  0.6374 -1.5321  0.3579
   11TCq1    H4  178   0.781   2.043  14.135 -0.9283  0.4767  0.0535
   12MPD2     C  179   0.515   2.042  14.534 -0.2366 -0.7456 -0.2837
   12MPD2    C1  180   0.544   2.023  14.399  0.0253  0.5798  0.6658
   12MPD2    C2  181   0.453   1.949  14.328  0.0512  0.1788 -0.2203
   12MPD2    C3  182   0.339   1.886  14.386 -0.3298 -0.2397 -0.3950
   12MPD2    C4  183   0.317   1.901  14.519  0.3283  0.5428 -0.2261
   12MPD2    C5  184   0.407   1.977  14.594  1.0886 -0.7591  0.1977
   12MPD2     H  185   0.466   1.937  14.221  1.4211 -1.0276  0.0794
   12MPD2    H1  186   0.238   1.857  14.578  2.3481 -0.2260  1.9107
   12MPD2    H2  187   0.585   2.103  14.591  1.1945 -1.1552 -1.6081
   12MPD2    H3  188   0.398   1.988  14.702 -1.2179 -0.1802 -0.0349
   12MPD2     N  189   0.263   1.801  14.299 -0.7784  0.2491 -0.4312
   12MPD2    H5  190   0.282   1.804  14.199 -0.0455  1.9624 -0.2338
   12MPD2    N1  191   0.654   2.077  14.327 -0.6069 -0.5473 -0.2307
   12MPD2    H7  192   0.661   2.062  14.227  1.1362 -0.1005 -0.1714
   13TCq1    O1  193   0.674   2.123  11.112  0.9024 -0.4790  0.0825
   13TCq1    C1  194   0.569   2.046  11.147 -0.2579 -0.1149  0.4408
   13TCq1    O2  195   0.542   2.013  11.258 -0.4778 -0.2093  0.0720
   13TCq1    C2  196   0.513   1.972  11.033 -0.2696 -0.0624 -0.3845
   13TCq1    C3  197   0.558   1.972  10.904  0.3000 -1.1253  0.2641
   13TCq1    C4  198   0.478   1.913  10.809  0.3574  0.0618  0.3796
   13TCq1    C5  199   0.362   1.855  10.834 -0.1193 -0.0406 -0.2508
   13TCq1    C6  200   0.313   1.860  10.964 -0.5702  0.1255 -0.8547
   13TCq1    C7  201   0.389   1.911  11.061 -0.0770 -0.4170  0.4356
   13TCq1    C8  202   0.188   1.791  11.005 -0.0755 -0.6454  0.3532
   13TCq1    O4  203   0.135   1.822  11.111 -0.3271  0.1284  0.0100
   13TCq1    C9  204   0.534   1.900  10.681 -0.0576 -0.7187 -0.8998
   13TCq1    O5  205   0.655   1.920  10.674 -0.0276  0.0349  0.6551
   13TCq1    O6  206   0.467   1.856  10.589 -0.0991  0.2687 -0.2020
   13TCq1    H1  207   0.673   2.139  11.016 -0.0625 -0.7556  0.0493
   13TCq1    H2  208   0.650   2.021  10.873  0.5363 -0.8840  1.3332
   13TCq1    H3  209   0.299   1.827  10.750 -1.2742  1.7575  0.0112
   13TCq1    H4  210   0.351   1.921  11.163 -2.4819 -2.5331 -0.2587
   14MPD2     C  211   0.043   1.516  10.840 -0.0610  0.6792  0.5675
   14MPD2    C1  212   0.029   1.633  10.906  0.3177  0.1136  0.0725
   14MPD2    C2  213   4.641   1.659  10.983 -0.1955 -0.4437 -0.8968
   14MPD2    C3  214   4.541   1.571  10.988  0.2026 -0.1284  0.0025
   14MPD2    C4  215   4.548   1.460  10.907 -0.4571  0.3201 -0.2422
   14MPD2    C5  216   4.657   1.434  10.835  0.2744 -0.6677  0.1574
   14MPD2     H  217   4.632   1.747  11.045 -1.5195 -0.9691 -0.3458
   14MPD2    H1  218   4.473   1.381  10.912  1.4687 -1.6664 -3.0590
   14MPD2    H2  219   0.131   1.492  10.783 -0.1862 -3.5488  2.1909
   14MPD2    H3  220   4.671   1.336  10.791  2.7820 -0.0010 -0.5688
   14MPD2     N  221   4.432   1.610  11.070  0.0219  0.1148  0.3244
   14MPD2    H5  222   4.438   1.692  11.129  3.3739  0.1142 -0.0240
   14MPD2    N1  223   0.148   1.710  10.900  0.3251 -0.9569  0.5795
   14MPD2    H7  224   0.225   1.695  10.836  0.0424 -0.7763  0.1977
   15TCq1    O1  225   0.679   1.020   1.451  0.1943  0.1653 -0.0696
   15TCq1    C1  226   0.662   0.916   1.537  0.2375  0.4251 -0.0874
   15TCq1    O2  227   0.553   0.883   1.578  0.0068  0.1730  0.1948
   15TCq1    C2  228   0.782   0.905   1.609  0.5617 -0.0597  0.3318
   15TCq1    C3  229   0.777   0.906   1.743  0.2324  0.6730 -0.0812
   15TCq1    C4  230   0.887   0.875   1.813  0.6402  0.1455  0.3763
   15TCq1    C5  231   1.009   0.865   1.745 -0.4333 -0.2186 -0.2588
   15TCq1    C6  232   1.009   0.879   1.605  0.3691  0.3917  0.5229
   15TCq1    C7  233   0.895   0.893   1.537 -0.2168 -0.1663  0.3100
   15TCq1    C8  234   1.135   0.870   1.531  0.7392  0.2195 -0.0951
   15TCq1    O4  235   1.226   0.809   1.583 -0.1520 -0.1665  0.3382
   15TCq1    C9  236   0.885   0.866   1.961 -0.4227  0.0706  0.0210
   15TCq1    O5  237   1.001   0.855   2.018 -0.4597 -0.3921  0.5674
   15TCq1    O6  238   0.779   0.880   2.028  0.2713  0.3641 -0.0752
   15TCq1    H1  239   0.774   1.044   1.442  0.2226 -0.2451 -0.8877
   15TCq1    H2  240   0.681   0.902   1.793  0.5144 -2.4900  0.2506
   15TCq1    H3  241   1.098   0.835   1.798  0.8015 -0.8610 -2.6883
   15TCq1    H4  242   0.889   0.874   1.431 -1.5823  1.8185  0.0442
   16MPD2     C  243   1.213   0.977   1.190  0.0923 -0.3745 -0.6983
   16MPD2    C1  244   1.230   0.912   1.309 -0.2917  0.7150 -0.2959
   16MPD2    C2  245   1.340   0.827   1.324 -1.2770 -0.2394 -0.3231
   16MPD2    C3  246   1.442   0.821   1.227  0.1663 -0.3229  0.0363
   16MPD2    C4  247   1.432   0.900   1.119 -0.6480 -0.3644 -0.3116
   16MPD2    C5  248   1.317   0.972   1.092 -0.8114  0.7979  0.8030
   16MPD2     H  249   1.337   0.752   1.403  1.3678 -0.6776 -0.6558
   16MPD2    H1  250   1.512   0.905   1.047 -0.5023 -1.0850 -0.2027
   16MPD2    H2  251   1.131   1.048   1.181  0.5142  0.0981 -0.8174
   16MPD2    H3  252   1.318   1.045   1.012  2.7539  1.2180  1.2399
   16MPD2     N  253   1.549   0.737   1.252  0.0623 -0.1837  0.6194
   16MPD2    H5  254   1.560   0.707   1.349 -4.1284  1.2385  1.5445
   16MPD2    N1  255   1.125   0.912   1.405  0.6712  0.3763  0.0096
   16MPD2    H7  256   1.045   0.965   1.371 -0.7531 -0.9895  1.1903
   17TCq1    O1  257   4.469   1.009  11.162  0.0194 -0.1412 -0.1961
   17TCq1    C1  258   4.534   1.118  11.108  0.8078 -0.1597  0.5559
   17TCq1    O2  259   4.566   1.137  10.990  0.0760 -0.0297 -0.3919
   17TCq1    C2  260   4.552   1.210  11.223  0.8946  0.1202 -0.0809
   17TCq1    C3  261   4.468   1.200  11.329 -0.0946  0.1413  0.0384
   17TCq1    C4  262   4.497   1.279  11.436  0.3615  0.2862 -1.0793
   17TCq1    C5  263   4.579   1.384  11.438  0.0516 -0.4703 -0.2485
   17TCq1    C6  264   4.652   1.400  11.319 -0.4151 -0.2785  0.1065
   17TCq1    C7  265   4.636   1.315  11.212 -0.3017  0.1016  0.6734
   17TCq1    C8  266   0.056   1.464  11.329 -0.3510 -0.1018 -0.0939
   17TCq1    O4  267   0.097   1.494  11.441  0.9000  0.0155 -0.5899
   17TCq1    C9  268   4.423   1.251  11.553 -0.1725 -0.5116  0.0167
   17TCq1    O5  269   4.314   1.189  11.540  0.4350  0.1585  0.5761
   17TCq1    O6  270   4.459   1.315  11.657 -0.2788 -0.6941 -0.2046
   17TCq1    H1  271   4.472   1.016  11.260  0.3141 -2.0530 -0.0571
   17TCq1    H2  272   4.388   1.128  11.341  0.1780 -0.2771 -0.6697
   17TCq1    H3  273   4.587   1.441  11.530  1.0098 -1.9364  0.5902
   17TCq1    H4  274   4.682   1.335  11.116  1.2397  0.1483  1.4221
   18MPD2     C  275   0.329   1.587  11.300 -0.7456  0.3840 -0.5712
   18MPD2    C1  276   0.254   1.517  11.200 -0.6629  0.1422  0.3928
   18MPD2    C2  277   0.312   1.495  11.076  0.3694 -0.7441 -0.4310
   18MPD2    C3  278   0.431   1.554  11.049 -0.2053 -0.5923  0.1119
   18MPD2    C4  279   0.503   1.626  11.140  0.3765  0.4094 -0.3786
   18MPD2    C5  280   0.451   1.646  11.268 -0.2225  0.2704  1.1187
   18MPD2     H  281   0.257   1.427  11.011  0.3043 -1.2710  0.1656
   18MPD2    H1  282   0.592   1.682  11.115  1.0551  1.0025  3.3527
   18MPD2    H2  283   0.300   1.594  11.404  0.4379  0.5807 -0.2547
   18MPD2    H3  284   0.501   1.705  11.344 -0.1268  0.9327  0.5385
   18MPD2     N  285   0.495   1.545  10.916 -0.0468  0.2072 -0.1174
   18MPD2    H5  286   0.581   1.598  10.906  0.5746 -0.8238 -0.1394
   18MPD2    N1  287   0.130   1.456  11.214 -0.2328  0.0376 -0.0450
   18MPD2    H7  288   0.095   1.415  11.127  0.2218 -1.9532  0.7118
   19TMC2    C1  289   1.336   1.762  13.790  0.1789 -0.5764 -0.2978
   19TMC2    C2  290   1.267   1.844  13.709  0.1352  0.5224 -0.1060
   19TMC2    C3  291   1.130   1.830  13.712 -0.3215  0.2462 -0.3458
   19TMC2    C4  292   1.277   1.677  13.880 -0.2834  0.9486  0.8896
   19TMC2    C5  293   1.139   1.663  13.884  0.5080 -0.0807 -0.0178
   19TMC2    C6  294   1.069   1.734  13.793 -0.1073  0.1271 -0.1532
   19TMC2     C  295   1.477   1.786  13.799  0.1934 -0.4311  0.2776
   19TMC2     O  296   1.524   1.861  13.715  0.1362 -0.5190 -0.4918
   19TMC2     H  297   1.313   1.922  13.651 -0.7868 -1.3867 -3.4096
   19TMC2    H1  298   1.337   1.624  13.953 -0.6116  0.0815  0.5289
   19TMC2    H2  299   0.964   1.706  13.782 -0.2523  0.3089  0.7515
   19TMC2    C7  300   1.070   1.598  13.996 -0.5767  0.0913 -0.2238
   19TMC2    C8  301   1.060   1.902  13.608 -0.0927  0.0599 -0.3010
   19TMC2    O1  302   1.135   1.526  14.070 -0.2215 -0.0636  0.3884
   19TMC2    O2  303   1.084   1.922  13.489 -0.0982  0.0297  0.2125
   19TMC2    O5  304   0.937   1.914  13.666 -0.2942  0.6399 -0.1191
   19TMC2    H5  305   0.943   1.935  13.761 -2.0368  2.0735 -0.3163
   20MPD2     C  306   1.762   1.790  13.856 -0.5891  0.7140 -0.0275
   20MPD2    C1  307   1.668   1.747  13.945 -0.1438 -0.0302 -0.0453
   20MPD2    C2  308   1.713   1.706  14.072  0.8700 -0.2692  0.4876
   20MPD2    C3  309   1.846   1.717  14.112  0.1774 -0.1381  0.0349
   20MPD2    C4  310   1.936   1.765  14.025  0.1030  0.5184 -0.0597
   20MPD2    C5  311   1.894   1.800  13.904  0.0764  0.9652 -0.1254
   20MPD2     H  312   1.640   1.661  14.138 -1.2230  0.7900 -1.0963
   20MPD2    H1  313   2.036   1.792  14.057  0.7530 -0.1803 -1.5264
   20MPD2    H2  314   1.735   1.823  13.756 -0.9996 -1.4706 -0.6280
   20MPD2    H3  315   1.977   1.828  13.840  0.1778 -0.8307 -0.7831
   20MPD2     N  316   1.892   1.702  14.240 -0.2463 -0.0137  0.1579
   20MPD2    H5  317   1.993   1.706  14.245 -0.5361  2.4083  4.4612
   20MPD2    N1  318   1.529   1.754  13.916  0.3968 -0.3176  0.2876
   20MPD2    H7  319   1.462   1.719  13.984  1.3995 -1.8174  0.5027
   21MPD2     C  320   4.363   2.172  13.857 -0.4707  0.6271  0.8819
   21MPD2    C1  321   4.363   2.192  13.996 -0.4562 -0.1911 -0.4098
   21MPD2    C2  322   4.304   2.304  14.048  0.7935  0.5117 -0.2625
   21MPD2    C3  323   4.239   2.392  13.964  0.0755 -0.2374 -0.4815
   21MPD2    C4  324   4.235   2.369  13.829  0.3554 -0.4749 -0.1872
   21MPD2    C5  325   4.311   2.269  13.775  0.2856  0.2093  0.5652
   21MPD2     H  326   4.311   2.317  14.155  2.2239  1.3502 -0.4518
   21MPD2    H1  327   4.177   2.437  13.767  1.5543  2.1996  1.6238
   21MPD2    H2  328   4.408   2.082  13.817  1.7158  1.3318  1.7521
   21MPD2    H3  329   4.318   2.258  13.667  2.3888 -0.7378  0.8006
   21MPD2     N  330   4.160   2.498  14.010  0.8414 -0.2736  0.0560
   21MPD2    H5  331   4.103   2.547  13.942  1.1713  0.0960  0.0490
   21MPD2    N1  332   4.432   2.105  14.082 -0.3543 -0.3384  0.2195
   21MPD2    H7  333   4.435   2.132  14.180  1.8292 -0.7715  0.2778
   22TCq2    C1  334   4.139   2.538  14.139 -0.3974  0.2153 -0.3060
   22TCq2    O2  335   4.213   2.508  14.239 -0.0595  0.0965  0.1769
   22TCq2    C2  336   4.011   2.603  14.167  0.0054 -0.7401 -0.3637
   22TCq2    C3  337   3.910   2.622  14.071  0.1110  0.1950  0.7736
   22TCq2    C4  338   3.792   2.677  14.099  1.0883 -0.0838 -0.2012
   22TCq2    C5  339   3.764   2.711  14.230 -0.4669  0.2395 -0.7246
   22TCq2    C6  340   3.866   2.691  14.318  0.1066 -0.1616  0.5342
   22TCq2    C7  341   3.990   2.637  14.302  0.6930  0.3880 -0.1352
   22TCq2    C8  342   3.834   2.713  14.459 -0.1737 -0.5483 -0.4480
   22TCq2    O4  343   3.926   2.723  14.539 -0.3868  0.5296 -0.1659
   22TCq2    C9  344   3.686   2.704  14.005 -0.7738 -0.2849  0.2312
   22TCq2    O5  345   3.572   2.719  14.050 -0.0017 -0.0301  0.2656
   22TCq2    O6  346   3.693   2.659  13.887  0.0341 -0.5581  0.1746
   22TCq2    H2  347   3.920   2.587  13.969  0.1247  1.2733  0.4045
   22TCq2    H3  348   3.681   2.778  14.249 -1.0618 -0.4497 -0.9000
   22TCq2    H4  349   4.070   2.637  14.375 -0.4522 -0.6176  1.1203
   23MPD2     C  350   1.198   2.911  14.508  0.6952 -0.6033 -0.3492
   23MPD2    C1  351   1.157   2.969  14.624 -0.9577  0.1038 -0.4824
   23MPD2    C2  352   1.133   3.104  14.624 -0.4596 -0.0964 -0.3675
   23MPD2    C3  353   1.134   3.175  14.503  0.3384 -0.2525  0.0168
   23MPD2    C4  354   1.181   3.115  14.395 -0.0184 -0.2216 -0.2766
   23MPD2    C5  355   1.213   2.983  14.394  0.5913  0.2712  0.8946
   23MPD2     H  356   1.118   3.149  14.721 -1.0956 -0.1766 -0.4276
   23MPD2    H1  357   1.201   3.179  14.309 -0.2375  0.9059  0.5219
   23MPD2    H2  358   1.199   2.803  14.506 -0.4865 -0.6379  1.0587
   23MPD2    H3  359   1.241   2.943  14.297  0.2858  0.8036  0.5876
   23MPD2     N  360   1.093   3.312  14.496 -0.1951  0.4479  0.3026
   23MPD2    H5  361   1.083   3.361  14.408  0.0604  0.0471  0.0523
   23MPD2    N1  362   1.137   2.904  14.741  0.3349 -0.2055 -0.1096
   23MPD2    H7  363   1.092   2.954  14.817  0.7911 -1.3363  0.8989
   24TCq2    C1  364   1.060   3.383  14.611 -0.3414 -0.2644  0.3434
   24TCq2    O2  365   1.053   3.349  14.726  0.4344  0.5029 -0.0877
   24TCq2    C2  366   0.992   3.506  14.579  0.2937  0.2369  0.2328
   24TCq2    C3  367   1.008   3.605  14.673 -0.9643  0.2318  0.3487
   24TCq2    C4  368   0.926   3.710  14.651 -0.0868 -0.1019  1.1064
   24TCq2    C5  369   0.831   3.716  14.554 -0.5618  0.7153  0.6302
   24TCq2    C6  370   0.818   3.610  14.465  0.3894 -0.0019 -0.1270
   24TCq2    C7  371   0.896   3.499  14.482  0.3696  1.1856 -0.0293
   24TCq2    C8  372   0.706   3.595  14.381  0.1297  0.1292 -0.7687
   24TCq2    O4  373   0.720   3.510  14.296  0.0802  0.5132  0.4022
   24TCq2    C9  374   0.933   3.818  14.749 -0.3453 -1.3601 -0.5739
   24TCq2    O5  375   0.883   3.931  14.722  0.6048 -0.0540 -0.1325
   24TCq2    O6  376   0.974   3.788  14.865 -0.2706  0.7017  0.8033
   24TCq2    H2  377   1.091   3.621  14.741 -0.1200 -1.7982 -0.2146
   24TCq2    H3  378   0.763   3.800  14.547  0.8851  1.7340 -1.4882
   24TCq2    H4  379   0.886   3.418  14.411  0.5136  1.1952 -0.0615
   25TMC2    C1  380   4.424   0.836  11.605  0.2935 -0.1966 -0.4208
   25TMC2    C2  381   4.483   0.952  11.648 -0.6585  0.1370 -0.3795
   25TMC2    C3  382   4.455   0.992  11.773 -0.5433  0.4056  0.3909
   25TMC2    C4  383   4.342   0.759  11.683 -0.8502 -0.3949  0.0506
   25TMC2    C5  384   4.322   0.800  11.807  0.1224  0.0918  0.1694
   25TMC2    C6  385   4.381   0.910  11.858  0.5633 -0.0866  0.9513
   25TMC2     C  386   4.440   0.803  11.470  0.3023 -0.6709  0.3921
   25TMC2     O  387   4.468   0.899  11.397 -0.3713 -0.0815 -0.0944
   25TMC2     H  388   4.543   1.016  11.585 -4.0133  2.0560 -1.6256
   25TMC2    H1  389   4.290   0.674  11.641  0.2997 -1.2755  0.3907
   25TMC2    H2  390   4.372   0.944  11.960  0.0606  1.8515  0.2573
   25TMC2    C7  391   4.209   0.753  11.878 -0.0176 -0.1192 -0.3911
   25TMC2    C8  392   4.564   1.066  11.833 -0.6888 -0.2611 -1.0070
   25TMC2    O1  393   4.212   0.789  11.995 -0.3815 -0.1117  0.4789
   25TMC2    O2  394   4.654   1.100  11.758 -0.1856  0.1701  0.0267
   25TMC2    O5  395   4.497   1.148  11.921  0.2690 -0.4683  0.0193
   25TMC2    H5  396   4.404   1.125  11.939  0.0631  1.2312  1.1049
   26MPD2     C  397   4.471   0.480  11.063  0.2266 -0.5861  0.2328
   26MPD2    C1  398   4.422   0.412  11.172 -0.6861 -0.5020  0.4748
   26MPD2    C2  399   4.419   0.474  11.297  0.2174 -0.7109 -0.1353
   26MPD2    C3  400   4.445   0.611  11.310  0.5482 -0.1014 -0.2269
   26MPD2    C4  401   4.488   0.683  11.200 -0.9166  0.2134 -0.4467
   26MPD2    C5  402   4.490   0.611  11.075 -0.1792 -0.5239 -0.6896
   26MPD2     H  403   4.367   0.421  11.375 -0.8328 -0.0084 -0.3646
   26MPD2    H1  404   4.516   0.788  11.198 -3.7594  0.9534 -0.4932
   26MPD2    H2  405   4.490   0.434  10.966 -0.4042 -0.3468  0.0015
   26MPD2    H3  406   4.524   0.661  10.984  0.3286 -0.1830 -0.3131
   26MPD2     N  407   4.434   0.667  11.443  0.2579 -0.1264  0.2101
   26MPD2    H5  408   4.407   0.609  11.523 -4.5050 -0.0718 -1.3737
   26MPD2    N1  409   4.367   0.289  11.148  0.2146 -0.7410  0.3034
   26MPD2    H7  410   4.392   0.254  11.056 -1.4200 -0.8285 -0.1112
   27TMC2    C1  411   3.272   3.438  12.041  0.2903 -0.0762 -0.3162
   27TMC2    C2  412   3.182   3.398  11.944  0.3670 -0.0635  0.4893
   27TMC2    C3  413   3.227   3.362  11.821 -0.2101 -0.0998 -0.0079
   27TMC2    C4  414   3.403   3.429  12.010 -0.1823 -0.5972  1.1158
   27TMC2    C5  415   3.444   3.390  11.887 -0.6452  0.2813  0.2194
   27TMC2    C6  416   3.355   3.354  11.792 -0.4862 -0.3796 -0.5822
   27TMC2     C  417   3.241   3.530  12.148 -0.0973 -0.2554  0.4874
   27TMC2     O  418   3.329   3.599  12.201  0.0782  0.3176  0.0324
   27TMC2     H  419   3.077   3.405  11.970  0.3322 -1.7568  0.8097
   27TMC2    H1  420   3.483   3.472  12.069 -0.6567  0.5064  0.9626
   27TMC2    H2  421   3.392   3.321  11.696  1.3087  2.1005 -0.7621
   27TMC2    C7  422   3.576   3.325  11.876  0.2271  0.3198  0.0679
   27TMC2    C8  423   3.123   3.308  11.738 -0.3939  0.1055 -0.2244
   27TMC2    O1  424   3.630   3.306  11.765  0.2315  0.2474  0.0088
   27TMC2    O2  425   3.012   3.350  11.757 -0.8399 -0.3746  0.8583
   27TMC2    O5  426   3.166   3.223  11.649  0.6554 -0.0191  0.1378
   27TMC2    H5  427   3.253   3.180  11.660  0.5623 -0.2503 -0.0435
   28MPD2     C  428   2.923   3.633  12.549 -0.2688 -0.4796  0.0706
   28MPD2    C1  429   2.893   3.513  12.496  0.0240 -0.2798 -0.2905
   28MPD2    C2  430   2.964   3.463  12.384 -0.3207 -1.1874 -0.0502
   28MPD2    C3  431   3.072   3.537  12.333 -0.2755 -0.1960  0.3226
   28MPD2    C4  432   3.102   3.658  12.388 -0.2597 -0.1305  0.1112
   28MPD2    C5  433   3.033   3.704  12.502 -0.5020  0.0515 -0.3013
   28MPD2     H  434   2.945   3.364  12.344 -1.3393 -1.7379  1.7858
   28MPD2    H1  435   3.188   3.718  12.358 -1.4609  0.2915 -2.5107
   28MPD2    H2  436   2.870   3.674  12.635  0.4470  1.4806 -0.4267
   28MPD2    H3  437   3.062   3.804  12.534 -0.7083 -0.6818  2.1573
   28MPD2     N  438   3.131   3.487  12.215 -0.1790 -0.2959  0.1879
   28MPD2    H5  439   3.085   3.405  12.176  0.4291  0.1810 -1.5297
   28MPD2    N1  440   2.789   3.437  12.557 -0.5534 -0.3887 -0.5377
   28MPD2    H7  441   2.733   3.487  12.625 -0.5501  1.0941 -1.6365
   29MPD2     C  442   2.285   0.067  14.355 -0.1492 -0.1048 -0.2487
   29MPD2    C1  443   2.403   0.072  14.430 -0.4537 -0.6554  0.1261
   29MPD2    C2  444   2.461   0.201  14.442 -0.7139  0.3904 -0.3664
   29MPD2    C3  445   2.399   0.322  14.397 -0.4953  0.2271  0.8953
   29MPD2    C4  446   2.286   0.302  14.321  0.5148  0.2260  0.1258
   29MPD2    C5  447   2.232   0.177  14.298  0.3063  0.0497  0.6253
   29MPD2     H  448   2.555   0.212  14.496 -1.3405 -1.9119  1.2137
   29MPD2    H1  449   2.249   0.389  14.267 -0.7917 -0.2467  0.2588
   29MPD2    H2  450   2.240   4.701  14.320  1.1023 -1.3411  1.3457
   29MPD2    H3  451   2.148   0.167  14.231  1.3850  1.4606 -0.9479
   29MPD2     N  452   2.439   0.453  14.408  0.6306 -0.1559 -0.5275
   29MPD2    H5  453   2.381   0.529  14.375 -0.8899 -0.6587  0.9881
   29MPD2    N1  454   2.477   4.682  14.480  0.1425 -0.0618  0.5741
   29MPD2    H7  455   2.555   4.701  14.542  1.4656 -0.1876 -1.0684
   30TCq2    C1  456   2.555   0.490  14.469 -0.6092  0.2893  0.3980
   30TCq2    O2  457   2.643   0.421  14.513 -0.6145  0.3758  0.2328
   30TCq2    C2  458   2.543   0.632  14.510  0.3051  0.1476 -0.2624
   30TCq2    C3  459   2.586   0.670  14.635 -0.9033 -0.1059 -0.5181
   30TCq2    C4  460   2.577   0.797  14.667  0.9824 -0.3608  0.0940
   30TCq2    C5  461   2.520   0.890  14.591 -0.3876 -0.7845  0.7089
   30TCq2    C6  462   2.484   0.852  14.464 -0.2694 -0.2255 -0.0771
   30TCq2    C7  463   2.499   0.721  14.421 -0.4501 -0.3033  0.5040
   30TCq2    C8  464   2.464   0.956  14.364 -0.9126 -0.1749  0.6495
   30TCq2    O4  465   2.406   0.932  14.261 -0.4880 -0.1040  0.0948
   30TCq2    C9  466   2.613   0.828  14.802  0.4197  0.1299  0.4178
   30TCq2    O5  467   2.632   0.951  14.818  0.1502  0.0233 -0.0674
   30TCq2    O6  468   2.645   0.729  14.880  0.0454 -0.0865 -0.5029
   30TCq2    H2  469   2.619   0.590  14.700  0.8224 -2.7044 -4.6073
   30TCq2    H3  470   2.494   0.987  14.633 -1.2796  0.5149 -2.8512
   30TCq2    H4  471   2.491   0.696  14.316  0.4634 -0.0955  0.3789
   31MPD2     C  472   0.619   3.985  14.967 -0.1580 -0.5111 -0.5965
   31MPD2    C1  473   0.501   4.061  14.968 -0.0842 -0.7246 -0.7635
   31MPD2    C2  474   0.396   4.015  15.047 -0.4656 -0.3024 -0.6493
   31MPD2    C3  475   0.413   3.902  15.123  0.6464  0.0381  0.2503
   31MPD2    C4  476   0.532   3.830  15.118  0.1987 -0.4886 -0.3529
   31MPD2    C5  477   0.639   3.876  15.046 -0.1391  0.0725 -0.3338
   31MPD2     H  478   0.319   4.088  15.068 -1.2156 -1.1901 -0.3314
   31MPD2    H1  479   0.568   3.757  15.189  0.7043 -1.2221 -1.3506
   31MPD2    H2  480   0.701   4.015  14.903 -0.2907  0.9342 -0.0900
   31MPD2    H3  481   0.732   3.819  15.046 -0.1371  0.0784  0.5210
   31MPD2     N  482   0.318   3.862  15.223 -0.4673 -0.0229 -0.4865
   31MPD2    H5  483   0.346   3.784  15.282  1.0636  1.7174  1.1225
   31MPD2    N1  484   0.495   4.171  14.874 -0.0349 -0.2215  0.4616
   31MPD2    H7  485   0.580   4.192  14.823  0.3451  0.7679  1.4943
   32TCq2    C1  486   0.192   3.911  15.242 -0.5092 -1.0530  0.1382
   32TCq2    O2  487   0.129   3.978  15.162  0.1186  0.2712 -0.7397
   32TCq2    C2  488   0.129   3.882  15.379  0.0786  0.2376  0.1001
   32TCq2    C3  489   0.012   3.944  15.401 -0.9948  0.4423  0.2609
   32TCq2    C4  490   4.675   3.935  15.519  0.8425 -0.0153 -0.1151
   32TCq2    C5  491   0.005   3.865  15.623  0.0455 -0.3743 -0.4305
   32TCq2    C6  492   0.117   3.789  15.607  0.2374  0.1032 -0.5496
   32TCq2    C7  493   0.176   3.803  15.481  0.5813  0.2935 -0.4695
   32TCq2    C8  494   0.164   3.690  15.700 -0.1566  0.0512  0.1493
   32TCq2    O4  495   0.265   3.629  15.663 -0.1125  0.0102  0.1085
   32TCq2    C9  496   4.547   3.999  15.537 -0.2206 -0.1477  0.6308
   32TCq2    O5  497   4.481   3.967  15.642  0.1844  0.0138 -0.4634
   32TCq2    O6  498   4.510   4.077  15.446  0.5425  0.0385  0.0884
   32TCq2    H2  499   4.695   4.011  15.327 -3.5033  0.7070  1.9816
   32TCq2    H3  500   4.682   3.871  15.720  1.6715 -0.7767  0.4215
   32TCq2    H4  501   0.265   3.747  15.456 -0.0205  0.1542 -2.2598
   33MPD2     C  502   0.234   1.366  10.181  0.0372  0.0596  0.0366
   33MPD2    C1  503   0.373   1.356  10.193 -0.4517 -0.0244 -0.5231
   33MPD2    C2  504   0.451   1.344  10.077  0.4066  0.2775 -0.8042
   33MPD2    C3  505   0.387   1.351   9.953  0.2360 -0.9765 -0.5981
   33MPD2    C4  506   0.250   1.368   9.942  0.4924 -0.3217  0.0732
   33MPD2    C5  507   0.173   1.375  10.060 -0.2050 -0.3940 -0.0629
   33MPD2     H  508   0.559   1.340  10.078  0.3722 -0.5527  2.1497
   33MPD2    H1  509   0.207   1.383   9.843 -0.6433  1.1503  0.7825
   33MPD2    H2  510   0.172   1.392  10.267 -1.4482 -4.2257  0.2701
   33MPD2    H3  511   0.069   1.403  10.053 -0.5204 -1.4661  0.2571
   33MPD2     N  512   0.452   1.343   9.832 -0.0871 -0.0824 -0.1780
   33MPD2    H5  513   0.401   1.353   9.745 -0.6508 -0.4383  0.1107
   33MPD2    N1  514   0.435   1.364  10.324 -0.0130 -0.1796  0.1745
   33MPD2    H7  515   0.378   1.387  10.404  0.1832  0.4473  0.1383
   34TCq2    C1  516   0.585   1.320   9.814 -0.3978 -0.1928 -0.0023
   34TCq2    O2  517   0.674   1.327   9.895 -0.2640  0.2400 -0.0931
   34TCq2    C2  518   0.631   1.331   9.674  0.8234 -0.3579 -0.1781
   34TCq2    C3  519   0.546   1.290   9.576 -0.1634 -0.7784 -0.0667
   34TCq2    C4  520   0.556   1.361   9.465 -0.2845 -0.5828 -0.2583
   34TCq2    C5  521   0.648   1.456   9.444 -0.1256 -0.2773 -0.1791
   34TCq2    C6  522   0.741   1.492   9.537  0.6471  0.5479  0.2940
   34TCq2    C7  523   0.720   1.430   9.656 -1.2278  0.5522  0.1818
   34TCq2    C8  524   0.793   1.633   9.533  0.5638 -0.2513 -0.7038
   34TCq2    O4  525   0.861   1.675   9.626 -0.1658  0.3814  0.7415
   34TCq2    C9  526   0.473   1.325   9.354  0.3600  0.0039 -0.6688
   34TCq2    O5  527   0.499   1.385   9.247  0.4643 -0.1907 -0.0839
   34TCq2    O6  528   0.375   1.249   9.368 -0.0681  0.0562 -0.2248
   34TCq2    H2  529   0.477   1.207   9.578  0.1938 -1.0616  0.3031
   34TCq2    H3  530   0.654   1.501   9.345 -1.0402  1.8258  0.7196
   34TCq2    H4  531   0.779   1.464   9.740  0.3907 -1.2727 -0.2123
   35MPD2     C  532   2.382   3.419  12.065  0.2725  0.1676  0.4838
   35MPD2    C1  533   2.410   3.286  12.045  0.7379 -0.4468 -0.9592
   35MPD2    C2  534   2.386   3.242  11.911  0.0906  0.1361 -0.0659
   35MPD2    C3  535   2.341   3.328  11.810 -0.2815 -0.5029 -0.2884
   35MPD2    C4  536   2.330   3.466  11.830 -0.4295  0.1548  0.0523
   35MPD2    C5  537   2.350   3.506  11.960 -0.0317 -0.3330  0.1043
   35MPD2     H  538   2.390   3.141  11.875  1.0076 -1.0989  3.4533
   35MPD2    H1  539   2.293   3.530  11.750 -1.2121 -1.4402 -0.8561
   35MPD2    H2  540   2.391   3.466  12.163  0.2875 -1.7735  1.4158
   35MPD2    H3  541   2.329   3.610  11.984 -1.4104 -0.6392  0.2142
   35MPD2     N  542   2.307   3.254  11.694  0.4091 -0.4056  0.0147
   35MPD2    H5  543   2.327   3.155  11.686 -1.8185 -0.9008  0.6256
   35MPD2    N1  544   2.444   3.204  12.157 -0.0699  0.2430  0.1514
   35MPD2    H7  545   2.424   3.244  12.249  0.3243  0.3805  0.1784
   36TCq2    C1  546   2.263   3.313  11.579  0.4709 -0.2722  0.2716
   36TCq2    O2  547   2.244   3.430  11.545  0.1506  0.1509  0.2762
   36TCq2    C2  548   2.201   3.227  11.487  0.1229 -0.1289 -0.2556
   36TCq2    C3  549   2.202   3.266  11.360 -0.0565  0.0514 -0.2458
   36TCq2    C4  550   2.155   3.181  11.262 -0.1372 -0.2100 -0.1337
   36TCq2    C5  551   2.093   3.064  11.292  0.7811 -0.0470 -0.1652
   36TCq2    C6  552   2.100   3.024  11.424 -0.9889 -0.2059  0.2919
   36TCq2    C7  553   2.153   3.102  11.525  0.5688 -0.0017 -0.4539
   36TCq2    C8  554   2.032   2.904  11.456 -1.0279 -0.2342  0.2108
   36TCq2    O4  555   1.959   2.858  11.368 -0.0665  0.0272  0.3091
   36TCq2    C9  556   2.168   3.227  11.123  0.0087 -0.7417  0.0699
   36TCq2    O5  557   2.158   3.138  11.039 -0.4770 -0.1527 -0.0021
   36TCq2    O6  558   2.198   3.349  11.106 -0.2711  1.0927 -0.2702
   36TCq2    H2  559   2.255   3.359  11.339 -0.0579 -0.0015 -0.4859
   36TCq2    H3  560   2.062   2.996  11.214 -1.5389  2.2296 -1.2598
   36TCq2    H4  561   2.154   3.074  11.630 -0.4666 -0.6253 -0.6111
   37TMC2    C1  562   3.890   4.069  11.636  0.5248 -0.4994  0.5818
   37TMC2    C2  563   3.788   4.044  11.545  0.0582 -0.1751  1.2087
   37TMC2    C3  564   3.814   3.964  11.438 -0.2237  0.3996  1.1555
   37TMC2    C4  565   4.016   4.028  11.606  1.4014 -0.7088  0.7227
   37TMC2    C5  566   4.039   3.948  11.496 -0.1938  0.0345 -0.0385
   37TMC2    C6  567   3.933   3.914  11.411 -0.6035 -0.0008  0.4140
   37TMC2     C  568   3.848   4.063  11.772  0.1618  0.2589 -0.1843
   37TMC2     O  569   3.725   4.080  11.787 -0.0311  0.0129  0.5210
   37TMC2     H  570   3.684   4.073  11.559  0.3162  1.7729 -0.9992
   37TMC2    H1  571   4.103   4.057  11.664  0.5276  3.4244 -0.0345
   37TMC2    H2  572   3.944   3.846  11.327  0.8629  1.2523 -0.4132
   37TMC2    C7  573   4.171   3.886  11.490  0.1194 -0.0869  0.1661
   37TMC2    C8  574   3.700   3.930  11.363 -0.6006  0.1167  0.0546
   37TMC2    O1  575   4.248   3.907  11.586 -0.0831  0.1145 -0.2495
   37TMC2    O2  576   3.595   3.989  11.354 -0.0438  0.5270  0.2259
   37TMC2    O5  577   3.714   3.799  11.340 -0.2179  0.1910 -0.7269
   37TMC2    H5  578   3.786   3.745  11.379 -0.2443  1.2002  0.7249
   38MPD2     C  579   3.920   3.890  12.248 -0.4305 -0.8482 -0.1828
   38MPD2    C1  580   4.028   3.850  12.174  0.1139 -0.1401 -0.2995
   38MPD2    C2  581   4.031   3.893  12.039 -0.0642  0.6707 -0.3097
   38MPD2    C3  582   3.928   3.971  11.981  0.3317  0.6056 -0.3479
   38MPD2    C4  583   3.821   3.998  12.057 -0.5023  1.3543  0.6506
   38MPD2    C5  584   3.818   3.959  12.192 -1.0500  0.3306  0.0512
   38MPD2     H  585   4.112   3.850  11.981 -1.7962  0.2795 -2.4141
   38MPD2    H1  586   3.737   4.050  12.012  0.6412  0.6731 -2.2283
   38MPD2    H2  587   3.912   3.871  12.355  1.3482 -1.0041 -0.0724
   38MPD2    H3  588   3.728   3.980  12.249 -0.7987 -1.5393  1.1464
   38MPD2     N  589   3.941   4.001  11.848 -0.1597 -0.0444 -0.6814
   38MPD2    H5  590   4.036   3.987  11.815  0.4315  1.3412  0.4527
   38MPD2    N1  591   4.133   3.770  12.228  0.4483 -0.1209 -0.4673
   38MPD2    H7  592   4.217   3.754  12.173  1.3316 -0.0967  0.8762
   39MPD2     C  593   2.577   0.008   1.750 -0.0527 -0.2496 -0.2624
   39MPD2    C1  594   2.487   0.022   1.857  0.2430 -0.3754  0.3389
   39MPD2    C2  595   2.358   0.057   1.832 -0.1027 -0.3271 -1.2202
   39MPD2    C3  596   2.314   0.067   1.705 -0.1594  0.3635 -0.7554
   39MPD2    C4  597   2.402   0.047   1.600  0.4210  0.2117  1.4046
   39MPD2    C5  598   2.537   0.017   1.623 -0.0882  0.4236  0.0351
   39MPD2     H  599   2.285   0.089   1.906  0.3522 -1.1778 -0.3992
   39MPD2    H1  600   2.374   0.075   1.499  2.9611  2.3721  1.3008
   39MPD2    H2  601   2.683   4.718   1.766  0.5895  2.5600 -1.5629
   39MPD2    H3  602   2.608   0.015   1.541  1.8834  2.1729  1.6908
   39MPD2     N  603   2.181   0.112   1.665 -0.2594  0.0821 -0.0197
   39MPD2    H5  604   2.168   0.117   1.564  1.9262 -1.0667 -0.3564
   39MPD2    N1  605   2.544   0.016   1.988 -0.5482 -0.5129  0.9597
   39MPD2    H7  606   2.643   4.721   1.977 -1.0804 -2.6492  0.2100
   40TCq2    C1  607   2.477   0.018   2.106 -0.0184  0.0888 -0.1154
   40TCq2    O2  608   2.358   0.022   2.118 -0.5574  0.3367  0.3839
   40TCq2    C2  609   2.566   0.025   2.217  0.9070 -0.3022  1.0294
   40TCq2    C3  610   2.514   0.026   2.343 -0.5934  0.3662  0.4042
   40TCq2    C4  611   2.600   0.033   2.450 -0.9154  0.1442  0.0779
   40TCq2    C5  612   2.737   0.049   2.433 -0.1098  0.0380  0.0156
   40TCq2    C6  613   2.786   0.055   2.302  0.4230 -0.6229  0.4085
   40TCq2    C7  614   2.705   0.036   2.194  0.6155 -0.2514 -0.2725
   40TCq2    C8  615   2.921   0.095   2.285  0.3889 -0.2396 -0.1288
   40TCq2    O4  616   3.005   0.062   2.367  0.2451 -0.6451  0.3188
   40TCq2    C9  617   2.551   0.038   2.583 -0.2572  0.2508 -0.7232
   40TCq2    O5  618   2.636   4.718   2.666 -0.5107 -0.0307  0.2278
   40TCq2    O6  619   2.433   0.078   2.602  0.2456  0.4883 -0.3347
   40TCq2    H2  620   2.407   0.020   2.363 -0.0290 -2.1371  2.6366
   40TCq2    H3  621   2.805   0.066   2.515  0.5066  0.3056 -0.5558
   40TCq2    H4  622   2.743   0.058   2.095 -0.0737 -1.9126 -0.9024
   41TMC2    C1  623   1.395   3.302  13.611  0.0917 -0.3070 -0.5084
   41TMC2    C2  624   1.345   3.374  13.713  0.7639  0.0033 -0.4237
   41TMC2    C3  625   1.227   3.444  13.684 -0.1189 -0.2109 -0.2936
   41TMC2    C4  626   1.339   3.294  13.487  0.5944 -0.4086  0.8673
   41TMC2    C5  627   1.217   3.365  13.470  0.1048 -0.4741  0.8755
   41TMC2    C6  628   1.149   3.413  13.575 -0.4676 -0.2920  0.0761
   41TMC2     C  629   1.513   3.218  13.626  0.3155  0.6111  0.6140
   41TMC2     O  630   1.586   3.205  13.528 -0.5941 -0.4194  0.4575
   41TMC2     H  631   1.400   3.391  13.805 -0.9180  1.2795  0.3526
   41TMC2    H1  632   1.383   3.233  13.409 -1.3653  0.1218 -0.6340
   41TMC2    H2  633   1.055   3.465  13.559 -2.0969 -2.7470  1.6703
   41TMC2    C7  634   1.134   3.348  13.351 -0.0593  0.0087 -0.3500
   41TMC2    C8  635   1.160   3.515  13.792 -0.4238 -0.5386  0.7077
   41TMC2    O1  636   1.018   3.381  13.335  0.1913 -0.5256 -0.4353
   41TMC2    O2  637   1.042   3.511  13.812  0.0302 -0.5061 -0.1142
   41TMC2    O5  638   1.252   3.551  13.879  0.3565 -0.2544 -0.1811
   41TMC2    H5  639   1.335   3.578  13.834  0.8180 -0.9767  0.2358
   42MPD2     C  640   1.748   3.068  13.733  0.5785  0.1117  0.0457
   42MPD2    C1  641   1.638   3.102  13.813 -0.1244 -0.0470 -0.2029
   42MPD2    C2  642   1.614   3.037  13.931  0.4706 -0.0732  0.2594
   42MPD2    C3  643   1.709   2.961  13.992 -0.1526  0.3002  0.7768
   42MPD2    C4  644   1.829   2.941  13.925 -0.0239  0.0385 -1.0449
   42MPD2    C5  645   1.848   2.995  13.797  0.0414  0.9250 -0.1606
   42MPD2     H  646   1.514   3.041  13.972  0.2834  2.6352 -0.4820
   42MPD2    H1  647   1.910   2.897  13.982 -1.6795 -0.4516  0.9168
   42MPD2    H2  648   1.765   3.104  13.632 -0.6164  0.3604 -0.0777
   42MPD2    H3  649   1.938   2.964  13.745  0.0762 -0.4974  0.7634
   42MPD2     N  650   1.685   2.907  14.123 -0.0436 -0.3513 -0.0841
   42MPD2    H5  651   1.765   2.857  14.162  0.4354 -0.4918 -1.2244
   42MPD2    N1  652   1.530   3.178  13.759 -0.0041  0.2809 -0.4492
   42MPD2    H7  653   1.457   3.202  13.826 -0.4308  0.8218 -1.1063
   43MPD2     C  654   2.315   1.168   1.080 -0.4057 -0.3399  0.5503
   43MPD2    C1  655   2.423   1.176   1.166 -0.6286  0.5304  0.4040
   43MPD2    C2  656   2.402   1.224   1.295  0.0698 -0.6672  0.2499
   43MPD2    C3  657   2.278   1.277   1.328  1.2101 -0.5361  0.6697
   43MPD2    C4  658   2.174   1.280   1.241  0.6219 -0.4070 -0.3836
   43MPD2    C5  659   2.196   1.227   1.116 -0.0684 -0.3837  0.2303
   43MPD2     H  660   2.485   1.236   1.364  1.1908  1.1115 -1.4272
   43MPD2    H1  661   2.086   1.337   1.267  0.4819 -1.7067  1.9660
   43MPD2    H2  662   2.313   1.125   0.981 -0.5477  1.0758 -0.0641
   43MPD2    H3  663   2.118   1.236   1.042 -0.2342  1.8869  0.6894
   43MPD2     N  664   2.255   1.335   1.453  0.3289 -0.7651 -0.6045
   43MPD2    H5  665   2.159   1.368   1.457  1.2919  1.9130  0.2205
   43MPD2    N1  666   2.552   1.137   1.121  0.2413 -0.0741 -0.0851
   43MPD2    H7  667   2.626   1.126   1.189 -0.0534  0.5055  0.3290
   44TCq2    C1  668   2.357   1.523   1.986  0.3297 -0.6168  0.1739
   44TCq2    O2  669   2.473   1.490   1.998  0.0298 -0.4763 -0.2004
   44TCq2    C2  670   2.281   1.494   1.867  0.2186  0.6666 -0.2299
   44TCq2    C3  671   2.150   1.536   1.858 -0.4682 -1.6025 -0.0051
   44TCq2    C4  672   2.094   1.530   1.735 -0.1310  0.0005 -1.1071
   44TCq2    C5  673   2.161   1.502   1.620 -0.4241  1.1124 -0.2920
   44TCq2    C6  674   2.291   1.461   1.641 -0.2700 -0.4075 -1.8327
   44TCq2    C7  675   2.354   1.467   1.757  0.2100 -0.0023 -0.1429
   44TCq2    C8  676   2.346   1.364   1.552 -0.3807  0.3435 -0.3798
   44TCq2    O4  677   2.456   1.313   1.571  0.3408  0.7303 -0.5422
   44TCq2    C9  678   1.975   1.601   1.720  0.8731  0.6576  0.3175
   44TCq2    O5  679   1.927   1.617   1.601 -0.2204  0.5918 -0.1343
   44TCq2    O6  680   1.930   1.662   1.820 -1.1873 -0.3025 -0.3272
   44TCq2    H2  681   2.084   1.563   1.939 -0.8344 -1.2866 -0.4065
   44TCq2    H3  682   2.118   1.525   1.523  0.5448  0.3730 -0.9030
   44TCq2    H4  683   2.460   1.448   1.766  0.4185  1.6523  0.7582
   45TMC2    C1  684   2.941   3.661   9.520  0.2230  0.4939  0.0814
   45TMC2    C2  685   2.848   3.681   9.420 -0.0127 -0.4103 -0.3549
   45TMC2    C3  686   2.834   3.802   9.371 -0.7246  0.4135 -0.7425
   45TMC2    C4  687   2.997   3.767   9.580  0.1631 -0.7987 -0.0295
   45TMC2    C5  688   2.973   3.893   9.532 -0.0166 -0.3890  0.6594
   45TMC2    C6  689   2.902   3.907   9.420 -0.3793  0.5280 -0.1279
   45TMC2     C  690   2.982   3.531   9.556 -0.2203  0.0539  0.1420
   45TMC2     O  691   3.098   3.512   9.586 -0.1754 -0.3224 -0.1969
   45TMC2     H  692   2.790   3.596   9.386 -2.6225  0.8278  0.9838
   45TMC2    H1  693   3.066   3.749   9.661  1.0001 -2.9350 -1.1965
   45TMC2    H2  694   2.892   4.007   9.380  2.6949  0.6725 -0.5257
   45TMC2    C7  695   3.015   4.010   9.607  1.0662  0.2280 -0.1214
   45TMC2    C8  696   2.727   3.837   9.282  0.1066  0.7974 -0.9739
   45TMC2    O1  697   2.972   4.125   9.582  0.1054  0.6365  0.2000
   45TMC2    O2  698   2.688   3.952   9.271  0.2371 -0.3225 -0.0339
   45TMC2    O5  699   2.675   3.734   9.212 -0.3753 -0.0232 -0.1765
   45TMC2    H5  700   2.717   3.646   9.209  0.2067  0.2548 -0.2795
   46MPD2     C  701   2.985   3.224   9.589 -0.4800 -0.2730 -0.1842
   46MPD2    C1  702   2.869   3.300   9.585  0.8100 -0.3303  0.1004
   46MPD2    C2  703   2.746   3.242   9.599  0.0764 -0.7018  0.0441
   46MPD2    C3  704   2.736   3.102   9.626  0.5053  0.4218 -0.2422
   46MPD2    C4  705   2.850   3.030   9.629  0.0580 -0.3407 -0.0269
   46MPD2    C5  706   2.976   3.095   9.608  0.6476 -0.6500  0.5681
   46MPD2     H  707   2.652   3.294   9.580  0.5457 -0.2963 -1.1238
   46MPD2    H1  708   2.856   2.922   9.640  4.2963 -0.2169 -0.9956
   46MPD2    H2  709   3.079   3.268   9.559 -0.2429 -0.5237  0.1769
   46MPD2    H3  710   3.066   3.035   9.606 -0.1370 -1.8245  0.0676
   46MPD2     N  711   2.607   3.045   9.644  0.1268  0.5726  0.1663
   46MPD2    H5  712   2.530   3.106   9.618 -1.0332 -1.5439 -1.3848
   46MPD2    N1  713   2.873   3.446   9.573  0.0411 -0.9393  0.0654
   46MPD2    H7  714   2.787   3.499   9.561  1.5267  1.4700  0.0566
   47TMC2    C1  715   0.285   4.149   9.548 -0.3694  0.0650  0.1507
   47TMC2    C2  716   0.212   4.145   9.434  0.2661 -0.2182 -0.0595
   47TMC2    C3  717   0.080   4.123   9.449  0.5191  0.1483  0.4149
   47TMC2    C4  718   0.242   4.114   9.674  0.0789 -0.0864 -0.1321
   47TMC2    C5  719   0.111   4.084   9.681  0.5432 -0.6962  0.3032
   47TMC2    C6  720   0.027   4.091   9.571  0.4786 -0.1215 -0.2142
   47TMC2     C  721   0.431   4.152   9.518  0.3480  0.0655  0.8455
   47TMC2     O  722   0.462   4.229   9.430  0.2663  0.3604 -0.0842
   47TMC2     H  723   0.251   4.161   9.334  0.8724  0.6184  0.3062
   47TMC2    H1  724   0.306   4.116   9.761 -1.4668 -0.3771  1.0086
   47TMC2    H2  725   4.647   4.070   9.570  0.5829 -0.4041 -3.7478
   47TMC2    C7  726   0.045   4.054   9.815  0.0787  0.1741  0.4211
   47TMC2    C8  727   0.001   4.103   9.336  0.3270 -0.3451  0.0289
   47TMC2    O1  728   4.685   3.965   9.815 -0.3055  0.1692 -0.4075
   47TMC2    O2  729   0.011   4.167   9.232 -0.0855  0.0348 -0.1489
   47TMC2    O5  730   4.713   3.963   9.333 -0.6468  0.0706 -0.0200
   47TMC2    H5  731   4.699   3.906   9.411 -0.3829  0.2862  0.1848
   48MPD2     C  732   0.713   4.184   9.602  0.0501  0.0755  0.0959
   48MPD2    C1  733   0.642   4.068   9.623 -0.2339 -1.4809 -0.0312
   48MPD2    C2  734   0.713   3.951   9.656 -0.5032  0.3236 -0.0730
   48MPD2    C3  735   0.842   3.959   9.687  0.2843 -0.2789  0.1416
   48MPD2    C4  736   0.908   4.080   9.691 -0.2288 -0.7301  0.4977
   48MPD2    C5  737   0.839   4.192   9.657  0.6057  0.9854  0.0580
   48MPD2     H  738   0.663   3.855   9.652 -0.2777  0.2033 -0.0605
   48MPD2    H1  739   1.014   4.085   9.711 -0.0799  1.0036 -0.8125
   48MPD2    H2  740   0.669   4.274   9.562  1.5497 -0.2545 -2.2835
   48MPD2    H3  741   0.890   4.287   9.648 -0.5379  1.9209  3.2283
   48MPD2     N  742   0.901   3.840   9.728 -0.3139  0.8667 -0.0756
   48MPD2    H5  743   0.851   3.752   9.734  0.8044  0.1738 -0.9376
   48MPD2    N1  744   0.503   4.060   9.590 -0.1639  0.2720 -0.0946
   48MPD2    H7  745   0.448   3.989   9.637  1.1022 -0.3109  0.4824
   49MPD2     C  746   3.726   0.760  10.254 -0.4012  0.1942  0.4988
   49MPD2    C1  747   3.690   0.889  10.300 -0.1340  0.2053  0.2332
   49MPD2    C2  748   3.724   0.919  10.433 -0.3140  0.2876 -0.2519
   49MPD2    C3  749   3.797   0.831  10.513  0.3868  0.3571 -0.0447
   49MPD2    C4  750   3.822   0.707  10.466 -0.9383  0.3814  0.5017
   49MPD2    C5  751   3.794   0.671  10.335  0.2286  0.8127 -0.5796
   49MPD2     H  752   3.693   1.015  10.472 -0.2012  0.0416  0.4301
   49MPD2    H1  753   3.846   0.632  10.540 -1.5379  0.4194  0.7334
   49MPD2    H2  754   3.701   0.727  10.154 -1.0583 -2.1790  1.4477
   49MPD2    H3  755   3.811   0.566  10.317 -1.7769  0.2560  0.8021
   49MPD2     N  756   3.823   0.842  10.653 -0.4906  0.2268  0.0631
   49MPD2    H5  757   3.870   0.767  10.701 -1.1951 -0.7607 -0.7899
   49MPD2    N1  758   3.620   0.989  10.230  0.6009 -0.5220 -0.6694
   49MPD2    H7  759   3.617   1.083  10.268  0.4387 -1.5948  1.9988
   50TCq2    C1  760   3.543   0.966  10.116 -0.0568  0.1038 -0.1551
   50TCq2    O2  761   3.519   0.864  10.055  0.2822  0.4569 -0.5626
   50TCq2    C2  762   3.518   1.090  10.044  0.4819 -0.7204  0.6015
   50TCq2    C3  763   3.574   1.207  10.084 -0.2727  0.0739  0.2424
   50TCq2    C4  764   3.524   1.323  10.034 -0.8535 -0.4600  0.1010
   50TCq2    C5  765   3.437   1.317   9.935 -0.0920  0.5505  0.1727
   50TCq2    C6  766   3.389   1.200   9.891  0.3539  0.0325 -0.2974
   50TCq2    C7  767   3.428   1.083   9.947  0.9903  0.4554  0.4665
   50TCq2    C8  768   3.274   1.204   9.801 -0.2667 -0.1722 -0.4409
   50TCq2    O4  769   3.190   1.113   9.801  0.1818  0.2140  0.1879
   50TCq2    C9  770   3.572   1.451  10.073  0.1857 -0.4837  0.7118
   50TCq2    O5  771   3.670   1.461  10.154  0.0087 -0.0588 -0.0317
   50TCq2    O6  772   3.520   1.554  10.022  0.2988  0.4807 -0.7158
   50TCq2    H2  773   3.663   1.222  10.144  1.2532 -1.3133 -1.6809
   50TCq2    H3  774   3.400   1.411   9.895 -0.4464  0.3578  0.0453
   50TCq2    H4  775   3.386   0.991   9.910  2.1410  0.9873 -2.1342
   51MPD2     C  776   4.691   3.443   1.809 -0.1045 -1.0611  0.0179
   51MPD2    C1  777   4.589   3.475   1.721  0.1707  0.0115 -0.0108
   51MPD2    C2  778   4.536   3.604   1.723 -0.6217  0.0545 -0.2724
   51MPD2    C3  779   4.571   3.696   1.821 -0.1563  0.1908  0.2583
   51MPD2    C4  780   4.666   3.658   1.909  0.0540  0.9473 -0.5212
   51MPD2    C5  781   4.717   3.536   1.902  0.1574  0.5137 -0.1865
   51MPD2     H  782   4.462   3.634   1.650 -0.4062 -0.2998 -0.6371
   51MPD2    H1  783   4.705   3.723   1.988 -0.7422  0.2868  0.4104
   51MPD2    H2  784   0.027   3.357   1.786 -0.1678 -0.6708 -1.6259
   51MPD2    H3  785   0.081   3.530   1.962  0.8243 -3.0203 -1.5463
   51MPD2     N  786   4.506   3.819   1.828 -0.2688  0.1811 -0.1668
   51MPD2    H5  787   4.544   3.886   1.895  1.7750 -0.3472 -0.8101
   51MPD2    N1  788   4.547   3.394   1.614 -0.1172  0.1879  0.6140
   51MPD2    H7  789   4.475   3.442   1.560 -0.2213 -0.2390  0.3746
   52TCq2    C1  790   4.424   3.877   1.743 -0.1363 -0.9720 -0.2860
   52TCq2    O2  791   4.388   3.841   1.631  0.1670 -0.6603  0.0366
   52TCq2    C2  792   4.361   3.996   1.798 -0.8793 -0.2380 -0.1730
   52TCq2    C3  793   4.376   4.020   1.931 -0.5736  0.2916  0.3528
   52TCq2    C4  794   4.365   4.148   1.970 -0.0554 -0.4395  0.5150
   52TCq2    C5  795   4.331   4.253   1.895  0.1695 -0.5990 -0.2328
   52TCq2    C6  796   4.320   4.226   1.758 -0.7587  0.0218  0.3880
   52TCq2    C7  797   4.342   4.102   1.711 -0.0715  0.2729  0.5880
   52TCq2    C8  798   4.325   4.342   1.667 -0.4103 -0.6536 -0.3900
   52TCq2    O4  799   4.350   4.450   1.723 -0.1635  0.0128 -0.4743
   52TCq2    C9  800   4.409   4.183   2.104  0.1269  0.2225  0.6447
   52TCq2    O5  801   4.427   4.305   2.131 -0.1552  0.4116  0.6281
   52TCq2    O6  802   4.459   4.086   2.165 -0.1421 -0.1205 -0.3833
   52TCq2    H2  803   4.395   3.942   2.004  0.4409  2.0296  1.9295
   52TCq2    H3  804   4.324   4.351   1.941 -0.4453 -0.8026  0.1168
   52TCq2    H4  805   4.353   4.076   1.606 -0.5453  0.7562  0.4151
   53TMC2    C1  806   0.041   3.498  11.648 -0.0524 -0.1007 -0.9163
   53TMC2    C2  807   0.157   3.422  11.656 -0.8679 -0.3683  0.6796
   53TMC2    C3  808   0.233   3.427  11.767  0.7403  0.6263  0.2158
   53TMC2    C4  809   4.720   3.560  11.760  0.0056  0.5913 -0.3509
   53TMC2    C5  810   0.076   3.553  11.867  0.0128 -0.2643  0.4224
   53TMC2    C6  811   0.194   3.490  11.881 -0.4515 -0.1424 -0.2958
   53TMC2     C  812   4.687   3.475  11.531 -0.4225 -0.4688  0.8112
   53TMC2     O  813   0.018   3.423  11.438  0.5055 -0.2100 -0.1420
   53TMC2     H  814   0.192   3.363  11.573 -0.6377  1.3138 -0.4202
   53TMC2    H1  815   4.632   3.624  11.754  0.4281  1.1947 -0.1103
   53TMC2    H2  816   0.257   3.496  11.969  0.5012  0.5854 -1.0277
   53TMC2    C7  817   0.041   3.651  11.974 -0.2150 -0.4438  0.0546
   53TMC2    C8  818   0.371   3.409  11.748  0.5605  0.5304  0.0746
   53TMC2    O1  819   4.679   3.731  11.958 -0.4574 -0.1039 -0.3643
   53TMC2    O2  820   0.462   3.462  11.809 -0.4043 -0.2932  0.2388
   53TMC2    O5  821   0.383   3.304  11.664 -0.1844 -0.2497  0.3891
   53TMC2    H5  822   0.305   3.244  11.663 -1.2191  1.1200  0.2861
   54MPD2     C  823   4.487   3.515  11.309 -0.2685  0.1728  0.2678
   54MPD2    C1  824   4.480   3.588  11.429 -0.3710 -0.0427 -0.2427
   54MPD2    C2  825   4.399   3.698  11.437  0.2420  0.2498  0.6379
   54MPD2    C3  826   4.303   3.729  11.349  0.2355 -0.4738  0.4701
   54MPD2    C4  827   4.302   3.655  11.225  0.1891 -0.8695  0.3620
   54MPD2    C5  828   4.395   3.554  11.213 -0.0701  0.5509 -0.1715
   54MPD2     H  829   4.399   3.748  11.533 -3.0353 -0.5084  1.0358
   54MPD2    H1  830   4.231   3.672  11.145 -1.2574  2.1085  2.2600
   54MPD2    H2  831   4.554   3.431  11.296 -1.0802 -0.8045  2.3572
   54MPD2    H3  832   4.396   3.502  11.118 -0.1437  0.3349 -0.0528
   54MPD2     N  833   4.194   3.818  11.372 -0.4002 -0.0540 -0.1622
   54MPD2    H5  834   4.136   3.833  11.291 -0.1796 -0.0957 -0.3286
   54MPD2    N1  835   4.583   3.566  11.528 -0.1707  0.2961 -0.4647
   54MPD2    H7  836   4.568   3.619  11.613  0.9416 -0.4105  0.1753
   55MPD2     C  837   0.953   0.898  17.329  0.4286  0.7305 -0.4797
   55MPD2    C1  838   0.874   0.847  17.435 -0.0143  0.8005 -0.1537
   55MPD2    C2  839   0.752   0.909  17.460 -0.1637 -0.7481 -0.8545
   55MPD2    C3  840   0.721   1.028  17.401 -0.4909 -0.3338 -0.0919
   55MPD2    C4  841   0.798   1.080  17.299  0.3809  0.7878 -0.9968
   55MPD2    C5  842   0.911   1.006  17.262 -0.0197 -0.0410 -1.1368
   55MPD2     H  843   0.689   0.887  17.546 -2.3114 -0.7391 -2.4092
   55MPD2    H1  844   0.776   1.172  17.246 -0.8536  0.9365 -0.2262
   55MPD2    H2  845   1.038   0.849  17.283  0.2431 -0.2792  0.2557
   55MPD2    H3  846   0.968   1.043  17.177  0.7114 -1.8922 -1.4433
   55MPD2     N  847   0.601   1.089  17.449  0.1569  0.1535 -0.4512
   55MPD2    H5  848   0.541   1.042  17.516 -1.9956 -0.4994 -2.8244
   55MPD2    N1  849   0.925   0.735  17.507  0.2766  0.2402  0.1125
   55MPD2    H7  850   1.021   0.708  17.488  0.2262 -0.2813  0.5799
   56TCq2    C1  851   0.872   0.669  17.614 -0.1843  0.4724 -0.5248
   56TCq2    O2  852   0.775   0.708  17.679 -0.3276  0.0175 -0.0455
   56TCq2    C2  853   0.946   0.553  17.666  0.7329  0.4118  0.3450
   56TCq2    C3  854   1.024   0.469  17.584 -0.3866 -0.0325  0.0658
   56TCq2    C4  855   1.093   0.376  17.645 -0.1793  0.0706  0.4893
   56TCq2    C5  856   1.111   0.365   0.074 -0.1436 -0.3523 -0.4357
   56TCq2    C6  857   1.038   0.451   0.149 -0.6587 -0.2671  0.3899
   56TCq2    C7  858   0.951   0.539   0.098  0.0379 -0.5065 -0.6793
   56TCq2    C8  859   1.030   0.423   0.298 -0.3534  0.2623 -0.1978
   56TCq2    O4  860   1.096   0.331   0.345  0.1190  0.5156 -0.1602
   56TCq2    C9  861   1.158   0.271  17.567 -0.0755  0.0254 -0.1103
   56TCq2    O5  862   1.242   0.198  17.622  0.4392 -0.6597  0.2896
   56TCq2    O6  863   1.087   0.233  17.463  0.2870  0.8477  0.3620
   56TCq2    H2  864   1.003   0.469  17.477  1.9857  1.0944 -0.4244
   56TCq2    H3  865   1.164   0.283   0.122  0.4249  0.5757  0.5293
   56TCq2    H4  866   0.878   0.592   0.160 -1.7177 -2.5945 -0.9719
   57TMC2    C1  867   4.589   2.546  13.896 -0.5448  0.1952  0.3504
   57TMC2    C2  868   4.598   2.462  14.003 -0.2560 -0.4057 -0.0343
   57TMC2    C3  869   4.681   2.356  13.995  0.2071  0.0246  0.7921
   57TMC2    C4  870   4.648   2.520  13.771 -0.0486  0.0310  0.5782
   57TMC2    C5  871   0.007   2.410  13.772  0.6032  0.4254 -0.7371
   57TMC2    C6  872   0.036   2.331  13.881 -0.3369 -0.1721  0.0316
   57TMC2     C  873   4.479   2.639  13.894  0.5379  0.0075  0.0081
   57TMC2     O  874   4.440   2.674  13.784 -0.2901  0.1837 -0.1872
   57TMC2     H  875   4.534   2.481  14.088 -0.1169  1.2249 -0.2899
   57TMC2    H1  876   4.629   2.573  13.679  0.5644 -0.2133  0.3104
   57TMC2    H2  877   0.119   2.261  13.881 -2.4493 -2.6723  0.8702
   57TMC2    C7  878   0.077   2.384  13.647 -0.1493 -0.1394 -0.4625
   57TMC2    C8  879   4.715   2.290  14.119  0.0275  0.1495  0.4255
   57TMC2    O1  880   0.087   2.479  13.569  0.0135  0.3067 -0.8832
   57TMC2    O2  881   4.673   2.334  14.227  0.0044 -0.2487 -0.1941
   57TMC2    O5  882   0.026   2.167  14.092 -0.2292 -0.3782 -0.2170
   57TMC2    H5  883   0.033   2.153  13.995 -0.4200 -1.1613 -0.1216
   58MPD2     C  884   4.137   2.929  14.125 -0.1024  0.2618 -0.1059
   58MPD2    C1  885   4.137   2.879  13.991  0.5450  0.5244  0.6093
   58MPD2    C2  886   4.245   2.807  13.948 -0.4254 -0.2370 -0.1215
   58MPD2    C3  887   4.343   2.779  14.042  0.0236 -0.3892  0.8537
   58MPD2    C4  888   4.343   2.818  14.177  0.0714  0.1680 -0.1565
   58MPD2    C5  889   4.241   2.901  14.214  0.2010  1.1454 -0.1862
   58MPD2     H  890   4.248   2.752  13.855  2.0594 -0.8688  0.3323
   58MPD2    H1  891   4.424   2.808  14.249  1.1356  1.3407 -1.1976
   58MPD2    H2  892   4.053   2.981  14.169 -0.2668  0.9113 -1.1955
   58MPD2    H3  893   4.240   2.939  14.316  0.3734  0.1253  0.1916
   58MPD2     N  894   4.459   2.700  14.012  0.3068 -0.3295 -0.1323
   58MPD2    H5  895   4.518   2.679  14.091 -0.4710 -0.0277  0.5283
   58MPD2    N1  896   4.025   2.890  13.904 -0.5619  0.1241 -0.0227
   58MPD2    H7  897   4.039   2.855  13.810  0.8459  0.8150 -0.0739
   59MPD2     C  898   2.570   2.400  13.395  0.6832  0.5199  0.2545
   59MPD2    C1  899   2.659   2.448  13.301 -0.0102  0.2578  0.0385
   59MPD2    C2  900   2.734   2.558  13.328 -0.8334 -0.4743 -0.4622
   59MPD2    C3  901   2.719   2.619  13.451 -0.0132 -0.1754 -0.4859
   59MPD2    C4  902   2.634   2.575  13.551  0.1789  0.2303  0.9354
   59MPD2    C5  903   2.550   2.473  13.512  0.3378 -0.5880  0.9463
   59MPD2     H  904   2.792   2.595  13.244  0.4764 -1.8031 -0.1394
   59MPD2    H1  905   2.626   2.611  13.653  1.8436  0.1192  1.1144
   59MPD2    H2  906   2.502   2.324  13.358 -0.3647  1.3588  0.4556
   59MPD2    H3  907   2.474   2.440  13.582 -0.7924  3.0947  1.4846
   59MPD2     N  908   2.805   2.721  13.500  0.3344  0.0065 -0.2666
   59MPD2    H5  909   2.786   2.765  13.589  0.0365  2.2186 -1.4005
   59MPD2    N1  910   2.676   2.388  13.172 -0.6093  0.4486  0.0482
   59MPD2    H7  911   2.728   2.440  13.102 -0.7758  0.7915  0.1755
   60TCq2    C1  912   2.635   2.265  13.130 -0.1099 -0.1440  0.5323
   60TCq2    O2  913   2.554   2.182  13.175  0.3566 -0.8073  0.0016
   60TCq2    C2  914   2.692   2.234  12.999 -0.0648  0.5335  0.0804
   60TCq2    C3  915   2.796   2.313  12.954 -0.7553  0.5248 -0.8071
   60TCq2    C4  916   2.820   2.305  12.815 -0.2280  0.9202  0.1294
   60TCq2    C5  917   2.759   2.226  12.734  0.1333 -1.0934  0.4071
   60TCq2    C6  918   2.651   2.154  12.782  0.0021  0.1197 -0.5015
   60TCq2    C7  919   2.605   2.167  12.912 -0.3837  0.3487 -0.2591
   60TCq2    C8  920   2.547   2.135  12.687 -0.3707 -0.6606  0.6354
   60TCq2    O4  921   2.450   2.073  12.726 -0.6427  0.4983  0.6348
   60TCq2    C9  922   2.929   2.386  12.763  0.2587  0.4645  0.4781
   60TCq2    O5  923   2.979   2.363  12.647 -0.4904 -0.1931 -0.1309
   60TCq2    O6  924   2.968   2.482  12.837  0.0160  0.2585 -0.0651
   60TCq2    H2  925   2.865   2.375  13.011 -0.7102 -0.0276 -0.2663
   60TCq2    H3  926   2.796   2.231  12.633  0.6835  0.0706  0.6693
   60TCq2    H4  927   2.513   2.121  12.948  1.0795  0.2913  3.4357
   61MPD2     C  928   1.784   3.581  14.730  0.0780 -0.0193 -0.2570
   61MPD2    C1  929   1.723   3.694  14.789  0.6410 -0.1920 -0.0428
   61MPD2    C2  930   1.678   3.797  14.711 -0.3167  0.5049 -0.6685
   61MPD2    C3  931   1.698   3.792  14.573  0.4218  0.4893  0.3133
   61MPD2    C4  932   1.765   3.684  14.517 -0.1098 -0.7713 -0.1456
   61MPD2    C5  933   1.796   3.577  14.593 -0.6593 -0.1272 -0.0048
   61MPD2     H  934   1.627   3.881  14.758  0.6211  2.0732 -2.4752
   61MPD2    H1  935   1.794   3.678  14.413  1.8946  0.3234  0.3554
   61MPD2    H2  936   1.810   3.490  14.783 -0.1888  0.7894  1.2728
   61MPD2    H3  937   1.838   3.492  14.540 -0.8434  1.4180 -2.6197
   61MPD2     N  938   1.647   3.885  14.481  0.2164  0.2235  0.1034
   61MPD2    H5  939   1.687   3.890  14.388  1.7885 -1.5587  0.6950
   61MPD2    N1  940   1.711   3.707  14.925  0.3495  0.3597 -0.2236
   61MPD2    H7  941   1.661   3.785  14.965  0.7269 -0.0379  1.0318
   62TCq2    C1  942   1.774   3.635  15.021  0.2906 -0.1606  0.2346
   62TCq2    O2  943   1.840   3.534  15.010  0.1394 -0.0040  0.3613
   62TCq2    C2  944   1.741   3.685  15.156 -0.4048 -0.3136  0.0636
   62TCq2    C3  945   1.731   3.587  15.257  0.5881 -0.2075  0.1464
   62TCq2    C4  946   1.685   3.633  15.378 -0.8752  0.0702 -0.3681
   62TCq2    C5  947   1.637   3.760  15.402  0.2853  0.0629  0.4699
   62TCq2    C6  948   1.645   3.849  15.296 -0.5478 -0.7163  0.5502
   62TCq2    C7  949   1.689   3.811  15.174 -0.1981 -0.0892  0.7487
   62TCq2    C8  950   1.579   3.979  15.311  0.4690  0.6091 -0.3350
   62TCq2    O4  951   1.623   4.066  15.241  0.0764  0.6118 -0.2484
   62TCq2    C9  952   1.670   3.536  15.480 -0.0580  0.5077  0.2780
   62TCq2    O5  953   1.713   3.424  15.447 -0.1297 -0.0311 -0.5132
   62TCq2    O6  954   1.610   3.573  15.584 -0.4646  0.3498  0.3151
   62TCq2    H2  955   1.764   3.485  15.244  1.3551  0.1332 -0.5456
   62TCq2    H3  956   1.611   3.798  15.500  1.3041  1.7950  0.0724
   62TCq2    H4  957   1.688   3.884  15.094  2.2912 -1.9004 -0.9091
   63TMC2    C1  958   1.084   3.751  10.672 -0.7179 -0.5183  0.0209
   63TMC2    C2  959   1.149   3.794  10.782 -1.1967  0.3253  0.0414
   63TMC2    C3  960   1.224   3.908  10.765 -0.3086  0.3271 -0.1030
   63TMC2    C4  961   1.084   3.818  10.551 -0.3474  0.4257 -0.1353
   63TMC2    C5  962   1.164   3.930  10.541 -0.2165  0.7688 -0.2663
   63TMC2    C6  963   1.244   3.979  10.648  0.2209  0.2202  0.0590
   63TMC2     C  964   1.036   3.618  10.674  0.0664 -0.2893  0.3606
   63TMC2     O  965   1.099   3.554  10.760 -0.5439  0.6856 -0.0612
   63TMC2     H  966   1.138   3.747  10.879  2.1318 -1.6359 -0.5490
   63TMC2    H1  967   1.039   3.771  10.464 -1.8814  3.2699 -0.8728
   63TMC2    H2  968   1.287   4.078  10.657  0.0965  0.3314 -0.5764
   63TMC2    C7  969   1.177   3.995  10.415  0.0339 -0.2862  0.2802
   63TMC2    C8  970   1.268   3.987  10.880 -0.1090 -0.5384  0.0683
   63TMC2    O1  971   1.084   3.973  10.341 -0.5661 -0.0797  0.6446
   63TMC2    O2  972   1.228   4.102  10.900 -0.3418  0.7431 -1.0379
   63TMC2    O5  973   1.299   3.890  10.971  0.1588  1.2769 -0.0403
   63TMC2    H5  974   1.334   3.810  10.925  1.4265  0.9037  1.5829
   64MPD2     C  975   0.821   3.200  10.459  0.2150 -0.1029  0.4713
   64MPD2    C1  976   0.903   3.211  10.572 -0.1269 -0.0299 -0.0785
   64MPD2    C2  977   0.945   3.343  10.615  0.5304 -0.7757  0.3086
   64MPD2    C3  978   0.901   3.458  10.548 -0.2990 -0.1034  0.4067
   64MPD2    C4  979   0.802   3.438  10.447 -0.2471  0.0087  0.3209
   64MPD2    C5  980   0.772   3.315  10.396  0.1533  0.0783  0.5477
   64MPD2     H  981   1.000   3.358  10.707 -0.0808 -1.4148  0.7815
   64MPD2    H1  982   0.763   3.526  10.396  0.5245 -1.1197 -2.2002
   64MPD2    H2  983   0.774   3.105  10.435  0.0796 -0.0538  0.5419
   64MPD2    H3  984   0.695   3.294  10.323  0.8253 -0.0526 -0.1251
   64MPD2     N  985   0.942   3.588  10.581  0.0023 -0.2607 -0.0544
   64MPD2    H5  986   0.898   3.665  10.533  0.3991  0.2400  0.3912
   64MPD2    N1  987   0.948   3.101  10.647  0.9029  0.5112 -0.6585
   64MPD2    H7  988   1.008   3.118  10.726 -0.6151  1.8618  0.2109
   65MPD2     C  989   2.176   2.858  15.701 -0.5625 -0.2983 -0.2241
   65MPD2    C1  990   2.205   2.828  15.570 -0.1664 -0.0645 -0.2103
   65MPD2    C2  991   2.219   2.691  15.532  0.2088 -0.5482 -0.4629
   65MPD2    C3  992   2.212   2.590  15.628 -0.0479  0.3786  0.1973
   65MPD2    C4  993   2.162   2.621  15.746  0.0276 -0.2505 -0.3266
   65MPD2    C5  994   2.138   2.752  15.781  0.3515 -0.4903 -0.3923
   65MPD2     H  995   2.234   2.660  15.429 -0.7210 -0.6380 -0.5749
   65MPD2    H1  996   2.143   2.543  15.819  0.9478 -0.3433 -0.1841
   65MPD2    H2  997   2.165   2.956  15.746  2.1042 -0.0385 -0.1145
   65MPD2    H3  998   2.092   2.776  15.876 -0.1139  1.3544 -1.0736
   65MPD2     N  999   2.243   2.456  15.596  0.1501  0.0272 -0.1179
   65MPD2    H5 1000   2.222   2.385  15.665 -0.2453  0.5903  0.3437
   65MPD2    N1 1001   2.228   2.933  15.473 -0.0344  0.3536 -0.0477
   65MPD2    H7 1002   2.265   2.906  15.382  0.5567  0.7724  0.0716
   66TCq2    C1 1003   2.208   3.066  15.497  0.0594 -0.1909  0.1829
   66TCq2    O2 1004   2.170   3.131  15.593 -0.7013 -0.0086  0.6603
   66TCq2    C2 1005   2.246   3.137  15.376  0.2313  0.0684  0.1303
   66TCq2    C3 1006   2.346   3.090  15.294  0.0470 -0.2289  0.5926
   66TCq2    C4 1007   2.361   3.154  15.177  0.0824 -0.7839 -0.5837
   66TCq2    C5 1008   2.291   3.262  15.142 -0.0790 -0.4328  0.1811
   66TCq2    C6 1009   2.201   3.316  15.229  0.5487  0.5725 -0.1155
   66TCq2    C7 1010   2.181   3.253  15.346  0.5812  0.1920  0.7685
   66TCq2    C8 1011   2.181   3.458  15.218 -0.6736  0.1077  0.3985
   66TCq2    O4 1012   2.228   3.520  15.121  0.3466 -0.1476  0.9516
   66TCq2    C9 1013   2.472   3.114  15.089 -0.1943 -0.7513  0.3596
   66TCq2    O5 1014   2.562   3.045  15.140  0.1701  0.5179  0.3445
   66TCq2    O6 1015   2.470   3.144  14.966 -0.3338 -0.1119 -0.5855
   66TCq2    H2 1016   2.410   3.009  15.325 -0.9515 -1.4862 -0.5927
   66TCq2    H3 1017   2.325   3.308  15.050 -1.5912  1.2667  0.4817
   66TCq2    H4 1018   2.109   3.285  15.420  0.3389 -0.1193  0.6685
   67MPD2     C 1019   2.496   2.462  14.047 -0.4303 -0.0635 -0.7339
   67MPD2    C1 1020   2.413   2.541  14.122 -0.4720 -0.1106  0.0675
   67MPD2    C2 1021   2.285   2.561  14.078  0.2001 -0.5302  0.8280
   67MPD2    C3 1022   2.229   2.506  13.970 -0.1549  0.0623 -0.1399
   67MPD2    C4 1023   2.316   2.437  13.886 -0.1808 -0.2951 -0.0992
   67MPD2    C5 1024   2.454   2.417  13.923  0.3399 -0.1764  0.3952
   67MPD2     H 1025   2.219   2.623  14.138 -2.2884 -1.4294 -1.0227
   67MPD2    H1 1026   2.286   2.380  13.798 -1.3759 -0.8839  0.6908
   67MPD2    H2 1027   2.596   2.435  14.078 -0.1272  0.1927 -1.4989
   67MPD2    H3 1028   2.507   2.350  13.857  0.9553  0.7209 -0.0146
   67MPD2     N 1029   2.095   2.507  13.940 -0.1055  0.2589  0.1064
   67MPD2    H5 1030   2.072   2.470  13.849 -0.9095 -1.8198  1.1692
   67MPD2    N1 1031   2.453   2.602  14.241 -0.2780 -0.1735 -0.3835
   67MPD2    H7 1032   2.410   2.689  14.272 -1.2600 -0.6463 -0.4088
   68TCq2    C1 1033   2.552   2.549  14.322 -0.2647  0.3112 -0.6209
   68TCq2    O2 1034   2.573   2.430  14.326  0.2391  0.3106 -0.6990
   68TCq2    C2 1035   2.598   2.638  14.433 -0.0664  0.5313  0.0408
   68TCq2    C3 1036   2.571   2.762  14.443  0.6954 -0.0544  0.1509
   68TCq2    C4 1037   2.604   2.830  14.559  0.7623 -0.4428  0.0898
   68TCq2    C5 1038   2.661   2.773  14.670  1.1134  0.4135 -0.4649
   68TCq2    C6 1039   2.693   2.644  14.652 -0.1876 -0.0474 -0.2897
   68TCq2    C7 1040   2.658   2.573  14.537  0.2871 -0.1962  0.4260
   68TCq2    C8 1041   2.796   2.582  14.739  0.3706  0.3009  0.1043
   68TCq2    O4 1042   2.848   2.479  14.701  0.2865 -0.0019 -0.0622
   68TCq2    C9 1043   2.568   2.966  14.571  0.6756 -0.5277  0.3510
   68TCq2    O5 1044   2.593   3.024  14.675  0.4531  0.1901  0.2833
   68TCq2    O6 1045   2.529   3.019  14.463 -0.5119  0.2438  0.3451
   68TCq2    H2 1046   2.535   2.828  14.365  3.9952 -0.1559 -1.4707
   68TCq2    H3 1047   2.677   2.827  14.763 -1.9055  0.8879 -0.2248
   68TCq2    H4 1048   2.681   2.468  14.527 -0.8858 -0.3406 -0.6707
   69TMC2    C1 1049   4.717   4.164  12.704  0.2912  0.4507 -0.5829
   69TMC2    C2 1050   4.602   4.234  12.717  0.5424  0.6053  0.6035
   69TMC2    C3 1051   4.556   4.316  12.613  0.9978  0.2446 -0.6050
   69TMC2    C4 1052   0.071   4.186  12.598 -0.0349  0.2898 -0.0809
   69TMC2    C5 1053   0.036   4.268  12.494 -0.6081 -0.2128 -0.0718
   69TMC2    C6 1054   4.636   4.326  12.499 -0.3028 -0.0024  0.0756
   69TMC2     C 1055   0.016   4.055  12.799 -0.7465  0.9187  0.2295
   69TMC2     O 1056   4.653   4.028  12.880 -0.3904  0.6538 -0.1310
   69TMC2     H 1057   4.540   4.222  12.805  0.9613  0.6052  0.8978
   69TMC2    H1 1058   0.160   4.125  12.587 -0.5335 -0.4712  0.0280
   69TMC2    H2 1059   4.593   4.364  12.407 -0.0097  0.3196  0.0728
   69TMC2    C7 1060   0.089   4.206  12.367  0.0353  0.3115 -0.6326
   69TMC2    C8 1061   4.435   4.397  12.616  0.1235  0.2080 -0.0541
   69TMC2    O1 1062   0.186   4.134  12.372 -0.0667  0.1283 -0.3655
   69TMC2    O2 1063   4.404   4.455  12.512 -0.2786 -0.1137  0.2397
   69TMC2    O5 1064   4.345   4.343  12.695 -0.3834  0.4682  0.2719
   69TMC2    H5 1065   4.374   4.315  12.785  1.4289 -1.2670 -0.8539
   70MPD2     C 1066   0.339   3.890  12.848 -0.1298 -0.1445  0.4974
   70MPD2    C1 1067   0.200   3.896  12.839 -0.4117 -0.5223 -0.8503
   70MPD2    C2 1068   0.124   3.780  12.855  0.3744  0.2073 -0.4933
   70MPD2    C3 1069   0.191   3.660  12.880  0.5172 -0.2819  0.1828
   70MPD2    C4 1070   0.326   3.655  12.900 -0.2161 -0.8574 -1.0858
   70MPD2    C5 1071   0.402   3.774  12.885  0.2110  0.3250 -0.2243
   70MPD2     H 1072   0.016   3.790  12.850  0.2995 -0.3952 -0.1057
   70MPD2    H1 1073   0.382   3.565  12.922  0.0713  0.1661  2.3850
   70MPD2    H2 1074   0.405   3.974  12.831 -1.2924  0.5290 -0.7337
   70MPD2    H3 1075   0.508   3.766  12.909  0.5159  0.3436 -1.5617
   70MPD2     N 1076   0.113   3.542  12.909  0.3824  0.7416  0.3732
   70MPD2    H5 1077   0.168   3.457  12.926  0.8331  0.6124 -1.7390
   70MPD2    N1 1078   0.144   4.010  12.776  0.1724 -0.0703 -0.2508
   70MPD2    H7 1079   0.206   4.076  12.730 -0.2138 -0.1648 -0.9141
   71TMC2    C1 1080   2.912   4.444   1.684 -0.1257  0.0291 -0.4432
   71TMC2    C2 1081   3.033   4.394   1.727 -0.2125  0.2396 -0.1068
   71TMC2    C3 1082   3.041   4.323   1.842  0.1048  0.1260  1.0445
   71TMC2    C4 1083   2.801   4.413   1.755 -0.2697 -0.2985  0.6676
   71TMC2    C5 1084   2.812   4.356   1.883 -0.6701 -0.1457  0.0768
   71TMC2    C6 1085   2.937   4.319   1.931  0.4605  0.5171 -0.4562
   71TMC2     C 1086   2.909   4.528   1.564 -0.0628 -0.3297  0.0710
   71TMC2     O 1087   2.798   4.555   1.522  0.5222 -0.0912 -0.1628
   71TMC2     H 1088   3.113   4.384   1.654 -1.1515 -0.6388 -1.0274
   71TMC2    H1 1089   2.714   4.467   1.721  0.2653 -0.8278 -1.5194
   71TMC2    H2 1090   2.940   4.269   2.027  2.2539  0.3823 -0.5762
   71TMC2    C7 1091   2.701   4.370   1.977 -0.3908  0.3766  0.0889
   71TMC2    C8 1092   3.162   4.253   1.870  0.1245  0.0039  0.2465
   71TMC2    O1 1093   2.726   4.388   2.095 -0.0620 -0.0227 -0.2973
   71TMC2    O2 1094   3.270   4.274   1.813  0.3195  0.2191 -0.2153
   71TMC2    O5 1095   3.148   4.149   1.956  0.1636  0.3043 -0.3677
   71TMC2    H5 1096   3.055   4.130   1.981 -0.6521  0.5407 -3.2593
   72MPD2     C 1097   3.121   0.103   1.215  0.0385  0.1067  0.3065
   72MPD2    C1 1098   2.994   0.054   1.226 -0.6056 -0.7192  0.2712
   72MPD2    C2 1099   2.958   4.709   1.340 -0.0754 -0.4177  0.0986
   72MPD2    C3 1100   3.052   4.683   1.444  0.0441 -0.0919  0.4123
   72MPD2    C4 1101   3.176   0.012   1.432  0.8846  0.8637 -0.3269
   72MPD2    C5 1102   3.211   0.082   1.316  0.1456 -0.3997  0.6936
   72MPD2     H 1103   2.859   4.666   1.335 -0.1809 -0.0777 -0.8460
   72MPD2    H1 1104   3.252   4.715   1.505  1.6216  0.1980 -1.3061
   72MPD2    H2 1105   3.154   0.159   1.129  1.6201  2.1051  2.1977
   72MPD2    H3 1106   3.313   0.117   1.308  0.2753 -1.3653 -1.8185
   72MPD2     N 1107   3.026   4.592   1.551  0.2632  0.2790  0.2879
   72MPD2    H5 1108   3.099   4.574   1.619  1.5867  0.6724 -1.0343
   72MPD2    N1 1109   2.894   0.058   1.124  0.2490  0.1977 -0.6518
   72MPD2    H7 1110   2.813   0.000   1.144  1.4653 -0.7676  1.4899
   73TMC2    C1 1111   1.487   1.238  14.030 -0.0557  0.2175 -0.5211
   73TMC2    C2 1112   1.432   1.315  14.136  0.9831  0.2028 -0.4542
   73TMC2    C3 1113   1.516   1.341  14.241 -0.6304  0.1163 -0.5134
   73TMC2    C4 1114   1.621   1.200  14.029 -0.0220  0.1888  0.1333
   73TMC2    C5 1115   1.706   1.248  14.130 -0.0967  0.3660  0.0566
   73TMC2    C6 1116   1.651   1.303  14.244 -0.4866 -0.4721 -0.3934
   73TMC2     C 1117   1.450   1.275  13.896  0.2915  0.7364  0.1083
   73TMC2     O 1118   1.542   1.304  13.819 -0.3254  0.4245  0.2849
   73TMC2     H 1119   1.329   1.349  14.131  0.5442 -0.8549  1.4485
   73TMC2    H1 1120   1.660   1.140  13.948  1.8731  2.7739 -0.8704
   73TMC2    H2 1121   1.718   1.353  14.313 -0.0368  0.0136 -1.1832
   73TMC2    C7 1122   1.828   1.315  14.077  0.1879  0.0740 -0.6130
   73TMC2    C8 1123   1.470   1.443  14.333 -0.0255  0.0571  0.1812
   73TMC2    O1 1124   1.911   1.358  14.156 -0.3760 -0.6008  0.1296
   73TMC2    O2 1125   1.364   1.509  14.315 -0.0574  0.1060  0.2158
   73TMC2    O5 1126   1.510   1.398  14.453  0.3780 -0.5740 -0.4298
   73TMC2    H5 1127   1.587   1.337  14.458  0.5733 -0.3402 -0.5568
   74MPD2     C 1128   1.138   1.412  13.517 -0.3177  0.4870 -0.6310
   74MPD2    C1 1129   1.270   1.440  13.547  0.5147 -0.9198 -0.3075
   74MPD2    C2 1130   1.321   1.399  13.667  0.0839  0.4751  0.0843
   74MPD2    C3 1131   1.251   1.329  13.760 -0.8919 -0.1574  0.0925
   74MPD2    C4 1132   1.119   1.307  13.734  0.0416 -0.0745  0.2646
   74MPD2    C5 1133   1.063   1.351  13.611 -0.6475 -0.5414  1.1749
   74MPD2     H 1134   1.423   1.430  13.684  0.4700 -1.3512  1.0572
   74MPD2    H1 1135   1.058   1.246  13.800  0.2510 -0.1182  0.4175
   74MPD2    H2 1136   1.098   1.439  13.420 -0.7329  2.3820  0.0554
   74MPD2    H3 1137   0.963   1.314  13.591  0.3142 -1.5611 -1.7589
   74MPD2     N 1138   1.315   1.281  13.873  0.1972  0.1746  0.3711
   74MPD2    H5 1139   1.257   1.240  13.945 -1.0326  1.6492  0.2129
   74MPD2    N1 1140   1.352   1.515  13.451  0.0716  0.2429 -0.1452
   74MPD2    H7 1141   1.311   1.541  13.362  1.5937  3.2965  0.0693
   75TCq2    C1 1142   1.999   2.581  14.005  0.3088  0.5302 -0.1954
   75TCq2    O2 1143   2.000   2.624  14.121 -0.2130 -0.2693 -0.0852
   75TCq2    C2 1144   1.878   2.596  13.926 -0.1301  1.1517  0.7912
   75TCq2    C3 1145   1.764   2.566  13.988  0.4216 -0.3041 -0.4361
   75TCq2    C4 1146   1.647   2.588  13.919 -0.2776 -0.2020 -0.7144
   75TCq2    C5 1147   1.647   2.637  13.793 -0.0642  0.0878 -0.3731
   75TCq2    C6 1148   1.769   2.667  13.731  0.0329 -0.6417  0.7299
   75TCq2    C7 1149   1.887   2.639  13.794  0.0181 -0.5124 -0.0949
   75TCq2    C8 1150   1.761   2.722  13.600 -0.8049  0.3628 -0.3923
   75TCq2    O4 1151   1.857   2.704  13.525  0.1235 -0.3012 -0.0448
   75TCq2    C9 1152   1.520   2.546  13.969  1.0020 -0.4074  0.4338
   75TCq2    O5 1153   1.418   2.584  13.905 -0.1401 -0.4437  0.2023
   75TCq2    O6 1154   1.516   2.482  14.077  0.0840 -0.2753 -0.0126
   75TCq2    H2 1155   1.765   2.536  14.092  0.4472 -1.0219 -0.6374
   75TCq2    H3 1156   1.564   2.621  13.725 -0.8602 -0.2099  0.6709
   75TCq2    H4 1157   1.978   2.672  13.746  0.9087  0.5094  2.3125
   76MPD2     C 1158   0.856   3.480  12.159 -0.1042  0.0484 -0.3964
   76MPD2    C1 1159   0.821   3.455  12.034 -0.3288 -0.2122 -0.3869
   76MPD2    C2 1160   0.855   3.337  11.973 -0.1005 -0.5880 -0.7205
   76MPD2    C3 1161   0.923   3.245  12.046 -0.0596 -0.2301 -0.5589
   76MPD2    C4 1162   0.959   3.273  12.179  0.4621  0.7275  0.9329
   76MPD2    C5 1163   0.922   3.388  12.237  0.3433  0.3079 -0.7907
   76MPD2     H 1164   0.829   3.326  11.869 -0.5590 -1.0025 -0.5648
   76MPD2    H1 1165   1.014   3.209  12.248  0.3089 -0.0636  0.3254
   76MPD2    H2 1166   0.830   3.573  12.208 -0.8524 -0.8738  1.0114
   76MPD2    H3 1167   0.961   3.413  12.335 -2.3273 -0.4361  0.4431
   76MPD2     N 1168   0.973   3.128  11.981 -0.0587  0.7132  0.1134
   76MPD2    H5 1169   1.049   3.077  12.026 -1.2193  1.6226  3.0885
   76MPD2    N1 1170   0.758   3.548  11.951 -0.2506  0.3181  0.4678
   76MPD2    H7 1171   0.708   3.514  11.869  0.4424 -2.3764  1.1404
   77TCq2    C1 1172   0.925   3.082  11.860 -0.7413  0.5175  0.7533
   77TCq2    O2 1173   0.831   3.115  11.789 -0.8180  0.5413 -0.2135
   77TCq2    C2 1174   1.006   2.987  11.789  0.3719 -0.5105 -0.1530
   77TCq2    C3 1175   1.001   2.982  11.648 -0.8475 -0.7175 -0.5132
   77TCq2    C4 1176   1.100   2.912  11.580 -0.9674  0.1373 -0.0469
   77TCq2    C5 1177   1.203   2.856  11.646  0.5611  0.7667  0.1808
   77TCq2    C6 1178   1.208   2.865  11.786  0.3884  0.4382  0.1302
   77TCq2    C7 1179   1.107   2.924  11.857  0.5560  0.4460 -0.6505
   77TCq2    C8 1180   1.324   2.781  11.848 -0.1622  0.4743  0.2451
   77TCq2    O4 1181   1.384   2.705  11.773 -0.0559 -0.0437  0.2186
   77TCq2    C9 1182   1.097   2.909  11.437  0.6152 -0.0974 -0.3333
   77TCq2    O5 1183   0.986   2.944  11.382  0.0534 -0.1494 -0.5460
   77TCq2    O6 1184   1.197   2.860  11.376  0.1766 -0.7561  0.3607
   77TCq2    H2 1185   0.925   3.039  11.596 -0.3466  0.0593 -0.3945
   77TCq2    H3 1186   1.280   2.797  11.596  0.2182 -0.4330  1.0718
   77TCq2    H4 1187   1.094   2.905  11.963  1.7720 -1.7022 -0.8865
   78MPD1     C 1188   2.240   1.918   1.820  0.0477 -0.0598  0.4258
   78MPD1    C1 1189   2.369   1.870   1.796 -0.4532  0.2082 -0.0409
   78MPD1    C2 1190   2.469   1.919   1.876  0.5371 -0.3968 -0.8023
   78MPD1    C3 1191   2.454   2.006   1.982  0.3831  0.6001 -0.7320
   78MPD1    C4 1192   2.323   2.054   1.999  0.7023  0.0723  0.1588
   78MPD1    C5 1193   2.218   2.013   1.923 -0.4942 -0.0864 -0.0401
   78MPD1     H 1194   2.562   1.884   1.832  0.9187  0.1962 -0.4571
   78MPD1    H1 1195   2.308   2.117   2.086 -1.4314  0.8633 -0.7967
   78MPD1    H2 1196   2.161   1.901   1.748 -0.8485 -1.4400  1.7425
   78MPD1    H3 1197   2.120   2.051   1.949 -1.2203 -3.4697  2.2376
   78MPD1     N 1198   2.565   2.052   2.057 -0.0372 -0.0730  0.6390
   78MPD1    H5 1199   2.545   2.124   2.126 -1.6491 -1.5741  1.7344
   78MPD1    N1 1200   2.388   1.806   1.674 -0.3219 -0.6243  0.0329
   78MPD1    H6 1201   2.478   1.759   1.673 -0.0055  0.0042 -2.5317
   78MPD1    H7 1202   2.308   1.750   1.642 -0.0881 -0.5564 -0.6779
   79TCq2    C1 1203   2.690   1.993   2.046  0.0832  0.7164  0.5939
   79TCq2    O2 1204   2.731   1.899   1.982 -0.0592 -0.5119 -0.6715
   79TCq2    C2 1205   2.786   2.055   2.134 -0.3997 -0.0057 -0.6843
   79TCq2    C3 1206   2.738   2.120   2.244 -0.7718 -0.1228  0.1491
   79TCq2    C4 1207   2.820   2.222   2.294 -0.3343  0.3443 -1.2072
   79TCq2    C5 1208   2.951   2.229   2.256 -1.2512  0.1036 -0.0221
   79TCq2    C6 1209   3.000   2.151   2.156 -0.0584  0.0487 -0.1391
   79TCq2    C7 1210   2.911   2.077   2.087  0.1431 -0.5720  0.2125
   79TCq2    C8 1211   3.138   2.154   2.114  0.3711  0.7184 -0.9571
   79TCq2    O4 1212   3.203   2.251   2.152 -0.6062  0.7463  0.2826
   79TCq2    C9 1213   2.776   2.299   2.399 -0.6393  0.7277  0.1289
   79TCq2    O5 1214   2.652   2.304   2.423  0.2365  0.8993  0.3032
   79TCq2    O6 1215   2.853   2.395   2.440  0.4595  0.2348  0.0261
   79TCq2    H2 1216   2.636   2.124   2.278 -1.2330  0.8906 -1.3476
   79TCq2    H3 1217   3.020   2.286   2.316 -0.8367  1.0245 -1.3852
   79TCq2    H4 1218   2.935   2.043   1.987  2.7149  1.5583  0.0917
   80MPD2     C 1219   0.155   3.165  11.984 -0.0517 -0.4495  0.5746
   80MPD2    C1 1220   0.024   3.186  11.937  0.7235 -0.0776  0.6147
   80MPD2    C2 1221   4.666   3.274  12.006 -0.3637  0.4981 -0.4165
   80MPD2    C3 1222   4.714   3.336  12.120  0.1372 -0.1829 -0.0504
   80MPD2    C4 1223   0.112   3.303  12.165 -0.4688 -0.9066  0.6085
   80MPD2    C5 1224   0.194   3.216  12.104  0.2229 -0.3339  0.0635
   80MPD2     H 1225   4.567   3.301  11.971 -1.0807 -0.2034  1.0601
   80MPD2    H1 1226   0.137   3.336  12.265  0.5557  1.7189 -0.5175
   80MPD2    H2 1227   0.228   3.100  11.938 -2.3708 -1.9299 -1.0331
   80MPD2    H3 1228   0.289   3.189  12.149  0.5112 -0.2299 -0.4781
   80MPD2     N 1229   4.631   3.418  12.206 -0.3403 -0.2889  0.4380
   80MPD2    H5 1230   4.670   3.457  12.291  2.3765  1.9519 -1.8402
   80MPD2    N1 1231   4.712   3.120  11.814  0.0613 -0.2367  0.2525
   80MPD2    H7 1232   4.611   3.108  11.811  0.0052 -0.2190  2.0315
   81TCq2    C1 1233   0.072   3.089  11.708 -0.5220 -0.0703 -0.4877
   81TCq2    O2 1234   0.178   3.133  11.676 -0.2130 -0.8026 -0.1354
   81TCq2    C2 1235   0.029   2.972  11.628  0.5316  0.1246  0.0534
   81TCq2    C3 1236   0.087   2.950  11.503 -0.1905  0.1190 -0.3958
   81TCq2    C4 1237   0.068   2.823  11.441  0.4229  0.4973  0.0082
   81TCq2    C5 1238   4.709   2.735  11.497  0.7959  0.6096 -0.3524
   81TCq2    C6 1239   4.652   2.768  11.618  0.4256  0.2352  1.0551
   81TCq2    C7 1240   4.681   2.875  11.691  0.5267  0.9480  0.3066
   81TCq2    C8 1241   4.566   2.667  11.679  0.5738 -0.1197  0.0129
   81TCq2    O4 1242   4.533   2.584  11.595 -0.1055  0.4828  0.1182
   81TCq2    C9 1243   0.110   2.794  11.308  0.3408  0.0103 -0.2694
   81TCq2    O5 1244   0.091   2.677  11.257 -0.2140 -0.9718 -0.1351
   81TCq2    O6 1245   0.179   2.884  11.260  0.2400  0.1159 -0.2042
   81TCq2    H2 1246   0.151   3.025  11.459  3.3400 -2.5409  0.2285
   81TCq2    H3 1247   4.676   2.647  11.443 -1.2810  1.5559 -0.6192
   81TCq2    H4 1248   4.625   2.896  11.782 -3.0583 -3.0005 -0.9733
   82MPD2     C 1249   3.015   2.301  10.898  0.4898 -0.0415 -0.1763
   82MPD2    C1 1250   2.947   2.190  10.868 -0.1049 -1.1777 -0.2134
   82MPD2    C2 1251   3.020   2.071  10.879  0.0572 -0.0441 -0.7531
   82MPD2    C3 1252   3.144   2.065  10.935 -0.8554  0.4275  0.3473
   82MPD2    C4 1253   3.209   2.182  10.965  0.6096 -0.2228 -0.3795
   82MPD2    C5 1254   3.147   2.300  10.945 -0.1187  0.2193 -0.3299
   82MPD2     H 1255   2.967   1.982  10.845 -1.7179  0.4162  0.8277
   82MPD2    H1 1256   3.310   2.177  11.005  0.5544 -5.0544 -0.7467
   82MPD2    H2 1257   2.961   2.394  10.893 -1.6007 -1.2860 -0.6129
   82MPD2    H3 1258   3.211   2.387  10.961 -0.8391  0.1407  3.1294
   82MPD2     N 1259   3.221   1.946  10.957  0.0112  0.1247  0.3750
   82MPD2    H5 1260   3.295   1.957  11.026 -1.4008  1.6072  1.6289
   82MPD2    N1 1261   2.813   2.201  10.821 -0.4604  0.4534  0.3211
   82MPD2    H7 1262   2.773   2.294  10.824  1.0854  1.0404  2.4198
   83TCq2    C1 1263   3.169   1.823  10.922  0.4136  0.4510 -0.7119
   83TCq2    O2 1264   3.080   1.798  10.843 -0.0825 -0.1915 -0.4724
   83TCq2    C2 1265   3.220   1.713  10.997 -0.1167  0.8596  0.1592
   83TCq2    C3 1266   3.340   1.723  11.054  0.7218 -0.8208  0.2808
   83TCq2    C4 1267   3.383   1.621  11.134 -0.4544  0.0714  0.3583
   83TCq2    C5 1268   3.299   1.522  11.177 -0.3765  0.4374  0.5185
   83TCq2    C6 1269   3.173   1.514  11.120  0.1613 -0.5322  1.3853
   83TCq2    C7 1270   3.132   1.609  11.026  0.3110  0.5776  0.1988
   83TCq2    C8 1271   3.058   1.435  11.187 -0.5940 -0.2026 -0.2922
   83TCq2    O4 1272   3.079   1.409  11.306  0.1751  0.0576 -0.5786
   83TCq2    C9 1273   3.506   1.642  11.206 -0.0914  0.4992  0.4630
   83TCq2    O5 1274   3.544   1.541  11.268 -0.1424 -0.0775 -1.3681
   83TCq2    O6 1275   3.540   1.763  11.217  0.0569 -0.0896 -0.1134
   83TCq2    H2 1276   3.413   1.798  11.023  2.6743 -2.0479  1.9075
   83TCq2    H3 1277   3.333   1.458  11.259  1.3303  1.6718  0.7779
   83TCq2    H4 1278   3.032   1.604  10.984  0.7885 -0.6266 -0.8003
   84TCq2    C1 1279   3.775   0.942  10.736 -0.0040 -0.9034 -0.1553
   84TCq2    O2 1280   3.711   1.038  10.701  0.1481 -0.8863 -0.6048
   84TCq2    C2 1281   3.809   0.920  10.880 -0.3238 -0.0071  0.5000
   84TCq2    C3 1282   3.876   0.807  10.918  0.1396  0.2424 -0.4911
   84TCq2    C4 1283   3.897   0.792  11.050 -0.0182 -0.4460 -0.6587
   84TCq2    C5 1284   3.872   0.890  11.136  0.4783 -0.0048  0.7001
   84TCq2    C6 1285   3.811   1.006  11.096 -0.0473  0.4434  0.2393
   84TCq2    C7 1286   3.779   1.023  10.965  0.3752 -0.2233  0.2657
   84TCq2    C8 1287   3.781   1.118  11.193  0.8140  0.1348 -0.0766
   84TCq2    O4 1288   3.727   1.213  11.142  0.8053  0.1551  0.5306
   84TCq2    C9 1289   3.950   0.659  11.093 -0.3776 -0.3721 -0.1473
   84TCq2    O5 1290   4.002   0.652  11.211 -0.1351  0.2260  0.3680
   84TCq2    O6 1291   3.944   0.567  11.012  0.2091 -0.2334 -0.1037
   84TCq2    H2 1292   3.900   0.730  10.845 -0.3329  0.3108 -0.7174
   84TCq2    H3 1293   3.909   0.872  11.236  1.0402 -1.3860  0.2470
   84TCq2    H4 1294   3.745   1.119  10.928  0.4824  0.2919  1.4975
   85MPD2     C 1295   4.165   4.202  16.269 -0.5206  0.2452 -1.1989
   85MPD2    C1 1296   4.212   4.158  16.147 -0.1206 -0.1273 -0.2822
   85MPD2    C2 1297   4.280   4.242  16.066 -0.3328  0.1345  0.6063
   85MPD2    C3 1298   4.300   4.373  16.104  0.1604  0.1885  0.6924
   85MPD2    C4 1299   4.259   4.415  16.229  1.0032 -0.1114  0.0565
   85MPD2    C5 1300   4.181   4.332  16.306  0.6539  0.0085  0.2465
   85MPD2     H 1301   4.312   4.209  15.968 -1.6980 -2.0479  0.8926
   85MPD2    H1 1302   4.273   4.513  16.272  0.2196  0.3320 -0.7119
   85MPD2    H2 1303   4.105   4.136  16.330 -2.5840  1.6083 -1.7387
   85MPD2    H3 1304   4.152   4.360  16.406  0.4570 -2.5459  0.8972
   85MPD2     N 1305   4.373   4.459  16.023 -0.5253  0.4757  0.5779
   85MPD2    H5 1306   4.421   4.419  15.943 -0.1140 -0.4463  1.2903
   85MPD2    N1 1307   4.196   4.023  16.109 -0.1714 -0.1948 -0.0973
   85MPD2    H7 1308   4.232   3.991  16.019 -1.8097 -0.5959 -0.6049
   86TCq2    C1 1309   4.355   4.600  16.018 -0.1160 -0.7188  0.5522
   86TCq2    O2 1310   4.282   4.670  16.086 -0.7576  0.2190  0.0603
   86TCq2    C2 1311   4.452   4.678  15.945 -0.8514 -0.3956  0.6459
   86TCq2    C3 1312   4.422   0.086  15.931  0.0284 -0.0291 -0.4330
   86TCq2    C4 1313   4.517   0.170  15.872  0.4378 -0.6348  0.2142
   86TCq2    C5 1314   4.634   0.115  15.828 -1.3061 -0.0260 -0.2973
   86TCq2    C6 1315   4.656   4.713  15.831 -0.3508  0.6125  0.1224
   86TCq2    C7 1316   4.575   4.631  15.898  0.0669 -0.7539 -0.0782
   86TCq2    C8 1317   0.021   4.645  15.735 -0.3773 -0.0359 -0.0162
   86TCq2    O4 1318   0.061   4.535  15.777 -0.3594 -0.2918  0.0458
   86TCq2    C9 1319   4.487   0.313  15.870 -0.3076  0.1361 -0.4495
   86TCq2    O5 1320   4.552   0.380  15.783  0.0105 -0.2608  0.0808
   86TCq2    O6 1321   4.414   0.360  15.966 -0.1593 -0.1670  0.1102
   86TCq2    H2 1322   4.327   0.122  15.968 -0.6633  0.1997 -2.4071
   86TCq2    H3 1323   4.714   0.176  15.786  0.2845 -0.6405  1.8298
   86TCq2    H4 1324   4.589   4.524  15.889  1.3659 -0.6886  1.1237
   87MPD2     C 1325   1.477   2.622   1.369 -0.7591  0.3569 -0.1783
   87MPD2    C1 1326   1.583   2.707   1.375  0.8808 -0.0874 -0.1803
   87MPD2    C2 1327   1.560   2.845   1.379 -0.0441 -0.3669 -0.9565
   87MPD2    C3 1328   1.429   2.889   1.359 -1.2396  0.7909 -0.1092
   87MPD2    C4 1329   1.326   2.800   1.344  1.1780 -0.3812  0.3585
   87MPD2    C5 1330   1.348   2.661   1.356  0.0752 -0.3649  0.4506
   87MPD2     H 1331   1.643   2.914   1.366 -1.4327  1.4444 -0.3296
   87MPD2    H1 1332   1.223   2.833   1.335  0.8482 -1.8237 -1.2347
   87MPD2    H2 1333   1.493   2.515   1.383 -1.1626  0.1153 -1.5258
   87MPD2    H3 1334   1.273   2.583   1.352 -0.7512  0.3911  1.3601
   87MPD2     N 1335   1.398   3.019   1.330 -0.3161 -0.4825 -0.6509
   87MPD2    H5 1336   1.303   3.040   1.302  0.2760 -2.0719 -3.8276
   87MPD2    N1 1337   1.710   2.656   1.392 -0.2344 -0.3148 -0.3107
   87MPD2    H7 1338   1.713   2.555   1.402  0.0791 -0.4557 -1.8102
   88TCq2    C1 1339   1.822   2.728   1.417  0.0237  0.1339 -0.4953
   88TCq2    O2 1340   1.828   2.846   1.449  0.3793 -0.3427 -0.1080
   88TCq2    C2 1341   1.940   2.645   1.426  0.4373  0.3100  0.1200
   88TCq2    C3 1342   2.042   2.692   1.505 -0.8354 -0.3574 -0.0247
   88TCq2    C4 1343   2.147   2.604   1.528  0.0161  0.5084 -0.3816
   88TCq2    C5 1344   2.163   2.493   1.455  0.4981  0.3942 -0.0898
   88TCq2    C6 1345   2.070   2.465   1.356  0.4340  0.0848  0.0744
   88TCq2    C7 1346   1.951   2.533   1.353  0.0133 -0.2622  0.2286
   88TCq2    C8 1347   2.130   2.425   1.226  1.4199 -0.2333 -0.4423
   88TCq2    O4 1348   2.250   2.404   1.227  0.0335 -0.2288 -0.5792
   88TCq2    C9 1349   2.258   2.646   1.618 -0.6914  0.2665 -0.7314
   88TCq2    O5 1350   2.360   2.575   1.629 -0.4964  0.0955 -0.0781
   88TCq2    O6 1351   2.246   2.758   1.669 -0.4313 -0.9002 -0.6981
   88TCq2    H2 1352   2.029   2.783   1.563 -0.4813  0.4689 -1.2407
   88TCq2    H3 1353   2.262   2.448   1.452 -0.1708 -0.8723 -3.0106
   88TCq2    H4 1354   1.875   2.517   1.277  2.0389 -0.8902 -1.6797
   89MPD2     C 1355   3.165   0.179   2.155  0.2144  0.3369  0.1549
   89MPD2    C1 1356   3.045   0.242   2.130  0.0494 -0.4916  0.6446
   89MPD2    C2 1357   3.032   0.355   2.060  0.4893  0.7686 -0.3951
   89MPD2    C3 1358   3.148   0.396   1.992 -0.3612 -0.0353  0.2286
   89MPD2    C4 1359   3.266   0.332   2.013 -0.1321 -0.2803 -0.6180
   89MPD2    C5 1360   3.278   0.228   2.100 -0.0120  0.0848 -0.7438
   89MPD2     H 1361   2.935   0.402   2.050  0.9405  1.8425  0.2390
   89MPD2    H1 1362   3.363   0.361   1.974  0.6129  0.4667  1.8483
   89MPD2    H2 1363   3.169   0.084   2.205 -2.7306 -0.0894 -0.4003
   89MPD2    H3 1364   3.371   0.178   2.126 -0.0988 -0.0529 -0.6969
   89MPD2     N 1365   3.138   0.506   1.908  0.1693  0.0306  0.1324
   89MPD2    H5 1366   3.051   0.557   1.915  0.5119  0.5967  0.3445
   89MPD2    N1 1367   2.927   0.188   2.188  0.4088 -0.3515  0.3035
   89MPD2    H7 1368   2.839   0.233   2.167  0.2049 -0.5346  0.7750
   90TCq2    C1 1369   3.219   0.536   1.804  0.2085  0.5544 -0.5391
   90TCq2    O2 1370   3.316   0.474   1.767  0.5380  0.1621  0.3869
   90TCq2    C2 1371   3.164   0.648   1.725 -0.2286 -0.4281  0.6372
   90TCq2    C3 1372   3.035   0.694   1.749  0.5934 -0.5517  0.1176
   90TCq2    C4 1373   2.977   0.781   1.659 -0.5993 -0.0393  0.0180
   90TCq2    C5 1374   3.052   0.819   1.549  0.2167 -0.8132  0.4350
   90TCq2    C6 1375   3.179   0.776   1.532 -0.6652  0.5032 -0.2404
   90TCq2    C7 1376   3.234   0.684   1.609  0.0088 -0.4332 -0.3375
   90TCq2    C8 1377   3.254   0.821   1.419 -0.1412  0.6457  0.5383
   90TCq2    O4 1378   3.376   0.799   1.418 -0.0037  0.7998 -0.1793
   90TCq2    C9 1379   2.834   0.810   1.669  0.5642 -0.2790  1.1773
   90TCq2    O5 1380   2.779   0.799   1.783 -0.1511 -0.3234 -0.2825
   90TCq2    O6 1381   2.785   0.865   1.570  0.4085  0.4563  0.3052
   90TCq2    H2 1382   2.978   0.678   1.840  0.8241  2.0216  0.7372
   90TCq2    H3 1383   3.004   0.881   1.474 -1.2913  0.5082  2.5036
   90TCq2    H4 1384   3.342   0.674   1.608 -0.1730 -2.5599  0.0974
   91TMC2    C1 1385   4.554   0.241  16.682  0.6053 -0.0725 -0.5709
   91TMC2    C2 1386   4.588   0.339  16.592 -0.0830  0.0732 -0.5590
   91TMC2    C3 1387   4.498   0.401  16.518 -0.3669 -0.2526 -0.4633
   91TMC2    C4 1388   4.429   0.194  16.684  0.3693 -0.6191 -0.1552
   91TMC2    C5 1389   4.339   0.260  16.603 -0.0292  0.4982 -0.0769
   91TMC2    C6 1390   4.370   0.358  16.514  0.2429 -0.1585  0.0722
   91TMC2     C 1391   4.651   0.135  16.702  0.1881 -0.5558 -0.4757
   91TMC2     O 1392   4.601   0.027  16.700  0.0880 -0.0395 -0.4478
   91TMC2     H 1393   4.690   0.359  16.560 -0.1782  0.0758 -0.8604
   91TMC2    H1 1394   4.395   0.121  16.755  1.1104 -0.1723  0.6517
   91TMC2    H2 1395   4.291   0.409  16.461  1.0606  0.1503 -0.8461
   91TMC2    C7 1396   4.196   0.230  16.626  0.2594 -0.6084 -0.7197
   91TMC2    C8 1397   4.547   0.517  16.441 -0.2351  0.3850  0.4008
   91TMC2    O1 1398   4.167   0.179  16.736 -0.2012  0.4714 -0.1254
   91TMC2    O2 1399   4.653   0.557  16.491 -0.4227 -0.3166 -0.1004
   91TMC2    O5 1400   4.451   0.580  16.372 -0.0028 -0.7586 -0.1219
   91TMC2    H5 1401   4.391   0.515  16.329 -0.1140  0.5194 -1.9160
   92MPD2     C 1402   0.160   4.681  16.694 -0.0870 -0.5258 -0.9057
   92MPD2    C1 1403   0.168   0.088  16.717 -0.3963 -0.2774  0.7771
   92MPD2    C2 1404   0.290   0.153  16.732  0.4547  0.7311 -0.1206
   92MPD2    C3 1405   0.410   0.076  16.723 -0.0442  0.6094 -0.0613
   92MPD2    C4 1406   0.404   4.663  16.709  0.0945  0.0053 -0.0411
   92MPD2    C5 1407   0.279   4.611  16.691 -0.1063  0.3553 -0.3361
   92MPD2     H 1408   0.295   0.260  16.742 -2.7853  1.0118 -1.5331
   92MPD2    H1 1409   0.491   4.599  16.696  0.0566  0.2703 -1.6288
   92MPD2    H2 1410   0.061   4.636  16.695 -1.9851  3.6724 -0.8817
   92MPD2    H3 1411   0.274   4.506  16.664  0.1309  0.1029  0.6116
   92MPD2     N 1412   0.532   0.144  16.734 -0.1511  0.2244 -0.3044
   92MPD2    H5 1413   0.526   0.245  16.736  1.5653  0.3123  0.3319
   92MPD2    N1 1414   0.057   0.175  16.712  0.3742 -0.6326 -0.0622
   92MPD2    H7 1415   0.075   0.274  16.726  1.5775 -0.5764 -1.9115
   93MPD2     C 1416   1.338   0.488  14.046  0.0706 -0.5810 -0.6953
   93MPD2    C1 1417   1.300   0.592  14.127 -0.2757 -0.9421  0.3817
   93MPD2    C2 1418   1.169   0.603  14.167 -0.4341  0.1210 -0.8668
   93MPD2    C3 1419   1.072   0.515  14.124 -0.3803 -0.7030 -1.4826
   93MPD2    C4 1420   1.110   0.402  14.054  0.0494  0.1952 -0.0933
   93MPD2    C5 1421   1.239   0.394  14.016  0.4424 -0.1667 -0.4446
   93MPD2     H 1422   1.139   0.678  14.239  0.4795  1.7496 -2.1488
   93MPD2    H1 1423   1.040   0.329  14.015  1.5249 -1.9651  1.2951
   93MPD2    H2 1424   1.437   0.467  14.008  0.8938  0.3930  0.8671
   93MPD2    H3 1425   1.284   0.313  13.960  0.1310 -0.3440 -0.4364
   93MPD2     N 1426   0.935   0.537  14.137  0.5104  0.0251 -0.2728
   93MPD2    H5 1427   0.883   0.467  14.086 -2.0383  2.2689 -0.7405
   93MPD2    N1 1428   1.393   0.680  14.182 -0.2535 -0.5216 -0.2453
   93MPD2    H7 1429   1.364   0.746  14.253 -0.3925  0.1765 -0.9592
   94TCq2    C1 1430   1.524   0.694  14.136  0.0564 -0.2177  0.5273
   94TCq2    O2 1431   1.588   0.648  14.041  0.2154  0.4951  0.2524
   94TCq2    C2 1432   1.601   0.787  14.217 -0.2018 -0.1941  0.5048
   94TCq2    C3 1433   1.570   0.813  14.343 -0.4711  0.2885  0.2808
   94TCq2    C4 1434   1.658   0.888  14.414 -0.0105 -0.3465  0.6482
   94TCq2    C5 1435   1.781   0.928  14.362 -0.0960 -0.4270  0.0396
   94TCq2    C6 1436   1.803   0.896  14.232  0.1131  0.8392  0.9346
   94TCq2    C7 1437   1.719   0.829  14.154 -0.4604  0.0020  0.2360
   94TCq2    C8 1438   1.940   0.929  14.185 -0.2171 -0.1492 -0.3695
   94TCq2    O4 1439   2.028   0.965  14.263  0.3507 -0.4542  0.0146
   94TCq2    C9 1440   1.636   0.903  14.552 -0.6134  0.3058  0.3327
   94TCq2    O5 1441   1.709   0.987  14.611  0.0588  0.6746 -0.2852
   94TCq2    O6 1442   1.531   0.844  14.598 -0.2037  0.3078  0.4374
   94TCq2    H2 1443   1.481   0.774  14.391 -0.0386 -1.6386 -0.4966
   94TCq2    H3 1444   1.856   0.974  14.425 -0.2105 -1.7204  1.1246
   94TCq2    H4 1445   1.762   0.785  14.065 -0.9432  0.0814 -0.0356
   95TMC2    C1 1446   1.817   1.454  15.824  0.5024  0.8058  0.1515
   95TMC2    C2 1447   1.895   1.374  15.903  0.4785  0.5260 -0.2285
   95TMC2    C3 1448   1.831   1.266  15.966 -0.8310  0.2017 -0.8121
   95TMC2    C4 1449   1.686   1.419  15.788 -0.1342  0.0184  0.3006
   95TMC2    C5 1450   1.627   1.307  15.842  0.0286 -0.6669  0.4321
   95TMC2    C6 1451   1.698   1.232  15.936  0.9049 -0.4341 -0.1650
   95TMC2     C 1452   1.869   1.574  15.767 -0.0375 -0.8351  0.6430
   95TMC2     O 1453   1.987   1.598  15.782  0.1161  0.2754 -0.3480
   95TMC2     H 1454   2.002   1.389  15.911  0.5609 -0.1448 -0.0237
   95TMC2    H1 1455   1.642   1.467  15.701  0.0919  0.9974  0.7181
   95TMC2    H2 1456   1.654   1.139  15.969 -1.8896  0.6594 -0.8200
   95TMC2    C7 1457   1.489   1.274  15.807 -0.5195  0.3120 -0.0337
   95TMC2    C8 1458   1.898   1.193  16.078 -0.2705 -0.2976 -0.3927
   95TMC2    O1 1459   1.452   1.161  15.842 -0.0874 -0.4157  0.2345
   95TMC2    O2 1460   1.843   1.105  16.135  0.4639  0.1941 -0.0377
   95TMC2    O5 1461   2.011   1.248  16.126 -0.1298  0.5098  0.1012
   95TMC2    H5 1462   2.063   1.312  16.072 -0.0951  0.2290 -0.2019
   96MPD2     C 1463   1.784   2.072  15.700 -0.1199  0.0458  0.1470
   96MPD2    C1 1464   1.875   1.989  15.643  0.3498 -0.4255 -0.2031
   96MPD2    C2 1465   1.870   1.850  15.659 -0.5387 -0.0586  0.1452
   96MPD2    C3 1466   1.773   1.803  15.731  0.7617  0.1191  0.3457
   96MPD2    C4 1467   1.676   1.883  15.782  0.0685 -0.3199 -0.1055
   96MPD2    C5 1468   1.681   2.022  15.774 -0.1834  0.2903 -0.1673
   96MPD2     H 1469   1.941   1.787  15.608  0.5927 -1.0683  2.9247
   96MPD2    H1 1470   1.605   1.839  15.850 -0.6661  0.9268 -0.0820
   96MPD2    H2 1471   1.780   2.178  15.679  0.1928  0.7181  3.3594
   96MPD2    H3 1472   1.603   2.083  15.818 -0.2052  0.9880 -1.1735
   96MPD2     N 1473   1.763   1.662  15.757  0.0106 -0.2284 -0.0835
   96MPD2    H5 1474   1.671   1.629  15.784 -0.2198 -0.9003 -1.7007
   96MPD2    N1 1475   1.979   2.061  15.575 -0.3056  0.0799 -0.1715
   96MPD2    H7 1476   1.993   2.160  15.591  1.1053  0.2037 -2.1076
   97MPD2     C 1477   3.728   4.188   1.005  0.3133 -0.3430  0.5869
   97MPD2    C1 1478   3.723   4.322   1.035 -0.1238 -0.7272 -0.5623
   97MPD2    C2 1479   3.702   4.413   0.931  0.7378 -0.0429  0.1498
   97MPD2    C3 1480   3.691   4.367   0.802 -0.0657 -0.0984  0.1081
   97MPD2    C4 1481   3.700   4.235   0.776  0.2536 -0.3431 -0.3965
   97MPD2    C5 1482   3.712   4.146   0.881  0.6365 -0.8769 -0.6448
   97MPD2     H 1483   3.688   4.517   0.958  2.6093  0.8800 -2.5008
   97MPD2    H1 1484   3.697   4.191   0.676  0.0066 -0.7058 -0.2312
   97MPD2    H2 1485   3.761   4.113   1.076  0.9518 -1.1890 -0.6092
   97MPD2    H3 1486   3.715   4.039   0.867  1.0943 -0.7848 -1.2657
   97MPD2     N 1487   3.679   4.456   0.690 -0.2918 -0.3168 -0.9853
   97MPD2    H5 1488   3.658   4.402   0.606 -2.9241 -0.8490  0.0422
   97MPD2    N1 1489   3.731   4.353   1.171  0.5206  0.1266  0.2774
   97MPD2    H7 1490   3.746   4.277   1.236  0.8927 -0.4435 -0.4734
   98TCq2    C1 1491   3.723   4.586   0.686 -0.1030 -0.1324  0.0652
   98TCq2    O2 1492   3.771   4.658   0.772 -0.1299 -0.2968 -0.1176
   98TCq2    C2 1493   3.718   4.632   0.550  0.8581 -0.4787 -0.0240
   98TCq2    C3 1494   3.629   4.580   0.463  0.0256  0.2930  0.2631
   98TCq2    C4 1495   3.627   4.617   0.335  1.1883  0.7152  1.0530
   98TCq2    C5 1496   3.718   4.709   0.295  0.0583 -0.0530  0.4327
   98TCq2    C6 1497   3.799   0.047   0.381 -0.4809  0.2353 -0.6573
   98TCq2    C7 1498   3.799   0.014   0.512  0.2412  0.2124 -0.4887
   98TCq2    C8 1499   3.838   0.178   0.353  0.2813  0.2727  0.5168
   98TCq2    O4 1500   3.930   0.222   0.419 -0.3591  0.2510 -0.1265
   98TCq2    C9 1501   3.535   4.560   0.247  0.0022 -0.1709 -0.4120
   98TCq2    O5 1502   3.458   4.472   0.287 -0.1244  0.1150  0.4570
   98TCq2    O6 1503   3.524   4.620   0.141 -0.2308  0.2564 -0.1813
   98TCq2    H2 1504   3.547   4.517   0.494 -0.8703  1.7604  0.8765
   98TCq2    H3 1505   3.720   0.000   0.188  0.1979 -1.9676  0.1227
   98TCq2    H4 1506   3.862   0.070   0.580  0.7733 -0.3969 -0.4804
   99MPD2     C 1507   2.432   1.892   2.360 -0.0785  0.2283  0.0224
   99MPD2    C1 1508   2.299   1.890   2.318 -0.2281  0.5033 -0.4916
   99MPD2    C2 1509   2.254   1.794   2.231  0.5371  0.0778  0.0310
   99MPD2    C3 1510   2.338   1.700   2.171 -0.1401 -0.7243  0.5738
   99MPD2    C4 1511   2.464   1.696   2.215 -0.3333 -0.2993  0.5973
   99MPD2    C5 1512   2.513   1.794   2.298  0.2484  0.1548  0.4499
   99MPD2     H 1513   2.148   1.786   2.210  0.4568  0.0522  0.4426
   99MPD2    H1 1514   2.537   1.626   2.175  0.2585  0.1758  0.8484
   99MPD2    H2 1515   2.476   1.962   2.430 -0.5117  0.5796 -0.0603
   99MPD2    H3 1516   2.617   1.791   2.328  1.2788  1.6756 -3.0238
   99MPD2     N 1517   2.287   1.615   2.070 -0.4150 -0.4435 -0.6086
   99MPD2    H5 1518   2.186   1.623   2.063 -0.3124  0.3690 -1.0810
   99MPD2    N1 1519   2.207   1.990   2.371  0.0040  0.2874  1.1640
   99MPD2    H7 1520   2.121   1.992   2.316  1.3026  2.0016 -0.8045
  100TCq2    C1 1521   2.231   2.078   2.475  0.3817  0.1579 -0.4767
  100TCq2    O2 1522   2.312   2.071   2.563  0.0934  0.3509 -0.2769
  100TCq2    C2 1523   2.122   2.172   2.494 -0.4304 -0.2417 -0.3199
  100TCq2    C3 1524   2.137   2.258   2.605  0.2548  0.1738  0.0639
  100TCq2    C4 1525   2.038   2.351   2.627  0.1152 -0.3530 -0.2835
  100TCq2    C5 1526   1.925   2.346   2.550  0.1120  1.1900 -0.3783
  100TCq2    C6 1527   1.916   2.265   2.437  0.8984 -0.4985 -0.0310
  100TCq2    C7 1528   2.014   2.177   2.414  0.6636 -0.0823 -0.5559
  100TCq2    C8 1529   1.809   2.295   2.339 -0.6349  0.5655 -0.6551
  100TCq2    O4 1530   1.775   2.411   2.334 -0.3138  0.4629  1.0702
  100TCq2    C9 1531   2.032   2.434   2.746 -0.2975  0.4122  0.2449
  100TCq2    O5 1532   1.950   2.530   2.754 -0.0188  0.0765 -0.0132
  100TCq2    O6 1533   2.087   2.378   2.845 -0.2367 -0.0873 -0.0103
  100TCq2    H2 1534   2.226   2.253   2.667 -0.1481 -0.7604  0.5601
  100TCq2    H3 1535   1.843   2.415   2.566  0.7587  1.7462  0.5160
  100TCq2    H4 1536   2.016   2.134   2.314 -1.4539  1.9971 -1.5039
  101MPD2     C 1537   3.647   3.371  13.199 -0.8185 -0.6681 -0.6505
  101MPD2    C1 1538   3.562   3.442  13.272  0.1008 -0.8290 -0.2362
  101MPD2    C2 1539   3.454   3.376  13.335  0.2419 -0.0054  0.3087
  101MPD2    C3 1540   3.439   3.235  13.327  0.0885  0.3082 -0.3582
  101MPD2    C4 1541   3.530   3.164  13.249  0.6152  0.1152 -0.8171
  101MPD2    C5 1542   3.633   3.234  13.187  1.0779 -0.2476  0.4275
  101MPD2     H 1543   3.385   3.438  13.392 -1.2790  0.0115 -1.5547
  101MPD2    H1 1544   3.530   3.056  13.237  0.8075 -0.0872  0.9511
  101MPD2    H2 1545   3.724   3.409  13.132  2.0272 -1.2212  2.2907
  101MPD2    H3 1546   3.713   3.196  13.125  1.3201 -1.8178  1.6991
  101MPD2     N 1547   3.343   3.174  13.408  1.0885 -0.0566 -0.0268
  101MPD2    H5 1548   3.300   3.224  13.486 -0.9945  0.5465 -1.5434
  101MPD2    N1 1549   3.586   3.584  13.275  0.2760 -0.0986 -0.7034
  101MPD2    H7 1550   3.677   3.615  13.243 -0.0330  1.1357 -0.3824
  102TCq2    C1 1551   3.748   4.028  13.096  0.6555  1.1973  0.2799
  102TCq2    O2 1552   3.845   3.964  13.074 -0.4862  0.5030  0.2105
  102TCq2    C2 1553   3.677   3.982  13.204 -0.1278 -0.0142  0.1736
  102TCq2    C3 1554   3.644   4.074  13.299 -0.4321  0.3318  0.3215
  102TCq2    C4 1555   3.562   4.031  13.400  0.4516 -0.7257 -0.5409
  102TCq2    C5 1556   3.507   3.906  13.400  0.2978  0.5266 -0.1256
  102TCq2    C6 1557   3.546   3.814  13.308  0.5431 -0.0554 -0.7552
  102TCq2    C7 1558   3.632   3.845  13.203  0.2820 -0.3068  0.3914
  102TCq2    C8 1559   3.497   3.676  13.323  0.0372 -0.0135  0.0301
  102TCq2    O4 1560   3.383   3.658  13.368 -0.1472  0.5372 -0.3254
  102TCq2    C9 1561   3.514   4.133  13.491  0.6089  0.1745  0.7164
  102TCq2    O5 1562   3.546   4.247  13.451 -0.4340  0.0656  0.3704
  102TCq2    O6 1563   3.460   4.092  13.600  0.4549 -0.2655 -0.0996
  102TCq2    H2 1564   3.692   4.170  13.315  0.4787 -0.1213  0.3297
  102TCq2    H3 1565   3.441   3.866  13.476  0.0507 -0.9143 -1.1013
  102TCq2    H4 1566   3.636   3.783  13.114 -0.2739  2.0879 -1.3055
  103TMC2    C1 1567   1.604   2.985  12.560 -0.4480 -0.1091  1.0910
  103TMC2    C2 1568   1.731   3.024  12.547 -0.7609 -0.1026  0.0538
  103TMC2    C3 1569   1.778   3.129  12.624 -0.2000 -0.1962  0.6710
  103TMC2    C4 1570   1.526   3.042  12.653 -0.4708 -0.2899  0.5932
  103TMC2    C5 1571   1.579   3.131  12.748  0.3972 -0.4827  0.3839
  103TMC2    C6 1572   1.705   3.181  12.730 -0.6391  0.6756  0.4076
  103TMC2     C 1573   1.542   2.935  12.441  0.0087 -0.6285 -0.4505
  103TMC2     O 1574   1.426   2.973  12.425 -0.5413 -0.0578 -0.5016
  103TMC2     H 1575   1.791   2.995  12.461 -1.3851  1.2281 -0.8406
  103TMC2    H1 1576   1.425   3.004  12.650  0.0742 -1.5961 -1.7209
  103TMC2    H2 1577   1.754   3.246  12.802 -1.4152 -0.6180  2.1154
  103TMC2    C7 1578   1.488   3.197  12.838  0.2863  0.1253  0.0716
  103TMC2    C8 1579   1.917   3.170  12.611 -0.3173 -0.0645  0.0608
  103TMC2    O1 1580   1.541   3.284  12.908  1.0556 -0.5131 -0.7372
  103TMC2    O2 1581   1.947   3.260  12.531 -0.4020 -0.1770  0.1795
  103TMC2    O5 1582   1.979   3.051  12.623 -0.2808 -0.0318  0.7373
  103TMC2    H5 1583   1.928   2.989  12.679  0.0251 -1.1459 -0.1986
  104MPD2     C 1584   1.634   2.643  12.240  0.7398 -0.2441  0.1610
  104MPD2    C1 1585   1.571   2.765  12.272 -0.1817  0.4963  0.2965
  104MPD2    C2 1586   1.487   2.822  12.179 -0.6846  0.2114  0.6656
  104MPD2    C3 1587   1.455   2.757  12.063 -0.2790 -0.0094  0.3171
  104MPD2    C4 1588   1.511   2.633  12.037 -0.3079  0.0946  0.0228
  104MPD2    C5 1589   1.605   2.580  12.125  0.1864 -0.4376  0.4307
  104MPD2     H 1590   1.443   2.921  12.194  1.0809  1.3174 -1.4223
  104MPD2    H1 1591   1.488   2.572  11.951 -0.4016 -0.6422  0.5629
  104MPD2    H2 1592   1.706   2.590  12.302  0.9262 -1.0996 -0.7828
  104MPD2    H3 1593   1.665   2.492  12.104 -0.1427 -0.4844 -0.3121
  104MPD2     N 1594   1.355   2.814  11.977 -0.1678  0.5611 -0.5159
  104MPD2    H5 1595   1.308   2.899  12.008  1.9041  1.9863 -1.2377
  104MPD2    N1 1596   1.607   2.826  12.393 -0.7778  0.1978 -0.3988
  104MPD2    H7 1597   1.686   2.787  12.444 -2.1774 -1.5958  0.3811
  105MPD2     C 1598   3.221   2.327   0.149 -0.1892 -0.2703 -0.5072
  105MPD2    C1 1599   3.176   2.448   0.120  0.1503  0.0135 -0.1300
  105MPD2    C2 1600   3.075   2.513   0.194 -0.3057 -0.2607 -0.5101
  105MPD2    C3 1601   3.026   2.458   0.309 -0.6190 -0.6299  0.7910
  105MPD2    C4 1602   3.077   2.339   0.345 -0.6612  0.0606 -0.2336
  105MPD2    C5 1603   3.182   2.282   0.274 -0.3422  0.5599  0.4866
  105MPD2     H 1604   3.043   2.611   0.162  0.3710  0.3354  0.6445
  105MPD2    H1 1605   3.058   2.303   0.445  0.4345  1.2136  0.3855
  105MPD2    H2 1606   3.315   2.292   0.110 -0.0796 -0.3507 -0.1744
  105MPD2    H3 1607   3.226   2.190   0.310 -0.4725  1.1428  2.1395
  105MPD2     N 1608   2.915   2.515   0.377 -0.2592  0.6365  0.3884
  105MPD2    H5 1609   2.880   2.601   0.336 -1.0729 -1.1548 -2.6900
  105MPD2    N1 1610   3.213   2.517   0.000 -0.4189 -0.2866  0.9470
  105MPD2    H7 1611   3.147   2.589  17.681 -0.3257 -0.0894  1.2561
  106TCq2    C1 1612   2.851   2.452   0.478  0.2554  0.6912 -0.2914
  106TCq2    O2 1613   2.865   2.339   0.519  0.1994  0.3931 -0.4766
  106TCq2    C2 1614   2.736   2.521   0.531  0.9702 -0.0615  0.2188
  106TCq2    C3 1615   2.749   2.657   0.563 -0.9360 -0.5078  0.1243
  106TCq2    C4 1616   2.653   2.704   0.646 -0.1973  0.0144 -0.0889
  106TCq2    C5 1617   2.548   2.621   0.684  0.6403  0.3763  0.0476
  106TCq2    C6 1618   2.546   2.488   0.649  0.0184  0.0454  0.2104
  106TCq2    C7 1619   2.648   2.430   0.580  0.3795  0.0573  0.0768
  106TCq2    C8 1620   2.428   2.406   0.675 -0.0775  0.2804  0.3856
  106TCq2    O4 1621   2.415   2.310   0.599  0.1538  0.0501 -0.3368
  106TCq2    C9 1622   2.648   2.841   0.689 -0.0174  1.1431  0.1128
  106TCq2    O5 1623   2.748   2.918   0.659  0.7330  0.4612  1.0418
  106TCq2    O6 1624   2.539   2.877   0.749 -0.0402 -0.7825 -0.1362
  106TCq2    H2 1625   2.827   2.718   0.520  0.3706 -1.2118  1.5035
  106TCq2    H3 1626   2.457   2.666   0.723 -0.3659  2.2004 -4.4285
  106TCq2    H4 1627   2.647   2.325   0.552  1.5426 -0.2434  1.1461
  107TMC2    C1 1628   3.322   1.810  11.712 -0.3983 -0.0093 -0.3930
  107TMC2    C2 1629   3.415   1.895  11.652 -0.3340 -0.4827 -0.0985
  107TMC2    C3 1630   3.502   1.830  11.564 -0.1800 -0.0183 -0.0594
  107TMC2    C4 1631   3.330   1.677  11.710 -0.0385  0.1180 -0.1572
  107TMC2    C5 1632   3.403   1.619  11.609  0.4092  0.0234  0.1910
  107TMC2    C6 1633   3.501   1.695  11.544 -0.6165  0.3242 -0.1007
  107TMC2     C 1634   3.208   1.868  11.789  0.0517  0.1051  0.9700
  107TMC2     O 1635   3.130   1.797  11.849 -0.0294  0.2000  0.1483
  107TMC2     H 1636   3.410   2.003  11.658  0.3546 -0.3847 -1.2320
  107TMC2    H1 1637   3.271   1.612  11.774  0.1844 -2.6417 -2.7451
  107TMC2    H2 1638   3.581   1.655  11.482 -1.1062  0.8726 -1.0774
  107TMC2    C7 1639   3.431   1.486  11.617 -0.3916  0.0158 -0.6284
  107TMC2    C8 1640   3.603   1.915  11.515  0.4445 -0.0844 -0.1134
  107TMC2    O1 1641   3.395   1.442  11.722 -0.2812  0.5944 -0.6276
  107TMC2    O2 1642   3.639   2.018  11.577 -0.4933 -0.4336 -0.5551
  107TMC2    O5 1643   3.671   1.860  11.411  0.0487  0.5778 -0.3688
  107TMC2    H5 1644   3.610   1.808  11.354 -0.8812  0.3597  0.8279
  108MPD2     C 1645   3.115   2.225  11.761  0.1279  0.6582 -0.4455
  108MPD2    C1 1646   3.117   2.094  11.816  0.1348  0.5145  0.1858
  108MPD2    C2 1647   3.041   2.066  11.930 -0.3107 -0.1113 -0.5543
  108MPD2    C3 1648   2.947   2.161  11.977  0.0116  0.0716 -0.1037
  108MPD2    C4 1649   2.943   2.286  11.922  0.2597  0.4439  0.2934
  108MPD2    C5 1650   3.033   2.316  11.819 -0.8178  0.7326 -0.4829
  108MPD2     H 1651   3.049   1.971  11.982  1.1337  0.3251  0.0316
  108MPD2    H1 1652   2.866   2.358  11.947 -0.7205 -0.0632 -1.2570
  108MPD2    H2 1653   3.167   2.260  11.673  1.2597 -1.3925 -0.5908
  108MPD2    H3 1654   3.025   2.420  11.787  0.2500  0.9832  0.0574
  108MPD2     N 1655   2.862   2.138  12.091 -0.3921  0.2979 -0.1286
  108MPD2    H5 1656   2.793   2.208  12.115 -1.2592 -0.2526 -1.0118
  108MPD2    N1 1657   3.199   1.999  11.757 -0.5670  0.2285 -0.0952
  108MPD2    H7 1658   3.255   2.031  11.679 -0.6115 -0.1915 -0.3003
  109MPD2     C 1659   3.644   2.995   2.089  0.7479 -0.0511  0.0179
  109MPD2    C1 1660   3.743   2.958   1.997 -0.4125 -0.0276  0.1959
  109MPD2    C2 1661   3.842   3.047   1.976 -0.3626 -0.1132 -0.2989
  109MPD2    C3 1662   3.835   3.176   2.029  0.3216  0.1706 -0.4110
  109MPD2    C4 1663   3.751   3.206   2.134 -0.1316  0.6234  0.3098
  109MPD2    C5 1664   3.657   3.113   2.162 -0.9364 -0.2082 -0.0953
  109MPD2     H 1665   3.908   3.042   1.890  0.4526  0.2191  0.3075
  109MPD2    H1 1666   3.744   3.303   2.180 -0.9155  0.1839  1.1112
  109MPD2    H2 1667   3.564   2.928   2.119  0.5755  0.0914 -0.1256
  109MPD2    H3 1668   3.584   3.137   2.239  0.3149  1.5936  0.5137
  109MPD2     N 1669   3.916   3.268   1.961  0.3741  0.2577  0.1503
  109MPD2    H5 1670   3.979   3.246   1.885  0.4747  1.4018 -0.1026
  109MPD2    N1 1671   3.733   2.826   1.935  0.9096 -0.2573 -0.2940
  109MPD2    H7 1672   3.660   2.768   1.976 -1.0923  2.3682 -0.0775
  110TCq2    C1 1673   3.915   3.403   1.977  0.1353  0.2944 -0.3321
  110TCq2    O2 1674   3.842   3.469   2.048 -0.5684 -0.2847 -0.3185
  110TCq2    C2 1675   3.993   3.463   1.868 -0.8092  0.0812 -0.0967
  110TCq2    C3 1676   4.064   3.394   1.770 -0.1360  0.4374 -0.4726
  110TCq2    C4 1677   4.131   3.466   1.674 -0.0603  0.1150 -0.3730
  110TCq2    C5 1678   4.128   3.606   1.669 -0.2088  0.2684 -0.3331
  110TCq2    C6 1679   4.058   3.671   1.768 -0.4104  0.0195 -0.1217
  110TCq2    C7 1680   4.002   3.601   1.871  0.4855 -0.0885  0.4444
  110TCq2    C8 1681   4.061   3.815   1.765  0.3909  0.0727 -0.3689
  110TCq2    O4 1682   4.048   3.866   1.655  0.6899 -0.7678 -0.8828
  110TCq2    C9 1683   4.216   3.403   1.572 -0.2697  0.0637  0.1582
  110TCq2    O5 1684   4.205   3.279   1.557 -0.0213  0.0066  0.0587
  110TCq2    O6 1685   4.293   3.478   1.506  0.3291 -0.0021 -0.2086
  110TCq2    H2 1686   4.082   3.288   1.760 -0.8746  0.1026  1.8005
  110TCq2    H3 1687   4.196   3.657   1.602 -0.0325  1.2564  0.6034
  110TCq2    H4 1688   3.952   3.658   1.949  0.2581  1.8604 -1.1090
  111TMC2    C1 1689   3.238   4.328  11.974 -0.4747  0.2790  0.6749
  111TMC2    C2 1690   3.169   4.376  12.083 -0.0162 -0.3261  0.5468
  111TMC2    C3 1691   3.243   4.421  12.189 -0.5403  0.1982  0.0727
  111TMC2    C4 1692   3.378   4.326  11.970 -0.0659  0.3981 -0.4247
  111TMC2    C5 1693   3.445   4.372  12.076 -0.3343  0.7683  0.3614
  111TMC2    C6 1694   3.375   4.421  12.186  0.6913 -0.4318  0.5880
  111TMC2     C 1695   3.166   4.281  11.860  0.4189 -0.6362 -0.0822
  111TMC2     O 1696   3.215   4.291  11.751  0.0739  0.6455 -0.1155
  111TMC2     H 1697   3.063   4.400  12.083  0.2830  1.0515 -0.7717
  111TMC2    H1 1698   3.424   4.291  11.878  0.3602 -2.0835  0.7328
  111TMC2    H2 1699   3.437   4.468  12.261  1.5728 -0.1066 -0.3312
  111TMC2    C7 1700   3.579   4.343  12.097 -0.0390  0.1050  0.4896
  111TMC2    C8 1701   3.187   4.407  12.326  0.0128  0.3481  0.7454
  111TMC2    O1 1702   3.612   4.322  12.215 -0.7536  0.3672 -1.3701
  111TMC2    O2 1703   3.255   4.450  12.418  0.1896  0.6720 -0.3064
  111TMC2    O5 1704   3.144   4.282  12.325 -0.0498 -0.4511  0.9559
  111TMC2    H5 1705   3.094   4.259  12.243 -1.3523 -1.5488  2.0663
  112MPD2     C 1706   2.801   3.987  11.666  0.0669  0.8302  0.8411
  112MPD2    C1 1707   2.918   4.031  11.607 -0.0654 -0.3218 -0.7700
  112MPD2    C2 1708   3.001   4.100  11.685  0.2555  0.1780 -0.4869
  112MPD2    C3 1709   2.975   4.139  11.811  0.2285 -0.5810  0.3039
  112MPD2    C4 1710   2.855   4.096  11.863 -0.0957  0.8863  0.7640
  112MPD2    C5 1711   2.765   4.022  11.792  0.2860 -0.4928 -0.3488
  112MPD2     H 1712   3.098   4.120  11.640 -1.2640  2.4859 -2.7856
  112MPD2    H1 1713   2.826   4.119  11.965  0.7711  2.1520  0.7161
  112MPD2    H2 1714   2.725   3.929  11.614  1.4439 -1.5956  1.5359
  112MPD2    H3 1715   2.674   4.005  11.848  0.3905  3.2719  0.9425
  112MPD2     N 1716   3.045   4.220  11.895 -0.3377 -0.1258 -0.0386
  112MPD2    H5 1717   3.011   4.215  11.991 -1.6338  1.3092 -0.4188
  112MPD2    N1 1718   2.959   4.002  11.474  0.8741  0.2484  0.6178
  112MPD2    H7 1719   3.044   4.046  11.440  0.9674 -1.6594 -1.6019
  113MPD2     C 1720   1.378   1.691   0.841 -0.2572 -0.0357  0.0362
  113MPD2    C1 1721   1.316   1.624   0.945 -0.4296 -0.8290  0.1607
  113MPD2    C2 1722   1.245   1.505   0.927  0.3404  0.0895 -0.7422
  113MPD2    C3 1723   1.229   1.449   0.801 -0.3126  0.0897  0.1377
  113MPD2    C4 1724   1.298   1.514   0.701 -0.0171  0.8383  0.5972
  113MPD2    C5 1725   1.371   1.626   0.724 -0.3378  0.5472  0.4325
  113MPD2     H 1726   1.193   1.470   1.015  0.9523  2.1479  0.4416
  113MPD2    H1 1727   1.297   1.478   0.599  2.3285 -0.4132  1.0240
  113MPD2    H2 1728   1.438   1.781   0.849  0.3661 -0.3378 -1.1867
  113MPD2    H3 1729   1.411   1.672   0.635 -1.3691 -2.1782 -1.4477
  113MPD2     N 1730   1.155   1.337   0.767 -0.1299 -0.4179  0.2100
  113MPD2    H5 1731   1.154   1.313   0.668  0.5869 -0.5332  0.2273
  113MPD2    N1 1732   1.317   1.680   1.075 -0.3289 -0.0986 -0.1796
  113MPD2    H7 1733   1.242   1.641   1.133  0.8908 -1.2346  0.6534
  114TCq2    C1 1734   1.099   1.251   0.858  0.6056 -0.0602 -0.5426
  114TCq2    O2 1735   1.121   1.253   0.979  0.2834  0.0547  0.5276
  114TCq2    C2 1736   1.037   1.137   0.796  0.2029 -0.4592  0.6299
  114TCq2    C3 1737   0.973   1.148   0.676 -0.5328  1.1414 -0.4956
  114TCq2    C4 1738   0.912   1.035   0.623 -0.1948  0.5418 -0.7702
  114TCq2    C5 1739   0.918   0.912   0.689 -0.1914 -0.2900  0.1025
  114TCq2    C6 1740   0.967   0.907   0.811 -0.8682  0.0897  1.1772
  114TCq2    C7 1741   1.027   1.020   0.865 -0.4767  0.8176 -0.1927
  114TCq2    C8 1742   1.025   0.782   0.856  0.1875 -0.2730  0.0144
  114TCq2    O4 1743   1.104   0.718   0.787  0.4019  0.4939 -0.4222
  114TCq2    C9 1744   0.841   1.055   0.501  0.7803  0.0321  0.1834
  114TCq2    O5 1745   0.854   1.165   0.444 -0.4750  0.6299  0.0786
  114TCq2    O6 1746   0.783   0.957   0.436  0.0317  0.2310 -0.0887
  114TCq2    H2 1747   0.985   1.238   0.617 -0.5393  0.8201 -0.9861
  114TCq2    H3 1748   0.883   0.822   0.640 -1.8212  1.2230 -1.5078
  114TCq2    H4 1749   1.079   1.013   0.960  0.4860 -0.5158 -0.8191
  115TMC2    C1 1750   2.077   4.309  17.702  0.3615  0.4982 -0.1868
  115TMC2    C2 1751   2.133   4.335   0.120  0.3513  0.2914 -0.1775
  115TMC2    C3 1752   2.181   4.462   0.137  0.6770 -0.5799 -0.5694
  115TMC2    C4 1753   2.073   4.402  17.604  1.0480 -0.1797  0.7284
  115TMC2    C5 1754   2.126   4.526  17.635 -0.4168 -0.0999 -0.2066
  115TMC2    C6 1755   2.171   4.564   0.052  0.2323  0.1959 -0.2010
  115TMC2     C 1756   2.060   4.175  17.654 -0.5502 -0.3046  0.2603
  115TMC2     O 1757   2.023   4.161  17.538  0.6504  0.0215  0.6190
  115TMC2     H 1758   2.136   4.259   0.197  1.7818 -0.5182 -1.0320
  115TMC2    H1 1759   2.022   4.395  17.508 -0.4024 -1.5816  1.6042
  115TMC2    H2 1760   2.186   4.670   0.071 -1.1398  0.4141 -0.3127
  115TMC2    C7 1761   2.099   4.638  17.543  0.0535 -0.0683  0.0519
  115TMC2    C8 1762   2.238   4.491   0.266 -0.6694 -0.4592 -0.0585
  115TMC2    O1 1763   2.011   4.615  17.465 -0.1212 -0.1853 -0.3280
  115TMC2    O2 1764   2.224   4.412   0.360 -0.9484 -0.2941  0.2197
  115TMC2    O5 1765   2.327   4.594   0.266 -0.1122 -0.0234 -0.0992
  115TMC2    H5 1766   2.337   4.639   0.180  0.3262 -0.9583 -0.5431
  116MPD2     C 1767   2.161   3.667  17.671  0.0523 -0.1048  0.0060
  116MPD2    C1 1768   2.090   3.736  17.578  0.5467  0.6187 -0.7583
  116MPD2    C2 1769   2.071   3.873  17.599 -0.3290 -0.6606  0.6355
  116MPD2    C3 1770   2.135   3.944  17.700  0.3115 -0.1351 -0.5961
  116MPD2    C4 1771   2.207   3.871   0.077 -0.4327  0.5626 -0.0262
  116MPD2    C5 1772   2.221   3.740   0.061 -0.2442  0.5002  0.1097
  116MPD2     H 1773   2.009   3.931  17.531 -0.4820 -0.2506  1.1275
  116MPD2    H1 1774   2.273   3.911   0.153  0.2662  1.8019 -1.2908
  116MPD2    H2 1775   2.177   3.561  17.657  0.1592 -0.3544  2.0184
  116MPD2    H3 1776   2.291   3.694   0.130 -2.6695  0.9549  2.8805
  116MPD2     N 1777   2.123   4.081   0.025  0.2162  0.3933  0.2484
  116MPD2    H5 1778   2.160   4.104   0.117  1.0747 -1.4727  0.3722
  116MPD2    N1 1779   2.037   3.660  17.465 -0.1270 -0.1788  0.1084
  116MPD2    H7 1780   2.056   3.560  17.461  1.1817  0.0280  1.5875
  117TMC2    C1 1781   0.663   0.907  14.423  0.7370 -0.1571  0.3482
  117TMC2    C2 1782   0.759   0.842  14.504 -0.4326 -0.4371 -0.2108
  117TMC2    C3 1783   0.882   0.896  14.507 -0.2627 -0.1513 -0.2407
  117TMC2    C4 1784   0.709   1.013  14.345 -0.7890 -0.4802  0.1021
  117TMC2    C5 1785   0.836   1.053  14.336 -0.5321  0.0499 -0.5829
  117TMC2    C6 1786   0.926   0.994  14.425 -0.2902  0.3566  0.4568
  117TMC2     C 1787   0.531   0.864  14.411  0.0613  0.6797 -0.3879
  117TMC2     O 1788   0.505   0.747  14.432  0.0855  0.0792  0.2657
  117TMC2     H 1789   0.731   0.756  14.565  0.8828 -0.9895 -0.3970
  117TMC2    H1 1790   0.648   1.057  14.267 -2.5684 -1.6530  0.8267
  117TMC2    H2 1791   1.031   1.018  14.437 -0.7994  2.1128  1.3776
  117TMC2    C7 1792   0.866   1.188  14.291 -0.3988 -0.3443  0.3870
  117TMC2    C8 1793   0.976   0.793  14.561  0.1145  0.0811  0.5189
  117TMC2    O1 1794   0.985   1.218  14.292  0.0005 -0.2389 -0.0925
  117TMC2    O2 1795   1.096   0.777  14.533  0.3108 -0.5291  0.3002
  117TMC2    O5 1796   0.935   0.748  14.681 -0.6294 -0.0425 -0.0781
  117TMC2    H5 1797   0.850   0.787  14.711  0.2324 -0.2875  2.6124
  118MPD2     C 1798   0.652   1.489  14.253  0.0736 -0.3377  0.3986
  118MPD2    C1 1799   0.760   1.404  14.232 -0.1202  0.2720  0.2092
  118MPD2    C2 1800   0.859   1.463  14.154 -0.2815 -0.6044 -0.4145
  118MPD2    C3 1801   0.851   1.589  14.103  0.6636 -0.1154  0.3808
  118MPD2    C4 1802   0.730   1.653  14.109  0.2791  0.4009 -0.2030
  118MPD2    C5 1803   0.636   1.614  14.199  0.2746  0.4447 -0.9107
  118MPD2     H 1804   0.946   1.407  14.123  1.6532  1.8115  0.6368
  118MPD2    H1 1805   0.708   1.751  14.067  0.9320  0.7561  0.2724
  118MPD2    H2 1806   0.578   1.441  14.316  0.9775 -3.2489 -0.7984
  118MPD2    H3 1807   0.543   1.669  14.202  0.3600  0.6364 -1.7868
  118MPD2     N 1808   0.946   1.646  14.016  0.3644 -0.5111  0.1641
  118MPD2    H5 1809   0.920   1.729  13.964  1.3156  0.4680  1.2365
  118MPD2    N1 1810   0.759   1.274  14.285 -0.1923 -0.6251  0.5210
  118MPD2    H7 1811   0.665   1.256  14.321 -0.8096 -2.2143 -1.8299
  119MPD2     C 1812   4.150   2.838  13.291 -1.1411  0.0327 -0.2806
  119MPD2    C1 1813   4.021   2.890  13.302  0.0034  0.2108 -0.3366
  119MPD2    C2 1814   3.934   2.835  13.211 -0.1249 -0.2824 -1.0126
  119MPD2    C3 1815   3.972   2.715  13.139  0.0418  1.0885 -0.8075
  119MPD2    C4 1816   4.098   2.661  13.150 -0.1061 -0.0377 -0.8950
  119MPD2    C5 1817   4.185   2.724  13.224 -0.3517 -0.1600  0.7243
  119MPD2     H 1818   3.831   2.863  13.196 -0.2960  0.6493  2.0498
  119MPD2    H1 1819   4.132   2.580  13.087 -2.4600 -0.7717 -1.2220
  119MPD2    H2 1820   4.227   2.879  13.356 -0.4834 -1.6440 -0.0030
  119MPD2    H3 1821   4.288   2.695  13.239 -0.2988 -0.2050  0.2676
  119MPD2     N 1822   3.879   2.631  13.074 -1.0452 -0.2263 -0.1498
  119MPD2    H5 1823   3.903   2.533  13.064 -1.7380 -0.3885 -0.2333
  119MPD2    N1 1824   3.993   2.978  13.411 -0.3972  0.0009 -0.2789
  119MPD2    H7 1825   4.065   3.001  13.479 -0.8959  0.2953  0.1457
  120TCq2    C1 1826   3.754   2.672  13.032 -0.7324  0.3917  0.3196
  120TCq2    O2 1827   3.714   2.781  12.988 -0.1520 -0.6185  0.0650
  120TCq2    C2 1828   3.668   2.548  13.002  0.1960 -0.1637 -0.2764
  120TCq2    C3 1829   3.567   2.565  12.914  0.7274  0.2511  0.2226
  120TCq2    C4 1830   3.473   2.469  12.903  0.0849 -0.0835 -0.1096
  120TCq2    C5 1831   3.476   2.359  12.990  0.0939 -0.8361 -0.2496
  120TCq2    C6 1832   3.563   2.355  13.094 -0.8824  0.0600  0.4948
  120TCq2    C7 1833   3.661   2.455  13.106  0.7506 -0.1700  0.2001
  120TCq2    C8 1834   3.530   2.276  13.216  0.2758  0.2425 -0.0463
  120TCq2    O4 1835   3.586   2.303  13.320  0.5901 -0.0148  0.2917
  120TCq2    C9 1836   3.362   2.480  12.814 -0.1305 -0.2110  0.7956
  120TCq2    O5 1837   3.275   2.393  12.820  0.2260  0.2375 -0.0703
  120TCq2    O6 1838   3.359   2.591  12.754 -0.2130 -0.5115 -0.4329
  120TCq2    H2 1839   3.570   2.649  12.845  0.3100  0.8914  0.9852
  120TCq2    H3 1840   3.391   2.292  12.984  0.1060 -0.7413 -1.7012
  120TCq2    H4 1841   3.727   2.465  13.192  0.7875 -2.1640  0.3945
  121TMC2    C1 1842   1.032   4.042  14.407  0.0479  0.2045  0.1252
  121TMC2    C2 1843   0.930   4.087  14.484 -0.4146  0.4861 -0.5637
  121TMC2    C3 1844   0.805   4.051  14.456 -0.3445  0.6986  0.1275
  121TMC2    C4 1845   1.003   3.952  14.305  0.4010  0.8781  0.5401
  121TMC2    C5 1846   0.870   3.916  14.277  0.2936  0.3303  0.0346
  121TMC2    C6 1847   0.772   3.987  14.340 -0.1484  0.5493  0.2473
  121TMC2     C 1848   1.144   4.127  14.390 -0.1577 -0.3335  0.4982
  121TMC2     O 1849   1.160   4.205  14.482 -0.0352  0.1566  0.4864
  121TMC2     H 1850   0.954   4.160  14.561 -0.2450 -0.5968  0.4163
  121TMC2    H1 1851   1.079   3.911  14.239 -1.7013 -1.5868 -0.3631
  121TMC2    H2 1852   0.671   3.948  14.329  1.2709 -2.3013 -2.4244
  121TMC2    C7 1853   0.842   3.846  14.159  0.4714  0.1285  0.6047
  121TMC2    C8 1854   0.690   4.123  14.517 -0.6945 -0.7629  0.3253
  121TMC2    O1 1855   0.920   3.754  14.115  0.2238  0.1412  0.1563
  121TMC2    O2 1856   0.601   4.169  14.452  0.0040 -0.0772 -0.2675
  121TMC2    O5 1857   0.711   4.123  14.654  0.4326 -0.4400 -0.5974
  121TMC2    H5 1858   0.777   4.052  14.672 -0.0703 -1.1018 -1.3227
  122MPD2     C 1859   1.334   4.321  14.280  0.2183 -0.2366 -0.5069
  122MPD2    C1 1860   1.258   4.237  14.202 -0.3924  0.4215  0.3354
  122MPD2    C2 1861   1.264   4.242  14.065 -0.7549 -0.2061 -0.7067
  122MPD2    C3 1862   1.346   4.333  14.000 -0.1979  0.2703 -0.8201
  122MPD2    C4 1863   1.407   4.427  14.081 -0.0955  0.0957 -0.1098
  122MPD2    C5 1864   1.410   4.411  14.214  0.0486 -0.0638 -0.3191
  122MPD2     H 1865   1.199   4.173  14.013 -0.7306  0.1252 -1.1746
  122MPD2    H1 1866   1.478   4.499  14.044 -0.2768 -0.6246 -1.8360
  122MPD2    H2 1867   1.341   4.307  14.387  0.3681 -1.3157 -0.6598
  122MPD2    H3 1868   1.463   4.487  14.271 -0.1655  0.6985 -1.1375
  122MPD2     N 1869   1.364   4.342  13.863  0.9983 -0.7811  0.7904
  122MPD2    H5 1870   1.415   4.418  13.820 -0.9320  0.7486  1.2149
  122MPD2    N1 1871   1.179   4.136  14.256 -0.1965  0.3745 -0.0272
  122MPD2    H7 1872   1.136   4.079  14.184 -0.5168 -1.1528  1.3734
  123MPD2     C 1873   2.174   2.739   9.373 -0.6709  0.8629  0.5530
  123MPD2    C1 1874   2.301   2.686   9.391 -0.2868  0.2012  0.3489
  123MPD2    C2 1875   2.414   2.765   9.364 -0.2658 -0.0567  0.2659
  123MPD2    C3 1876   2.395   2.901   9.341  0.0160 -0.0723  0.8647
  123MPD2    C4 1877   2.274   2.961   9.337  0.2340  0.5560  0.3370
  123MPD2    C5 1878   2.168   2.876   9.354 -0.4235  0.1718  0.5723
  123MPD2     H 1879   2.517   2.731   9.369  0.8359  3.3541  1.2111
  123MPD2    H1 1880   2.253   3.066   9.319 -1.0835  0.6597  2.5214
  123MPD2    H2 1881   2.085   2.680   9.386 -0.7217  0.7652 -0.2482
  123MPD2    H3 1882   2.065   2.910   9.351  0.3673  2.5929  1.5745
  123MPD2     N 1883   2.512   2.970   9.308  0.4681  0.2754 -0.2720
  123MPD2    H5 1884   2.599   2.919   9.294  0.0041 -0.6001  0.0229
  123MPD2    N1 1885   2.309   2.550   9.419 -0.1651  0.2412  0.8814
  123MPD2    H7 1886   2.223   2.506   9.451  0.3258 -1.9422 -0.8223
  124TCq2    C1 1887   2.537   3.101   9.296 -0.0852  0.4834  0.5060
  124TCq2    O2 1888   2.460   3.196   9.309  0.6643 -0.5255  0.5644
  124TCq2    C2 1889   2.679   3.135   9.302 -0.1548  0.1128  0.2682
  124TCq2    C3 1890   2.713   3.265   9.250  0.3887 -0.3289 -0.1116
  124TCq2    C4 1891   2.847   3.285   9.215  0.1508  0.2220 -0.2587
  124TCq2    C5 1892   2.942   3.187   9.224 -0.1773 -0.3951 -0.4953
  124TCq2    C6 1893   2.905   3.065   9.270 -0.0039  0.2298  1.1769
  124TCq2    C7 1894   2.776   3.035   9.308  0.5754 -0.5728  0.3792
  124TCq2    C8 1895   3.005   2.970   9.309  0.2557  0.3575  0.1484
  124TCq2    O4 1896   2.971   2.853   9.323  0.0544  0.6777  0.3040
  124TCq2    C9 1897   2.887   3.422   9.179 -0.6691 -0.0517 -0.5437
  124TCq2    O5 1898   3.005   3.444   9.145  0.2061  0.2443  0.5523
  124TCq2    O6 1899   2.792   3.503   9.170 -0.3441 -0.6105  0.1884
  124TCq2    H2 1900   2.644   3.348   9.256  0.3253 -0.2681 -1.6885
  124TCq2    H3 1901   3.041   3.213   9.189 -1.0791  0.7622 -2.1764
  124TCq2    H4 1902   2.747   2.945   9.360 -0.8512  0.4538  1.3538
  125TMC2    C1 1903   4.465   3.540  10.239 -0.3234  0.3280  0.6010
  125TMC2    C2 1904   4.518   3.450  10.327 -0.1592  0.5409 -0.8643
  125TMC2    C3 1905   4.564   3.494  10.450  0.4364 -0.4479  0.3213
  125TMC2    C4 1906   4.456   3.675  10.276  0.0124 -0.3876  0.7833
  125TMC2    C5 1907   4.498   3.710  10.398 -0.7853  0.7707 -0.8957
  125TMC2    C6 1908   4.544   3.621  10.493 -0.1698 -0.2212 -0.0158
  125TMC2     C 1909   4.431   3.507  10.104  0.1549  0.3385  0.9595
  125TMC2     O 1910   4.394   3.602  10.036  0.1581  0.6046 -0.3529
  125TMC2     H 1911   4.527   3.346  10.295 -1.2397  0.6053 -1.3493
  125TMC2    H1 1912   4.407   3.750  10.215 -0.3898 -0.6318  0.8076
  125TMC2    H2 1913   4.604   3.656  10.577 -1.1533 -0.2877  0.7167
  125TMC2    C7 1914   4.583   3.834  10.403 -0.3127 -0.1936  0.0370
  125TMC2    C8 1915   4.664   3.422  10.528 -0.4111 -0.0122  0.2786
  125TMC2    O1 1916   4.635   3.866  10.511 -0.6596 -0.0914 -0.2508
  125TMC2    O2 1917   0.028   3.474  10.593  0.3571 -0.1440  0.2673
  125TMC2    O5 1918   4.644   3.281  10.522  0.1077  1.4264 -0.2466
  125TMC2    H5 1919   4.557   3.269  10.478  0.0323 -1.4569  0.6906
  126MPD1     C 1920   4.299   3.185   9.717  0.1320 -0.5056 -0.5379
  126MPD1    C1 1921   4.363   3.113   9.815  0.3279  0.0758 -0.2856
  126MPD1    C2 1922   4.400   3.185   9.931 -0.0785  0.4247 -0.6748
  126MPD1    C3 1923   4.375   3.319   9.951 -0.2933  0.9829  0.3450
  126MPD1    C4 1924   4.298   3.386   9.856 -0.0773  0.4878 -0.6214
  126MPD1    C5 1925   4.271   3.320   9.737  0.1049 -0.1034 -0.0847
  126MPD1     H 1926   4.468   3.134   9.998  0.1675  2.4221  0.5950
  126MPD1    H1 1927   4.275   3.492   9.861 -0.1203  0.3434  2.4405
  126MPD1    H2 1928   4.290   3.149   9.616 -1.6823 -2.2272  0.2415
  126MPD1    H3 1929   4.236   3.378   9.653 -0.1903  0.6900  0.5809
  126MPD1     N 1930   4.433   3.373  10.069 -0.3564  0.1616 -0.4455
  126MPD1    H5 1931   4.479   3.306  10.129  0.8654  1.9679  0.6486
  126MPD1    N1 1932   4.427   2.994   9.776  0.2410  0.1201 -0.9162
  126MPD1    H6 1933   4.434   2.930   9.855  0.7632 -0.2019 -1.2271
  126MPD1    H7 1934   4.386   2.936   9.703  2.1000 -0.1498 -1.7465
  127MPD2     C 1935   0.919   2.933   9.394  0.2178  0.4356 -0.0867
  127MPD2    C1 1936   0.991   2.906   9.515 -0.0829 -0.7519  1.2331
  127MPD2    C2 1937   1.046   3.017   9.579  0.3135  0.0357  0.0487
  127MPD2    C3 1938   1.008   3.142   9.538 -0.1675  0.6256  0.0296
  127MPD2    C4 1939   0.948   3.165   9.418 -0.2396 -0.0299 -0.0775
  127MPD2    C5 1940   0.901   3.060   9.352  0.2124  0.2211  0.1406
  127MPD2     H 1941   1.097   3.013   9.675  2.1717 -0.9375 -0.9566
  127MPD2    H1 1942   0.940   3.262   9.371  0.7570  0.2718  0.3791
  127MPD2    H2 1943   0.868   2.858   9.335 -0.5294  0.9949 -0.1512
  127MPD2    H3 1944   0.839   3.081   9.266 -1.1921 -3.9777  0.1613
  127MPD2     N 1945   1.047   3.247   9.628 -0.0110 -0.8020  0.3577
  127MPD2    H5 1946   1.120   3.217   9.692  1.0161 -2.0584 -1.4122
  127MPD2    N1 1947   1.007   2.771   9.561  0.6229  0.1457  0.0600
  127MPD2    H7 1948   0.966   2.697   9.506  0.3749 -0.7727  1.5002
  128TCq2    C1 1949   1.071   2.727   9.676 -0.4455 -0.0288  0.0873
  128TCq2    O2 1950   1.097   2.797   9.775 -0.1724 -0.1465 -0.1525
  128TCq2    C2 1951   1.055   2.583   9.700 -0.1456 -0.8931 -0.3136
  128TCq2    C3 1952   1.059   2.538   9.828  0.3006  1.0417 -0.0156
  128TCq2    C4 1953   1.050   2.402   9.855 -0.0653  0.4114  0.8036
  128TCq2    C5 1954   1.013   2.308   9.761  0.6691  0.2968 -0.1825
  128TCq2    C6 1955   0.991   2.356   9.631 -0.0388 -0.1979 -0.2252
  128TCq2    C7 1956   1.018   2.494   9.603  0.1135  0.3507 -0.1034
  128TCq2    C8 1957   0.933   2.275   9.526  0.1122 -0.0523 -0.3237
  128TCq2    O4 1958   0.892   2.351   9.437 -0.0317 -0.0357  0.4162
  128TCq2    C9 1959   1.025   2.362   9.991  0.3640 -0.3383  0.0431
  128TCq2    O5 1960   1.025   2.455  10.079 -0.2062 -0.3934 -0.2504
  128TCq2    O6 1961   1.005   2.240  10.024 -0.5337  0.2074 -0.4347
  128TCq2    H2 1962   1.083   2.601   9.913 -0.2704  0.3715  0.6435
  128TCq2    H3 1963   0.984   2.210   9.797  0.3751  0.0138 -1.2103
  128TCq2    H4 1964   1.013   2.531   9.501  1.5551  0.4477 -0.1288
  129MPD2     C 1965   4.501   2.451   1.067  0.0989 -0.6752 -0.1825
  129MPD2    C1 1966   4.402   2.529   1.024  0.1908 -0.0874  1.1825
  129MPD2    C2 1967   4.385   2.658   1.065 -0.2518  0.1126  0.6783
  129MPD2    C3 1968   4.484   2.719   1.137 -0.1020 -0.6905 -0.7321
  129MPD2    C4 1969   4.602   2.649   1.157  0.1829  0.1086  0.1277
  129MPD2    C5 1970   4.606   2.515   1.138 -0.0263 -0.2848 -0.7480
  129MPD2     H 1971   4.299   2.719   1.040 -1.7284 -1.6208  1.5854
  129MPD2    H1 1972   4.688   2.698   1.201 -1.1605  0.0722  2.7341
  129MPD2    H2 1973   4.516   2.348   1.039 -0.6355 -1.2569  1.5331
  129MPD2    H3 1974   4.705   2.472   1.142 -1.0418 -2.3189  2.1977
  129MPD2     N 1975   4.473   2.851   1.174 -0.1807 -0.0320 -0.2484
  129MPD2    H5 1976   4.394   2.903   1.137 -0.8662 -0.1490  1.0608
  129MPD2    N1 1977   4.303   2.469   0.944 -0.3908  0.7916 -0.6479
  129MPD2    H7 1978   4.221   2.525   0.921  0.3638  1.2926 -2.0603
  130TCq2    C1 1979   4.315   2.352   0.873  0.4861  1.0864 -0.5958
  130TCq2    O2 1980   4.417   2.303   0.835 -0.1468 -0.4540 -0.0506
  130TCq2    C2 1981   4.190   2.306   0.830 -0.1494 -0.1571 -0.6214
  130TCq2    C3 1982   4.189   2.209   0.732 -0.0195  0.1144 -0.1709
  130TCq2    C4 1983   4.072   2.137   0.713 -0.4641  0.0221 -0.0608
  130TCq2    C5 1984   3.965   2.149   0.795 -0.3142  0.4884 -0.4052
  130TCq2    C6 1985   3.966   2.257   0.884  0.1376  0.5127  0.6479
  130TCq2    C7 1986   4.082   2.328   0.907 -0.0319 -0.1311 -0.1275
  130TCq2    C8 1987   3.860   2.248   0.984  0.2036  0.4247  0.7130
  130TCq2    O4 1988   3.895   2.288   1.097  0.2277 -0.1402 -0.2911
  130TCq2    C9 1989   4.066   2.029   0.621  0.4014 -0.3366 -0.6032
  130TCq2    O5 1990   4.171   2.014   0.553 -0.5035  0.5774  0.3367
  130TCq2    O6 1991   3.974   1.943   0.634  0.1517 -0.6140 -0.0269
  130TCq2    H2 1992   4.279   2.185   0.677 -0.6018  1.6137 -1.7481
  130TCq2    H3 1993   3.874   2.096   0.767  0.7487 -1.1704 -0.7106
  130TCq2    H4 1994   4.074   2.401   0.987 -0.4508  1.3018 -1.4511
  131MPD2     C 1995   3.133   2.235   9.818  0.0606 -0.0950  0.2434
  131MPD2    C1 1996   3.060   2.356   9.793  0.0770  0.1032  0.1982
  131MPD2    C2 1997   2.923   2.351   9.761 -0.1015 -0.4315  0.6457
  131MPD2    C3 1998   2.864   2.228   9.734 -0.3352  0.3042  0.1330
  131MPD2    C4 1999   2.937   2.106   9.750 -0.2414  0.0171 -0.1573
  131MPD2    C5 2000   3.071   2.109   9.794  1.0581  0.1575  0.1305
  131MPD2     H 2001   2.863   2.441   9.757 -1.2479 -1.2239 -0.1274
  131MPD2    H1 2002   2.896   2.006   9.743 -1.2682  0.5847 -2.1421
  131MPD2    H2 2003   3.236   2.245   9.852  0.3973  3.3130 -1.7342
  131MPD2    H3 2004   3.132   2.019   9.803  1.3481  0.1950 -1.4051
  131MPD2     N 2005   2.733   2.231   9.684 -0.1384  0.3171  0.0313
  131MPD2    H5 2006   2.697   2.324   9.664 -0.3575  0.2831  0.2583
  131MPD2    N1 2007   3.134   2.475   9.818 -0.3622  0.1557 -0.2119
  131MPD2    H7 2008   3.227   2.469   9.858 -0.0124 -0.2605 -1.0982
  132TCq2    C1 2009   3.508   2.797   9.806 -0.2210  0.5125 -0.0968
  132TCq2    O2 2010   3.542   2.686   9.771  0.3208 -0.0518 -0.0518
  132TCq2    C2 2011   3.367   2.820   9.810 -0.7650 -0.4965  1.4236
  132TCq2    C3 2012   3.322   2.941   9.834 -0.6881 -0.1336 -0.0595
  132TCq2    C4 2013   3.190   2.949   9.860 -0.1878 -0.7107 -0.4307
  132TCq2    C5 2014   3.109   2.838   9.866 -0.3346 -0.3318 -0.3312
  132TCq2    C6 2015   3.169   2.709   9.853  0.3037 -0.2428  1.0295
  132TCq2    C7 2016   3.298   2.700   9.809  0.1806 -0.6375  0.0661
  132TCq2    C8 2017   3.080   2.601   9.816 -0.2696  0.1367  0.3845
  132TCq2    O4 2018   2.978   2.643   9.765 -0.2291  0.2511 -0.4351
  132TCq2    C9 2019   3.124   3.080   9.891  0.2414 -0.2122  0.1357
  132TCq2    O5 2020   3.206   3.174   9.874 -0.6485 -0.3437 -1.2233
  132TCq2    O6 2021   3.030   3.071   9.973 -0.0962  1.1095  0.3531
  132TCq2    H2 2022   3.373   3.035   9.814 -0.5612  0.3811  2.7254
  132TCq2    H3 2023   3.007   2.844   9.903 -0.0921  1.8700 -0.0301
  132TCq2    H4 2024   3.354   2.611   9.784 -0.7577 -1.3281  0.4467
  133MPD2     C 2025   2.290   2.098   9.912  0.4184 -0.4264  0.4224
  133MPD2    C1 2026   2.179   2.181   9.872 -0.7982 -0.6974 -0.0912
  133MPD2    C2 2027   2.191   2.318   9.851 -0.5148  0.1293  0.1291
  133MPD2    C3 2028   2.318   2.367   9.860  0.5027  0.5027 -0.3790
  133MPD2    C4 2029   2.425   2.294   9.883  0.8520  0.2710 -0.3198
  133MPD2    C5 2030   2.412   2.165   9.912  0.4525 -0.2908 -1.1038
  133MPD2     H 2031   2.104   2.368   9.811  0.2317 -0.6924 -2.5095
  133MPD2    H1 2032   2.525   2.335   9.871  1.7986 -1.1733  2.6372
  133MPD2    H2 2033   2.283   1.991   9.923 -1.1438 -0.6257 -2.7347
  133MPD2    H3 2034   2.502   2.106   9.928 -0.8535 -1.2813  2.4941
  133MPD2     N 2035   2.346   2.502   9.835 -0.1843 -0.0364  0.3867
  133MPD2    H5 2036   2.442   2.532   9.819 -0.5901  0.8464 -0.3698
  133MPD2    N1 2037   2.051   2.112   9.862 -0.3997 -0.5012 -0.0183
  133MPD2    H7 2038   2.043   2.019   9.901  4.3308 -1.7915 -2.2525
  134TCq2    C1 2039   1.950   2.159   9.778  0.8615  0.6572 -0.0644
  134TCq2    O2 2040   1.952   2.256   9.703  0.3363  0.3920  0.0989
  134TCq2    C2 2041   1.844   2.064   9.766 -0.5884  0.0992 -0.0349
  134TCq2    C3 2042   1.792   2.003   9.879 -0.1289  0.1442  0.0444
  134TCq2    C4 2043   1.668   1.940   9.869  0.2477 -0.5700 -0.8945
  134TCq2    C5 2044   1.601   1.936   9.752 -0.5543 -0.0474 -0.5614
  134TCq2    C6 2045   1.659   1.995   9.636 -0.0999  0.0937  0.7950
  134TCq2    C7 2046   1.776   2.067   9.644 -0.2514  0.1335 -0.0459
  134TCq2    C8 2047   1.589   1.967   9.511 -0.0068  0.3151  0.5223
  134TCq2    O4 2048   1.517   1.868   9.511 -0.3269 -0.1495 -0.4003
  134TCq2    C9 2049   1.611   1.865   9.974 -0.4031 -0.2561 -0.3259
  134TCq2    O5 2050   1.687   1.839  10.072  0.0966  0.3294 -0.4371
  134TCq2    O6 2051   1.495   1.824   9.963  0.2320 -0.5203 -0.3498
  134TCq2    H2 2052   1.850   1.984   9.969 -0.1859 -0.3455 -0.0214
  134TCq2    H3 2053   1.507   1.883   9.745 -0.0249 -1.3701  2.2330
  134TCq2    H4 2054   1.830   2.107   9.560 -1.6498 -0.9876 -1.4769
  135MPD2     C 2055   1.119   4.655   9.672  0.1532  0.3963  0.2664
  135MPD2    C1 2056   1.006   4.626   9.602  0.2345 -0.0152  0.3437
  135MPD2    C2 2057   0.996   4.511   9.524 -0.2181  0.0564  0.0117
  135MPD2    C3 2058   1.099   4.416   9.525 -0.3729  0.5708  0.1321
  135MPD2    C4 2059   1.211   4.449   9.592 -0.3182  0.7389  0.5305
  135MPD2    C5 2060   1.220   4.563   9.664 -0.1901  0.3938 -0.6682
  135MPD2     H 2061   0.902   4.501   9.471  0.2384 -1.7290 -0.4456
  135MPD2    H1 2062   1.293   4.379   9.600  0.5021  1.1716 -4.3332
  135MPD2    H2 2063   1.125   0.023   9.725  1.1982 -0.1883  1.1809
  135MPD2    H3 2064   1.315   4.583   9.713 -0.6264  3.1299 -0.9434
  135MPD2     N 2065   1.092   4.289   9.471 -0.0783  0.0537 -0.1498
  135MPD2    H5 2066   1.172   4.232   9.496  0.6412  0.8390 -0.6242
  135MPD2    N1 2067   0.900   4.716   9.610 -0.2386 -0.3339 -0.4365
  135MPD2    H7 2068   0.824   4.701   9.544 -0.1596  0.3847 -0.7021
  136TCq2    C1 2069   0.883   0.097   9.693  0.1521 -0.9012  0.0975
  136TCq2    O2 2070   0.946   0.137   9.791  0.4680 -0.2484 -0.3067
  136TCq2    C2 2071   0.743   0.135   9.687  0.4072 -0.2740 -0.1445
  136TCq2    C3 2072   0.714   0.250   9.760 -0.2869 -0.0748 -0.0897
  136TCq2    C4 2073   0.583   0.277   9.802 -0.3706 -0.6866 -0.4153
  136TCq2    C5 2074   0.475   0.189   9.786 -0.1935  0.1537 -0.0318
  136TCq2    C6 2075   0.515   0.074   9.710  0.5615  0.0831  0.5744
  136TCq2    C7 2076   0.640   0.052   9.661  0.2246  0.2430 -0.5105
  136TCq2    C8 2077   0.411   4.697   9.680  0.5617  0.2197  0.2253
  136TCq2    O4 2078   0.442   4.625   9.582  0.5349 -0.1346  0.1147
  136TCq2    C9 2079   0.561   0.392   9.882 -0.6791  0.1720 -0.3240
  136TCq2    O5 2080   0.649   0.480   9.880  0.3583  0.1331 -0.0087
  136TCq2    O6 2081   0.442   0.416   9.910 -0.1948 -0.1024 -0.2267
  136TCq2    H2 2082   0.796   0.307   9.802  0.1015 -0.9973  0.4061
  136TCq2    H3 2083   0.379   0.190   9.836 -0.2430  0.2470 -0.1292
  136TCq2    H4 2084   0.658   4.681   9.617 -0.2309 -0.1189  0.1080
  137MPD2     C 2085   0.713   3.096  10.883 -0.7277 -0.3045 -0.2584
  137MPD2    C1 2086   0.606   3.108  10.797 -0.2085  0.1177  0.6725
  137MPD2    C2 2087   0.577   3.240  10.766  0.1338 -0.5239 -0.3557
  137MPD2    C3 2088   0.639   3.347  10.831 -0.0026  0.1549  0.3463
  137MPD2    C4 2089   0.746   3.330  10.912 -0.7496  0.0726  0.2649
  137MPD2    C5 2090   0.787   3.201  10.934 -0.4491 -0.5885  0.2293
  137MPD2     H 2091   0.496   3.262  10.697 -1.0397  1.7269  1.7281
  137MPD2    H1 2092   0.796   3.408  10.968 -0.7338  1.0621 -1.1213
  137MPD2    H2 2093   0.742   2.996  10.912  1.8095  0.4070 -0.3097
  137MPD2    H3 2094   0.866   3.175  11.004  0.5050  3.0959  0.5646
  137MPD2     N 2095   0.584   3.475  10.802 -0.4308 -0.6262  0.0853
  137MPD2    H5 2096   0.516   3.476  10.727 -0.3153  0.5849 -0.0092
  137MPD2    N1 2097   0.539   2.998  10.737 -0.2055 -0.1687 -0.3390
  137MPD2    H7 2098   0.571   2.904  10.759 -2.8959 -1.1285 -0.5388
  138TCq2    C1 2099   0.423   2.996  10.656  0.1678  0.7323  0.1007
  138TCq2    O2 2100   0.346   3.089  10.632  0.2627 -0.3547 -0.4838
  138TCq2    C2 2101   0.401   2.871  10.596  0.3048  0.3630 -0.0148
  138TCq2    C3 2102   0.502   2.807  10.531 -0.1414  0.6192  0.4219
  138TCq2    C4 2103   0.467   2.705  10.449 -0.0649 -0.4106 -0.4152
  138TCq2    C5 2104   0.340   2.680  10.412 -0.6159 -0.3276 -0.4983
  138TCq2    C6 2105   0.239   2.752  10.475  0.1863 -0.3190 -0.2412
  138TCq2    C7 2106   0.267   2.846  10.578  0.5257 -0.2861  0.8983
  138TCq2    C8 2107   0.106   2.706  10.444 -0.4559 -0.9400  0.1721
  138TCq2    O4 2108   0.087   2.593  10.393  0.1148  0.4804 -0.2375
  138TCq2    C9 2109   0.580   2.638  10.383 -0.0924 -0.2308 -0.3616
  138TCq2    O5 2110   0.551   2.577  10.274  0.1160 -0.0169  0.2663
  138TCq2    O6 2111   0.697   2.672  10.418  0.2954  0.2005  0.2754
  138TCq2    H2 2112   0.608   2.830  10.535 -0.7505  3.0726  2.3825
  138TCq2    H3 2113   0.321   2.618  10.325 -3.2260  0.3018 -0.3792
  138TCq2    H4 2114   0.196   2.901  10.639  2.0603 -0.7171  3.0597
  139TMC2    C1 2115   0.748   1.986  13.313 -0.0177 -0.5877 -0.1408
  139TMC2    C2 2116   0.719   2.003  13.179 -0.1398  0.7188  0.1388
  139TMC2    C3 2117   0.671   2.130  13.141 -0.3736 -0.5601  0.1460
  139TMC2    C4 2118   0.742   2.090  13.408  0.1972 -0.2402  0.2084
  139TMC2    C5 2119   0.700   2.210  13.362 -0.0867  0.2466  0.4230
  139TMC2    C6 2120   0.658   2.227  13.231  0.3914  0.3785  0.4368
  139TMC2     C 2121   0.731   1.847  13.356  0.5604  0.1728 -0.3835
  139TMC2     O 2122   0.701   1.776  13.267  0.6362  0.3744  0.2307
  139TMC2     H 2123   0.724   1.917  13.114 -0.3845 -0.0606  1.1574
  139TMC2    H1 2124   0.786   2.068  13.504 -1.4927  1.6730  1.4399
  139TMC2    H2 2125   0.606   2.317  13.199 -0.2159  0.7685  2.4963
  139TMC2    C7 2126   0.651   2.313  13.449  0.2273  0.7674 -0.4557
  139TMC2    C8 2127   0.565   2.132  13.039  0.0746 -1.0730  0.4398
  139TMC2    O1 2128   0.567   2.387  13.400  0.0440 -0.5036 -0.0322
  139TMC2    O2 2129   0.481   2.218  13.040 -0.3994  0.2463 -0.4978
  139TMC2    O5 2130   0.557   2.004  12.997  0.4161  0.6623  0.2498
  139TMC2    H5 2131   0.642   1.973  12.960 -1.0866 -2.5190 -0.5295
  140MPD2     C 2132   0.713   1.684  13.683  0.2147 -0.1666 -0.3804
  140MPD2    C1 2133   0.735   1.699  13.553  0.4477 -0.5239 -0.5163
  140MPD2    C2 2134   0.752   1.584  13.472 -0.2121 -0.1596 -0.1861
  140MPD2    C3 2135   0.739   1.456  13.530 -0.8337 -0.1418 -0.2616
  140MPD2    C4 2136   0.713   1.442  13.666 -0.0842  0.4502  0.0524
  140MPD2    C5 2137   0.697   1.559  13.736 -1.1130 -0.0550 -0.6116
  140MPD2     H 2138   0.783   1.594  13.369 -0.7403 -0.0461 -0.3392
  140MPD2    H1 2139   0.691   1.349  13.717 -2.2698 -0.7170 -3.0131
  140MPD2    H2 2140   0.705   1.772  13.747  0.7855 -0.3987  0.0121
  140MPD2    H3 2141   0.657   1.556  13.836  0.8502  1.1251  0.1956
  140MPD2     N 2142   0.750   1.335  13.453  0.3190  0.4282 -0.3344
  140MPD2    H5 2143   0.743   1.252  13.511 -0.5332  0.0544 -0.9783
  140MPD2    N1 2144   0.723   1.828  13.494 -0.7784  0.2326  0.2870
  140MPD2    H7 2145   0.708   1.903  13.560  1.7024 -0.1352  1.2838
  141TCq2    C1 2146   1.581   2.928  14.203 -0.1410 -0.0430  0.4307
  141TCq2    O2 2147   1.487   3.005  14.193  0.1603  0.0853  0.4496
  141TCq2    C2 2148   1.599   2.870  14.331 -0.2985 -0.2446  0.9385
  141TCq2    C3 2149   1.640   2.742  14.334 -0.4587 -0.4834 -0.1070
  141TCq2    C4 2150   1.670   2.698  14.462 -0.6434 -0.7462 -0.1270
  141TCq2    C5 2151   1.630   2.769  14.574 -0.4368  0.2231  0.1371
  141TCq2    C6 2152   1.573   2.890  14.557 -0.1495  0.4466  0.0211
  141TCq2    C7 2153   1.565   2.946  14.435  0.2426  0.3671  0.1740
  141TCq2    C8 2154   1.568   2.983  14.671 -0.3723 -0.4361  0.3961
  141TCq2    O4 2155   1.631   2.943  14.768 -0.0604  0.7410  0.0844
  141TCq2    C9 2156   1.732   2.565  14.479  1.0663  0.6510  0.5249
  141TCq2    O5 2157   1.720   2.483  14.380 -0.6170  0.6111 -0.3369
  141TCq2    O6 2158   1.751   2.530  14.599  0.1454 -0.6383 -0.2124
  141TCq2    H2 2159   1.663   2.677  14.250  0.7308 -0.2257  0.0232
  141TCq2    H3 2160   1.639   2.719  14.670 -2.2999  1.8870  1.1749
  141TCq2    H4 2161   1.525   3.043  14.408 -0.6751 -0.5936 -1.9706
  142MPD2     C 2162   2.824   1.805   9.405  1.0530  0.4219  0.5926
  142MPD2    C1 2163   2.912   1.792   9.513  0.2611 -0.6829 -0.3452
  142MPD2    C2 2164   3.017   1.879   9.525  0.4405 -0.0239  0.7160
  142MPD2    C3 2165   3.043   1.967   9.420  0.0325 -0.2912 -0.3978
  142MPD2    C4 2166   2.954   1.978   9.317 -0.0507  0.1151  0.0522
  142MPD2    C5 2167   2.844   1.898   9.308  0.0997 -0.0055 -0.1091
  142MPD2     H 2168   3.080   1.882   9.614  3.1127  3.4596 -1.3053
  142MPD2    H1 2169   2.967   2.060   9.247  0.6092  0.8708  1.0527
  142MPD2    H2 2170   2.733   1.747   9.390  0.6063  1.3443 -0.2961
  142MPD2    H3 2171   2.769   1.908   9.231  0.5682  0.8525 -0.4531
  142MPD2     N 2172   3.145   2.069   9.427 -0.3897  0.1963  0.3851
  142MPD2    H5 2173   3.139   2.145   9.359 -1.0413  0.0183  0.2425
  142MPD2    N1 2174   2.888   1.687   9.602 -0.2514  0.0332  0.5554
  142MPD2    H7 2175   2.801   1.636   9.585 -1.0128  1.0057  1.6234
  143TCq2    C1 2176   3.257   2.058   9.509  0.2974  0.7739 -0.2128
  143TCq2    O2 2177   3.301   1.952   9.549 -0.3375  0.0614  0.1352
  143TCq2    C2 2178   3.335   2.176   9.533 -0.0751  0.6934  0.1343
  143TCq2    C3 2179   3.454   2.163   9.595 -0.3085  0.2440 -0.9818
  143TCq2    C4 2180   3.523   2.281   9.631 -0.7481 -0.8474  0.2726
  143TCq2    C5 2181   3.472   2.403   9.603 -0.3264 -0.4720 -0.3020
  143TCq2    C6 2182   3.350   2.414   9.546  0.6328  0.3600 -0.2580
  143TCq2    C7 2183   3.283   2.301   9.509 -0.3567  0.2742  0.0598
  143TCq2    C8 2184   3.300   2.543   9.507 -0.6494  0.7006 -0.5665
  143TCq2    O4 2185   3.193   2.542   9.445 -0.1147 -0.4634 -0.3096
  143TCq2    C9 2186   3.649   2.268   9.691  0.1867 -0.1628  0.1706
  143TCq2    O5 2187   3.691   2.157   9.712  0.8098  0.5575  0.1589
  143TCq2    O6 2188   3.704   2.373   9.725  0.1722 -0.5733  0.1967
  143TCq2    H2 2189   3.496   2.065   9.612  2.2456  1.6145  0.5284
  143TCq2    H3 2190   3.523   2.489   9.644 -1.5157  0.6202 -1.0779
  143TCq2    H4 2191   3.187   2.313   9.460 -1.0731 -2.2692  0.8106
  144MPD2     C 2192   1.491   1.210   0.815 -0.0980  0.5899 -0.0002
  144MPD2    C1 2193   1.523   1.078   0.794 -0.1817  0.8240 -0.1202
  144MPD2    C2 2194   1.620   1.019   0.873  0.4385  0.6531  0.0209
  144MPD2    C3 2195   1.682   1.092   0.975  0.6577 -0.0926 -0.0855
  144MPD2    C4 2196   1.639   1.219   1.002 -0.5033  0.2385 -0.4414
  144MPD2    C5 2197   1.554   1.276   0.915 -0.2952 -1.1125 -0.7309
  144MPD2     H 2198   1.640   0.912   0.866 -0.3490  0.3605  2.0226
  144MPD2    H1 2199   1.679   1.280   1.082 -1.1867  0.6502 -0.4189
  144MPD2    H2 2200   1.419   1.261   0.752  1.0831  1.0433 -0.9906
  144MPD2    H3 2201   1.541   1.381   0.939  2.7225 -0.7297 -0.7687
  144MPD2     N 2202   1.785   1.039   1.062 -0.1985  0.1715 -0.0902
  144MPD2    H5 2203   1.821   1.093   1.140  1.2541 -2.9145  1.3492
  144MPD2    N1 2204   1.466   0.992   0.698  0.5515 -0.0488 -0.1525
  144MPD2    H7 2205   1.496   0.896   0.699  0.4211 -0.0744  0.7082
  145TCq2    C1 2206   1.863   0.933   1.025 -0.7417 -0.1003  0.3472
  145TCq2    O2 2207   1.866   0.867   0.921 -0.6047 -0.2113  0.1289
  145TCq2    C2 2208   1.966   0.914   1.114  0.7097 -0.1915 -0.0510
  145TCq2    C3 2209   2.085   0.875   1.064 -0.1623  0.3553  0.3216
  145TCq2    C4 2210   2.194   0.866   1.146  0.3485  0.0341  0.0996
  145TCq2    C5 2211   2.186   0.901   1.279 -0.0127 -0.3110  0.8910
  145TCq2    C6 2212   2.063   0.940   1.331 -0.8025  0.3483 -0.2260
  145TCq2    C7 2213   1.952   0.936   1.247  0.3436 -0.2486  0.1368
  145TCq2    C8 2214   2.054   0.985   1.469  0.2070  0.8820 -0.0390
  145TCq2    O4 2215   2.157   0.980   1.534 -0.2867 -0.1705 -0.0134
  145TCq2    C9 2216   2.316   0.814   1.090  0.4306  0.4897 -0.4160
  145TCq2    O5 2217   2.404   0.766   1.174  0.2115  0.1363 -0.2554
  145TCq2    O6 2218   2.310   0.786   0.968  0.2238 -0.7623  0.2913
  145TCq2    H2 2219   2.092   0.859   0.957  2.5078  0.8252  0.4202
  145TCq2    H3 2220   2.281   0.924   1.325 -0.2427  1.2187  0.6008
  145TCq2    H4 2221   1.853   0.961   1.284  0.9284  0.0285  1.5399
  146TMC2    C1 2222   3.293   0.027  13.758  0.6556 -0.2751 -0.0762
  146TMC2    C2 2223   3.189   0.118  13.769  0.4133  0.0991  0.3928
  146TMC2    C3 2224   3.176   0.213  13.667  0.3835  0.0931  0.2412
  146TMC2    C4 2225   3.356   0.010  13.639  0.5651 -0.1367 -0.2835
  146TMC2    C5 2226   3.328   0.096  13.536 -0.3110 -0.6937 -0.1782
  146TMC2    C6 2227   3.239   0.198  13.547 -0.0122 -0.7035 -0.7984
  146TMC2     C 2228   3.329   4.669  13.873 -0.0582  0.4290  0.1565
  146TMC2     O 2229   3.275   4.688  13.980 -0.0982 -0.0414  0.3491
  146TMC2     H 2230   3.146   0.129  13.868  1.7796  0.1454  0.9788
  146TMC2    H1 2231   3.426   4.654  13.629 -1.7444 -2.0704 -0.6097
  146TMC2    H2 2232   3.211   0.271  13.471  0.0433  0.3323  0.1672
  146TMC2    C7 2233   3.413   0.091  13.411 -0.6055 -0.3211 -0.4713
  146TMC2    C8 2234   3.071   0.311  13.667  0.0893 -0.4914  0.1048
  146TMC2    O1 2235   3.385   0.181  13.332  0.0427 -0.2348  0.2651
  146TMC2    O2 2236   3.021   0.350  13.564  0.1415  0.4407  1.2013
  146TMC2    O5 2237   3.016   0.315  13.793  0.0101 -0.1813 -0.4811
  146TMC2    H5 2238   3.086   0.309  13.861 -1.3487  1.1052  1.0557
  147MPD2     C 2239   3.720   4.642  13.047 -0.1951  0.1014 -0.6608
  147MPD2    C1 2240   3.759   4.580  13.161 -0.2681  0.2205 -0.2235
  147MPD2    C2 2241   3.694   4.607  13.284  0.6865 -0.5286 -0.6271
  147MPD2    C3 2242   3.586   4.696  13.280  0.0197  1.0122  0.5020
  147MPD2    C4 2243   3.534   0.012  13.163  0.8721 -0.4257  0.2994
  147MPD2    C5 2244   3.599   4.711  13.045  0.1198 -0.4484 -0.0037
  147MPD2     H 2245   3.737   4.572  13.377  1.3253 -0.5992 -0.9428
  147MPD2    H1 2246   3.447   0.076  13.150  0.9155 -0.1916  1.1866
  147MPD2    H2 2247   3.774   4.623  12.954 -0.0849 -0.7043 -0.4325
  147MPD2    H3 2248   3.570   0.026  12.949 -2.0155 -1.3609  0.2339
  147MPD2     N 2249   3.510   4.718  13.398 -0.4185 -0.0915 -0.4501
  147MPD2    H5 2250   3.538   4.681  13.488  0.4847  0.7853 -0.3665
  147MPD2    N1 2251   3.866   4.490  13.151 -0.1792  0.4020  0.1598
  147MPD2    H7 2252   3.914   4.497  13.062 -0.5831  0.7610 -0.0310
  148MPD2     C 2253   2.987   3.279  10.624 -0.6111  0.0369 -0.8859
  148MPD2    C1 2254   2.996   3.154  10.677 -0.1212  0.3800 -0.1540
  148MPD2    C2 2255   2.883   3.073  10.649 -0.1993 -0.0780 -0.7020
  148MPD2    C3 2256   2.779   3.112  10.568 -0.4127  1.1949 -0.5080
  148MPD2    C4 2257   2.787   3.233  10.510 -0.0452 -0.1662  0.0011
  148MPD2    C5 2258   2.876   3.325  10.548  0.8500 -0.0809 -0.1001
  148MPD2     H 2259   2.887   2.971  10.685  0.2765 -0.7069 -2.5396
  148MPD2    H1 2260   2.706   3.263  10.445  0.2085  0.7950  0.1297
  148MPD2    H2 2261   3.064   3.351  10.650 -0.9004  0.1608 -0.3760
  148MPD2    H3 2262   2.887   3.418  10.494  0.2776  1.2394  2.0412
  148MPD2     N 2263   2.691   3.014  10.518 -0.1682  0.3599  0.2796
  148MPD2    H5 2264   2.638   3.032  10.434 -0.0191  0.6201  0.2385
  148MPD2    N1 2265   3.101   3.100  10.747 -0.1534  0.4234  0.8325
  148MPD2    H7 2266   3.077   3.022  10.807 -0.7268 -0.4322 -0.5017
  149TCq2    C1 2267   3.211   3.170  10.776 -0.3746  0.4456 -0.1735
  149TCq2    O2 2268   3.236   3.290  10.755  0.4532 -0.3268  0.0526
  149TCq2    C2 2269   3.292   3.110  10.881  0.3133  0.4578  0.2004
  149TCq2    C3 2270   3.367   3.191  10.971 -0.2960  0.9291 -0.2501
  149TCq2    C4 2271   3.461   3.128  11.054  0.1863 -0.4607  1.5395
  149TCq2    C5 2272   3.493   2.999  11.024 -0.0771  0.3363 -0.7178
  149TCq2    C6 2273   3.418   2.928  10.929  0.3229 -0.5319 -0.3137
  149TCq2    C7 2274   3.311   2.978  10.866 -0.1219  0.3448 -0.3119
  149TCq2    C8 2275   3.445   2.790  10.895 -0.7643 -0.1027 -0.2436
  149TCq2    O4 2276   3.399   2.737  10.791 -0.2343  0.0883 -0.5312
  149TCq2    C9 2277   3.566   3.198  11.112 -0.2172  0.3442  0.4484
  149TCq2    O5 2278   3.658   3.135  11.174  0.0030 -0.2789  0.3223
  149TCq2    O6 2279   3.572   3.326  11.089  0.3043 -0.2869 -0.1010
  149TCq2    H2 2280   3.373   3.299  10.965 -2.4879  1.0760  0.3387
  149TCq2    H3 2281   3.587   2.959  11.062  0.3405  0.3375 -1.7504
  149TCq2    H4 2282   3.243   2.911  10.814 -1.1896 -0.0139  1.5553
  150MPD2     C 2283   0.072   2.428  12.065 -1.0658 -0.9006 -1.0551
  150MPD2    C1 2284   0.120   2.409  11.935 -0.4597 -0.2517  0.1277
  150MPD2    C2 2285   0.235   2.473  11.902 -0.2126 -0.1290 -0.2535
  150MPD2    C3 2286   0.314   2.529  11.992 -0.3647 -0.0075  0.4375
  150MPD2    C4 2287   0.268   2.545  12.125  0.6547  0.4123  0.4924
  150MPD2    C5 2288   0.144   2.499  12.151  0.4410 -0.1468 -0.1527
  150MPD2     H 2289   0.274   2.464  11.801  2.2443  0.2931  0.6579
  150MPD2    H1 2290   0.324   2.596  12.203  0.2818 -0.2493  1.1867
  150MPD2    H2 2291   4.707   2.381  12.099 -1.5950  1.5040  0.8259
  150MPD2    H3 2292   0.102   2.517  12.250 -1.2344 -2.2726 -0.4854
  150MPD2     N 2293   0.442   2.568  11.955 -0.9632  0.0956  0.5882
  150MPD2    H5 2294   0.480   2.549  11.863  1.3083  0.9409  1.3516
  150MPD2    N1 2295   0.050   2.314  11.851 -0.0485  0.5086 -0.1513
  150MPD2    H7 2296   4.697   2.267  11.893 -1.2168  0.3163 -2.5463
  151TCq2    C1 2297   0.542   2.593  12.043 -0.5781  0.4471 -0.4299
  151TCq2    O2 2298   0.555   2.568  12.158  0.1588  0.0529  0.1995
  151TCq2    C2 2299   0.661   2.625  11.970  0.4931  0.4721 -0.7722
  151TCq2    C3 2300   0.661   2.680  11.840  0.3456  1.0711  0.6165
  151TCq2    C4 2301   0.774   2.691  11.763 -0.1839  0.3278  0.3210
  151TCq2    C5 2302   0.886   2.644  11.814  0.2167 -0.1343  0.3741
  151TCq2    C6 2303   0.891   2.597  11.944  0.0238 -0.0591  0.3942
  151TCq2    C7 2304   0.778   2.583  12.031 -0.2252 -0.4284  0.8030
  151TCq2    C8 2305   1.016   2.524  11.981  0.4795 -0.5577 -0.7288
  151TCq2    O4 2306   1.120   2.572  11.934  0.1496  0.3458 -0.1619
  151TCq2    C9 2307   0.771   2.719  11.616 -0.0392  0.1400 -0.3691
  151TCq2    O5 2308   0.673   2.781  11.570  0.0560  0.3541  0.3007
  151TCq2    O6 2309   0.867   2.661  11.555 -0.4553 -0.4721 -0.5217
  151TCq2    H2 2310   0.567   2.711  11.796 -0.0610 -1.5047 -0.2792
  151TCq2    H3 2311   0.975   2.643  11.752 -0.7151 -0.4764 -0.9650
  151TCq2    H4 2312   0.779   2.549  12.134 -0.4622  0.8921  1.2432
  152MPD2     C 2313   0.234   2.116  12.913  0.4888 -0.3507 -0.0798
  152MPD2    C1 2314   0.254   2.140  12.779  0.7000  0.5020 -0.6036
  152MPD2    C2 2315   0.157   2.212  12.711 -0.3167 -0.3863 -0.5446
  152MPD2    C3 2316   0.045   2.268  12.768 -0.0572  0.2701 -0.9977
  152MPD2    C4 2317   0.032   2.246  12.902 -0.1932 -0.4023 -0.0007
  152MPD2    C5 2318   0.125   2.174  12.967 -0.5121  0.3921 -0.1671
  152MPD2     H 2319   0.171   2.252  12.611  0.7890 -3.4944 -1.6141
  152MPD2    H1 2320   4.676   2.285  12.961  0.0744  1.5720 -0.9227
  152MPD2    H2 2321   0.302   2.054  12.971 -1.5705 -0.3066  2.3947
  152MPD2    H3 2322   0.100   2.159  13.071  1.6363 -1.8026  0.0340
  152MPD2     N 2323   4.678   2.349  12.696 -0.1283 -0.2866  0.3779
  152MPD2    H5 2324   4.714   2.395  12.613 -0.3284  0.2075  0.5618
  152MPD2    N1 2325   0.379   2.102  12.727  0.3692 -0.2852  0.7333
  152MPD2    H7 2326   0.450   2.059  12.786  0.8185 -0.7592 -0.1623
  153TCq2    C1 2327   0.427   2.136  12.603 -0.5138  0.1153 -0.0800
  153TCq2    O2 2328   0.373   2.189  12.507  0.2152 -0.2272  0.2828
  153TCq2    C2 2329   0.566   2.105  12.590 -0.1811 -0.4380  0.6242
  153TCq2    C3 2330   0.626   2.039  12.685 -0.5897 -0.4171 -0.0096
  153TCq2    C4 2331   0.762   2.040  12.688  0.0241 -0.0013  0.3545
  153TCq2    C5 2332   0.845   2.116  12.605 -0.4071  0.4703  0.0791
  153TCq2    C6 2333   0.774   2.189  12.517  0.8616  0.3130 -0.8466
  153TCq2    C7 2334   0.638   2.181  12.502  0.5846  0.2923 -0.6187
  153TCq2    C8 2335   0.834   2.313  12.464  0.3432  0.1275 -0.0531
  153TCq2    O4 2336   0.769   2.362  12.369 -0.2063  0.6064  0.5050
  153TCq2    C9 2337   0.833   1.978  12.799  0.1132  0.1798 -0.5346
  153TCq2    O5 2338   0.765   1.929  12.895 -0.0120 -0.2146  0.3284
  153TCq2    O6 2339   0.957   1.967  12.799  0.0460  0.1081 -0.0558
  153TCq2    H2 2340   0.573   1.971  12.751 -2.4543  0.5495 -0.4915
  153TCq2    H3 2341   0.952   2.114  12.617 -0.1980  2.3737 -1.5999
  153TCq2    H4 2342   0.582   2.243  12.433  0.0865  1.9154  1.2493
  154MPD2     C 2343   1.621   2.601   0.226  0.1530 -0.7173 -0.4298
  154MPD2    C1 2344   1.618   2.594   0.365 -0.6100 -0.1594  0.2768
  154MPD2    C2 2345   1.499   2.571   0.430  0.3050 -0.0691 -0.3681
  154MPD2    C3 2346   1.378   2.587   0.360 -0.1234 -0.0022 -0.0986
  154MPD2    C4 2347   1.376   2.609   0.227 -0.5887 -0.4329  0.3415
  154MPD2    C5 2348   1.497   2.607   0.163 -0.0942  0.3800  0.7894
  154MPD2     H 2349   1.495   2.531   0.531 -0.9756  0.1185 -0.3502
  154MPD2    H1 2350   1.287   2.635   0.171  0.7658 -0.5262 -1.8576
  154MPD2    H2 2351   1.709   2.611   0.163  0.9848  1.8864  1.1321
  154MPD2    H3 2352   1.489   2.615   0.056  2.4040 -2.3938  0.3882
  154MPD2     N 2353   1.267   2.578   0.438  0.3744  0.5992 -0.4089
  154MPD2    H5 2354   1.281   2.553   0.536 -2.2242 -1.0159 -0.4609
  154MPD2    N1 2355   1.743   2.589   0.431 -0.0174  0.3995  0.6849
  154MPD2    H7 2356   1.827   2.613   0.380  0.0078  1.7673  1.3776
  155TCq2    C1 2357   1.763   2.585   0.571  0.0252  0.3304  0.0310
  155TCq2    O2 2358   1.685   2.610   0.658  0.1129 -0.4087 -0.4572
  155TCq2    C2 2359   1.908   2.597   0.595  0.3417 -1.0036  0.4711
  155TCq2    C3 2360   1.937   2.667   0.712  0.1883 -0.0215 -0.0767
  155TCq2    C4 2361   2.060   2.732   0.726 -0.5443  0.2460  0.5952
  155TCq2    C5 2362   2.154   2.702   0.632 -0.7188 -0.1598  0.3050
  155TCq2    C6 2363   2.128   2.609   0.533 -0.0746  0.3902 -0.1209
  155TCq2    C7 2364   2.005   2.558   0.504  0.0479 -0.0882  0.0089
  155TCq2    C8 2365   2.219   2.586   0.421  0.3517  0.2619  0.3389
  155TCq2    O4 2366   2.189   2.491   0.349  0.4431 -0.6463 -0.4001
  155TCq2    C9 2367   2.070   2.840   0.821 -0.3815  0.0572  0.0265
  155TCq2    O5 2368   1.965   2.868   0.886  0.2922 -0.1610 -0.2331
  155TCq2    O6 2369   2.171   2.908   0.811 -0.1164  0.0988  0.2283
  155TCq2    H2 2370   1.854   2.699   0.774  1.4188  1.3540  0.8678
  155TCq2    H3 2371   2.245   2.759   0.642 -1.1404  0.4636  0.6249
  155TCq2    H4 2372   1.969   2.492   0.427 -2.6006  1.1330  0.1968
  156MPD2     C 2373   0.928   0.265  12.411 -0.6951 -0.2948  0.3575
  156MPD2    C1 2374   0.792   0.289  12.387  0.0860  0.0320 -0.2788
  156MPD2    C2 2375   0.727   0.369  12.480 -0.7527  0.1982  0.1111
  156MPD2    C3 2376   0.784   0.431  12.592  0.9595  0.3548 -0.6751
  156MPD2    C4 2377   0.916   0.413  12.609  0.1897  0.0556  0.6921
  156MPD2    C5 2378   0.990   0.338  12.515  0.1593 -0.8484 -0.1464
  156MPD2     H 2379   0.618   0.370  12.481 -0.7832 -0.9512 -3.2889
  156MPD2    H1 2380   0.970   0.462  12.689  1.3879  1.9475 -1.2844
  156MPD2    H2 2381   0.998   0.218  12.343  0.4479  2.0590 -0.1170
  156MPD2    H3 2382   1.098   0.334  12.524  0.2264  1.3740 -0.0327
  156MPD2     N 2383   0.706   0.514  12.669 -0.1583  0.5406 -0.4863
  156MPD2    H5 2384   0.610   0.516  12.637 -0.0288  1.4357 -0.7985
  156MPD2    N1 2385   0.729   0.223  12.277 -0.0027  0.3092  0.0987
  156MPD2    H7 2386   0.791   0.170  12.218 -0.3473  0.8054 -0.7163
  157TCq2    C1 2387   0.595   0.215  12.254  0.3931 -0.0420 -0.1198
  157TCq2    O2 2388   0.497   0.247  12.324  0.0307  0.4207  0.1013
  157TCq2    C2 2389   0.555   0.168  12.129 -0.0079  0.1304 -0.6092
  157TCq2    C3 2390   0.642   0.090  12.063  0.2107 -0.5172 -0.1509
  157TCq2    C4 2391   0.617   0.066  11.928 -0.2079  0.0608 -0.6197
  157TCq2    C5 2392   0.514   0.127  11.871 -0.2998  0.1680  0.0936
  157TCq2    C6 2393   0.427   0.204  11.947  0.7612  0.0395  0.1895
  157TCq2    C7 2394   0.448   0.233  12.076  0.0844  0.2336  0.0730
  157TCq2    C8 2395   0.357   0.312  11.875 -0.4618  0.2965 -0.5544
  157TCq2    O4 2396   0.355   0.418  11.937 -0.1244 -0.4817  0.4145
  157TCq2    C9 2397   0.705   4.705  11.852 -0.1651 -0.6586 -0.4456
  157TCq2    O5 2398   0.807   4.666  11.912 -0.6226  0.3084  0.0433
  157TCq2    O6 2399   0.665   4.651  11.747 -0.1119 -0.0843 -0.6808
  157TCq2    H2 2400   0.720   0.034  12.113  0.6873 -0.4796 -0.8471
  157TCq2    H3 2401   0.487   0.111  11.768  0.5226 -0.0534 -0.0852
  157TCq2    H4 2402   0.389   0.304  12.132 -3.9457 -3.3751  0.4486
  158TMC2    C1 2403   0.673   3.088  13.026  0.1469 -0.2768  0.2603
  158TMC2    C2 2404   0.687   3.087  12.896 -0.2829 -0.6635  0.4404
  158TMC2    C3 2405   0.594   3.156  12.825  0.2745 -0.1484  0.2257
  158TMC2    C4 2406   0.578   3.159  13.101 -0.1071  0.0140  0.0996
  158TMC2    C5 2407   0.487   3.225  13.035  0.5064 -0.3778 -0.0155
  158TMC2    C6 2408   0.503   3.239  12.897 -0.1200  0.0428  0.3380
  158TMC2     C 2409   0.758   2.995  13.097 -0.8056  0.0242 -0.4676
  158TMC2     O 2410   0.817   2.908  13.034  0.0716 -0.0535  0.2094
  158TMC2     H 2411   0.763   3.032  12.842  2.4434  2.1147  1.4765
  158TMC2    H1 2412   0.577   3.172  13.209  0.4321 -0.0090  0.1087
  158TMC2    H2 2413   0.430   3.300  12.845 -1.0566 -0.5533  0.9298
  158TMC2    C7 2414   0.362   3.271  13.091  0.1107 -0.9366 -0.0948
  158TMC2    C8 2415   0.586   3.146  12.686  0.3984 -0.6261 -0.4306
  158TMC2    O1 2416   0.281   3.335  13.026  0.2597  0.2000 -0.1679
  158TMC2    O2 2417   0.669   3.084  12.621 -0.0193 -0.0599 -0.5426
  158TMC2    O5 2418   0.460   3.158  12.649 -0.1877 -0.3294  0.2394
  158TMC2    H5 2419   0.392   3.161  12.719 -0.9544  0.9893 -0.5642
  159MPD2     C 2420   1.106   2.971  13.476  0.2545 -0.4480  0.4702
  159MPD2    C1 2421   1.004   3.055  13.508  0.3483  0.1264 -0.1435
  159MPD2    C2 2422   0.898   3.062  13.421  0.3760 -0.1706  0.3490
  159MPD2    C3 2423   0.888   2.987  13.309  0.0039 -1.0700  0.6254
  159MPD2    C4 2424   0.995   2.910  13.272 -0.3502  0.3048 -0.3685
  159MPD2    C5 2425   1.111   2.904  13.355  0.2477  0.0565  0.5617
  159MPD2     H 2426   0.813   3.121  13.454  0.3149 -0.7456  1.2053
  159MPD2    H1 2427   0.997   2.855  13.179  0.3511  0.2741 -0.3356
  159MPD2    H2 2428   1.196   2.975  13.536 -0.0486 -1.6141  0.9914
  159MPD2    H3 2429   1.199   2.848  13.326  0.8786  1.9522 -1.1620
  159MPD2     N 2430   0.777   3.030  13.228  0.6813 -0.5551 -0.1495
  159MPD2    H5 2431   0.720   3.106  13.264  0.4468 -0.1452 -1.3862
  159MPD2    N1 2432   1.010   3.119  13.636  0.4880  0.5113 -0.0502
  159MPD2    H7 2433   1.081   3.085  13.700  2.1357  1.2152 -1.4928
  160TMC2    C1 2434   0.292   0.762   1.248 -0.1435 -1.0226  0.4496
  160TMC2    C2 2435   0.358   0.652   1.284 -0.0700 -0.2885  1.0878
  160TMC2    C3 2436   0.496   0.631   1.265 -0.6346 -0.0178  0.8302
  160TMC2    C4 2437   0.367   0.863   1.186  0.2205  0.3281 -0.4468
  160TMC2    C5 2438   0.506   0.840   1.170  0.2009  0.3933  0.6812
  160TMC2    C6 2439   0.571   0.723   1.198  0.4121  0.4904 -0.2757
  160TMC2     C 2440   0.152   0.752   1.217 -0.5317 -0.1669 -0.4131
  160TMC2     O 2441   0.112   0.638   1.244  0.2739 -0.1946 -0.2414
  160TMC2     H 2442   0.302   0.574   1.336  0.2712 -1.8260 -0.8669
  160TMC2    H1 2443   0.322   0.950   1.139  1.4862 -0.3893 -2.9165
  160TMC2    H2 2444   0.680   0.715   1.198  0.2623 -1.5620  0.5681
  160TMC2    C7 2445   0.582   0.933   1.084  0.1666 -0.6898  0.0777
  160TMC2    C8 2446   0.544   0.499   1.307 -0.0744  0.2329 -0.1797
  160TMC2    O1 2447   0.675   0.883   1.023 -0.3763  0.4574 -0.4471
  160TMC2    O2 2448   0.523   0.444   1.417 -0.4973 -0.0306 -0.3520
  160TMC2    O5 2449   0.619   0.448   1.203 -0.4925 -0.1517  0.2779
  160TMC2    H5 2450   0.610   0.498   1.119  1.7517  1.8373  1.2205
  161MPD2     C 2451   4.607   0.767   1.124  0.0752 -0.0702  0.2949
  161MPD2    C1 2452   4.685   0.877   1.130 -0.2075  0.9814 -0.0438
  161MPD2    C2 2453   4.637   1.001   1.104  0.0352  0.3444 -0.2441
  161MPD2    C3 2454   4.504   1.017   1.066  0.0310 -0.3348  0.3841
  161MPD2    C4 2455   4.419   0.903   1.070 -0.3687 -0.0157  0.5462
  161MPD2    C5 2456   4.471   0.784   1.098 -0.2042  0.0248 -0.5215
  161MPD2     H 2457   4.700   1.089   1.103  0.3500  0.0655 -3.1920
  161MPD2    H1 2458   4.314   0.919   1.051 -0.8807 -0.1877  3.2629
  161MPD2    H2 2459   4.635   0.662   1.122  1.6227  0.3801 -1.6410
  161MPD2    H3 2460   4.400   0.702   1.097 -0.8146  0.5344  2.5542
  161MPD2     N 2461   4.448   1.144   1.033 -0.6605  0.4203 -0.5112
  161MPD2    H5 2462   4.353   1.138   0.996 -1.1444  2.7991  0.3886
  161MPD2    N1 2463   0.096   0.862   1.165 -0.1442 -0.0445  0.2751
  161MPD2    H7 2464   0.146   0.950   1.168  0.0293 -0.1877  1.6294
  162TMC2    C1 2465   3.869   3.329   1.220  0.0041 -0.0983  0.5200
  162TMC2    C2 2466   3.968   3.236   1.214  0.1462  0.0605 -0.3026
  162TMC2    C3 2467   4.003   3.165   1.325 -0.3082 -0.1560 -0.5163
  162TMC2    C4 2468   3.808   3.361   1.342  0.2609 -0.4497 -0.2233
  162TMC2    C5 2469   3.845   3.286   1.445  0.4451 -0.9338  0.3237
  162TMC2    C6 2470   3.945   3.191   1.446 -0.3168  0.1483 -0.0595
  162TMC2     C 2471   3.789   3.348   1.104  0.4682  0.4753 -0.2767
  162TMC2     O 2472   3.776   3.246   1.039  0.6841 -0.0306 -0.1253
  162TMC2     H 2473   4.008   3.215   1.116  0.4610 -1.5084  0.1496
  162TMC2    H1 2474   3.722   3.426   1.342  1.0244  0.5607  2.0566
  162TMC2    H2 2475   3.973   3.128   1.530 -0.1066  1.1761  0.6303
  162TMC2    C7 2476   3.744   3.277   1.552  0.4703 -0.4011  0.0066
  162TMC2    C8 2477   4.083   3.050   1.306 -0.2724 -0.2931 -0.8843
  162TMC2    O1 2478   3.680   3.379   1.574 -0.1483 -0.1918  0.1048
  162TMC2    O2 2479   4.092   2.985   1.203 -0.1686 -0.0822  0.2365
  162TMC2    O5 2480   4.189   3.076   1.384  0.3586 -0.7507 -0.7149
  162TMC2    H5 2481   4.178   3.147   1.451 -2.8710  0.5141 -2.5407
  163MPD2     C 2482   3.572   3.629   0.742  0.5460 -0.1619 -0.6380
  163MPD2    C1 2483   3.573   3.493   0.772  0.1118  0.1160 -0.4386
  163MPD2    C2 2484   3.624   3.447   0.893 -0.1909 -0.0385 -0.0019
  163MPD2    C3 2485   3.688   3.534   0.973 -0.0049  0.1309 -0.9568
  163MPD2    C4 2486   3.692   3.670   0.945  0.5676 -0.1021  0.0816
  163MPD2    C5 2487   3.623   3.715   0.831  0.5606  0.1483 -0.0334
  163MPD2     H 2488   3.627   3.340   0.911 -1.1567 -0.1724 -0.6009
  163MPD2    H1 2489   3.749   3.736   1.009  2.8112 -1.2174 -0.7580
  163MPD2    H2 2490   3.537   3.671   0.648  0.1921 -1.1689 -0.9570
  163MPD2    H3 2491   3.620   3.821   0.807  0.1080  0.3425  0.8875
  163MPD2     N 2492   3.751   3.480   1.088 -0.3292  0.3390  0.7690
  163MPD2    H5 2493   3.781   3.550   1.155 -2.1049  1.3756  0.4882
  163MPD2    N1 2494   3.533   3.393   0.674  0.2915  0.5632  0.0108
  163MPD2    H7 2495   3.496   3.435   0.590 -0.3507  0.3913  0.2062
  164TCq2    C1 2496   3.835   3.567  12.052 -0.4950 -0.0195 -0.4756
  164TCq2    O2 2497   3.763   3.594  12.148 -0.0098  0.6901 -0.0299
  164TCq2    C2 2498   3.796   3.626  11.929 -0.6646 -0.4244  0.2408
  164TCq2    C3 2499   3.890   3.632  11.824  0.1671  0.1551 -0.0147
  164TCq2    C4 2500   3.842   3.664  11.698 -0.1455  0.4479  0.7368
  164TCq2    C5 2501   3.710   3.691  11.677 -0.0759 -0.9134 -0.4471
  164TCq2    C6 2502   3.631   3.692  11.787 -0.4857  0.0380 -0.4006
  164TCq2    C7 2503   3.669   3.665  11.917  0.1165  0.3889 -0.0417
  164TCq2    C8 2504   3.492   3.723  11.755  0.2346 -0.4431  0.1502
  164TCq2    O4 2505   3.461   3.728  11.638 -0.5848 -0.2526  0.0585
  164TCq2    C9 2506   3.926   3.649  11.581  0.1317 -0.1886  0.8271
  164TCq2    O5 2507   4.041   3.600  11.605  0.3229  0.2875  0.5650
  164TCq2    O6 2508   3.865   3.643  11.470  0.5902 -0.2743 -0.1365
  164TCq2    H2 2509   3.992   3.597  11.839  0.3145  0.0057 -1.3764
  164TCq2    H3 2510   3.672   3.700  11.576 -2.3661 -1.4721  0.3677
  164TCq2    H4 2511   3.606   3.674  12.004 -0.8204  0.9429 -0.7716
  165MPD2     C 2512   4.179   4.372   1.329 -0.1679  0.8854 -0.2156
  165MPD2    C1 2513   4.243   4.419   1.445 -0.4759 -0.1636  0.5498
  165MPD2    C2 2514   4.292   4.548   1.448 -0.0357  0.2201 -0.5775
  165MPD2    C3 2515   4.290   4.632   1.337  0.5173  0.0859  0.5747
  165MPD2    C4 2516   4.225   4.590   1.224  0.5452 -0.6450 -0.2126
  165MPD2    C5 2517   4.173   4.461   1.224 -0.2912  0.1423 -0.2021
  165MPD2     H 2518   4.349   4.580   1.535 -0.2606 -0.5753 -0.1438
  165MPD2    H1 2519   4.213   4.657   1.140  0.9090  0.6894  0.8048
  165MPD2    H2 2520   4.145   4.270   1.313  0.1342  0.1466  3.8544
  165MPD2    H3 2521   4.130   4.415   1.136 -0.1114  0.1875 -0.3130
  165MPD2     N 2522   4.353   0.034   1.328  0.3723  0.0751 -0.0264
  165MPD2    H5 2523   4.333   0.097   1.251 -1.2575 -0.6957 -0.2315
  165MPD2    N1 2524   4.266   4.320   1.542 -0.1667 -0.0207  0.1166
  165MPD2    H7 2525   4.235   4.223   1.534  0.6069 -0.5226  3.0759
  166TCq2    C1 2526   4.439   0.086   1.427  0.6976 -0.3338 -0.6716
  166TCq2    O2 2527   4.493   0.020   1.516 -0.1291 -0.5094 -0.2450
  166TCq2    C2 2528   4.463   0.228   1.409 -0.1987 -0.1801 -0.4272
  166TCq2    C3 2529   4.366   0.315   1.365  0.4403 -0.1315  1.0379
  166TCq2    C4 2530   4.385   0.448   1.390  0.4134 -0.8777 -0.3437
  166TCq2    C5 2531   4.502   0.493   1.432  0.9006 -0.1196  0.3714
  166TCq2    C6 2532   4.606   0.408   1.465  0.3908  0.6581 -0.1146
  166TCq2    C7 2533   4.580   0.271   1.465  0.1351 -0.1871  0.1058
  166TCq2    C8 2534   0.015   0.449   1.511  0.6643 -0.2083  0.0373
  166TCq2    O4 2535   0.107   0.365   1.502 -0.7876  0.0979  0.3572
  166TCq2    C9 2536   4.277   0.543   1.362  0.4138  0.2715 -0.3303
  166TCq2    O5 2537   4.289   0.657   1.415 -0.2588  0.6886  0.5188
  166TCq2    O6 2538   4.175   0.500   1.294 -0.1203 -0.3570  0.1783
  166TCq2    H2 2539   4.267   0.281   1.338  0.4390 -0.4884  1.4846
  166TCq2    H3 2540   4.519   0.600   1.430 -0.3866  0.0329 -3.0111
  166TCq2    H4 2541   4.658   0.196   1.474  2.4369  2.0148 -1.5062
  167TMC2    C1 2542   3.980   2.920  12.498 -0.1926 -0.9730 -0.0254
  167TMC2    C2 2543   3.908   3.007  12.583 -0.0326  0.0258 -0.5718
  167TMC2    C3 2544   3.882   2.961  12.705 -0.0165 -0.2896  0.2358
  167TMC2    C4 2545   4.001   2.792  12.540  0.4375 -0.4829  0.3741
  167TMC2    C5 2546   3.987   2.764  12.672  0.6828 -0.1171  0.5298
  167TMC2    C6 2547   3.930   2.847  12.760  0.0769 -0.0376 -0.0782
  167TMC2     C 2548   3.984   2.938  12.355  0.6635 -0.8163  0.3093
  167TMC2     O 2549   4.039   2.846  12.288  0.5751 -0.0216  0.1126
  167TMC2     H 2550   3.877   3.104  12.546 -0.9992  0.8614  2.3889
  167TMC2    H1 2551   4.020   2.710  12.471 -0.9370  0.0788 -0.6617
  167TMC2    H2 2552   3.936   2.823  12.866 -2.1102  0.7799  0.2274
  167TMC2    C7 2553   3.942   2.629  12.692  0.0504 -0.6666  0.7982
  167TMC2    C8 2554   3.807   3.061  12.786 -0.1039  0.0927  0.5334
  167TMC2    O1 2555   3.980   2.576  12.795  0.4971  0.0948  0.2939
  167TMC2    O2 2556   3.811   3.179  12.747 -0.3815 -0.3069 -0.5895
  167TMC2    O5 2557   3.794   3.014  12.915 -0.6086 -0.0372 -0.1405
  167TMC2    H5 2558   3.789   2.916  12.920 -1.6777 -0.1135 -2.5323
  168MPD2     C 2559   3.935   3.014  12.076 -0.9369  0.3663  0.3503
  168MPD2    C1 2560   3.858   3.058  12.184 -0.3264  0.0207  0.3549
  168MPD2    C2 2561   3.745   3.141  12.151 -0.4823 -0.0749  0.3742
  168MPD2    C3 2562   3.727   3.191  12.020 -0.4004  0.2790  0.4151
  168MPD2    C4 2563   3.814   3.152  11.925  0.3736 -0.0561 -0.9889
  168MPD2    C5 2564   3.910   3.062  11.949  0.2581 -0.7334 -0.4785
  168MPD2     H 2565   3.672   3.175  12.223  0.1759 -0.1414  1.0695
  168MPD2    H1 2566   3.801   3.196  11.827 -0.0959  1.9109 -0.0419
  168MPD2    H2 2567   4.016   2.945  12.096  0.6095  1.9615 -0.3695
  168MPD2    H3 2568   3.978   3.039  11.868 -0.8194  1.2992 -1.9623
  168MPD2     N 2569   3.611   3.264  12.000  0.3524  0.4400 -0.5927
  168MPD2    H5 2570   3.554   3.282  12.082 -2.4089 -0.3453 -2.3435
  168MPD2    N1 2571   3.891   3.029  12.318  0.1570  0.1326  0.6708
  168MPD2    H7 2572   3.827   3.056  12.392 -1.5297 -0.4686 -0.5564
  169MPD1     C 2573   0.771   1.473   8.565  0.3962  0.2943  0.1406
  169MPD1    C1 2574   0.839   1.380   8.633  0.1494  0.1183 -0.9658
  169MPD1    C2 2575   0.909   1.432   8.748 -0.8827 -0.5894  0.0752
  169MPD1    C3 2576   0.897   1.559   8.793 -0.1355 -0.2525  0.0611
  169MPD1    C4 2577   0.812   1.644   8.724  0.0659  0.5538  0.1081
  169MPD1    C5 2578   0.754   1.599   8.612  0.6181 -0.2496  0.0519
  169MPD1     H 2579   0.984   1.372   8.799  0.5793  1.2552  0.0688
  169MPD1    H1 2580   0.793   1.749   8.744  1.0093  0.5828  0.8478
  169MPD1    H2 2581   0.724   1.452   8.469 -1.4035  1.2642  0.8107
  169MPD1    H3 2582   0.698   1.663   8.545  1.3867  0.7401  0.3549
  169MPD1     N 2583   0.963   1.596   8.910  0.2999 -0.4301  0.1489
  169MPD1    H5 2584   1.014   1.519   8.951  2.1219  0.5079 -0.3609
  169MPD1    N1 2585   0.870   1.255   8.579 -0.2241  0.2641 -0.6181
  169MPD1    H6 2586   0.801   1.224   8.511 -0.7800 -2.5495  1.2503
  169MPD1    H7 2587   0.875   1.187   8.654  1.6167  0.1580 -0.8402
  170MPD1     C 2588   4.119   0.425  12.860 -0.5034  0.8793 -0.0623
  170MPD1    C1 2589   4.055   0.542  12.833  0.2912  0.2351 -0.0001
  170MPD1    C2 2590   3.998   0.600  12.945  0.3325 -0.1495 -0.4198
  170MPD1    C3 2591   4.023   0.555  13.076 -0.2161  0.1790  0.1789
  170MPD1    C4 2592   4.104   0.446  13.097  0.1045 -0.0350 -0.8930
  170MPD1    C5 2593   4.151   0.380  12.985  0.2433 -0.3098 -0.4264
  170MPD1     H 2594   3.939   0.690  12.934  2.6738  1.4027 -0.0932
  170MPD1    H1 2595   4.128   0.414  13.197 -0.1266  0.7573 -0.5829
  170MPD1    H2 2596   4.171   0.367  12.785 -0.5756  1.4822 -0.5783
  170MPD1    H3 2597   4.212   0.290  12.992 -0.1327 -0.3834  1.8757
  170MPD1     N 2598   3.960   0.631  13.184  0.1668 -0.1527 -0.2031
  170MPD1    H5 2599   3.900   0.710  13.163 -1.0994  0.0548  4.2024
  170MPD1    N1 2600   4.022   0.582  12.699  1.0870  0.1891 -0.5894
  170MPD1    H6 2601   4.094   0.547  12.637  0.3927 -0.1950 -1.1790
  170MPD1    H7 2602   4.020   0.684  12.697 -0.4252  0.1790  0.0629
  171MPD1     C 2603   2.529   1.727  15.403  0.6381  0.9155 -0.3889
  171MPD1    C1 2604   2.492   1.595  15.382 -0.2839 -0.8798 -0.5736
  171MPD1    C2 2605   2.534   1.486  15.467  0.3046  0.3187  0.3943
  171MPD1    C3 2606   2.630   1.521  15.559 -0.8593  0.0674  0.7066
  171MPD1    C4 2607   2.674   1.648  15.566  0.8746 -0.8638 -0.1917
  171MPD1    C5 2608   2.630   1.748  15.488 -0.4394  0.7562  0.5385
  171MPD1     H 2609   2.493   1.388  15.448 -1.4136  0.9545  0.8691
  171MPD1    H1 2610   2.754   1.676  15.634  1.2198 -1.4683 -0.3519
  171MPD1    H2 2611   2.484   1.810  15.350  0.2630 -0.3175 -1.9982
  171MPD1    H3 2612   2.660   1.848  15.517 -0.7657  0.6222  1.3366
  171MPD1     N 2613   2.679   1.430  15.652 -0.1586 -0.0129  0.1619
  171MPD1    H5 2614   2.731   1.467  15.731  0.2145 -1.0150  0.3978
  171MPD1    N1 2615   2.381   1.565  15.305 -0.3690 -0.1925 -0.4614
  171MPD1    H6 2616   2.388   1.470  15.270  1.5177  0.4504 -1.8449
  171MPD1    H7 2617   2.368   1.624  15.223 -1.2692  1.6645  1.0216
  172MPD1     C 2618   1.729   0.476   0.503  0.3484 -0.9602 -0.1437
  172MPD1    C1 2619   1.759   0.573   0.413  0.1262 -0.3496 -0.2151
  172MPD1    C2 2620   1.788   0.699   0.462 -0.5955 -0.7791 -0.2634
  172MPD1    C3 2621   1.774   0.731   0.597  0.1821 -0.2127  0.0452
  172MPD1    C4 2622   1.751   0.623   0.679  0.1308  0.1943 -0.2818
  172MPD1    C5 2623   1.731   0.496   0.639 -0.3314  0.7603 -0.0459
  172MPD1     H 2624   1.820   0.773   0.390  0.2360 -0.3930  0.5079
  172MPD1    H1 2625   1.748   0.648   0.785 -1.4473  0.4600 -0.3955
  172MPD1    H2 2626   1.694   0.378   0.474  1.9316 -2.1008  1.7847
  172MPD1    H3 2627   1.698   0.432   0.720 -1.3154 -0.8402 -1.6877
  172MPD1     N 2628   1.800   0.853   0.651 -0.1770 -0.2362  0.5992
  172MPD1    H5 2629   1.822   0.863   0.749  1.4153  1.3779  0.0712
  172MPD1    N1 2630   1.764   0.537   0.272 -0.3787 -0.0599  1.2365
  172MPD1    H6 2631   1.734   0.440   0.269 -0.1225 -0.0741 -0.9214
  172MPD1    H7 2632   1.682   0.583   0.231  0.6357  0.7467  0.1234
  173MPD1     C 2633   3.027   0.055  14.161 -0.1031 -0.5796  0.5863
  173MPD1    C1 2634   3.116   0.102  14.251  0.2966 -1.0255  0.0513
  173MPD1    C2 2635   3.080   0.135  14.382  0.2784  0.9405 -0.0203
  173MPD1    C3 2636   2.954   0.110  14.422  0.8663 -0.2741 -0.1712
  173MPD1    C4 2637   2.861   0.063  14.331  0.3557  0.3471  0.6928
  173MPD1    C5 2638   2.900   0.039  14.205  0.4794 -0.0479  0.9484
  173MPD1     H 2639   3.150   0.177  14.453  0.7969  0.5156 -0.2776
  173MPD1    H1 2640   2.760   0.041  14.364  0.3534 -1.7756 -0.7588
  173MPD1    H2 2641   3.044   0.025  14.058 -0.1947 -1.6300  0.8799
  173MPD1    H3 2642   2.828   4.711  14.144  1.6936  0.9268 -1.3543
  173MPD1     N 2643   2.919   0.141  14.553 -0.4344  0.4667  0.4172
  173MPD1    H5 2644   2.994   0.187  14.604 -0.2126  0.9543 -0.3671
  173MPD1    N1 2645   3.245   0.139  14.205 -0.2967  1.0468 -0.3581
  173MPD1    H6 2646   3.313   0.164  14.276  0.7813 -0.1258 -0.9682
  173MPD1    H7 2647   3.280   0.080  14.129 -0.9575  0.6876 -0.3850
  174MPD1     C 2648   3.072   0.971  14.625  0.5535  0.3336  0.2384
  174MPD1    C1 2649   3.053   0.941  14.754  0.1458  0.1127  0.0068
  174MPD1    C2 2650   3.020   0.807  14.785 -0.0631 -0.3226  0.6570
  174MPD1    C3 2651   2.983   0.712  14.686  0.0009 -0.3659 -0.8284
  174MPD1    C4 2652   3.004   0.753  14.556 -0.0307 -0.0607  0.0748
  174MPD1    C5 2653   3.054   0.880  14.526 -0.2398  0.1566 -0.3247
  174MPD1     H 2654   3.009   0.784  14.890  3.9437 -0.1582  1.0831
  174MPD1    H1 2655   2.988   0.681  14.477 -0.5061 -1.5865  1.5551
  174MPD1    H2 2656   3.100   1.074  14.603  0.9866  0.4877  1.5120
  174MPD1    H3 2657   3.081   0.901  14.423  0.4089  0.2677 -0.1373
  174MPD1     N 2658   2.939   0.578  14.711 -0.1045  0.8910 -0.1542
  174MPD1    H5 2659   2.916   0.516  14.634 -1.1967  0.0599  0.8433
  174MPD1    N1 2660   3.057   1.046  14.846 -0.3477  0.2001  0.1392
  174MPD1    H6 2661   3.137   1.107  14.830 -1.4302  1.0139 -2.2079
  174MPD1    H7 2662   3.034   1.034  14.944  3.9636  0.1139  1.1693
  175MPD1     C 2663   1.098   0.728  15.751  0.2400 -0.1848  0.5144
  175MPD1    C1 2664   1.001   0.775  15.837 -0.1738 -0.1943  0.3944
  175MPD1    C2 2665   1.036   0.887  15.909 -0.1854  0.1833 -0.3975
  175MPD1    C3 2666   1.169   0.943  15.907  0.3256  0.2678  0.5212
  175MPD1    C4 2667   1.258   0.871  15.837  0.4149 -0.3542  0.4515
  175MPD1    C5 2668   1.225   0.768  15.760  0.3334  0.2047  0.7378
  175MPD1     H 2669   0.957   0.944  15.957 -0.2335 -0.3776  0.1904
  175MPD1    H1 2670   1.364   0.894  15.837  0.0208  1.4631  0.3151
  175MPD1    H2 2671   1.082   0.639  15.691  1.7003 -1.4220  1.9898
  175MPD1    H3 2672   1.311   0.715  15.720 -0.1169 -0.3981  0.5607
  175MPD1     N 2673   1.207   1.061  15.970 -0.5742 -0.0645  0.7451
  175MPD1    H5 2674   1.303   1.083  15.946 -0.1730 -0.6421  1.8283
  175MPD1    N1 2675   0.864   0.735  15.824  0.2972  0.0689 -0.0664
  175MPD1    H6 2676   0.812   0.742  15.911  3.1006  1.7656  1.5050
  175MPD1    H7 2677   0.856   0.638  15.796 -0.5746  0.3882 -0.9150
  176MPD1     C 2678   3.153   2.739  16.915 -0.0201  0.1167 -0.2724
  176MPD1    C1 2679   3.233   2.838  16.972 -0.7110  0.5746 -0.4028
  176MPD1    C2 2680   3.176   2.930  17.056  0.0388 -0.0204  0.0185
  176MPD1    C3 2681   3.038   2.942  17.074 -0.4521  0.3425 -0.3407
  176MPD1    C4 2682   2.962   2.845  17.010 -0.9558 -0.3213  0.7293
  176MPD1    C5 2683   3.016   2.747  16.926  0.1529  0.3334 -0.1633
  176MPD1     H 2684   3.233   3.013  17.097 -2.2680  1.7125 -0.2115
  176MPD1    H1 2685   2.854   2.846  17.015 -0.8559  1.4418  2.5111
  176MPD1    H2 2686   3.201   2.654  16.867 -3.3591 -0.7335 -2.1199
  176MPD1    H3 2687   2.950   2.679  16.874  3.3206 -0.3529 -3.3536
  176MPD1     N 2688   2.977   3.047  17.135 -0.0360  0.0294 -0.1790
  176MPD1    H5 2689   3.041   3.123  17.153  0.2487 -0.5138  1.1203
  176MPD1    N1 2690   3.371   2.834  16.981  0.2146  0.3985  0.1542
  176MPD1    H6 2691   3.412   2.801  16.893 -1.2488  0.6770 -0.6328
  176MPD1    H7 2692   3.408   2.928  16.977  0.2948  0.3596 -0.0221
  177MPD1     C 2693   1.569   3.121  10.250  0.2808 -0.2377  0.3687
  177MPD1    C1 2694   1.460   3.052  10.186  0.1538  0.0777 -0.3092
  177MPD1    C2 2695   1.376   3.137  10.111  0.0869  0.5352 -0.4614
  177MPD1    C3 2696   1.390   3.275  10.104 -0.2497  0.4101 -0.0645
  177MPD1    C4 2697   1.507   3.332  10.155  0.3879 -0.1291 -0.1239
  177MPD1    C5 2698   1.587   3.254  10.232 -0.3548 -0.2657  0.4574
  177MPD1     H 2699   1.301   3.088  10.050  2.2465  1.2643 -3.7219
  177MPD1    H1 2700   1.529   3.438  10.153 -0.0281 -0.0814 -1.9762
  177MPD1    H2 2701   1.642   3.067  10.309  0.7742 -0.1688 -0.1706
  177MPD1    H3 2702   1.670   3.306  10.280 -0.4768 -1.2613  1.7534
  177MPD1     N 2703   1.300   3.343  10.020  0.3697 -0.5526 -0.2705
  177MPD1    H5 2704   1.223   3.291   9.978  1.0341 -1.4761 -0.3350
  177MPD1    N1 2705   1.428   2.919  10.213  0.3117 -0.3262 -0.8910
  177MPD1    H6 2706   1.359   2.878  10.150  0.1808 -1.9368  0.3062
  177MPD1    H7 2707   1.504   2.858  10.241  0.7682  1.4310  1.6489
  178MPD1     C 2708   3.700   4.050   0.380 -0.1367  0.1092  0.7313
  178MPD1    C1 2709   3.684   4.184   0.367 -0.0351  0.2506 -0.9116
  178MPD1    C2 2710   3.777   4.242   0.277  0.0456  0.6268  0.0205
  178MPD1    C3 2711   3.854   4.164   0.185  0.3124 -0.6345 -0.3737
  178MPD1    C4 2712   3.846   4.023   0.187  0.8043  0.5443 -0.1016
  178MPD1    C5 2713   3.780   3.970   0.300  0.3962 -1.3545  0.0843
  178MPD1     H 2714   3.785   4.350   0.277 -1.2394  0.7479 -2.7987
  178MPD1    H1 2715   3.886   3.956   0.111  3.3108  0.7860  1.0214
  178MPD1    H2 2716   3.653   4.006   0.468 -1.3068 -2.1599 -1.0499
  178MPD1    H3 2717   3.781   3.863   0.316  1.7318 -1.3385  0.0942
  178MPD1     N 2718   3.920   4.223   0.077 -0.2507 -0.2103 -0.1317
  178MPD1    H5 2719   3.937   4.166  17.701  0.1269  0.5377 -0.5634
  178MPD1    N1 2720   3.598   4.252   0.452 -0.1551  0.3602 -0.4983
  178MPD1    H6 2721   3.520   4.195   0.486  0.5946  0.1355  0.8536
  178MPD1    H7 2722   3.551   4.331   0.407 -0.3549  0.5313  0.0003
  179MPD1     C 2723   3.620   2.900  15.895  0.6764 -0.0496 -0.1076
  179MPD1    C1 2724   3.625   2.821  15.781  0.6299  0.0076 -0.4604
  179MPD1    C2 2725   3.598   2.690  15.800 -0.6522 -0.3997  0.3015
  179MPD1    C3 2726   3.555   2.636  15.924 -0.1711 -0.0902  0.5661
  179MPD1    C4 2727   3.550   2.726  16.033 -0.0403 -0.0648  0.4898
  179MPD1    C5 2728   3.578   2.860  16.021 -0.2768  0.9623 -0.3120
  179MPD1     H 2729   3.622   2.626  15.716 -0.2302 -0.4099  0.4312
  179MPD1    H1 2730   3.497   2.698  16.123 -1.2846 -0.0047 -0.2170
  179MPD1    H2 2731   3.653   3.003  15.897 -1.3897  0.6315 -0.4116
  179MPD1    H3 2732   3.574   2.922  16.111  2.8828  0.5857  0.0731
  179MPD1     N 2733   3.537   2.502  15.944  0.7975 -0.7892 -0.0307
  179MPD1    H5 2734   3.516   2.475  16.040 -2.5818  0.2330 -0.4982
  179MPD1    N1 2735   3.664   2.874  15.660  0.1456 -0.2706  0.2172
  179MPD1    H6 2736   3.664   2.803  15.588  0.6060 -0.3505  0.3007
  179MPD1    H7 2737   3.748   2.930  15.668  0.7726 -0.9760 -1.5318
  180MPD1     C 2738   3.554   4.040  15.551  0.5238  0.1769 -0.3439
  180MPD1    C1 2739   3.684   4.071  15.504  0.4974  0.0642 -0.5341
  180MPD1    C2 2740   3.700   4.094  15.371 -0.6853 -0.1322 -0.1355
  180MPD1    C3 2741   3.609   4.044  15.277  0.1799  0.2090  0.9648
  180MPD1    C4 2742   3.489   3.998  15.325  0.0395  0.0817  0.4585
  180MPD1    C5 2743   3.466   3.995  15.456 -0.0044  0.2379 -0.3868
  180MPD1     H 2744   3.800   4.111  15.333 -0.1713 -1.1456  0.7840
  180MPD1    H1 2745   3.412   3.961  15.260  0.3624  0.2605 -0.0230
  180MPD1    H2 2746   3.524   4.045  15.655 -1.1971 -3.1792 -0.6662
  180MPD1    H3 2747   3.369   3.950  15.477 -1.2946  1.8402 -2.8361
  180MPD1     N 2748   3.639   4.070  15.144  0.0010 -0.1910  0.1752
  180MPD1    H5 2749   3.736   4.088  15.122 -0.7865 -1.0859 -4.1498
  180MPD1    N1 2750   3.785   4.116  15.590 -0.0448  0.2586  0.4102
  180MPD1    H6 2751   3.873   4.112  15.539  0.6927  0.3367  1.6842
  180MPD1    H7 2752   3.790   4.057  15.673 -0.4171 -1.2189 -0.6102
  181MPD1     C 2753   4.632   0.332   9.112  0.7968 -0.5230 -0.0061
  181MPD1    C1 2754   4.635   0.457   9.175  0.2388 -0.1699  0.7537
  181MPD1    C2 2755   0.026   0.504   9.235 -0.0526 -0.8999 -0.1308
  181MPD1    C3 2756   0.140   0.431   9.216 -0.4626  0.3403 -0.4485
  181MPD1    C4 2757   0.138   0.307   9.155  0.0027  0.4344  0.0791
  181MPD1    C5 2758   0.021   0.262   9.101 -0.8019 -0.1283 -0.3334
  181MPD1     H 2759   0.021   0.606   9.272 -1.0431 -0.8073 -0.5303
  181MPD1    H1 2760   0.225   0.243   9.148 -0.1473  0.4753 -2.1574
  181MPD1    H2 2761   4.543   0.297   9.062 -0.7370  0.6419  1.9241
  181MPD1    H3 2762   0.023   0.166   9.051 -2.7311  0.2467 -1.1536
  181MPD1     N 2763   0.273   0.472   9.255 -1.0171  0.2565 -0.4785
  181MPD1    H5 2764   0.350   0.408   9.235 -1.6747 -0.7016  0.0481
  181MPD1    N1 2765   4.532   0.548   9.149 -0.2774  0.0454 -0.3688
  181MPD1    H6 2766   4.508   0.615   9.222 -2.0766 -0.4614 -0.5007
  181MPD1    H7 2767   4.454   0.494   9.113 -0.0059  0.8218 -2.1459
  182MPD1     C 2768   2.118   4.526   1.471  0.6032  0.6046  0.9745
  182MPD1    C1 2769   2.137   4.501   1.335  0.4825  0.9038 -0.0596
  182MPD1    C2 2770   2.019   4.499   1.258 -0.1062 -0.8683 -0.0406
  182MPD1    C3 2771   1.893   4.506   1.323 -0.0558 -0.7116 -0.1920
  182MPD1    C4 2772   1.880   4.514   1.458  0.4730  0.6017 -0.3440
  182MPD1    C5 2773   1.989   4.534   1.529  0.0765  0.1503  0.3507
  182MPD1     H 2774   2.030   4.480   1.152 -0.4140 -0.6072 -0.1189
  182MPD1    H1 2775   1.782   4.528   1.503  0.1833 -1.9317 -0.1749
  182MPD1    H2 2776   2.204   4.537   1.535  1.0938  0.0393  0.4173
  182MPD1    H3 2777   1.975   4.545   1.636 -0.6916  0.7736  0.1792
  182MPD1     N 2778   1.776   4.502   1.246 -0.6179  0.8502  0.3338
  182MPD1    H5 2779   1.690   4.501   1.301 -0.8845  2.6039 -0.0719
  182MPD1    N1 2780   2.261   4.525   1.274 -0.6039 -0.2924  0.3749
  182MPD1    H6 2781   2.272   4.475   1.186 -0.0834  0.2530  0.1343
  182MPD1    H7 2782   2.341   4.485   1.322 -0.6157 -1.1438 -0.3120
  183MPD1     C 2783   1.540   4.575   8.462 -0.5673 -0.8722 -0.2789
  183MPD1    C1 2784   1.461   4.688   8.441 -0.8995  0.1737  0.1311
  183MPD1    C2 2785   1.489   0.071   8.518 -0.4521  0.4438  0.4858
  183MPD1    C3 2786   1.570   0.061   8.630  0.7395 -0.6213  0.0365
  183MPD1    C4 2787   1.634   4.672   8.659  0.4168 -0.3551 -0.4733
  183MPD1    C5 2788   1.621   4.566   8.569  0.3854  0.7519 -0.8933
  183MPD1     H 2789   1.441   0.164   8.493 -1.0464 -0.3529 -1.3475
  183MPD1    H1 2790   1.705   4.654   8.738  0.4278  2.2892  0.1116
  183MPD1    H2 2791   1.522   4.483   8.406  1.1934 -1.9559  0.9429
  183MPD1    H3 2792   1.663   4.470   8.596  1.3095  2.2034  2.8254
  183MPD1     N 2793   1.571   0.171   8.719 -0.1218  0.1476 -0.3130
  183MPD1    H5 2794   1.498   0.240   8.701 -0.0856  0.0945 -0.6767
  183MPD1    N1 2795   1.376   4.700   8.328  0.1149  0.5091 -0.3728
  183MPD1    H6 2796   1.334   4.608   8.320 -0.1566  0.1925  4.5044
  183MPD1    H7 2797   1.297   0.034   8.351 -2.4075 -2.2691 -1.7423
  184MPD1     C 2798   0.660   2.273   9.930 -0.4658 -0.3400 -0.0710
  184MPD1    C1 2799   0.653   2.384  10.014  0.6383  0.0084  0.4235
  184MPD1    C2 2800   0.691   2.509   9.968 -0.3199  0.2372 -0.5499
  184MPD1    C3 2801   0.691   2.533   9.833  0.3000  0.8772  0.5097
  184MPD1    C4 2802   0.683   2.428   9.750  0.1879  0.3829 -0.2287
  184MPD1    C5 2803   0.674   2.303   9.798 -0.0138 -0.0906 -0.0253
  184MPD1     H 2804   0.694   2.582  10.048 -0.4419 -0.9156  0.5032
  184MPD1    H1 2805   0.701   2.437   9.643  0.6920  1.4142 -0.0540
  184MPD1    H2 2806   0.664   2.171   9.969 -0.4444 -0.5592 -0.6470
  184MPD1    H3 2807   0.684   2.224   9.725  2.6853 -0.1430  0.4238
  184MPD1     N 2808   0.701   2.660   9.773 -0.1790  0.3262  0.3084
  184MPD1    H5 2809   0.686   2.665   9.672  0.6889  0.6841  0.2007
  184MPD1    N1 2810   0.654   2.366  10.157  0.5225 -0.1634 -0.4067
  184MPD1    H6 2811   0.622   2.452  10.202 -0.0082 -1.4493  1.6195
  184MPD1    H7 2812   0.588   2.294  10.184  0.6934  0.1433  0.8052
  185MPD1     C 2813   0.452   3.276   9.011 -0.6350  0.3628  0.8393
  185MPD1    C1 2814   0.477   3.144   9.032  0.7381  0.0914 -0.0528
  185MPD1    C2 2815   0.522   3.107   9.154  0.7793 -0.0220  0.1392
  185MPD1    C3 2816   0.546   3.191   9.258 -0.2376 -0.1062 -0.6422
  185MPD1    C4 2817   0.520   3.328   9.239 -0.7038 -0.6211 -0.2380
  185MPD1    C5 2818   0.471   3.364   9.111 -0.1804  0.1125  0.2006
  185MPD1     H 2819   0.545   3.001   9.166 -3.1978 -0.7642  1.2810
  185MPD1    H1 2820   0.539   3.400   9.318 -1.7931 -1.2781  0.6250
  185MPD1    H2 2821   0.430   3.322   8.916  2.4934  1.8284  0.8196
  185MPD1    H3 2822   0.462   3.469   9.083  0.6655  0.1656  0.1105
  185MPD1     N 2823   0.591   3.151   9.383 -0.5819  0.4392 -0.8355
  185MPD1    H5 2824   0.603   3.227   9.450  0.3438 -2.0522  1.8428
  185MPD1    N1 2825   0.501   3.062   8.914  0.0470 -0.2425  0.4020
  185MPD1    H6 2826   0.439   3.074   8.834  1.4486 -0.4804 -0.7190
  185MPD1    H7 2827   0.509   2.961   8.917 -1.6140 -0.3548  0.7504
  186MPD1     C 2828   3.889   2.248  15.863 -0.2780 -0.0930 -0.0951
  186MPD1    C1 2829   3.951   2.234  15.983 -0.2668  0.2475 -0.0698
  186MPD1    C2 2830   3.957   2.346  16.066  1.2872 -0.0217 -0.2417
  186MPD1    C3 2831   3.934   2.469  16.007  0.1476  0.0890 -0.0108
  186MPD1    C4 2832   3.886   2.478  15.882  0.2495  0.6565 -0.1488
  186MPD1    C5 2833   3.864   2.369  15.805 -0.6514 -0.1788 -0.1970
  186MPD1     H 2834   3.991   2.337  16.168  3.1088 -1.4446 -0.9837
  186MPD1    H1 2835   3.862   2.574  15.837 -1.7731  0.5442  0.6854
  186MPD1    H2 2836   3.871   2.160  15.802 -0.9118  0.0562 -0.1133
  186MPD1    H3 2837   3.820   2.378  15.707  1.4272  0.4532 -1.0662
  186MPD1     N 2838   3.949   2.586  16.083 -0.2437  0.1187 -0.0883
  186MPD1    H5 2839   3.965   2.576  16.182  1.6486  1.7377 -0.2359
  186MPD1    N1 2840   3.996   2.113  16.040  0.1071  0.5730  0.4069
  186MPD1    H6 2841   4.082   2.116  16.095  0.1095 -0.3859  0.4583
  186MPD1    H7 2842   4.008   2.050  15.961  1.6223  1.6205 -0.2060
  187MPD1     C 2843   3.609   4.156  17.668  0.0295  0.2710 -0.1983
  187MPD1    C1 2844   3.516   4.097  17.584 -0.2067 -0.0197 -0.7185
  187MPD1    C2 2845   3.414   4.167  17.521 -0.3191 -0.2708 -0.4992
  187MPD1    C3 2846   3.406   4.301  17.549 -0.3219  0.0971  0.4369
  187MPD1    C4 2847   3.504   4.364  17.622  0.1936 -0.4677 -0.1722
  187MPD1    C5 2848   3.607   4.293  17.681  0.1417 -0.0106 -0.4029
  187MPD1     H 2849   3.328   4.110  17.488 -2.0888  0.3643  3.0111
  187MPD1    H1 2850   3.491   4.468  17.651  0.0554 -0.9697  1.5749
  187MPD1    H2 2851   3.668   4.085   0.019  0.9886  0.0830 -1.3923
  187MPD1    H3 2852   3.660   4.342   0.055  0.0399 -0.6335  0.0424
  187MPD1     N 2853   3.292   4.381  17.517 -0.4675  0.3638 -0.1376
  187MPD1    H5 2854   3.286   4.470  17.566 -1.5384 -0.4041  1.1436
  187MPD1    N1 2855   3.514   3.957  17.574  0.1090  0.0853 -0.0987
  187MPD1    H6 2856   3.455   3.924  17.498 -0.3129  0.4877  0.0558
  187MPD1    H7 2857   3.606   3.913  17.569 -0.3746 -1.2850  2.7900
  188MPD1     C 2858   3.281   4.462  10.516 -0.3937 -0.8854 -0.1603
  188MPD1    C1 2859   3.155   4.403  10.526  0.4425  0.2312 -0.1901
  188MPD1    C2 2860   3.133   4.285  10.459  0.0388 -0.7157  0.5351
  188MPD1    C3 2861   3.237   4.215  10.386  0.8340 -0.1316 -0.1885
  188MPD1    C4 2862   3.364   4.261  10.411 -0.0116 -0.1713  0.1429
  188MPD1    C5 2863   3.381   4.389  10.457  0.0794 -0.5385  0.6034
  188MPD1     H 2864   3.034   4.243  10.448  0.9489 -2.2990 -1.6426
  188MPD1    H1 2865   3.449   4.226  10.353  1.1834  1.1201  1.1347
  188MPD1    H2 2866   3.301   4.566  10.537 -0.1484 -1.0143  0.2583
  188MPD1    H3 2867   3.480   4.429  10.473  0.0195 -0.2088  0.1525
  188MPD1     N 2868   3.210   4.091  10.321 -0.2953 -0.3786  0.9884
  188MPD1    H5 2869   3.298   4.042  10.303 -2.6491 -3.9820 -0.8578
  188MPD1    N1 2870   3.044   4.483  10.544 -1.0683  0.1980 -0.2384
  188MPD1    H6 2871   3.063   4.554  10.614 -1.2855  0.5011 -0.4881
  188MPD1    H7 2872   2.970   4.424  10.582  0.6781 -0.8515  1.5802
  189MPD1     C 2873   0.244   0.472   0.564 -1.1410 -0.2813 -0.0865
  189MPD1    C1 2874   0.121   0.396   0.559  0.4558  0.0778 -0.5779
  189MPD1    C2 2875   0.009   0.462   0.514 -0.1526  0.8728  0.2451
  189MPD1    C3 2876   0.008   0.599   0.491 -0.5620  0.1526 -0.2924
  189MPD1    C4 2877   0.126   0.668   0.491  0.3667 -0.2829  0.0056
  189MPD1    C5 2878   0.239   0.605   0.528 -0.2188 -0.5680  0.2825
  189MPD1     H 2879   4.638   0.415   0.507 -0.2360  0.8417  1.5824
  189MPD1    H1 2880   0.120   0.775   0.475  1.0133  0.0184  1.8048
  189MPD1    H2 2881   0.336   0.431   0.604  1.3300  3.5294 -1.8962
  189MPD1    H3 2882   0.324   0.671   0.540  1.3220 -2.3291 -1.0746
  189MPD1     N 2883   4.612   0.660   0.454 -0.7251 -0.6108 -0.3032
  189MPD1    H5 2884   4.536   0.596   0.432 -0.7464 -0.3055 -1.1407
  189MPD1    N1 2885   0.126   0.254   0.573 -0.4053  0.0325 -0.0834
  189MPD1    H6 2886   0.037   0.208   0.586 -0.0820 -0.6490 -0.3085
  189MPD1    H7 2887   0.196   0.242   0.646 -0.8824 -0.5850  0.2698
  190MPD1     C 2888   3.144   3.392  15.399  0.1787  0.6732  0.3157
  190MPD1    C1 2889   3.268   3.332  15.395  0.5008 -0.5369  0.4868
  190MPD1    C2 2890   3.377   3.398  15.441 -0.2079  0.2028 -0.2174
  190MPD1    C3 2891   3.375   3.533  15.483  0.4006  0.1354 -0.5784
  190MPD1    C4 2892   3.248   3.590  15.493 -0.3135  0.1010  0.2897
  190MPD1    C5 2893   3.138   3.520  15.452  1.0384  0.0166  0.1576
  190MPD1     H 2894   3.463   3.332  15.450 -0.4226 -0.4373 -3.1004
  190MPD1    H1 2895   3.230   3.689  15.534  1.4964  0.4245  0.2939
  190MPD1    H2 2896   3.054   3.337  15.376 -0.9750  2.0437  1.6422
  190MPD1    H3 2897   3.042   3.568  15.462  0.7223 -0.7979  0.9464
  190MPD1     N 2898   3.503   3.588  15.520 -0.0468  0.5346 -0.3830
  190MPD1    H5 2899   3.585   3.535  15.494 -1.0909 -0.6694 -1.2791
  190MPD1    N1 2900   3.272   3.193  15.381  0.2039  0.0327  0.7131
  190MPD1    H6 2901   3.200   3.151  15.323  1.3485 -2.4781  1.0944
  190MPD1    H7 2902   3.366   3.168  15.350  0.4099  0.9525  0.5819
  191MPD1     C 2903   2.866   0.802  12.897 -0.3032  0.2815 -0.5539
  191MPD1    C1 2904   2.967   0.876  12.842 -0.0400 -0.1943  0.3737
  191MPD1    C2 2905   2.931   0.952  12.735 -0.3320  0.4486  0.2569
  191MPD1    C3 2906   2.793   0.956  12.682 -0.0284 -0.1945 -0.1860
  191MPD1    C4 2907   2.706   0.865  12.732 -0.5629 -0.0775 -0.3030
  191MPD1    C5 2908   2.747   0.784  12.839  1.0404 -0.8663  0.4313
  191MPD1     H 2909   3.003   1.018  12.687  1.3247 -1.1960  0.4838
  191MPD1    H1 2910   2.605   0.857  12.693 -0.9255 -0.7076  0.7708
  191MPD1    H2 2911   2.881   0.750  12.991 -0.7646  0.7883 -0.2013
  191MPD1    H3 2912   2.675   0.725  12.896  0.7552 -0.0682  0.9056
  191MPD1     N 2913   2.756   1.050  12.578 -0.2472  0.7324  0.0964
  191MPD1    H5 2914   2.835   1.104  12.546  0.0200  1.9107  2.7468
  191MPD1    N1 2915   3.086   0.892  12.914  0.5063 -0.0383  0.0891
  191MPD1    H6 2916   3.164   0.913  12.851 -0.9215  1.7294 -1.0999
  191MPD1    H7 2917   3.119   0.805  12.956  0.0185  0.3448  1.2384
  192MPD1     C 2918   2.015   1.820  12.428 -0.0897 -0.3159 -0.1414
  192MPD1    C1 2919   2.013   1.706  12.354  0.3949  0.3528 -0.2491
  192MPD1    C2 2920   2.121   1.616  12.343 -0.1645  0.3900 -0.2261
  192MPD1    C3 2921   2.235   1.651  12.408 -0.1598 -0.3988  0.2005
  192MPD1    C4 2922   2.236   1.765  12.480  0.5202 -0.5337  0.5035
  192MPD1    C5 2923   2.127   1.848  12.496 -0.6950 -0.1989 -0.2816
  192MPD1     H 2924   2.110   1.519  12.295 -0.1526 -0.1902  0.9549
  192MPD1    H1 2925   2.320   1.788  12.545  0.3166 -0.7472  0.8381
  192MPD1    H2 2926   1.928   1.884  12.421 -0.5359 -0.9743 -0.7091
  192MPD1    H3 2927   2.142   1.940  12.553 -0.7918 -0.2117 -0.2342
  192MPD1     N 2928   2.352   1.569  12.415  0.5508 -0.7267 -0.1675
  192MPD1    H5 2929   2.432   1.608  12.464 -1.3665  0.5025  1.9374
  192MPD1    N1 2930   1.892   1.682  12.276 -0.4748  0.2286 -0.5948
  192MPD1    H6 2931   1.883   1.587  12.241 -3.8544  0.9282 -1.5532
  192MPD1    H7 2932   1.806   1.715  12.319  0.4554 -0.6713  1.9342
  193MPD1     C 2933   2.435   1.268  15.926  0.7053 -0.8073 -0.2710
  193MPD1    C1 2934   2.477   1.384  15.990  0.6154 -0.2166 -0.1411
  193MPD1    C2 2935   2.560   1.371  16.107 -0.0123 -1.4383 -0.3066
  193MPD1    C3 2936   2.581   1.243  16.162  0.6537 -0.3505  0.8516
  193MPD1    C4 2937   2.523   1.136  16.103  0.6802  0.3242  0.1554
  193MPD1    C5 2938   2.451   1.145  15.991  0.4050 -0.0182 -0.0233
  193MPD1     H 2939   2.592   1.458  16.164  1.1796 -2.5938  0.7853
  193MPD1    H1 2940   2.537   1.036  16.143  1.9442  0.5525  0.2762
  193MPD1    H2 2941   2.383   1.265  15.830  0.4558 -0.2034 -0.1521
  193MPD1    H3 2942   2.406   1.058  15.944 -0.9283  0.4091  0.4572
  193MPD1     N 2943   2.666   1.229  16.266  0.3911 -0.5702  0.5185
  193MPD1    H5 2944   2.691   1.133  16.289  0.2657 -1.0721 -1.4476
  193MPD1    N1 2945   2.424   1.505  15.958 -0.4310 -0.3427 -0.0851
  193MPD1    H6 2946   2.396   1.520  15.861  0.0337 -2.4675 -0.5396
  193MPD1    H7 2947   2.488   1.576  15.992  0.1559 -0.5203 -0.8228
  194MPD1     C 2948   1.550   3.537  17.185 -0.9529  0.1413  0.2898
  194MPD1    C1 2949   1.548   3.524  17.050  0.1481  0.1894 -0.4841
  194MPD1    C2 2950   1.556   3.395  16.997 -0.2684 -0.2188  0.3939
  194MPD1    C3 2951   1.568   3.286  17.082  0.4768  0.4125  0.6298
  194MPD1    C4 2952   1.585   3.306  17.219  0.0436  0.4278  0.5996
  194MPD1    C5 2953   1.565   3.430  17.273 -0.4724 -0.3456  0.7272
  194MPD1     H 2954   1.564   3.392  16.889 -1.4956  2.0145  0.2471
  194MPD1    H1 2955   1.603   3.223  17.286 -0.6518  0.3781  0.7152
  194MPD1    H2 2956   1.515   3.628  17.233  0.9384  2.1580 -2.0927
  194MPD1    H3 2957   1.566   3.446  17.380 -0.7714  0.1656  0.6526
  194MPD1     N 2958   1.564   3.155  17.042 -0.2978  0.4126  0.0256
  194MPD1    H5 2959   1.578   3.100  17.126 -1.4613 -0.5614 -0.4180
  194MPD1    N1 2960   1.520   3.627  16.959 -0.1198 -0.6510 -0.3083
  194MPD1    H6 2961   1.543   3.717  17.001 -0.6721 -1.3094  1.4386
  194MPD1    H7 2962   1.581   3.620  16.878  1.2828 -2.2629  0.8846
  195MPD1     C 2963   2.363   0.150  16.941  1.0232  0.0332 -0.0896
  195MPD1    C1 2964   2.484   0.096  16.995 -0.0990 -0.2769  0.0667
  195MPD1    C2 2965   2.468   4.724  17.088  0.1884 -0.2293  0.4044
  195MPD1    C3 2966   2.342   4.676  17.124  0.4883 -0.4865  0.0822
  195MPD1    C4 2967   2.227   0.005  17.072  0.9974  0.2928  0.5183
  195MPD1    C5 2968   2.247   0.110  16.983 -0.0639  0.2608  0.8332
  195MPD1     H 2969   2.559   4.671  17.114  0.1268 -0.3564  0.3608
  195MPD1    H1 2970   2.130   4.702  17.112  0.9311  0.0731  0.1999
  195MPD1    H2 2971   2.359   0.216  16.855 -1.6871 -2.3500 -1.7603
  195MPD1    H3 2972   2.155   0.156  16.947 -1.2642 -2.4888  0.3248
  195MPD1     N 2973   2.326   4.563  17.203 -0.4478 -0.1352  0.5663
  195MPD1    H5 2974   2.234   4.521  17.205  0.3216 -1.7539  1.4672
  195MPD1    N1 2975   2.607   0.124  16.940  0.3259 -0.0930  0.4386
  195MPD1    H6 2976   2.604   0.223  16.917 -2.2983  0.1136  1.6702
  195MPD1    H7 2977   2.681   0.118  17.009  0.0151  0.0677  0.7847
  196MPD1     C 2978   2.819   0.336   0.077  0.2793  0.7994  0.4266
  196MPD1    C1 2979   2.864   0.217   0.117  0.7283  1.1658  0.5525
  196MPD1    C2 2980   2.863   0.192   0.259  1.1007  1.0624 -0.5341
  196MPD1    C3 2981   2.802   0.280   0.344  0.2882 -0.0223 -0.4865
  196MPD1    C4 2982   2.750   0.395   0.297  0.4197 -1.0094  0.9012
  196MPD1    C5 2983   2.766   0.426   0.166 -0.1740 -1.2097 -1.2057
  196MPD1     H 2984   2.907   0.101   0.298  0.6649  0.7198 -0.8343
  196MPD1    H1 2985   2.711   0.469   0.366 -0.1758 -0.0970 -0.4154
  196MPD1    H2 2986   2.837   0.367  17.682 -1.5978  2.2740  0.5361
  196MPD1    H3 2987   2.726   0.518   0.126  0.9157 -0.0344  0.3856
  196MPD1     N 2988   2.792   0.252   0.484  0.1872  0.0131  0.3773
  196MPD1    H5 2989   2.738   0.316   0.542  1.1653  1.5326 -0.3873
  196MPD1    N1 2990   2.944   0.145   0.030  0.4673  0.3997 -0.5095
  196MPD1    H6 2991   2.921   0.165  17.639  0.4828 -0.9854 -0.8058
  196MPD1    H7 2992   2.945   0.043   0.037  1.8254  0.5407  1.1666
  197MPD1     C 2993   1.672   1.406  17.525  0.3963  0.0581  0.3636
  197MPD1    C1 2994   1.743   1.523  17.502  0.4427  0.4306  0.2011
  197MPD1    C2 2995   1.699   1.616  17.412 -0.5178 -0.2766 -1.0142
  197MPD1    C3 2996   1.576   1.614  17.353 -0.1133 -0.1777 -0.5696
  197MPD1    C4 2997   1.506   1.496  17.376 -0.1929 -0.1244 -0.9227
  197MPD1    C5 2998   1.553   1.392  17.455 -0.5495  0.1333  0.8010
  197MPD1     H 2999   1.764   1.703  17.415 -1.6648  0.4806  1.4890
  197MPD1    H1 3000   1.415   1.484  17.317  0.2528  0.2300 -1.6731
  197MPD1    H2 3001   1.705   1.334  17.598 -0.7404  0.4506  1.2638
  197MPD1    H3 3002   1.493   1.304  17.473  0.2203 -0.6211 -0.3412
  197MPD1     N 3003   1.530   1.711  17.265 -0.4657 -0.0546 -0.1365
  197MPD1    H5 3004   1.436   1.714  17.229 -0.5160  1.0764  0.0783
  197MPD1    N1 3005   1.861   1.549  17.574 -0.6879 -0.4042 -0.1591
  197MPD1    H6 3006   1.918   1.617  17.525 -0.1766  0.0809  1.1105
  197MPD1    H7 3007   1.911   1.462  17.593 -0.2240 -0.0294  0.3432
  198MPD1     C 3008   2.684   0.182  16.074  0.7957  0.1728  0.6239
  198MPD1    C1 3009   2.753   0.204  16.187 -0.5179  0.0120  0.0117
  198MPD1    C2 3010   2.887   0.212  16.185 -0.0768  0.3451 -0.1552
  198MPD1    C3 3011   2.961   0.212  16.068  0.7248 -0.6794 -0.1938
  198MPD1    C4 3012   2.886   0.202  15.953 -0.1953 -0.1853  0.1412
  198MPD1    C5 3013   2.748   0.182  15.956  0.8374  0.5657  0.6473
  198MPD1     H 3014   2.941   0.234  16.276 -1.9987  0.9939  0.8379
  198MPD1    H1 3015   2.934   0.214  15.857 -0.1872  0.6547  0.2472
  198MPD1    H2 3016   2.577   0.168  16.079  0.3583  2.8934 -1.6822
  198MPD1    H3 3017   2.695   0.181  15.862  1.6458 -0.1149  0.1898
  198MPD1     N 3018   3.099   0.221  16.076  0.1144  0.2385  0.4027
  198MPD1    H5 3019   3.144   0.226  16.167  1.9494  1.0794 -0.5556
  198MPD1    N1 3020   2.695   0.210  16.312  0.1721  0.7860  0.3331
  198MPD1    H6 3021   2.594   0.207  16.302  0.3941 -3.9769 -0.3950
  198MPD1    H7 3022   2.729   0.291  16.363 -0.4177  1.8203 -0.9024
  199MPD1     C 3023   1.512   4.720   9.088 -0.6499  0.5540  0.7551
  199MPD1    C1 3024   1.523   0.078   9.201  0.1941 -0.1220 -0.1973
  199MPD1    C2 3025   1.448   0.197   9.205 -0.4332 -0.4015  0.3945
  199MPD1    C3 3026   1.353   0.227   9.102 -0.0307  0.3949 -0.0015
  199MPD1    C4 3027   1.340   0.138   8.996  0.2641 -0.2775  1.0513
  199MPD1    C5 3028   1.416   0.020   8.993  0.0213 -0.5167  0.2328
  199MPD1     H 3029   1.448   0.257   9.295  0.3328 -0.8212  0.6686
  199MPD1    H1 3030   1.283   0.171   8.910  2.0030 -0.7296 -0.2762
  199MPD1    H2 3031   1.564   4.625   9.094 -0.7380  0.4261 -0.3625
  199MPD1    H3 3032   1.398   4.670   8.918 -2.2008  0.8418 -0.6048
  199MPD1     N 3033   1.269   0.345   9.098 -0.0728  0.6279 -0.2319
  199MPD1    H5 3034   1.209   0.355   9.017 -1.9582 -0.8110  1.0069
  199MPD1    N1 3035   1.610   0.048   9.310 -0.5575  0.4247 -0.1362
  199MPD1    H6 3036   1.639   0.127   9.367 -0.6871  0.0071  0.5026
  199MPD1    H7 3037   1.692   4.720   9.281 -0.5063  0.1380  0.5356
  200MPD1     C 3038   4.648   1.188  15.823  0.3446  0.5757 -0.2686
  200MPD1    C1 3039   0.031   1.251  15.775  0.0002 -0.8680 -0.5360
  200MPD1    C2 3040   0.042   1.305  15.642  0.2482 -0.2913  0.2560
  200MPD1    C3 3041   4.663   1.297  15.556  0.2644 -0.3136 -0.0218
  200MPD1    C4 3042   4.547   1.246  15.605  0.9993 -0.1140  0.0487
  200MPD1    C5 3043   4.537   1.190  15.736 -0.1207  0.3299 -0.3825
  200MPD1     H 3044   0.136   1.348  15.612 -0.4483 -0.3336 -2.0023
  200MPD1    H1 3045   4.460   1.233  15.542  0.6059  2.7781  0.0171
  200MPD1    H2 3046   4.625   1.153  15.923  4.6853 -0.7008  0.2608
  200MPD1    H3 3047   4.446   1.148  15.778  1.1980  1.1573  3.3031
  200MPD1     N 3048   4.671   1.335  15.413 -0.4708  0.3854 -0.3129
  200MPD1    H5 3049   0.026   1.380  15.370  0.1430 -1.4131 -1.0182
  200MPD1    N1 3050   0.136   1.276  15.864  0.3361  0.1502 -0.6222
  200MPD1    H6 3051   0.231   1.267  15.827 -0.2934 -1.0652 -1.9194
  200MPD1    H7 3052   0.137   1.201  15.932  0.8136  0.1821 -0.5904
  201MPD1     C 3053   2.235   0.111  12.821  0.4857 -0.7122 -0.7204
  201MPD1    C1 3054   2.305   4.717  12.813  0.0615  0.3338 -0.8114
  201MPD1    C2 3055   2.383   4.680  12.924 -0.6470  0.6442  0.0482
  201MPD1    C3 3056   2.378   0.028  13.038 -0.2456  0.1230  0.4842
  201MPD1    C4 3057   2.294   0.132  13.055 -0.6106  0.6228  0.0267
  201MPD1    C5 3058   2.227   0.178  12.944 -0.4009  0.0870  0.2067
  201MPD1     H 3059   2.451   4.596  12.921  0.8151  1.7362  2.1479
  201MPD1    H1 3060   2.283   0.185  13.148 -1.8489 -1.6175  1.1673
  201MPD1    H2 3061   2.201   0.174  12.739  0.4570  1.0818  0.6626
  201MPD1    H3 3062   2.157   0.258  12.966 -1.2631 -0.6105  0.0329
  201MPD1     N 3063   2.473   4.713  13.136  0.2022 -0.2510  0.6655
  201MPD1    H5 3064   2.531   4.632  13.114  0.0915 -0.2457  0.3553
  201MPD1    N1 3065   2.330   4.668  12.686  0.1827  0.2024 -0.2660
  201MPD1    H6 3066   2.243   4.675  12.633 -0.9520 -0.4080  1.5078
  201MPD1    H7 3067   2.355   4.569  12.694 -0.8859 -0.1314 -0.9950
  202MPD1     C 3068   1.719   3.845   9.539 -0.5426 -0.8501 -0.1950
  202MPD1    C1 3069   1.689   3.974   9.491 -0.3398  0.2929 -0.2406
  202MPD1    C2 3070   1.798   4.041   9.456  0.3056  0.4859 -0.2078
  202MPD1    C3 3071   1.920   4.018   9.513 -0.6059  0.5872  0.0311
  202MPD1    C4 3072   1.938   3.905   9.590 -0.6657  0.2808 -0.1156
  202MPD1    C5 3073   1.838   3.807   9.581  0.1211  0.1721  0.8793
  202MPD1     H 3074   1.783   4.130   9.396  0.3869  0.8452  0.3025
  202MPD1    H1 3075   2.028   3.888   9.649  1.4128 -1.0774 -3.6356
  202MPD1    H2 3076   1.641   3.770   9.535  0.2082 -1.4914 -2.4203
  202MPD1    H3 3077   1.853   3.703   9.605 -2.3281  0.0905  2.0029
  202MPD1     N 3078   2.024   4.101   9.515 -0.0368  0.1520  0.0552
  202MPD1    H5 3079   2.100   4.066   9.572 -1.8213 -2.7190  0.6360
  202MPD1    N1 3080   1.569   3.991   9.421 -0.2393 -0.1168 -0.5612
  202MPD1    H6 3081   1.552   4.091   9.409  0.7026  0.3204  1.5526
  202MPD1    H7 3082   1.491   3.953   9.475  2.1828  0.3504  3.3215
  203MPD1     C 3083   1.112   0.965  13.175  0.4248 -0.1596  0.6077
  203MPD1    C1 3084   1.231   0.918  13.230 -0.0148 -0.5085 -0.1549
  203MPD1    C2 3085   1.307   0.827  13.160 -0.1077  0.6805 -0.8122
  203MPD1    C3 3086   1.263   0.774  13.039 -0.0754 -0.2497  1.0665
  203MPD1    C4 3087   1.136   0.818  12.993 -0.4284 -0.5007 -0.1082
  203MPD1    C5 3088   1.069   0.915  13.054 -0.1077  0.6076  0.2734
  203MPD1     H 3089   1.405   0.808  13.203  0.6239  3.6187 -1.1597
  203MPD1    H1 3090   1.089   0.788  12.900  0.8069 -0.7329 -0.6618
  203MPD1    H2 3091   1.046   1.034  13.225 -0.3813  1.0535 -2.1045
  203MPD1    H3 3092   0.980   0.955  13.007  0.1707  2.6087  1.4680
  203MPD1     N 3093   1.339   0.671  12.982 -0.2718  0.4069 -0.4512
  203MPD1    H5 3094   1.425   0.645  13.029 -1.4955 -1.1574  0.9236
  203MPD1    N1 3095   1.279   0.974  13.349  0.0990  0.4665 -0.7999
  203MPD1    H6 3096   1.202   1.012  13.404 -0.6677  0.4986 -1.8927
  203MPD1    H7 3097   1.328   0.905  13.405 -1.0334 -1.6175 -2.3735
  204MPD1     C 3098   0.168   1.895   0.112 -0.4980 -0.3475  0.3933
  204MPD1    C1 3099   0.091   1.799   0.044  0.3733  0.7720  0.1240
  204MPD1    C2 3100   0.142   1.753  17.637 -0.2446 -0.3880  0.5887
  204MPD1    C3 3101   0.260   1.801  17.576  0.3901  0.2361 -0.1104
  204MPD1    C4 3102   0.347   1.882  17.653 -0.2825  0.1825 -0.1078
  204MPD1    C5 3103   0.293   1.927   0.068 -0.2128  0.7688  0.0848
  204MPD1     H 3104   0.092   1.678  17.577 -0.5196  1.3220 -1.3154
  204MPD1    H1 3105   0.442   1.913  17.612 -0.1548  0.4485  0.3935
  204MPD1    H2 3106   0.137   1.935   0.208 -0.4896 -0.9121  0.6303
  204MPD1    H3 3107   0.361   1.976   0.137  0.2256  1.9456 -1.1798
  204MPD1     N 3108   0.285   1.752  17.450 -0.0468  0.1917  0.0294
  204MPD1    H5 3109   0.207   1.694  17.419 -0.1179 -0.0467  0.6495
  204MPD1    N1 3110   4.702   1.744   0.099 -0.3587  0.0711 -0.1389
  204MPD1    H6 3111   4.656   1.803   0.169 -0.0845  1.1269 -0.8541
  204MPD1    H7 3112   4.632   1.717   0.030 -0.8815  0.8306  0.0947
  205MPD1     C 3113   1.321   0.928  16.840  0.3392 -0.0206  0.1086
  205MPD1    C1 3114   1.304   0.801  16.896 -0.1705 -0.2431  0.5551
  205MPD1    C2 3115   1.186   0.766  16.954  0.5591 -0.6534  0.1325
  205MPD1    C3 3116   1.074   0.854  16.964 -0.5323 -0.3496 -0.0806
  205MPD1    C4 3117   1.087   0.978  16.901 -0.4790  0.7643 -0.1963
  205MPD1    C5 3118   1.209   1.008  16.839  0.7755 -0.1735 -0.6749
  205MPD1     H 3119   1.178   0.664  16.991 -0.5765 -0.8427 -0.6231
  205MPD1    H1 3120   1.008   1.053  16.894  0.3979  1.7514  0.5498
  205MPD1    H2 3121   1.420   0.962  16.811  0.9328 -2.2887 -0.5615
  205MPD1    H3 3122   1.215   1.108  16.796 -0.0043  0.5044  0.7854
  205MPD1     N 3123   0.950   0.826  17.031  0.3508  0.3713  0.1615
  205MPD1    H5 3124   0.885   0.904  17.026 -0.7651 -0.5743  0.0835
  205MPD1    N1 3125   1.398   0.701  16.886 -0.4332 -0.1427  0.0542
  205MPD1    H6 3126   1.492   0.719  16.851 -0.6220 -1.8614 -1.3554
  205MPD1    H7 3127   1.408   0.632  16.961 -3.4931 -1.4698 -0.7844
  206MPD1     C 3128   1.127   3.294  16.746  0.6688 -0.2519 -0.3895
  206MPD1    C1 3129   1.173   3.253  16.622  0.6780  0.1941 -0.2611
  206MPD1    C2 3130   1.080   3.220  16.530  0.4571 -0.3436 -0.2387
  206MPD1    C3 3131   0.946   3.233  16.546 -0.9565  0.0230  0.6284
  206MPD1    C4 3132   0.894   3.258  16.666  0.4054 -0.4442 -0.3085
  206MPD1    C5 3133   0.989   3.290  16.759 -0.1999  0.6582  0.5124
  206MPD1     H 3134   1.124   3.171  16.443 -1.6895 -0.3651 -1.3167
  206MPD1    H1 3135   0.788   3.251  16.690 -0.0158  0.7488 -1.7763
  206MPD1    H2 3136   1.197   3.326  16.822 -0.3916  2.5682 -0.6158
  206MPD1    H3 3137   0.963   3.300  16.864  1.0889  0.2935  0.8606
  206MPD1     N 3138   0.856   3.198  16.451  0.2761 -0.1922 -0.5340
  206MPD1    H5 3139   0.757   3.194  16.473  0.3064  0.8983 -0.2403
  206MPD1    N1 3140   1.309   3.246  16.601 -0.1451 -0.2560  0.0856
  206MPD1    H6 3141   1.340   3.198  16.518  1.5991 -0.9859  1.1756
  206MPD1    H7 3142   1.368   3.210  16.675  0.4437  1.1376  0.3013
  207MPD1     C 3143   2.433   0.834   9.627 -0.4787  0.0557  0.2540
  207MPD1    C1 3144   2.413   0.960   9.573 -0.6936 -0.4457  0.2690
  207MPD1    C2 3145   2.480   1.069   9.641 -0.8835 -0.5180 -0.5252
  207MPD1    C3 3146   2.563   1.054   9.752  0.3461  0.4779  0.1443
  207MPD1    C4 3147   2.565   0.924   9.811 -0.2387  0.1487  0.8103
  207MPD1    C5 3148   2.504   0.820   9.743 -0.4577  0.4600  0.2963
  207MPD1     H 3149   2.466   1.164   9.592  0.7297  0.3486  0.7032
  207MPD1    H1 3150   2.622   0.899   9.899 -1.1534 -0.6935  1.1677
  207MPD1    H2 3151   2.390   0.741   9.590  0.3624 -1.2802  2.6141
  207MPD1    H3 3152   2.507   0.721   9.787  1.8675  0.0100 -0.8823
  207MPD1     N 3153   2.633   1.163   9.807 -0.5812  0.2800 -0.3733
  207MPD1    H5 3154   2.680   1.151   9.896  1.9714 -0.2631 -1.7963
  207MPD1    N1 3155   2.330   0.983   9.461  0.3789 -0.2610  0.0776
  207MPD1    H6 3156   2.366   1.052   9.396 -1.6747  2.6216  2.0083
  207MPD1    H7 3157   2.310   0.896   9.411 -1.9780  0.3840 -0.1377
  208MPD1     C 3158   1.438   0.131  17.081  0.0545 -0.1516 -0.0181
  208MPD1    C1 3159   1.422   0.215  17.180 -0.5027  0.7850 -0.2314
  208MPD1    C2 3160   1.364   0.165  17.295  0.4856 -0.5092  0.2581
  208MPD1    C3 3161   1.343   0.027  17.307  0.2523  0.0155  0.0788
  208MPD1    C4 3162   1.391   4.670  17.215  0.0386  0.4275 -0.0999
  208MPD1    C5 3163   1.434   4.723  17.095 -0.0492 -0.3469  0.8228
  208MPD1     H 3164   1.336   0.232  17.375  1.1289 -2.3776  2.0517
  208MPD1    H1 3165   1.373   4.564  17.222 -1.6018  0.7403  0.4322
  208MPD1    H2 3166   1.476   0.163  16.984 -2.1030 -1.7131 -1.3894
  208MPD1    H3 3167   1.464   4.663  17.010  1.8003 -0.0997  1.2918
  208MPD1     N 3168   1.278   4.706  17.421 -0.2720 -0.6701  0.6131
  208MPD1    H5 3169   1.235   0.051  17.479  0.6792 -1.0069  1.7468
  208MPD1    N1 3170   1.428   0.361  17.165 -0.4453  0.1992  0.1387
  208MPD1    H6 3171   1.507   0.394  17.110 -0.1845  1.7347  1.4229
  208MPD1    H7 3172   1.412   0.413  17.251  0.3151 -2.5859  1.9477
  209MPD1     C 3173   3.562   0.650  11.088 -0.5283  0.0858 -0.3262
  209MPD1    C1 3174   3.516   0.772  11.041  0.1839 -0.1067 -0.7349
  209MPD1    C2 3175   3.479   0.772  10.907  0.0048 -0.5322  0.1993
  209MPD1    C3 3176   3.516   0.671  10.817 -0.7100  0.1817 -0.2922
  209MPD1    C4 3177   3.570   0.550  10.860 -0.1587 -0.5635 -0.1151
  209MPD1    C5 3178   3.591   0.545  10.999 -0.1273  0.1351  0.1663
  209MPD1     H 3179   3.422   0.859  10.875  1.4492  0.3678  0.0407
  209MPD1    H1 3180   3.584   0.464  10.796 -2.9068  0.1047 -1.5869
  209MPD1    H2 3181   3.565   0.636  11.196 -2.2578  0.7944 -0.1823
  209MPD1    H3 3182   3.633   0.457  11.047  1.1878  0.8380  0.2957
  209MPD1     N 3183   3.495   0.692  10.684  0.4400  0.0933 -0.2108
  209MPD1    H5 3184   3.458   0.781  10.651 -1.9475 -0.2962  1.3914
  209MPD1    N1 3185   3.478   0.875  11.131  0.5861 -0.2759  0.1099
  209MPD1    H6 3186   3.473   0.970  11.094 -1.4604 -0.0550  0.9435
  209MPD1    H7 3187   3.538   0.873  11.213 -2.6827  0.5992  2.5137
  210MPD1     C 3188   3.598   0.455   9.630 -0.4300  0.1959 -0.0598
  210MPD1    C1 3189   3.597   0.355   9.729 -0.0382  0.4285 -0.6338
  210MPD1    C2 3190   3.547   0.396   9.848 -0.3129 -0.2309 -0.4063
  210MPD1    C3 3191   3.511   0.527   9.873  0.1555 -0.2748  0.2591
  210MPD1    C4 3192   3.517   0.621   9.776  0.5372 -0.0065 -0.0547
  210MPD1    C5 3193   3.560   0.588   9.655 -0.5521  0.0160  0.4242
  210MPD1     H 3194   3.527   0.314   9.917  1.1014 -1.7540 -1.8207
  210MPD1    H1 3195   3.498   0.726   9.796  0.8833  0.3039 -1.3740
  210MPD1    H2 3196   3.633   0.433   9.530  0.4659  0.6680  0.1489
  210MPD1    H3 3197   3.552   0.660   9.575 -0.9764  0.5312  0.9305
  210MPD1     N 3198   3.457   0.571  10.001  0.3905  0.2441  0.1865
  210MPD1    H5 3199   3.430   0.668  10.004  2.0139  0.5924  3.4407
  210MPD1    N1 3200   3.623   0.217   9.700 -0.2333  0.6327  0.0967
  210MPD1    H6 3201   3.677   0.173   9.775  1.7673  1.5871 -0.7999
  210MPD1    H7 3202   3.668   0.207   9.610 -3.3947 -2.2839 -1.1776
  211MPD1     C 3203   1.628   0.196  16.741  0.2261 -0.1815  0.0067
  211MPD1    C1 3204   1.577   0.318  16.732  1.2179 -0.9066  0.4003
  211MPD1    C2 3205   1.440   0.325  16.721 -0.6649 -0.3206  0.3222
  211MPD1    C3 3206   1.363   0.213  16.694  0.2206  0.3937  0.1985
  211MPD1    C4 3207   1.419   0.095  16.684  0.4507 -1.1130  0.0531
  211MPD1    C5 3208   1.549   0.089  16.708  0.8996 -0.2203 -1.1970
  211MPD1     H 3209   1.393   0.422  16.709 -1.0726 -0.6299 -0.6005
  211MPD1    H1 3210   1.362   0.006  16.660 -0.9608  0.0685 -0.9751
  211MPD1    H2 3211   1.731   0.175  16.771 -1.0738 -2.1045  3.1284
  211MPD1    H3 3212   1.582   4.713  16.692 -0.4614 -1.1264  1.7225
  211MPD1     N 3213   1.224   0.238  16.671 -0.1227 -0.0704 -0.0136
  211MPD1    H5 3214   1.189   0.331  16.693  0.9538  0.3838 -0.2002
  211MPD1    N1 3215   1.652   0.436  16.766 -0.0647 -0.1989 -0.2244
  211MPD1    H6 3216   1.740   0.411  16.721  0.6558 -1.5667  1.9357
  211MPD1    H7 3217   1.627   0.517  16.710 -1.4023  0.7262  1.7147
  212MPD1     C 3218   4.460   3.946  16.315  0.1564 -0.5536  0.1700
  212MPD1    C1 3219   4.577   3.880  16.328 -0.0348 -0.5528 -0.0556
  212MPD1    C2 3220   4.586   3.777  16.416 -0.6045 -0.1884 -0.4268
  212MPD1    C3 3221   4.486   3.741  16.502  0.2673 -0.3192 -0.0808
  212MPD1    C4 3222   4.380   3.829  16.507 -0.1217  0.0559  0.4458
  212MPD1    C5 3223   4.367   3.926  16.411 -0.3668 -0.5612  0.3084
  212MPD1     H 3224   4.665   3.706  16.392  0.1005  0.8811 -1.2568
  212MPD1    H1 3225   4.306   3.827  16.586 -1.4750 -0.6087 -0.8342
  212MPD1    H2 3226   4.441   4.010  16.230 -1.3629  0.3928  1.2137
  212MPD1    H3 3227   4.276   3.985  16.417  0.4913  0.9815 -1.5245
  212MPD1     N 3228   4.470   3.631  16.578  0.1844 -0.2701 -0.7713
  212MPD1    H5 3229   4.382   3.627  16.628  0.7244 -0.2424  0.1879
  212MPD1    N1 3230   4.672   3.904  16.228  0.1897 -0.6114 -0.2556
  212MPD1    H6 3231   0.036   3.879  16.267  0.0293  0.3878  0.7784
  212MPD1    H7 3232   4.677   4.005  16.218  1.1839 -0.6492 -0.1794
  213MPD1     C 3233   2.918   3.790  15.563  0.3662 -0.1125 -0.4215
  213MPD1    C1 3234   2.789   3.758  15.525 -0.4682 -0.0245 -0.3126
  213MPD1    C2 3235   2.709   3.863  15.502 -0.0647 -0.0084  0.2753
  213MPD1    C3 3236   2.752   3.994  15.478  0.1117  0.0657 -0.1676
  213MPD1    C4 3237   2.889   4.014  15.503 -0.1965 -0.5123  0.4343
  213MPD1    C5 3238   2.968   3.916  15.556 -0.6730  0.1105 -1.5656
  213MPD1     H 3239   2.602   3.843  15.497 -0.1606  0.9761 -1.3872
  213MPD1    H1 3240   2.935   4.111  15.487 -0.6698 -0.4614 -0.6513
  213MPD1    H2 3241   2.968   3.715  15.622 -0.7872 -1.4559 -1.1487
  213MPD1    H3 3242   3.065   3.943  15.597 -0.7985  1.3317 -2.0420
  213MPD1     N 3243   2.664   4.086  15.426 -0.4152 -0.1376 -0.3122
  213MPD1    H5 3244   2.576   4.057  15.382 -0.6081  2.3919 -1.6055
  213MPD1    N1 3245   2.734   3.642  15.578  1.2449 -0.0432  0.2138
  213MPD1    H6 3246   2.791   3.559  15.567 -1.2578 -1.7990  0.4837
  213MPD1    H7 3247   2.648   3.622  15.528 -0.0178  1.3617  1.8174
  214MPD1     C 3248   1.902   4.000  14.917  0.0599 -0.2284  0.9696
  214MPD1    C1 3249   2.015   3.964  14.843 -0.9176  0.0780  0.1020
  214MPD1    C2 3250   2.128   4.033  14.884  0.4692 -0.2886  0.5519
  214MPD1    C3 3251   2.133   4.102  15.000 -0.3888  0.2132 -0.5091
  214MPD1    C4 3252   2.021   4.124  15.075  0.2029  1.0827 -0.3565
  214MPD1    C5 3253   1.902   4.076  15.030 -0.2201 -0.1658 -0.0789
  214MPD1     H 3254   2.221   4.023  14.829  0.2101 -4.1550  0.8313
  214MPD1    H1 3255   2.011   4.183  15.166 -2.7214 -0.2464  0.2035
  214MPD1    H2 3256   1.806   3.957  14.892 -0.8455  1.2743  1.9057
  214MPD1    H3 3257   1.815   4.103  15.088  0.0807  1.0423 -0.1824
  214MPD1     N 3258   2.261   4.165  15.035 -0.1005 -0.3941  0.3253
  214MPD1    H5 3259   2.341   4.151  14.974  0.4075  0.3111  0.8352
  214MPD1    N1 3260   2.013   3.879  14.729  0.1019  0.6632 -0.1276
  214MPD1    H6 3261   2.106   3.839  14.722 -0.8844 -1.7361  0.4038
  214MPD1    H7 3262   1.944   3.804  14.735  0.2370  0.4276 -1.4138
  215MPD1     C 3263   3.616   4.673  10.325  0.2445 -0.0300  0.6022
  215MPD1    C1 3264   3.555   0.066  10.289 -0.5233  0.0717  0.4137
  215MPD1    C2 3265   3.490   0.143  10.385  0.9188 -0.1520 -0.7287
  215MPD1    C3 3266   3.493   0.101  10.511 -0.2668  0.2380  0.3898
  215MPD1    C4 3267   3.552   4.711  10.546  0.1171 -0.6163  0.0360
  215MPD1    C5 3268   3.609   4.626  10.451  0.3713  0.2885  0.3283
  215MPD1     H 3269   3.439   0.235  10.360  0.5185  0.5819  2.8090
  215MPD1    H1 3270   3.566   4.686  10.651  0.9702 -2.0647 -0.4233
  215MPD1    H2 3271   3.661   4.605  10.253 -1.7101  0.8850 -1.4889
  215MPD1    H3 3272   3.661   4.535  10.480  2.3284  1.7396  1.4266
  215MPD1     N 3273   3.444   0.193  10.603  0.4692  0.1799  0.2298
  215MPD1    H5 3274   3.423   0.286  10.567  1.5225 -0.1912 -1.3595
  215MPD1    N1 3275   3.555   0.098  10.154  0.3665 -0.0327 -0.7126
  215MPD1    H6 3276   3.555   0.199  10.151  0.4386  0.0967  3.4374
  215MPD1    H7 3277   3.634   0.061  10.101  0.7232 -0.8914  0.4000
  216MPD1     C 3278   0.582   3.313  16.889 -0.1328  0.4029  0.6637
  216MPD1    C1 3279   0.655   3.236  16.976 -0.0247 -0.5005 -0.0766
  216MPD1    C2 3280   0.657   3.101  16.966  0.3272 -0.1083  0.1554
  216MPD1    C3 3281   0.594   3.036  16.863  0.4784 -0.1750 -0.2315
  216MPD1    C4 3282   0.530   3.108  16.772  0.6588 -0.0099 -0.2378
  216MPD1    C5 3283   0.528   3.243  16.785 -0.2706  0.2792  0.6463
  216MPD1     H 3284   0.720   3.044  17.034 -0.0344 -2.3835 -1.4160
  216MPD1    H1 3285   0.490   3.060  16.684 -2.6749  0.1714  1.1752
  216MPD1    H2 3286   0.573   3.420  16.896 -2.5176  0.0564  2.9591
  216MPD1    H3 3287   0.468   3.304  16.718 -1.9945 -1.7944  0.2704
  216MPD1     N 3288   0.595   2.896  16.870 -0.3461  0.0707  0.6754
  216MPD1    H5 3289   0.649   2.855  16.945  2.2189  1.0744 -0.6229
  216MPD1    N1 3290   0.732   3.296  17.080 -0.2524 -0.4963  0.0876
  216MPD1    H6 3291   0.828   3.262  17.087  0.0555  0.6128  1.1165
  216MPD1    H7 3292   0.739   3.397  17.072 -1.7753 -0.3898  0.2749
  217MPD1     C 3293   0.265   3.795   9.215  0.0186 -0.0454  0.3308
  217MPD1    C1 3294   0.349   3.711   9.277  0.5751  0.3932  0.4092
  217MPD1    C2 3295   0.469   3.766   9.308 -0.1565  0.0113 -0.3174
  217MPD1    C3 3296   0.522   3.881   9.250 -1.0902 -0.3941  0.1864
  217MPD1    C4 3297   0.433   3.954   9.174 -0.3044  0.3316  0.5081
  217MPD1    C5 3298   0.307   3.909   9.154 -0.3797 -0.1131 -0.5335
  217MPD1     H 3299   0.531   3.712   9.378 -1.7177 -1.4764 -0.0668
  217MPD1    H1 3300   0.462   4.043   9.120  0.8735  0.0984  0.7591
  217MPD1    H2 3301   0.159   3.775   9.207  0.3393 -1.3199 -0.5511
  217MPD1    H3 3302   0.239   3.961   9.088  1.2956  0.7576 -1.5730
  217MPD1     N 3303   0.658   3.924   9.277  0.3413  0.1619  0.0039
  217MPD1    H5 3304   0.681   4.016   9.241  0.8759 -0.1540 -0.4528
  217MPD1    N1 3305   0.288   3.602   9.346 -0.8747  0.3170 -0.0340
  217MPD1    H6 3306   0.212   3.558   9.294  0.2875 -1.9326  0.1892
  217MPD1    H7 3307   0.355   3.528   9.365 -0.4152  0.8022  0.2543
  218MPD1     C 3308   3.452   1.261  12.191 -0.1955  0.9152  0.4960
  218MPD1    C1 3309   3.350   1.199  12.122  0.0526  0.1880  1.2446
  218MPD1    C2 3310   3.295   1.087  12.168  0.6685 -0.7835  0.0992
  218MPD1    C3 3311   3.323   1.034  12.289 -0.6623  0.2781  0.0968
  218MPD1    C4 3312   3.423   1.094  12.367  0.2389  0.3184 -0.2551
  218MPD1    C5 3313   3.487   1.208  12.317 -0.8243 -0.4684  0.3939
  218MPD1     H 3314   3.222   1.031  12.110  0.4542  0.4756 -0.8785
  218MPD1    H1 3315   3.454   1.068  12.467  2.4079 -0.1510 -1.0486
  218MPD1    H2 3316   3.514   1.342  12.152  1.4466 -1.3289 -1.5547
  218MPD1    H3 3317   3.570   1.248  12.374 -1.5741  2.3793 -0.5296
  218MPD1     N 3318   3.247   0.921  12.329  0.2458  0.4597 -0.1232
  218MPD1    H5 3319   3.172   0.880  12.274 -0.2919 -2.4032  2.7261
  218MPD1    N1 3320   3.317   1.240  11.988 -0.0120 -0.7545  0.7475
  218MPD1    H6 3321   3.222   1.215  11.962 -0.8459  0.0024  3.1116
  218MPD1    H7 3322   3.312   1.341  11.975 -1.9338 -1.0667 -0.9201
  219MPD1     C 3323   2.802   0.163  11.925 -0.7494 -0.0866  0.1391
  219MPD1    C1 3324   2.901   0.251  11.898  0.0809  0.0931 -0.9348
  219MPD1    C2 3325   2.957   0.323  12.000 -0.0505 -0.0464  0.3745
  219MPD1    C3 3326   2.893   0.326  12.121 -0.6296  0.6894  0.1201
  219MPD1    C4 3327   2.784   0.244  12.147  0.2476 -0.1070 -0.5173
  219MPD1    C5 3328   2.742   0.159  12.046 -0.1328 -0.1205 -0.1315
  219MPD1     H 3329   3.052   0.373  11.985  0.6994 -0.9603  2.1792
  219MPD1    H1 3330   2.732   0.237  12.242 -1.2351  0.0339 -1.3019
  219MPD1    H2 3331   2.758   0.105  11.845 -1.3038  0.3813  0.1006
  219MPD1    H3 3332   2.660   0.090  12.060  2.1713 -2.6000  1.1990
  219MPD1     N 3333   2.937   0.415  12.226 -0.0145  0.5445 -0.0098
  219MPD1    H5 3334   2.878   0.411  12.308 -1.3310 -0.4999 -1.0067
  219MPD1    N1 3335   2.985   0.230  11.787 -0.3618  0.0967 -0.2554
  219MPD1    H6 3336   3.037   0.312  11.755 -2.2700  1.6566  0.5972
  219MPD1    H7 3337   2.927   0.203  11.708 -1.5459 -0.5107  0.8242
  220MPD1     C 3338   2.547   0.218   9.519 -0.2352 -0.1781 -0.2268
  220MPD1    C1 3339   2.659   0.232   9.600  0.6494  1.1239 -0.9764
  220MPD1    C2 3340   2.634   0.297   9.721  0.0502  0.1910 -0.1772
  220MPD1    C3 3341   2.509   0.321   9.776  0.6456  0.0024 -0.0841
  220MPD1    C4 3342   2.403   0.294   9.696  0.2649 -0.1355 -0.3029
  220MPD1    C5 3343   2.424   0.247   9.569 -0.1111  0.3274  0.5868
  220MPD1     H 3344   2.718   0.324   9.784  0.9979 -2.3110 -0.3817
  220MPD1    H1 3345   2.299   0.309   9.722  0.7492  2.0643  0.3132
  220MPD1    H2 3346   2.552   0.186   9.415  1.7673  0.2088 -0.2497
  220MPD1    H3 3347   2.336   0.249   9.504  0.8808  0.9254 -0.7418
  220MPD1     N 3348   2.494   0.394   9.897  0.3775 -0.9751 -0.2700
  220MPD1    H5 3349   2.583   0.413   9.942  0.0041  0.2352 -0.0349
  220MPD1    N1 3350   2.789   0.232   9.537  0.5442  0.4521 -0.3981
  220MPD1    H6 3351   2.870   0.217   9.596  0.0398  0.8017  0.3874
  220MPD1    H7 3352   2.788   0.164   9.461  1.5095 -0.1383  0.1224
  221MPD1     C 3353   4.590   0.180  16.246  0.8497 -0.0671 -0.2509
  221MPD1    C1 3354   4.620   0.052  16.295  0.5585  0.5448 -0.1024
  221MPD1    C2 3355   0.023   0.029  16.313 -0.2714  0.0134 -0.3837
  221MPD1    C3 3356   0.121   0.126  16.323 -0.0855  1.0963  0.3230
  221MPD1    C4 3357   0.091   0.249  16.281 -0.0468  1.4001 -0.3646
  221MPD1    C5 3358   4.692   0.272  16.230  0.3153  0.0229  1.0472
  221MPD1     H 3359   0.049   4.658  16.353 -3.1595  0.9224  3.6586
  221MPD1    H1 3360   0.162   0.331  16.278  2.2145 -0.5580 -0.1530
  221MPD1    H2 3361   4.494   0.210  16.204  0.4338 -0.7771  0.1901
  221MPD1    H3 3362   4.653   0.365  16.191 -0.8158  0.2267  2.6297
  221MPD1     N 3363   0.255   0.098  16.359  0.6474  0.2117 -0.1745
  221MPD1    H5 3364   0.283   0.001  16.361  0.3816  0.1251 -0.6714
  221MPD1    N1 3365   4.522   4.673  16.299  0.2839 -0.4075 -0.2524
  221MPD1    H6 3366   4.424   4.700  16.308 -0.3842 -2.4621 -1.4277
  221MPD1    H7 3367   4.537   4.604  16.372  0.0680  0.9421  1.0699
  222MPD1     C 3368   0.697   3.050  17.662 -0.7092  0.7285  0.2879
  222MPD1    C1 3369   0.596   2.956  17.653  0.6666 -0.8136 -0.2013
  222MPD1    C2 3370   0.483   2.964   0.025 -0.1762  0.1756 -0.8382
  222MPD1    C3 3371   0.470   3.067   0.117  0.2529 -0.1446 -0.3532
  222MPD1    C4 3372   0.554   3.169   0.118  0.1463 -0.8108  0.0194
  222MPD1    C5 3373   0.668   3.158   0.042  0.2511  0.8501  0.4110
  222MPD1     H 3374   0.396   2.901   0.007 -0.2616 -0.0684  0.4281
  222MPD1    H1 3375   0.549   3.253   0.186  1.4916  0.0098 -0.9017
  222MPD1    H2 3376   0.778   3.061  17.590  1.0071  0.7092  2.2257
  222MPD1    H3 3377   0.738   3.240   0.033  0.2937  0.7929  0.2188
  222MPD1     N 3378   0.352   3.076   0.199 -0.1807 -0.4452  0.3570
  222MPD1    H5 3379   0.326   3.169   0.228 -1.5525 -0.9395  0.6939
  222MPD1    N1 3380   0.590   2.877  17.536  0.3367 -0.6647 -0.1415
  222MPD1    H6 3381   0.682   2.853  17.500  0.6465 -1.1096  0.9675
  222MPD1    H7 3382   0.533   2.794  17.551  0.1268 -0.4063  0.5206
  223MPD1     C 3383   4.185   2.547   0.562  0.5181  0.4077  0.1352
  223MPD1    C1 3384   4.153   2.680   0.576 -0.5825  0.0528 -0.4274
  223MPD1    C2 3385   4.250   2.773   0.561 -0.0777  0.7568 -0.5850
  223MPD1    C3 3386   4.372   2.734   0.504  0.0150  0.1057  0.1566
  223MPD1    C4 3387   4.388   2.598   0.455 -0.1264  0.4109  0.0910
  223MPD1    C5 3388   4.298   2.506   0.494 -0.7124  0.9647  0.2996
  223MPD1     H 3389   4.233   2.876   0.590  1.0319  0.5980  0.6429
  223MPD1    H1 3390   4.477   2.555   0.410 -0.5410 -2.9141  2.4407
  223MPD1    H2 3391   4.118   2.468   0.593 -0.0435  0.9951  0.4439
  223MPD1    H3 3392   4.325   2.402   0.475  0.8799  1.8569 -2.3047
  223MPD1     N 3393   4.477   2.825   0.491 -0.0625  0.5181 -0.6054
  223MPD1    H5 3394   4.461   2.919   0.527 -1.7764 -0.3578  0.8941
  223MPD1    N1 3395   4.035   2.712   0.647 -0.2161  0.7782 -0.1519
  223MPD1    H6 3396   3.960   2.647   0.624  2.7552 -3.4488  2.0812
  223MPD1    H7 3397   3.997   2.806   0.638 -3.2736 -0.5120 -0.7525
  224MPD1     C 3398   0.688   4.026   8.892 -0.2270  0.2753 -0.0260
  224MPD1    C1 3399   0.805   3.971   8.933  0.5807 -0.4817 -0.1624
  224MPD1    C2 3400   0.910   4.059   8.949  0.3387 -0.8937  0.7508
  224MPD1    C3 3401   0.887   4.193   8.969 -0.0856  0.2653  0.6030
  224MPD1    C4 3402   0.765   4.242   8.938 -1.1135 -0.5694  0.4104
  224MPD1    C5 3403   0.669   4.163   8.899  0.6951  0.2087 -0.1571
  224MPD1     H 3404   1.010   4.016   8.942  1.2676  1.6205 -1.6431
  224MPD1    H1 3405   0.750   4.348   8.954 -1.8697 -0.3697 -1.6457
  224MPD1    H2 3406   0.604   3.966   8.859  0.1388 -0.0599 -0.3649
  224MPD1    H3 3407   0.570   4.199   8.873 -0.3782 -1.3575  1.7287
  224MPD1     N 3408   0.983   4.292   9.009 -0.4049 -0.2429  0.0692
  224MPD1    H5 3409   0.957   4.390   9.010  1.7712  0.3412 -0.0440
  224MPD1    N1 3410   0.831   3.832   8.909 -0.4790  0.1009 -1.1344
  224MPD1    H6 3411   0.902   3.802   8.976 -0.5365 -0.8960 -1.5288
  224MPD1    H7 3412   0.753   3.778   8.946 -0.1217 -0.5954 -1.4177
  225MPD1     C 3413   2.177   1.659  12.853 -0.3633  0.0990  0.4445
  225MPD1    C1 3414   2.256   1.554  12.824  0.2875 -0.0035 -0.5439
  225MPD1    C2 3415   2.204   1.455  12.738 -0.5240  0.8497  0.5066
  225MPD1    C3 3416   2.086   1.471  12.669  0.1992  0.0542  0.2115
  225MPD1    C4 3417   2.011   1.579  12.699 -0.2672  0.4864  0.1838
  225MPD1    C5 3418   2.053   1.673  12.789  0.6111 -0.1483  0.0385
  225MPD1     H 3419   2.280   1.381  12.714  0.8009  1.6581  2.2847
  225MPD1    H1 3420   1.920   1.609  12.650 -1.0953 -2.0124  0.1920
  225MPD1    H2 3421   2.196   1.738  12.924 -2.8771 -0.0000  1.2435
  225MPD1    H3 3422   1.984   1.756  12.801 -1.2521 -1.6614 -0.1494
  225MPD1     N 3423   2.038   1.384  12.571 -0.1625  0.4126 -0.2248
  225MPD1    H5 3424   1.952   1.421  12.533 -0.2839 -1.3605 -1.6632
  225MPD1    N1 3425   2.377   1.529  12.896  0.4075  0.1699 -0.4071
  225MPD1    H6 3426   2.447   1.473  12.848 -0.8445 -1.4815 -0.2917
  225MPD1    H7 3427   2.419   1.617  12.925  1.1309 -0.4962  0.5610
  226MPD1     C 3428   0.056   1.286   8.976  0.2953 -0.5438 -0.4683
  226MPD1    C1 3429   0.163   1.257   9.059 -0.5568  0.1258 -1.3563
  226MPD1    C2 3430   0.280   1.210   8.999 -0.1256  0.2001  0.2559
  226MPD1    C3 3431   0.275   1.148   8.879  0.2179  0.0489 -0.3620
  226MPD1    C4 3432   0.165   1.158   8.801  0.1604 -0.1431 -0.2146
  226MPD1    C5 3433   0.062   1.239   8.839 -0.1482  0.1598 -0.0815
  226MPD1     H 3434   0.359   1.175   9.064  0.3813  0.3089 -0.3102
  226MPD1    H1 3435   0.158   1.126   8.697 -0.8255 -1.3149  0.2193
  226MPD1    H2 3436   4.703   1.352   9.010  2.1778  0.5822  1.7243
  226MPD1    H3 3437   4.704   1.256   8.773  0.5262 -0.4012 -1.0872
  226MPD1     N 3438   0.383   1.068   8.844  0.2051  0.7688  0.6402
  226MPD1    H5 3439   0.466   1.063   8.901 -0.3125  1.0139  1.4107
  226MPD1    N1 3440   0.160   1.308   9.190 -0.1421  0.1719  0.4847
  226MPD1    H6 3441   0.068   1.314   9.234 -0.3053 -2.4041  0.4752
  226MPD1    H7 3442   0.223   1.264   9.256  2.9325  0.4997 -2.2442
  227MPD1     C 3443   0.710   0.100   8.394  0.4281 -0.0481 -0.3774
  227MPD1    C1 3444   0.798   0.145   8.490 -0.7349  0.1487  0.5011
  227MPD1    C2 3445   0.802   0.277   8.526  0.7869  0.2939 -0.1857
  227MPD1    C3 3446   0.702   0.370   8.480  0.2203  0.1615 -0.2025
  227MPD1    C4 3447   0.614   0.325   8.377  0.1812 -0.3001 -0.1675
  227MPD1    C5 3448   0.627   0.195   8.329  0.3285  0.5420  0.0112
  227MPD1     H 3449   0.871   0.300   8.607 -0.5109  0.3156  0.9099
  227MPD1    H1 3450   0.550   0.398   8.330  0.1836 -0.3174 -0.1974
  227MPD1    H2 3451   0.715   4.721   8.369 -0.4377 -0.0960 -0.3283
  227MPD1    H3 3452   0.569   0.171   8.240  1.6734  0.9809 -0.9729
  227MPD1     N 3453   0.700   0.489   8.549 -0.6886  0.0119 -0.3081
  227MPD1    H5 3454   0.775   0.513   8.613 -0.9899 -2.1326  0.8562
  227MPD1    N1 3455   0.890   0.054   8.551 -0.6426  0.2821  0.5033
  227MPD1    H6 3456   0.898   0.067   8.652  2.2864 -2.3528  0.6119
  227MPD1    H7 3457   0.862   4.684   8.532  0.4143 -0.0786  0.7446
  228MPD1     C 3458   4.589   0.069  12.853  0.2770 -0.0435  0.1758
  228MPD1    C1 3459   4.510   0.111  12.953  0.0466  0.3714 -0.4362
  228MPD1    C2 3460   4.441   0.017  13.028 -0.3725 -0.7103  0.2879
  228MPD1    C3 3461   4.457   4.610  13.006 -0.0557  0.3059 -0.1833
  228MPD1    C4 3462   4.549   4.568  12.911  0.2214  0.4458  0.1451
  228MPD1    C5 3463   4.607   4.663  12.840 -0.1580  0.2514  0.5960
  228MPD1     H 3464   4.370   0.043  13.106  0.3330  1.3110  0.2739
  228MPD1    H1 3465   4.586   4.467  12.898 -2.3906 -0.6337  1.2068
  228MPD1    H2 3466   4.634   0.134  12.779  2.3578 -0.5188  1.0138
  228MPD1    H3 3467   4.668   4.622  12.760 -0.5192 -0.2203  0.5604
  228MPD1     N 3468   4.385   4.522  13.088 -0.3342  0.0772 -1.0442
  228MPD1    H5 3469   4.327   4.567  13.159  1.5091 -0.8402  1.0331
  228MPD1    N1 3470   4.474   0.246  12.969  0.5713 -0.4660  0.2013
  228MPD1    H6 3471   4.552   0.305  12.941  1.5672 -2.5125 -1.3569
  228MPD1    H7 3472   4.440   0.271  13.062  0.9281 -0.7117  0.3999
  229MPD1     C 3473   4.106   1.456  14.320 -0.0877 -0.4138 -0.2506
  229MPD1    C1 3474   4.054   1.581  14.295  0.4993 -0.3998  0.1297
  229MPD1    C2 3475   3.990   1.651  14.398 -0.0647 -0.5617 -0.0549
  229MPD1    C3 3476   3.975   1.591  14.516  0.0283 -0.2044 -0.6366
  229MPD1    C4 3477   4.023   1.464  14.540  1.1822  0.6147  0.2927
  229MPD1    C5 3478   4.088   1.394  14.443  0.2563  0.6485 -0.0355
  229MPD1     H 3479   3.952   1.748  14.368  0.1868 -0.5327 -0.2740
  229MPD1    H1 3480   4.031   1.422  14.640  0.1806  0.3802  0.2751
  229MPD1    H2 3481   4.164   1.401  14.246 -0.3871  1.3352 -1.7686
  229MPD1    H3 3482   4.140   1.302  14.464 -1.1989 -0.4557 -1.3367
  229MPD1     N 3483   3.937   1.667  14.634 -0.4403 -0.3890  0.0597
  229MPD1    H5 3484   3.917   1.617  14.720 -2.0439  1.9858  1.0618
  229MPD1    N1 3485   4.082   1.647  14.172 -0.0551 -0.0769 -0.3640
  229MPD1    H6 3486   4.025   1.729  14.152  0.1363  0.0172 -0.5185
  229MPD1    H7 3487   4.067   1.582  14.095 -0.5864  1.0426 -1.2125
  230MPD1     C 3488   3.262   2.398  14.699 -0.0386 -0.5173 -0.7383
  230MPD1    C1 3489   3.353   2.378  14.596  0.0171 -0.1592  0.1922
  230MPD1    C2 3490   3.454   2.287  14.619 -0.3421 -0.7484  0.0037
  230MPD1    C3 3491   3.489   2.248  14.751  0.3637 -0.3307 -0.2687
  230MPD1    C4 3492   3.398   2.266  14.850  0.1249  0.1766  0.1101
  230MPD1    C5 3493   3.281   2.333  14.824 -0.6541 -0.2185  0.1025
  230MPD1     H 3494   3.526   2.265  14.541 -0.6419 -0.4501 -0.3554
  230MPD1    H1 3495   3.407   2.227  14.951 -0.7038  0.3761  0.2602
  230MPD1    H2 3496   3.162   2.438  14.690 -0.3905 -1.4824 -1.1525
  230MPD1    H3 3497   3.204   2.340  14.900 -0.5135 -0.6299  0.2810
  230MPD1     N 3498   3.607   2.163  14.774  0.2938  0.1310 -0.8018
  230MPD1    H5 3499   3.666   2.141  14.695 -0.4214  0.6526 -1.4808
  230MPD1    N1 3500   3.321   2.415  14.465  0.4165  0.1569  0.3551
  230MPD1    H6 3501   3.268   2.502  14.473 -3.4534 -2.0937 -1.2270
  230MPD1    H7 3502   3.409   2.429  14.416 -0.8298 -0.4495 -2.0509
  231MPD1     C 3503   1.502   3.947  15.839 -0.4040  0.0421 -1.0477
  231MPD1    C1 3504   1.443   4.060  15.782  0.7913 -0.4490 -0.6262
  231MPD1    C2 3505   1.523   4.140  15.703  0.8391  0.2676 -0.0231
  231MPD1    C3 3506   1.653   4.103  15.672 -0.2980 -0.5685  0.3359
  231MPD1    C4 3507   1.704   3.987  15.729 -0.2218 -0.1274  0.1846
  231MPD1    C5 3508   1.629   3.908  15.810  0.0524 -0.0539 -0.0431
  231MPD1     H 3509   1.478   4.231  15.664 -0.0984 -0.9023 -1.6712
  231MPD1    H1 3510   1.805   3.951  15.711  0.0103  0.3108  0.6283
  231MPD1    H2 3511   1.448   3.876  15.899  0.4468 -0.9261 -1.4265
  231MPD1    H3 3512   1.660   3.815  15.857 -1.4230 -0.2896  0.4592
  231MPD1     N 3513   1.725   4.187  15.590 -0.0247 -0.0027  0.2439
  231MPD1    H5 3514   1.670   4.263  15.550 -0.3858 -1.0690 -1.2855
  231MPD1    N1 3515   1.316   4.099  15.813 -0.0027  0.3959  0.1450
  231MPD1    H6 3516   1.258   4.016  15.826 -0.1639  0.8635  2.3680
  231MPD1    H7 3517   1.275   4.146  15.732  1.1841 -0.9229 -1.2358
  232MPD1     C 3518   4.307   1.583  17.314  0.1491  0.2679  0.0375
  232MPD1    C1 3519   4.312   1.621  17.447 -0.1597 -0.2567 -0.0553
  232MPD1    C2 3520   4.198   1.684  17.483  0.9218 -0.2169 -0.7296
  232MPD1    C3 3521   4.080   1.694  17.412 -0.7647  0.4856  0.9370
  232MPD1    C4 3522   4.070   1.641  17.285  0.4160  0.0911  0.1760
  232MPD1    C5 3523   4.192   1.594  17.235 -0.0066  1.1781  0.2296
  232MPD1     H 3524   4.193   1.716  17.586  0.5347 -0.0060 -0.8172
  232MPD1    H1 3525   3.983   1.640  17.221 -0.1299 -1.7617  0.9548
  232MPD1    H2 3526   4.394   1.537  17.268 -0.0850  0.1169 -0.2580
  232MPD1    H3 3527   4.189   1.543  17.140 -0.4999  2.0692 -0.2299
  232MPD1     N 3528   3.973   1.758  17.479 -0.1020 -0.2236 -0.5520
  232MPD1    H5 3529   3.995   1.786  17.574  1.6177  0.3033 -1.0988
  232MPD1    N1 3530   4.430   1.630  17.516  0.0286  0.5702 -0.0665
  232MPD1    H6 3531   4.498   1.555  17.505  0.4106  1.0013 -0.6766
  232MPD1    H7 3532   4.425   1.658  17.614  1.0849 -1.0327  0.4416
  233MPD1     C 3533   0.240   0.255   1.843 -1.1793  0.4618  0.1637
  233MPD1    C1 3534   0.323   0.285   1.956  0.1638 -0.5340  0.1791
  233MPD1    C2 3535   0.454   0.240   1.946 -0.4100  0.9232  0.3130
  233MPD1    C3 3536   0.508   0.196   1.824 -1.0906 -0.3629  0.1591
  233MPD1    C4 3537   0.423   0.180   1.718 -0.4090 -0.1442  0.7460
  233MPD1    C5 3538   0.291   0.209   1.726  0.1272  1.0698 -1.0229
  233MPD1     H 3539   0.511   0.236   2.039 -0.2774 -2.1833  0.1098
  233MPD1    H1 3540   0.461   0.133   1.628  4.1297 -0.7230  2.9443
  233MPD1    H2 3541   0.133   0.272   1.849 -0.8334  1.9840  1.9850
  233MPD1    H3 3542   0.231   0.193   1.637 -2.7721  2.4466  0.6880
  233MPD1     N 3543   0.642   0.164   1.797  0.2818  0.0227  0.0466
  233MPD1    H5 3544   0.656   0.136   1.700  0.4477  0.7008 -0.1281
  233MPD1    N1 3545   0.269   0.310   2.083  0.7234  0.4032 -0.9637
  233MPD1    H6 3546   0.185   0.365   2.066 -0.4173 -1.2831 -0.7625
  233MPD1    H7 3547   0.331   0.370   2.137  0.3511  0.2045 -0.3126
  234MPD1     C 3548   2.265   3.779  10.552  0.3569  0.3807 -0.5735
  234MPD1    C1 3549   2.313   3.859  10.454  0.4871  0.0455 -0.3138
  234MPD1    C2 3550   2.238   3.876  10.334  0.3971  0.1041 -0.3758
  234MPD1    C3 3551   2.111   3.829  10.323  0.2101  0.0813 -0.2725
  234MPD1    C4 3552   2.065   3.740  10.421  0.3106  1.7436 -0.2455
  234MPD1    C5 3553   2.147   3.717  10.525 -0.5858  0.4243 -0.1716
  234MPD1     H 3554   2.276   3.941  10.257 -0.5866  2.1843  0.8745
  234MPD1    H1 3555   1.964   3.701  10.419  1.1390 -0.3541 -1.6027
  234MPD1    H2 3556   2.313   3.757  10.647  1.1109 -0.8840 -1.2520
  234MPD1    H3 3557   2.123   3.651  10.607  0.4731 -0.4227 -0.5507
  234MPD1     N 3558   2.037   3.850  10.198 -0.1001  0.1650  0.0846
  234MPD1    H5 3559   2.069   3.928  10.142 -0.7814  0.3407 -0.0580
  234MPD1    N1 3560   2.439   3.914  10.475  0.2211  0.1189  0.4353
  234MPD1    H6 3561   2.480   3.912  10.568 -0.3740  1.0939  0.7127
  234MPD1    H7 3562   2.457   4.005  10.432 -0.0730 -0.2518 -0.4667
  235MPD1     C 3563   1.885   1.682   9.662  0.6831 -0.2547 -0.1911
  235MPD1    C1 3564   1.996   1.693   9.739  0.1344  0.6606 -0.2961
  235MPD1    C2 3565   2.095   1.781   9.701  0.4954 -0.4755  0.5046
  235MPD1    C3 3566   2.078   1.869   9.599 -0.1977  0.0010  0.4692
  235MPD1    C4 3567   1.962   1.858   9.523  0.2640 -0.6354  0.1906
  235MPD1    C5 3568   1.879   1.757   9.550 -0.8494  0.0384  0.1113
  235MPD1     H 3569   2.189   1.790   9.755  0.1264 -1.0676  1.2398
  235MPD1    H1 3570   1.946   1.930   9.444  0.9917 -0.4371  0.2247
  235MPD1    H2 3571   1.798   1.619   9.676  0.9072 -0.5920 -0.3202
  235MPD1    H3 3572   1.813   1.729   9.469 -0.6714  0.6431 -0.2424
  235MPD1     N 3573   2.188   1.950   9.570 -0.2350 -0.2115 -0.6236
  235MPD1    H5 3574   2.273   1.927   9.621 -0.6830  0.9371  0.6483
  235MPD1    N1 3575   2.011   1.618   9.856 -0.3886 -0.4402  0.0235
  235MPD1    H6 3576   2.100   1.570   9.866 -0.9890 -1.1415  1.8957
  235MPD1    H7 3577   1.932   1.553   9.863  0.7622 -2.0101 -1.5419
  236MPD1     C 3578   1.929   3.058  10.310  0.2878  0.0235  0.6376
  236MPD1    C1 3579   1.945   2.939  10.246 -0.3481  0.1545  0.1292
  236MPD1    C2 3580   2.072   2.899  10.201 -0.1207 -0.6038 -0.8317
  236MPD1    C3 3581   2.187   2.976  10.235  0.4078  0.1488  0.0897
  236MPD1    C4 3582   2.169   3.089  10.305  0.2463 -0.6108  0.1572
  236MPD1    C5 3583   2.042   3.126  10.343  0.5242  0.1491 -0.3314
  236MPD1     H 3584   2.092   2.813  10.138 -1.4181 -2.0899  0.7843
  236MPD1    H1 3585   2.253   3.156  10.319 -1.4735  1.5976 -0.1523
  236MPD1    H2 3586   1.833   3.101  10.338 -0.1672 -1.1194  0.8637
  236MPD1    H3 3587   2.023   3.207  10.413  1.1970  0.0238 -0.0124
  236MPD1     N 3588   2.321   2.931  10.217 -0.4402  0.1613  0.3279
  236MPD1    H5 3589   2.389   2.998  10.252  0.1338  0.1980 -0.8535
  236MPD1    N1 3590   1.836   2.872  10.205 -0.2283 -0.1964  0.1862
  236MPD1    H6 3591   1.772   2.845  10.279  0.1394 -1.3577  0.0810
  236MPD1    H7 3592   1.864   2.793  10.146  1.2002 -0.1701  0.8414
  237MPD1     C 3593   2.507   0.634  15.819 -0.0266  0.1547  0.3456
  237MPD1    C1 3594   2.422   0.543  15.761 -0.4282  0.6260  0.9383
  237MPD1    C2 3595   2.315   0.595  15.695  0.1459  0.2808 -0.4512
  237MPD1    C3 3596   2.297   0.735  15.676 -0.2718  0.0294 -0.8888
  237MPD1    C4 3597   2.389   0.821  15.733  0.5241  0.0501 -0.0450
  237MPD1    C5 3598   2.500   0.769  15.799 -0.0803  0.3114  0.0318
  237MPD1     H 3599   2.240   0.525  15.660  0.6542  0.7506 -2.4915
  237MPD1    H1 3600   2.391   0.927  15.709  0.6153  0.1504  0.4064
  237MPD1    H2 3601   2.602   0.602  15.858  0.5006  1.8894  0.4645
  237MPD1    H3 3602   2.575   0.827  15.851 -0.3973 -1.1884  2.1541
  237MPD1     N 3603   2.204   0.786  15.585  0.1041 -0.0972  0.5950
  237MPD1    H5 3604   2.220   0.882  15.555 -2.4707 -0.2763 -1.3371
  237MPD1    N1 3605   2.440   0.410  15.792 -0.1028 -0.4478  0.0715
  237MPD1    H6 3606   2.388   0.348  15.729 -0.6545  2.6342 -2.4956
  237MPD1    H7 3607   2.540   0.390  15.791 -0.1462 -0.7091  0.9226
  238MPD1     C 3608   3.252   4.643  15.965 -0.0058 -0.0424  0.5938
  238MPD1    C1 3609   3.380   4.633  15.919 -0.4365  0.5285 -0.6015
  238MPD1    C2 3610   3.406   4.571  15.797 -0.0234  0.0449 -0.4560
  238MPD1    C3 3611   3.302   4.533  15.713 -0.5468  0.5156  0.1475
  238MPD1    C4 3612   3.174   4.561  15.756 -0.2075 -0.5324 -0.9262
  238MPD1    C5 3613   3.145   4.617  15.878 -1.0518  0.0566 -0.3261
  238MPD1     H 3614   3.510   4.557  15.768 -0.0949  2.6664 -1.9391
  238MPD1    H1 3615   3.083   4.536  15.702 -1.2072 -1.0509  0.9913
  238MPD1    H2 3616   3.235   4.675  16.067 -0.2262 -2.2668  1.2688
  238MPD1    H3 3617   3.046   4.638  15.917 -1.4806 -1.3334 -0.6492
  238MPD1     N 3618   3.313   4.467  15.587  0.3701  0.1380  0.2006
  238MPD1    H5 3619   3.228   4.436  15.540  0.0563  1.1504  0.1048
  238MPD1    N1 3620   3.479   4.674  16.011  0.0753  0.9401 -0.4644
  238MPD1    H6 3621   3.454   0.031  16.065  3.3589  1.0104  0.9982
  238MPD1    H7 3622   3.561   4.698  15.956 -0.7841  1.5947 -1.4619
  239MPD1     C 3623   4.391   0.462  14.975 -0.7213  0.4376 -1.0385
  239MPD1    C1 3624   4.449   0.405  14.867 -0.4425 -0.2589 -0.2417
  239MPD1    C2 3625   4.376   0.392  14.754  0.2690  0.2854  0.1683
  239MPD1    C3 3626   4.245   0.444  14.749  0.1104 -0.5275 -0.0710
  239MPD1    C4 3627   4.190   0.494  14.863 -0.1273 -1.1414  0.7417
  239MPD1    C5 3628   4.267   0.506  14.971 -0.1347 -0.4316  0.9044
  239MPD1     H 3629   4.417   0.341  14.668 -1.0245 -2.3204  1.0800
  239MPD1    H1 3630   4.090   0.537  14.864  0.3438 -0.0678  0.9311
  239MPD1    H2 3631   4.438   0.497  15.067 -0.2293 -2.5213 -0.1525
  239MPD1    H3 3632   4.231   0.545  15.066 -1.4345 -1.5460  0.8609
  239MPD1     N 3633   4.170   0.466  14.626  0.0537  0.0153 -0.5488
  239MPD1    H5 3634   4.072   0.494  14.628 -0.1829 -0.7179 -1.3624
  239MPD1    N1 3635   4.590   0.373  14.862 -0.6212  0.0098  0.4101
  239MPD1    H6 3636   4.589   0.284  14.813 -0.3661 -0.3796  1.1050
  239MPD1    H7 3637   4.623   0.376  14.958 -0.3805 -2.7688  0.4158
  240MPD1     C 3638   3.308   0.602  14.200 -0.0683 -0.0813 -0.8516
  240MPD1    C1 3639   3.211   0.538  14.262  0.7390 -0.2189  0.1113
  240MPD1    C2 3640   3.254   0.442  14.352  0.6912  0.0461  1.7383
  240MPD1    C3 3641   3.384   0.421  14.395 -0.2666 -0.6262 -1.1269
  240MPD1    C4 3642   3.477   0.513  14.357  0.6885 -0.2007 -0.3655
  240MPD1    C5 3643   3.434   0.602  14.256  0.0667  0.3721  0.3082
  240MPD1     H 3644   3.180   0.375  14.393 -0.3378 -0.9067 -1.6686
  240MPD1    H1 3645   3.576   0.512  14.400 -0.1527 -0.9455  1.5280
  240MPD1    H2 3646   3.290   0.660  14.110  0.8118  2.8162  0.8220
  240MPD1    H3 3647   3.515   0.641  14.196  2.4598 -2.3488  1.8015
  240MPD1     N 3648   3.407   0.322  14.492  0.1603  0.1374 -0.2229
  240MPD1    H5 3649   3.324   0.266  14.510  0.3892 -0.1083  0.0504
  240MPD1    N1 3650   3.086   0.537  14.210 -0.1753 -0.0659 -0.5186
  240MPD1    H6 3651   3.012   0.513  14.276 -0.7689  1.4551 -0.6240
  240MPD1    H7 3652   3.072   0.626  14.163  2.6005  0.3080 -0.6491
  241MPD1     C 3653   3.629   0.036  15.486 -0.1092  0.2720  0.2990
  241MPD1    C1 3654   3.723   0.044  15.391 -0.6133  0.7335  0.3968
  241MPD1    C2 3655   3.675   0.059  15.257  0.2436 -0.4092 -0.1988
  241MPD1    C3 3656   3.544   0.065  15.222 -0.6959  0.3615 -0.3554
  241MPD1    C4 3657   3.450   0.070  15.323 -0.3112 -0.4078 -0.2084
  241MPD1    C5 3658   3.495   0.063  15.453  0.5333  0.1540 -0.6153
  241MPD1     H 3659   3.752   0.056  15.180  1.3199  1.4672  0.8053
  241MPD1    H1 3660   3.347   0.098  15.306 -0.4940 -0.2071  1.1829
  241MPD1    H2 3661   3.652   0.028  15.592  0.4324 -2.1748 -0.0113
  241MPD1    H3 3662   3.426   0.068  15.537 -0.8490 -1.5092 -1.6768
  241MPD1     N 3663   3.506   0.070  15.088 -0.7305 -0.1250 -0.9518
  241MPD1    H5 3664   3.415   0.043  15.052  0.5228 -1.6746 -2.9401
  241MPD1    N1 3665   3.857   0.003  15.418 -0.5471 -0.0445  0.2714
  241MPD1    H6 3666   3.890   0.015  15.513  0.9549  1.3067 -0.4191
  241MPD1    H7 3667   3.923   0.047  15.353 -0.8933  0.9734  0.6132
  242MPD1     C 3668   3.891   3.167  15.891  0.5252  0.1495 -0.6503
  242MPD1    C1 3669   3.809   3.272  15.848 -0.2329  0.8563 -0.4546
  242MPD1    C2 3670   3.787   3.286  15.715 -0.1817 -0.9852  0.4843
  242MPD1    C3 3671   3.850   3.201  15.620 -0.2564  0.4169  0.1083
  242MPD1    C4 3672   3.944   3.108  15.668 -0.7020 -1.0728  0.3433
  242MPD1    C5 3673   3.953   3.089  15.801 -0.4069  0.1720 -0.1715
  242MPD1     H 3674   3.716   3.357  15.674 -0.2241 -1.7308 -0.7244
  242MPD1    H1 3675   4.000   3.047  15.598 -0.8503 -1.1553  0.2963
  242MPD1    H2 3676   3.908   3.155  15.998 -0.6883 -1.5108 -0.6401
  242MPD1    H3 3677   4.029   3.024  15.844  0.0025 -0.4641 -1.8447
  242MPD1     N 3678   3.849   3.216  15.476  0.1418 -0.5732  0.1625
  242MPD1    H5 3679   3.888   3.144  15.415  1.4031 -0.2001  0.5397
  242MPD1    N1 3680   3.744   3.359  15.939 -0.2912  0.2382 -0.1571
  242MPD1    H6 3681   3.657   3.390  15.895 -0.5070 -1.8632 -1.1842
  242MPD1    H7 3682   3.713   3.307  16.021  1.7877 -1.9053 -0.7618
  243MPD1     C 3683   0.830   2.012   0.139 -0.6058  0.4190  0.3748
  243MPD1    C1 3684   0.875   2.050   0.015 -0.7389 -0.1688  0.7294
  243MPD1    C2 3685   0.785   2.103  17.633 -0.2674 -0.2700 -0.1979
  243MPD1    C3 3686   0.659   2.144  17.680  0.5765  0.5244  0.2178
  243MPD1    C4 3687   0.624   2.119   0.107 -0.0944  0.3002 -0.0199
  243MPD1    C5 3688   0.705   2.041   0.181  0.4444  0.7367 -0.6390
  243MPD1     H 3689   0.814   2.101  17.528  0.3078 -1.0522 -0.0268
  243MPD1    H1 3690   0.535   2.152   0.158  1.0744  0.0544  2.1774
  243MPD1    H2 3691   0.879   1.952   0.215 -0.4323  0.6392  0.4372
  243MPD1    H3 3692   0.667   2.024   0.281 -0.2801  0.0426 -1.0337
  243MPD1     N 3693   0.556   2.179  17.586 -0.1254  0.4729  0.0193
  243MPD1    H5 3694   0.575   2.162  17.487 -0.9314 -1.6802  0.2434
  243MPD1    N1 3695   1.001   2.003  17.675 -0.9700  0.6911  0.4225
  243MPD1    H6 3696   1.027   2.082  17.616 -1.1878  1.3340  1.1686
  243MPD1    H7 3697   1.069   2.005   0.045 -0.8808  0.4135  0.3488
  244MPD1     C 3698   4.411   1.937   0.150  0.2889  0.3407 -0.1053
  244MPD1    C1 3699   4.520   1.997   0.203  0.6423  0.0554  0.0599
  244MPD1    C2 3700   4.610   2.068   0.119  0.6877  0.2891 -0.1854
  244MPD1    C3 3701   4.600   2.056  17.689 -0.3275 -0.2168 -0.0390
  244MPD1    C4 3702   4.498   1.974  17.632 -0.7281 -0.4670 -0.2644
  244MPD1    C5 3703   4.401   1.919   0.010  0.4988 -0.1751 -0.2959
  244MPD1     H 3704   4.682   2.137   0.162 -1.3259  1.5747  1.1559
  244MPD1    H1 3705   4.487   1.949  17.527 -0.5823 -2.5041  0.2207
  244MPD1    H2 3706   4.340   1.890   0.217  1.0062 -1.2233 -0.4184
  244MPD1    H3 3707   4.319   1.862  17.676  1.2189 -0.8300 -0.8193
  244MPD1     N 3708   4.705   2.123  17.614  0.0921 -0.4866 -0.2006
  244MPD1    H5 3709   0.042   2.183  17.667 -1.4466  1.2961 -0.3801
  244MPD1    N1 3710   4.529   2.006   0.342  0.6018 -0.1364 -0.0840
  244MPD1    H6 3711   4.485   1.935   0.399  0.0242 -0.5498 -1.0469
  244MPD1    H7 3712   4.617   2.036   0.384  0.8902 -0.7026 -0.2901
  245MPD1     C 3713   2.285   2.245  12.941  0.2907 -0.5036  0.2927
  245MPD1    C1 3714   2.201   2.238  13.050 -0.7019 -0.2629 -0.4055
  245MPD1    C2 3715   2.199   2.339  13.143 -0.0306  0.0073 -0.6445
  245MPD1    C3 3716   2.274   2.459  13.123  0.5310 -0.5239 -0.2989
  245MPD1    C4 3717   2.360   2.460  13.021 -0.5299 -0.3850 -0.8421
  245MPD1    C5 3718   2.364   2.358  12.931  0.0915 -0.0566  0.8406
  245MPD1     H 3719   2.135   2.326  13.230 -0.0740  4.1384 -0.0647
  245MPD1    H1 3720   2.431   2.541  13.009 -2.3618  1.4683  0.7750
  245MPD1    H2 3721   2.278   2.174  12.859  0.0998  0.4206 -0.4916
  245MPD1    H3 3722   2.432   2.355  12.846 -0.0314  1.2924  0.7062
  245MPD1     N 3723   2.265   2.567  13.216  0.6487 -0.3418 -0.3760
  245MPD1    H5 3724   2.211   2.553  13.300  1.3231  0.9746  0.2764
  245MPD1    N1 3725   2.108   2.136  13.056  0.1834 -0.2469  0.7140
  245MPD1    H6 3726   2.048   2.158  13.136 -0.8314  0.4287 -0.2359
  245MPD1    H7 3727   2.055   2.125  12.970  1.0213 -0.3126  0.2112
  246MPD1     C 3728   1.498   2.063   9.009  0.3137 -0.4821 -0.0193
  246MPD1    C1 3729   1.562   2.176   9.065  0.0128 -0.5005  0.6084
  246MPD1    C2 3730   1.599   2.155   9.194  0.1302 -0.3639  0.1349
  246MPD1    C3 3731   1.567   2.049   9.278 -0.0113  0.3386  0.2761
  246MPD1    C4 3732   1.497   1.945   9.221 -0.5517  0.5174  0.0807
  246MPD1    C5 3733   1.468   1.951   9.084 -0.0436  0.1302 -0.1619
  246MPD1     H 3734   1.649   2.244   9.231 -2.8483  1.4697 -0.2391
  246MPD1    H1 3735   1.490   1.848   9.269  0.7073  1.0659  1.3602
  246MPD1    H2 3736   1.495   2.057   8.901 -0.2069 -2.3436  0.0973
  246MPD1    H3 3737   1.415   1.864   9.046 -0.8749 -0.0211  1.3382
  246MPD1     N 3738   1.620   2.051   9.408 -0.1408 -0.3641  0.3860
  246MPD1    H5 3739   1.672   2.135   9.429 -1.2532  0.6509 -0.9174
  246MPD1    N1 3740   1.600   2.281   8.979  0.3494  0.1088 -0.2852
  246MPD1    H6 3741   1.540   2.287   8.896  1.1192  1.3868 -0.7474
  246MPD1    H7 3742   1.629   2.371   9.016  0.1461 -0.0780  0.3369
  247MPD1     C 3743   1.035   1.345  15.564 -0.1932 -0.5235  0.2349
  247MPD1    C1 3744   1.099   1.230  15.611  0.6128  0.5089 -0.9031
  247MPD1    C2 3745   1.224   1.237  15.666  0.3160 -0.2127 -0.1172
  247MPD1    C3 3746   1.283   1.359  15.688  0.1934  0.3252  0.7484
  247MPD1    C4 3747   1.215   1.473  15.636  0.8882  0.1327 -1.0012
  247MPD1    C5 3748   1.097   1.466  15.574 -0.5883  0.1288  0.6496
  247MPD1     H 3749   1.280   1.146  15.690 -1.7957 -0.7319  2.7523
  247MPD1    H1 3750   1.273   1.565  15.635  1.7055 -0.3526  1.3040
  247MPD1    H2 3751   0.941   1.349  15.512 -0.6680  2.1807  1.2862
  247MPD1    H3 3752   1.061   1.545  15.509  0.0485 -1.8380 -2.1332
  247MPD1     N 3753   1.410   1.374  15.743 -0.3403  0.5976  0.6026
  247MPD1    H5 3754   1.439   1.470  15.727  1.5528 -0.1078 -0.1641
  247MPD1    N1 3755   1.039   1.105  15.576 -0.1873 -0.5318  0.1091
  247MPD1    H6 3756   1.076   1.032  15.636 -1.1215 -0.3026  0.9739
  247MPD1    H7 3757   0.938   1.113  15.563 -0.1630 -0.3498  0.0380
  248MPD1     C 3758   2.647   2.626   0.141 -0.0674 -0.6691  0.1127
  248MPD1    C1 3759   2.648   2.726   0.230 -0.1109  0.4780  0.1735
  248MPD1    C2 3760   2.538   2.750   0.309 -0.3125 -0.0683  0.7822
  248MPD1    C3 3761   2.433   2.660   0.309 -0.4118  0.1792  0.0225
  248MPD1    C4 3762   2.434   2.554   0.215  0.0381  0.3573  0.3415
  248MPD1    C5 3763   2.542   2.543   0.130  0.2242  0.1252 -0.0818
  248MPD1     H 3764   2.541   2.836   0.376  0.4014  0.9014 -0.4859
  248MPD1    H1 3765   2.360   2.474   0.210  1.0989 -0.6658  1.0792
  248MPD1    H2 3766   2.730   2.605   0.075  0.5680 -2.8600  1.6326
  248MPD1    H3 3767   2.541   2.453   0.071 -2.0789 -0.8383  1.4329
  248MPD1     N 3768   2.329   2.672   0.411  0.1736 -0.1803  0.3751
  248MPD1    H5 3769   2.340   2.753   0.471  0.4324  0.6082 -0.7385
  248MPD1    N1 3770   2.764   2.804   0.244  0.1972 -0.6595 -0.2742
  248MPD1    H6 3771   2.751   2.861   0.327  1.5106  1.1898 -1.3525
  248MPD1    H7 3772   2.768   2.876   0.172  0.9223  1.9059  2.3029
  249MPD1     C 3773   3.029   1.427   9.407 -0.3661  0.7966 -0.0499
  249MPD1    C1 3774   3.143   1.503   9.439 -0.3659  0.3383  0.4414
  249MPD1    C2 3775   3.226   1.447   9.536 -0.3374 -0.2354  0.0069
  249MPD1    C3 3776   3.190   1.340   9.614 -0.1596 -0.0117  0.0132
  249MPD1    C4 3777   3.063   1.284   9.596 -0.6762  0.5193  0.8373
  249MPD1    C5 3778   2.989   1.322   9.486 -0.8560  0.7267  0.3734
  249MPD1     H 3779   3.322   1.496   9.546 -1.0638  1.1352  0.2728
  249MPD1    H1 3780   3.023   1.206   9.659 -0.2781  0.5368  1.1101
  249MPD1    H2 3781   2.970   1.459   9.323 -0.0732  1.5116  0.0216
  249MPD1    H3 3782   2.890   1.279   9.476  0.2191 -1.6594 -0.0531
  249MPD1     N 3783   3.285   1.311   9.716  0.4432  0.2203  0.3022
  249MPD1    H5 3784   3.375   1.358   9.706  1.0062 -1.0353 -0.4845
  249MPD1    N1 3785   3.184   1.606   9.357  0.4855 -0.4525 -0.1221
  249MPD1    H6 3786   3.253   1.674   9.389 -0.8541  1.1929 -0.7287
  249MPD1    H7 3787   3.110   1.639   9.296  1.5787 -0.3502 -1.4094
  250MPD2     C 3788   0.045   1.155  13.765  0.5240  0.4298  0.7380
  250MPD2    C1 3789   0.032   1.183  13.627  0.7875 -0.1357 -0.1919
  250MPD2    C2 3790   4.675   1.106  13.553  0.1960 -1.3207 -0.5843
  250MPD2    C3 3791   4.594   1.006  13.608  0.7168 -0.6095 -0.4037
  250MPD2    C4 3792   4.607   0.987  13.745  0.2022  0.7575 -0.3187
  250MPD2    C5 3793   4.689   1.062  13.823  0.3821 -1.5731 -0.1229
  250MPD2     H 3794   4.665   1.129  13.447  1.3431  2.3163  0.1056
  250MPD2    H1 3795   4.565   0.904  13.800 -0.7600  1.1528 -0.4420
  250MPD2    H2 3796   0.116   1.207  13.829 -0.7076 -0.0017  2.4621
  250MPD2    H3 3797   4.708   1.036  13.926  0.3642 -2.5185 -0.3604
  250MPD2     N 3798   4.520   0.916  13.530  0.2628 -0.0528  0.5036
  250MPD2    H5 3799   4.487   0.837  13.585 -0.9004  1.0003  1.2959
  250MPD2    N1 3800   0.102   1.287  13.561 -0.3553 -0.6954  0.1505
  250MPD2    H7 3801   0.086   1.300  13.461 -1.4197 -0.5398  0.3465
  251TMC3    C1 3802   0.248   1.464  13.536 -0.0989 -0.1810 -0.0045
  251TMC3    C2 3803   0.298   1.577  13.592 -0.5961  0.0997  0.1880
  251TMC3    C3 3804   0.369   1.654  13.507  0.3827  0.1200  0.2196
  251TMC3    C4 3805   0.271   1.426  13.406 -0.5743 -0.4625  0.1191
  251TMC3    C5 3806   0.351   1.502  13.328 -0.2801  0.9405 -0.4652
  251TMC3    C6 3807   0.403   1.613  13.384  0.5753 -0.1846 -0.0914
  251TMC3     C 3808   0.187   1.370  13.627  0.0773  0.1778  0.5308
  251TMC3     O 3809   0.227   1.378  13.740  0.2562  0.4500 -0.0574
  251TMC3     H 3810   0.277   1.602  13.695  3.1328 -0.9806  1.1908
  251TMC3    H1 3811   0.230   1.339  13.357  0.4193 -1.5788  1.2789
  251TMC3    H2 3812   0.476   1.670  13.326 -0.2435  0.2704 -0.6723
  251TMC3    C7 3813   0.397   1.452  13.204  0.3569  0.2577 -0.2885
  251TMC3    C8 3814   0.361   1.792  13.546  0.2186  0.5745 -0.5320
  251TMC3    O1 3815   0.384   1.331  13.187 -0.5366 -0.2242  0.4911
  251TMC3    O2 3816   0.350   1.820  13.668  0.2474 -0.2029 -0.2899
  252TMC3    C1 3817   1.051   1.735   9.081 -0.0820  0.9007  0.4094
  252TMC3    C2 3818   1.059   1.858   9.140  0.0794  0.2245 -0.1981
  252TMC3    C3 3819   1.128   1.877   9.257 -0.0024 -0.2277 -0.0546
  252TMC3    C4 3820   1.119   1.629   9.131  0.1309  0.2078 -0.5926
  252TMC3    C5 3821   1.204   1.653   9.238  0.5565  0.1886 -0.1660
  252TMC3    C6 3822   1.211   1.780   9.302  0.1090 -0.0800  0.0348
  252TMC3     C 3823   0.969   1.723   8.960  0.0256  0.7918 -0.1267
  252TMC3     O 3824   0.926   1.826   8.906  0.6441  0.1365 -0.2069
  252TMC3     H 3825   1.001   1.939   9.099 -0.1660  0.3963  0.4887
  252TMC3    H1 3826   1.120   1.530   9.085 -1.6666  0.1994 -0.5933
  252TMC3    H2 3827   1.286   1.806   9.376  2.0919 -1.3765 -1.5073
  252TMC3    C7 3828   1.285   1.549   9.306 -0.3470 -0.4394  0.3099
  252TMC3    C8 3829   1.146   2.015   9.300  1.4618  0.0682  0.5490
  252TMC3    O1 3830   1.366   1.581   9.388  0.1277  0.8062  0.0435
  252TMC3    O2 3831   1.129   2.101   9.216 -0.2521  0.0206  0.2157
  253MPD2     C 3832   1.927   1.171  15.584 -0.3520  0.2652  0.4943
  253MPD2    C1 3833   1.800   1.117  15.601 -0.3358 -0.1219 -0.8573
  253MPD2    C2 3834   1.783   1.016  15.698 -0.4983  0.4184 -0.3294
  253MPD2    C3 3835   1.893   0.971  15.769  0.2998  0.1381 -0.6026
  253MPD2    C4 3836   2.017   1.028  15.749  0.2089 -0.2481  0.5531
  253MPD2    C5 3837   2.029   1.124  15.654 -0.0810 -0.9850 -0.8735
  253MPD2     H 3838   1.684   0.980  15.723  0.1739 -1.3666 -0.2734
  253MPD2    H1 3839   2.095   0.998  15.819  0.3285 -1.4487 -0.1070
  253MPD2    H2 3840   1.953   1.247  15.511 -0.5673 -0.6320 -0.5205
  253MPD2    H3 3841   2.122   1.174  15.632 -0.4075 -0.9025 -2.0410
  253MPD2     N 3842   1.892   0.881  15.873 -0.0560  0.3020  0.3936
  253MPD2    H5 3843   1.983   0.862  15.913 -0.0833  0.5359  0.5661
  253MPD2    N1 3844   1.692   1.167  15.527 -0.0211  0.0926 -0.1545
  253MPD2    H7 3845   1.605   1.114  15.522 -0.3931  0.8560 -1.6781
  254TMC3    C1 3846   1.799   0.751  16.060  0.6452  0.9543  0.6867
  254TMC3    C2 3847   1.709   0.653  16.079  0.1852  0.2334 -0.1451
  254TMC3    C3 3848   1.676   0.611  16.204  0.8330 -0.2082  0.0696
  254TMC3    C4 3849   1.863   0.808  16.171  0.4482 -1.1566  0.3643
  254TMC3    C5 3850   1.835   0.760  16.294  0.8618  0.9382  0.1568
  254TMC3    C6 3851   1.740   0.663  16.311 -0.0393 -0.1667 -0.1930
  254TMC3     C 3852   1.772   0.829  15.936  0.4877 -1.0142 -0.4253
  254TMC3     O 3853   1.661   0.818  15.885 -0.4679 -0.1045 -0.5713
  254TMC3     H 3854   1.649   0.615  15.996 -0.3206 -0.7940  0.6863
  254TMC3    H1 3855   1.933   0.889  16.153  0.1573 -0.7717  0.9652
  254TMC3    H2 3856   1.718   0.629  16.411 -0.5493  0.4467 -0.0976
  254TMC3    C7 3857   1.912   0.804  16.403 -0.2344 -0.1836  0.1171
  254TMC3    C8 3858   1.532   0.592  16.222  0.4250  0.1424  0.3619
  254TMC3    O1 3859   1.919   0.724  16.497  0.3293  0.5927  0.0839
  254TMC3    O2 3860   1.478   0.512  16.145  0.8984  0.0765  0.9031
  255MPD2     C 3861   4.630   4.208  10.842 -0.3303 -0.0835 -0.6073
  255MPD2    C1 3862   4.686   4.211  10.721  0.5883  0.4224  0.6097
  255MPD2    C2 3863   0.087   4.158  10.709 -0.8871 -1.0986  0.2521
  255MPD2    C3 3864   0.154   4.104  10.823 -0.4286 -0.4250  0.3421
  255MPD2    C4 3865   0.099   4.104  10.946  0.2086  0.3971  0.8454
  255MPD2    C5 3866   4.700   4.164  10.953 -0.3681 -0.0211  0.0451
  255MPD2     H 3867   0.138   4.162  10.613 -0.1226 -0.6458  0.6761
  255MPD2    H1 3868   0.137   4.057  11.036  1.3875 -0.7482 -0.2455
  255MPD2    H2 3869   4.527   4.237  10.858  0.3735  1.0531  1.8744
  255MPD2    H3 3870   4.651   4.166  11.050 -0.3835 -2.8043  0.0879
  255MPD2     N 3871   0.273   4.046  10.788 -1.0236  0.2520 -0.1783
  255MPD2    H5 3872   0.305   4.057  10.692 -0.5501 -2.8481 -0.3612
  255MPD2    N1 3873   4.608   4.258  10.620  0.9084  0.0236  0.6360
  255MPD2    H7 3874   4.509   4.242  10.635  0.5713  0.9161 -0.6400
  256TMC3    C1 3875   4.561   4.306  10.385  0.8526 -0.2890  0.8718
  256TMC3    C2 3876   4.617   4.328  10.258  0.0653  0.3126  0.6507
  256TMC3    C3 3877   4.544   4.297  10.148  0.4404  0.4487  0.2156
  256TMC3    C4 3878   4.446   4.229  10.401  0.3249 -0.6549  0.3303
  256TMC3    C5 3879   4.387   4.194  10.283 -0.4802 -0.2521 -0.1186
  256TMC3    C6 3880   4.430   4.225  10.157  0.0683 -0.8850 -0.2421
  256TMC3     C 3881   4.655   4.291  10.501  0.2838 -0.1739 -0.6944
  256TMC3     O 3882   0.043   4.333  10.479 -0.2055  0.0492 -0.3774
  256TMC3     H 3883   4.712   4.381  10.251 -0.0753  0.3215 -1.1506
  256TMC3    H1 3884   4.396   4.211  10.495 -0.3621 -3.0953 -0.4977
  256TMC3    H2 3885   4.382   4.196  10.064 -0.4451  1.6964 -0.7726
  256TMC3    C7 3886   4.315   4.074  10.295  0.0197 -0.4024 -0.5522
  256TMC3    C8 3887   4.589   4.326  10.013  0.2644  0.0009  0.8580
  256TMC3    O1 3888   4.333   3.986  10.375 -0.3916  0.2010 -0.6700
  256TMC3    O2 3889   4.535   4.269   9.922  0.2867 -0.3106 -1.0056
  257MPD2     C 3890   3.870   1.438  13.218 -0.0729 -0.1750 -0.1444
  257MPD2    C1 3891   3.814   1.348  13.129  0.5495  0.2917  0.5719
  257MPD2    C2 3892   3.804   1.221  13.167  0.0813 -0.4259 -0.5153
  257MPD2    C3 3893   3.822   1.184  13.296  0.2176 -0.2733 -0.2505
  257MPD2    C4 3894   3.851   1.281  13.388  0.3813  0.4099 -0.3686
  257MPD2    C5 3895   3.881   1.404  13.346 -0.1921 -0.4081 -0.4881
  257MPD2     H 3896   3.767   1.143  13.101 -1.7594  2.3531 -2.7382
  257MPD2    H1 3897   3.838   1.262  13.494 -1.9416 -0.0182 -0.7197
  257MPD2    H2 3898   3.901   1.535  13.182 -0.5398 -0.3779 -1.1094
  257MPD2    H3 3899   3.909   1.482  13.416  1.5314 -4.0335  2.9108
  257MPD2     N 3900   3.785   1.056  13.334  0.2573 -0.2187  0.0865
  257MPD2    H5 3901   3.773   0.987  13.260 -0.0983  2.4380 -2.3596
  257MPD2    N1 3902   3.788   1.392  12.997 -0.3996 -0.0852 -0.0030
  257MPD2    H7 3903   3.835   1.478  12.969 -0.3546 -0.9009 -2.4114
  258TMC3    C1 3904   3.758   0.856  13.462  0.1023  0.5759  0.4000
  258TMC3    C2 3905   3.825   0.786  13.374  0.2052  0.4318  0.1589
  258TMC3    C3 3906   3.857   0.658  13.396  0.2636  0.5822 -0.0828
  258TMC3    C4 3907   3.726   0.805  13.585  0.4378  0.5434  0.0561
  258TMC3    C5 3908   3.769   0.678  13.611 -0.8292  0.4498 -0.0337
  258TMC3    C6 3909   3.831   0.602  13.521 -0.0115  0.4432 -0.1621
  258TMC3     C 3910   3.770   1.006  13.459 -0.7909 -0.2362 -0.1489
  258TMC3     O 3911   3.782   1.066  13.564 -0.1494 -0.3504  0.1716
  258TMC3     H 3912   3.860   0.834  13.283  0.4574 -0.4708 -0.2232
  258TMC3    H1 3913   3.697   0.873  13.664 -1.5597 -0.8251  0.4726
  258TMC3    H2 3914   3.835   0.495  13.540  1.8144  0.5973  0.3583
  258TMC3    C7 3915   3.732   0.637  13.745 -0.0117  0.0191  0.9593
  258TMC3    C8 3916   3.954   0.586  13.315  0.0626  0.3839  0.3941
  258TMC3    O1 3917   3.637   0.697  13.792 -0.0384 -0.2499 -0.0094
  258TMC3    O2 3918   3.999   0.494  13.378 -0.4011 -0.1789  0.1308
  259MPD2     C 3919   2.557   2.512   1.107 -0.2106 -0.2774  0.7169
  259MPD2    C1 3920   2.575   2.385   1.055  0.5045  0.6553 -0.9085
  259MPD2    C2 3921   2.679   2.371   0.966  0.0055  0.0236  0.4811
  259MPD2    C3 3922   2.766   2.472   0.926  0.2523 -0.2568  0.1006
  259MPD2    C4 3923   2.739   2.603   0.974 -0.2692 -0.6908 -0.2354
  259MPD2    C5 3924   2.638   2.618   1.066  0.3411  0.3315 -0.1301
  259MPD2     H 3925   2.704   2.276   0.921 -0.4190  0.0259  0.2427
  259MPD2    H1 3926   2.797   2.689   0.944  2.1938 -2.5170 -0.6776
  259MPD2    H2 3927   2.470   2.531   1.168 -2.1750 -0.8819 -1.8916
  259MPD2    H3 3928   2.624   2.715   1.113 -0.4968 -0.4734  1.2995
  259MPD2     N 3929   2.873   2.435   0.844 -0.2583  0.6579 -0.6627
  259MPD2    H5 3930   2.879   2.342   0.805  0.8401  0.5267 -0.1887
  259MPD2    N1 3931   2.494   2.280   1.107  0.2150 -0.6903  0.6012
  259MPD2    H7 3932   2.421   2.306   1.172  0.4751 -0.0921  0.6543
  260TMC3    C1 3933   3.105   2.458   0.772 -0.4947 -0.4220 -0.4027
  260TMC3    C2 3934   3.194   2.529   0.693 -0.0483 -0.0274  0.0905
  260TMC3    C3 3935   3.310   2.467   0.658  0.1563 -0.2564  0.9661
  260TMC3    C4 3936   3.126   2.326   0.814 -0.3218  0.2427 -0.1190
  260TMC3    C5 3937   3.241   2.264   0.758  0.0610 -0.5449  0.3119
  260TMC3    C6 3938   3.339   2.338   0.699  0.2066  0.5856 -0.4052
  260TMC3     C 3939   2.981   2.520   0.807 -1.2248 -0.8692  0.3459
  260TMC3     O 3940   2.989   2.645   0.809  0.3971  0.3446  0.5315
  260TMC3     H 3941   3.168   2.620   0.641 -2.3077 -0.5604  0.2431
  260TMC3    H1 3942   3.052   2.262   0.859 -0.1283  0.6440  0.7591
  260TMC3    H2 3943   3.430   2.283   0.679 -0.1514 -0.3898  0.6554
  260TMC3    C7 3944   3.227   2.136   0.692 -0.2011  0.3461  0.3768
  260TMC3    C8 3945   3.378   2.512   0.535  0.5887  0.6852  0.2229
  260TMC3    O1 3946   3.306   2.105   0.604  0.3814 -0.0939 -0.6203
  260TMC3    O2 3947   3.362   2.625   0.489  0.0078 -0.0744  0.1689
  261MPD2     C 3948   4.297   0.815  12.721 -0.5968 -0.0784  0.5527
  261MPD2    C1 3949   4.375   0.892  12.808  0.3828  0.2445  0.3089
  261MPD2    C2 3950   4.427   1.013  12.759 -0.1843  0.3098  0.2375
  261MPD2    C3 3951   4.394   1.058  12.631 -0.2345 -0.2738  0.5097
  261MPD2    C4 3952   4.325   0.978  12.545 -0.2586  0.6117  0.1483
  261MPD2    C5 3953   4.283   0.856  12.589  0.5214 -0.1393 -0.1974
  261MPD2     H 3954   4.484   1.080  12.822 -0.0756  1.7782 -1.4141
  261MPD2    H1 3955   4.303   1.009  12.444  2.7705 -1.4167 -1.1469
  261MPD2    H2 3956   4.252   0.725  12.762  0.9120 -0.5319  1.2109
  261MPD2    H3 3957   4.228   0.796  12.518 -1.2209  1.8232 -0.4840
  261MPD2     N 3958   4.423   1.191  12.598 -0.0076 -0.0444  0.1747
  261MPD2    H5 3959   4.487   1.233  12.665 -1.0755  0.5121  0.8344
  261MPD2    N1 3960   4.405   0.849  12.942 -0.5480 -0.3714 -0.4584
  261MPD2    H7 3961   4.448   0.920  13.000 -0.2717 -0.2438 -0.8129
  262TMC3    C1 3962   4.448   1.396  12.480  0.2947 -0.8018 -0.2208
  262TMC3    C2 3963   4.381   1.496  12.411 -0.1236 -0.3578  0.3635
  262TMC3    C3 3964   4.450   1.613  12.408  0.1246 -0.6894  0.0517
  262TMC3    C4 3965   4.575   1.404  12.531  0.1357  0.1274 -0.0935
  262TMC3    C5 3966   4.639   1.520  12.509 -0.5106  0.1241  0.5736
  262TMC3    C6 3967   4.578   1.627  12.458 -0.0407 -0.5093 -0.4129
  262TMC3     C 3968   4.385   1.262  12.487 -0.2377  0.1398  0.0958
  262TMC3     O 3969   4.303   1.240  12.399  0.2474  0.3583  0.3913
  262TMC3     H 3970   4.281   1.473  12.376  0.3139 -1.1082 -0.4210
  262TMC3    H1 3971   4.616   1.315  12.577  0.0569 -0.5945 -1.4242
  262TMC3    H2 3972   4.620   1.727  12.454 -0.5280 -0.3074 -0.5103
  262TMC3    C7 3973   0.036   1.504  12.446  1.1164 -0.0642  0.5524
  262TMC3    C8 3974   4.443   1.692  12.284  0.1426  0.0602  0.2900
  262TMC3    O1 3975   0.100   1.404  12.459 -0.7658  0.1772  0.0431
  262TMC3    O2 3976   4.544   1.749  12.255 -0.5786  0.4374 -0.3522
  263MPD2     C 3977   0.818   0.384  11.954  0.3471 -0.4021  0.1482
  263MPD2    C1 3978   0.892   0.373  11.838  0.2466  0.3981 -0.2561
  263MPD2    C2 3979   0.871   0.463  11.734 -0.0644 -0.1423  0.5802
  263MPD2    C3 3980   0.773   0.560  11.745 -0.1926 -0.1830 -0.2926
  263MPD2    C4 3981   0.685   0.561  11.851  0.7610  0.8215  0.1143
  263MPD2    C5 3982   0.723   0.483  11.959  0.1830 -0.1925 -0.0622
  263MPD2     H 3983   0.938   0.462  11.648  0.2997  0.3857  0.8528
  263MPD2    H1 3984   0.602   0.629  11.863 -0.8347 -1.1372  0.2063
  263MPD2    H2 3985   0.848   0.333  12.045  0.9488 -0.5211 -0.1197
  263MPD2    H3 3986   0.652   0.481  12.041  0.9649 -1.5593  0.5779
  263MPD2     N 3987   0.766   0.642  11.636  0.0452 -0.2655 -0.2436
  263MPD2    H5 3988   0.827   0.627  11.556 -0.5911  0.6297 -0.8954
  263MPD2    N1 3989   0.991   0.276  11.847  0.0022 -0.0816  0.0508
  263MPD2    H7 3990   1.010   0.231  11.936 -1.1045 -0.6894 -0.0167
  264TMC3    C1 3991   0.697   0.803  11.501 -0.2034  0.2736  0.5107
  264TMC3    C2 3992   0.651   0.935  11.497  0.5131 -0.6833  0.4501
  264TMC3    C3 3993   0.631   0.978  11.372  0.5106 -0.2275 -0.0636
  264TMC3    C4 3994   0.722   0.718  11.394 -0.1113 -0.4671  0.3516
  264TMC3    C5 3995   0.697   0.773  11.271 -1.0338  0.1968  0.0714
  264TMC3    C6 3996   0.640   0.898  11.260  0.3104 -0.2747  0.3690
  264TMC3     C 3997   0.687   0.749  11.626  0.5610  0.5558 -0.9233
  264TMC3     O 3998   0.623   0.804  11.709  0.4430  0.0141 -0.3477
  264TMC3     H 3999   0.672   0.998  11.583  0.0677  0.3936 -0.2308
  264TMC3    H1 4000   0.759   0.617  11.395 -0.3150 -0.5482 -0.3413
  264TMC3    H2 4001   0.613   0.937  11.163 -0.1455 -0.6565  0.3441
  264TMC3    C7 4002   0.782   0.727  11.162  0.5949 -0.5737 -0.6734
  264TMC3    C8 4003   0.683   1.111  11.353 -0.0785 -0.1213 -0.3101
  264TMC3    O1 4004   0.850   0.631  11.181 -0.7347  0.8353  0.7961
  264TMC3    O2 4005   0.615   1.191  11.417  0.0345  0.6444 -0.0439
  265MPD2     C 4006   2.856   0.603  15.696 -0.2267  0.7682  0.1220
  265MPD2    C1 4007   2.902   0.716  15.630  0.1971 -0.1641 -0.1968
  265MPD2    C2 4008   2.966   0.693  15.511  0.1740 -0.1978  0.4115
  265MPD2    C3 4009   2.994   0.564  15.471  0.4743  0.0910  0.4273
  265MPD2    C4 4010   2.952   0.455  15.544 -0.6351  0.0536 -0.2472
  265MPD2    C5 4011   2.876   0.469  15.651 -0.1738 -0.3885  0.4829
  265MPD2     H 4012   3.003   0.774  15.451 -1.3735 -0.1012 -0.4207
  265MPD2    H1 4013   2.982   0.353  15.520  0.7833  0.3328  0.3334
  265MPD2    H2 4014   2.822   0.617  15.798  0.4003  3.6936 -0.0807
  265MPD2    H3 4015   2.843   0.384  15.709  2.6284 -1.8550 -0.0856
  265MPD2     N 4016   3.068   0.531  15.354  0.1180 -0.2593  0.6926
  265MPD2    H5 4017   3.070   0.434  15.324 -0.0518  0.4138 -1.5311
  265MPD2    N1 4018   2.893   0.848  15.680 -0.4495  0.6406 -0.0101
  265MPD2    H7 4019   2.892   0.918  15.606  2.4637 -1.4243 -2.0057
  266TMC3    C1 4020   2.848   1.027  15.820  0.5476  0.0131 -0.2168
  266TMC3    C2 4021   2.882   1.084  15.940 -0.3617  0.1831  1.0891
  266TMC3    C3 4022   2.858   1.219  15.954  0.3788  0.6214 -0.4863
  266TMC3    C4 4023   2.781   1.092  15.723 -0.1256  0.2406 -0.9956
  266TMC3    C5 4024   2.753   1.225  15.741 -0.2184 -0.2567  0.6964
  266TMC3    C6 4025   2.789   1.292  15.859  0.5437  0.4995 -0.5567
  266TMC3     C 4026   2.866   0.882  15.811 -0.8752  0.2275 -0.1347
  266TMC3     O 4027   2.868   0.814  15.917  0.1458  0.0885 -0.3656
  266TMC3     H 4028   2.946   1.025  16.005  2.4369  1.5883 -0.3727
  266TMC3    H1 4029   2.740   1.035  15.640  0.7882 -0.0061 -1.2764
  266TMC3    H2 4030   2.764   1.397  15.872  1.9825  0.9618 -1.5022
  266TMC3    C7 4031   2.665   1.295  15.641  0.0712 -0.7795 -0.4871
  266TMC3    C8 4032   2.928   1.285  16.066  0.1453  0.1834 -0.4209
  266TMC3    O1 4033   2.607   1.225  15.561 -0.4032  0.1087 -0.1741
  266TMC3    O2 4034   2.996   1.223  16.147 -0.0657 -0.0346 -0.0721
  267MPD2     C 4035   0.399   2.609  17.670  0.2613 -0.9000 -0.5709
  267MPD2    C1 4036   0.512   2.560  17.614  0.7399 -0.1589 -0.5967
  267MPD2    C2 4037   0.515   2.539  17.476 -0.2451  0.3014 -0.4500
  267MPD2    C3 4038   0.407   2.564  17.399  0.0288 -0.2690  0.1346
  267MPD2    C4 4039   0.293   2.611  17.458 -0.0413  0.3923 -0.2598
  267MPD2    C5 4040   0.292   2.637  17.592 -0.5770 -0.8158  0.3724
  267MPD2     H 4041   0.604   2.500  17.427 -1.1899  0.1313 -2.0396
  267MPD2    H1 4042   0.200   2.613  17.402 -0.1333 -1.5061 -0.1550
  267MPD2    H2 4043   0.394   2.623   0.071  1.4180  0.6630 -0.7056
  267MPD2    H3 4044   0.197   2.675  17.627 -1.1124 -0.6381 -1.2544
  267MPD2     N 4045   0.405   2.546  17.257  0.7404 -0.8717 -0.0877
  267MPD2    H5 4046   0.316   2.558  17.211  0.7662  2.0260  0.5852
  267MPD2    N1 4047   0.624   2.520  17.699  0.3903  0.4114  0.7079
  267MPD2    H7 4048   0.604   2.533   0.091 -0.1100  0.3306  0.6160
  268TMC3    C1 4049   0.857   2.474   0.052 -0.2684 -0.0465  0.1143
  268TMC3    C2 4050   0.989   2.473   0.010  0.4242  0.2696  0.1183
  268TMC3    C3 4051   1.078   2.400   0.089 -0.2235 -0.2573 -0.2149
  268TMC3    C4 4052   0.817   2.409   0.167  0.6119 -0.1234  0.5296
  268TMC3    C5 4053   0.906   2.333   0.234  0.2265  0.0017  0.6286
  268TMC3    C6 4054   1.037   2.324   0.199 -1.2826 -0.4136  0.4961
  268TMC3     C 4055   0.756   2.501  17.652 -0.0105  0.6676 -0.4045
  268TMC3     O 4056   0.800   2.501  17.538  0.4486 -0.0279 -0.6039
  268TMC3     H 4057   1.011   2.507  17.616 -1.6820  0.1635 -0.3897
  268TMC3    H1 4058   0.710   2.398   0.177  0.3969 -0.7702 -2.4385
  268TMC3    H2 4059   1.113   2.276   0.259 -0.0325  0.1281 -0.6477
  268TMC3    C7 4060   0.867   2.301   0.375  0.3497  0.6066  0.1480
  268TMC3    C8 4061   1.217   2.379   0.047  0.3448 -0.4281  0.0734
  268TMC3    O1 4062   0.940   2.222   0.438  0.2041  0.3602  0.1291
  268TMC3    O2 4063   1.277   2.282   0.094  0.2624 -0.6817 -0.1210
  269MPD2     C 4064   0.812   1.249  15.847 -0.2039  0.0835  0.6713
  269MPD2    C1 4065   0.677   1.258  15.830  0.0904  0.1859  0.2007
  269MPD2    C2 4066   0.617   1.389  15.818  0.3452  0.4124 -0.6517
  269MPD2    C3 4067   0.692   1.503  15.817 -0.4442  0.1585 -0.8555
  269MPD2    C4 4068   0.829   1.491  15.824  0.5960  0.4675  0.6479
  269MPD2    C5 4069   0.883   1.367  15.851  0.0623  0.3115 -0.2902
  269MPD2     H 4070   0.511   1.408  15.822 -0.0566 -1.8896 -0.2971
  269MPD2    H1 4071   0.900   1.572  15.819 -0.8228  1.6780  0.2349
  269MPD2    H2 4072   0.867   1.157  15.863 -0.3422 -0.3595 -1.3504
  269MPD2    H3 4073   0.990   1.365  15.870  0.2702 -0.2126 -1.4940
  269MPD2     N 4074   0.632   1.626  15.807 -0.3294  0.1664 -0.3930
  269MPD2    H5 4075   0.531   1.619  15.795 -0.3317  1.0423 -0.9096
  269MPD2    N1 4076   0.600   1.142  15.829  0.1489  0.3183 -0.2818
  269MPD2    H7 4077   0.651   1.055  15.841  1.9091  1.2758 -0.8821
  270TMC3    C1 4078   0.395   1.010  15.827  0.1120  0.2394  0.2730
  270TMC3    C2 4079   0.285   0.977  15.755 -0.0233 -0.0882 -0.5870
  270TMC3    C3 4080   0.218   0.855  15.779 -0.0563 -1.0712  0.1586
  270TMC3    C4 4081   0.439   0.928  15.925 -0.0461  0.0747  0.3950
  270TMC3    C5 4082   0.379   0.807  15.935 -0.5837  0.3399  1.1322
  270TMC3    C6 4083   0.265   0.771  15.877  0.5878 -0.0634 -0.3394
  270TMC3     C 4084   0.468   1.134  15.795 -0.6986  0.3816 -0.6204
  270TMC3     O 4085   0.399   1.225  15.743 -0.5577 -0.5464  0.1565
  270TMC3     H 4086   0.257   1.040  15.671  0.3623  0.3765 -0.3712
  270TMC3    H1 4087   0.510   0.964  15.999  0.7677  1.4604 -1.0483
  270TMC3    H2 4088   0.244   0.665  15.871  0.9042 -0.1610  0.3449
  270TMC3    C7 4089   0.473   0.710  15.983 -0.2466  0.0665 -0.6467
  270TMC3    C8 4090   0.196   0.771  15.660  0.5207 -0.4208  0.7103
  270TMC3    O1 4091   0.587   0.735  15.957 -0.5593 -0.0034  0.5189
  270TMC3    O2 4092   0.275   0.793  15.569 -0.1395 -0.2899 -0.1012
  271MPD2     C 4093   4.344   0.984  14.042  0.0003 -0.1289 -0.3257
  271MPD2    C1 4094   4.281   0.975  14.170 -0.5613 -0.8964  0.4146
  271MPD2    C2 4095   4.163   1.046  14.175  0.8247 -0.8311  0.1403
  271MPD2    C3 4096   4.114   1.125  14.076  0.5706  1.0608  0.1570
  271MPD2    C4 4097   4.177   1.131  13.953 -0.0826 -0.4696 -0.1612
  271MPD2    C5 4098   4.293   1.062  13.940 -0.1999  0.3601 -0.1529
  271MPD2     H 4099   4.110   1.046  14.270 -1.6911  2.1535 -1.2519
  271MPD2    H1 4100   4.133   1.182  13.868 -0.8196 -2.3968 -0.9408
  271MPD2    H2 4101   4.433   0.926  14.019  0.2547  0.6455 -1.2822
  271MPD2    H3 4102   4.346   1.069  13.846 -1.1739  2.0437 -0.5904
  271MPD2     N 4103   3.994   1.199  14.074 -0.0332  0.0549 -0.2473
  271MPD2    H5 4104   3.970   1.242  13.985  1.0302  1.1802  0.0097
  271MPD2    N1 4105   4.327   0.905  14.285  0.4673 -0.2392  0.0373
  271MPD2    H7 4106   4.272   0.924  14.368  2.3240 -1.1313  1.4780
  272TMC3    C1 4107   4.476   0.764  14.411 -0.4110  0.2852  0.1068
  272TMC3    C2 4108   4.580   0.676  14.405 -0.9331 -1.0272 -0.2181
  272TMC3    C3 4109   4.626   0.607  14.512 -0.1471 -1.1321 -0.4294
  272TMC3    C4 4110   4.417   0.799  14.530 -0.2324 -0.6411  0.7728
  272TMC3    C5 4111   4.482   0.740  14.642 -0.8577  0.3146  0.3957
  272TMC3    C6 4112   4.584   0.648  14.636  0.6996  0.3824 -0.1448
  272TMC3     C 4113   4.436   0.825  14.285 -0.0414 -0.0570  0.0492
  272TMC3     O 4114   4.507   0.798  14.192  0.7152  0.4023  0.3813
  272TMC3     H 4115   4.610   0.640  14.308  0.1156  1.7382 -0.8905
  272TMC3    H1 4116   4.347   0.881  14.541  2.2611  1.4700  0.9598
  272TMC3    H2 4117   4.620   0.606  14.730  0.6051  0.4556 -0.0759
  272TMC3    C7 4118   4.439   0.777  14.774  0.0911 -0.3403  0.5029
  272TMC3    C8 4119   0.008   0.511  14.498 -0.4054  0.1419 -0.1743
  272TMC3    O1 4120   4.326   0.814  14.779 -0.5686  0.0695  0.4430
  272TMC3    O2 4121   0.047   0.489  14.383 -0.6256 -0.2965 -0.3538
  273MPD2     C 4122   1.196   3.727  11.992 -0.4457 -0.4878  0.4994
  273MPD2    C1 4123   1.304   3.792  11.945  0.6154 -0.5540 -0.6754
  273MPD2    C2 4124   1.322   3.804  11.807 -0.8038 -0.4579  0.2085
  273MPD2    C3 4125   1.233   3.751  11.715  0.2518 -0.0039 -0.3075
  273MPD2    C4 4126   1.127   3.677  11.769 -0.1025 -0.3085  0.0293
  273MPD2    C5 4127   1.110   3.669  11.903 -0.2674 -0.6490  0.6420
  273MPD2     H 4128   1.404   3.870  11.783 -0.5501 -0.5252  0.8933
  273MPD2    H1 4129   1.051   3.623  11.713 -0.1677  1.8336 -1.9571
  273MPD2    H2 4130   1.175   3.727  12.098 -1.0098  1.9256  0.3798
  273MPD2    H3 4131   1.016   3.619  11.926  0.7518 -3.0175 -0.4034
  273MPD2     N 4132   1.246   3.774  11.576 -0.1493 -0.0425 -0.1393
  273MPD2    H5 4133   1.175   3.735  11.515 -2.3445 -1.7941  3.5194
  273MPD2    N1 4134   1.392   3.853  12.041 -0.1478  0.6087  0.4878
  273MPD2    H7 4135   1.354   3.863  12.134 -1.8363 -0.0219 -0.1371
  274TMC3    C1 4136   1.315   3.913  11.387 -0.0583  0.4841 -0.3398
  274TMC3    C2 4137   1.187   3.923  11.360  0.8660  0.8853 -0.0422
  274TMC3    C3 4138   1.160   4.023  11.273 -0.2460  0.3496  0.2393
  274TMC3    C4 4139   1.411   3.998  11.343  0.2511 -0.8113 -0.2987
  274TMC3    C5 4140   1.379   4.091  11.251  0.6766  0.2278  0.0723
  274TMC3    C6 4141   1.253   4.090  11.204  0.7894 -0.1365  0.3996
  274TMC3     C 4142   1.353   3.849  11.519  0.6182 -0.3337  0.4529
  274TMC3     O 4143   1.462   3.874  11.566 -0.0249  0.5333  0.3600
  274TMC3     H 4144   1.105   3.862  11.397  0.3066  1.3974 -0.4344
  274TMC3    H1 4145   1.515   3.980  11.367 -0.4357 -1.9630  1.7510
  274TMC3    H2 4146   1.214   4.174  11.147  1.8588  0.8288  1.0971
  274TMC3    C7 4147   1.419   4.225  11.282 -0.4637  0.2587  0.4749
  274TMC3    C8 4148   1.019   4.054  11.235 -0.4745 -0.3894  0.5316
  274TMC3    O1 4149   1.340   4.314  11.256  0.3815 -0.1913 -0.3777
  274TMC3    O2 4150   0.933   4.059  11.320 -0.3899 -0.0155  0.2637
  275MPD2     C 4151   1.134   1.924  14.420  0.1054  1.2947 -0.2772
  275MPD2    C1 4152   1.104   1.961  14.544  0.2494 -0.1011 -0.4269
  275MPD2    C2 4153   0.982   1.916  14.590  0.4610  0.4238  0.4054
  275MPD2    C3 4154   0.903   1.826  14.520 -0.3604  0.1601 -0.1096
  275MPD2    C4 4155   0.944   1.782  14.394 -0.3656  0.0064 -0.4341
  275MPD2    C5 4156   1.059   1.830  14.348 -0.1153  0.2143 -0.4257
  275MPD2     H 4157   0.972   1.944  14.694 -0.7441 -1.2921  0.7479
  275MPD2    H1 4158   0.895   1.711  14.329  1.2192 -1.0541 -0.4849
  275MPD2    H2 4159   1.223   1.967  14.376 -0.4478  2.1537 -0.5356
  275MPD2    H3 4160   1.106   1.801  14.255  0.3331 -2.3889  0.6085
  275MPD2     N 4161   0.784   1.775  14.574  0.0273  0.5203 -0.1710
  275MPD2    H5 4162   0.748   1.697  14.520 -1.9557  0.6325  0.9666
  275MPD2    N1 4163   1.176   2.055  14.624 -0.5948  0.4290 -0.5700
  275MPD2    H7 4164   1.115   2.074  14.703 -1.0901 -1.8378 -0.4208
  276TMC3    C1 4165   1.358   2.167  14.721 -0.0346  0.2033 -0.5074
  276TMC3    C2 4166   1.273   2.198  14.820 -0.5303  0.6524  0.4675
  276TMC3    C3 4167   1.317   2.193  14.947 -0.2782 -0.3089  0.8301
  276TMC3    C4 4168   1.491   2.143  14.741 -0.1256 -0.5261 -0.5999
  276TMC3    C5 4169   1.532   2.143  14.874 -0.6422  0.3568 -0.2159
  276TMC3    C6 4170   1.447   2.155  14.982 -0.9176  0.2781  0.5144
  276TMC3     C 4171   1.297   2.121  14.599  0.3850 -0.8772  1.0394
  276TMC3     O 4172   1.374   2.094  14.508  0.4866 -0.1860  0.0649
  276TMC3     H 4173   1.167   2.214  14.804 -0.3196  2.2330  0.6769
  276TMC3    H1 4174   1.552   2.102  14.662  0.9909 -1.8227  0.9526
  276TMC3    H2 4175   1.483   2.163  15.084 -0.1938  1.2114  0.1927
  276TMC3    C7 4176   1.671   2.114  14.909  0.6881 -0.2545 -0.3950
  276TMC3    C8 4177   1.213   2.151  15.037 -0.4738 -0.4671 -0.0020
  276TMC3    O1 4178   1.690   2.080  15.025 -0.7088  0.0907  0.1222
  276TMC3    O2 4179   1.106   2.213  15.037 -0.1927 -0.0037 -0.1675
  277MPD2     C 4180   2.987   0.868  13.238  0.0969 -0.1689 -0.5538
  277MPD2    C1 4181   2.866   0.923  13.277  0.1022  0.1990 -0.5854
  277MPD2    C2 4182   2.832   0.930  13.411 -0.8449  0.6567 -0.3376
  277MPD2    C3 4183   2.915   0.875  13.516 -0.1317 -0.0589  0.6084
  277MPD2    C4 4184   3.032   0.822  13.473 -0.4120 -0.3548  0.7863
  277MPD2    C5 4185   3.066   0.815  13.339  0.6990  0.2382  0.4398
  277MPD2     H 4186   2.737   0.977  13.438  1.0196  4.6024 -0.5970
  277MPD2    H1 4187   3.102   0.784  13.546  0.8222  0.6144  0.1140
  277MPD2    H2 4188   3.003   0.859  13.131  0.7885 -3.3404 -0.2088
  277MPD2    H3 4189   3.154   0.765  13.301  1.1337  0.2231  1.4564
  277MPD2     N 4190   2.876   0.883  13.653  0.4151 -0.0915  0.7908
  277MPD2    H5 4191   2.795   0.938  13.678  0.4637  0.7200 -0.8498
  277MPD2    N1 4192   2.780   0.975  13.181  0.1060 -0.4161 -0.1608
  277MPD2    H7 4193   2.814   0.987  13.087 -0.0730 -0.2155 -0.2005
  278TMC3    C1 4194   2.828   0.792  13.866 -0.6491 -0.1625  0.6647
  278TMC3    C2 4195   2.807   0.669  13.918  0.6438 -0.5265  0.1103
  278TMC3    C3 4196   2.697   0.670  14.001 -0.3950 -0.5963  0.2663
  278TMC3    C4 4197   2.743   0.900  13.875  0.7437 -0.3805 -0.6230
  278TMC3    C5 4198   2.634   0.895  13.954 -0.1804  0.1998  0.7092
  278TMC3    C6 4199   2.613   0.777  14.028 -0.3258  0.4849  0.3977
  278TMC3     C 4200   2.913   0.794  13.749  0.1349 -0.4921  0.3583
  278TMC3     O 4201   2.987   0.696  13.742  0.0674  0.2183  0.4756
  278TMC3     H 4202   2.872   0.582  13.910 -0.0304 -1.0224  0.0153
  278TMC3    H1 4203   2.764   0.993  13.825  1.9292  0.1062  0.7974
  278TMC3    H2 4204   2.526   0.764  14.092 -0.8887  1.1218 -0.2465
  278TMC3    C7 4205   2.528   0.983  13.908  0.7809 -0.0940 -0.1199
  278TMC3    C8 4206   2.642   0.543  14.042 -0.0776  0.6382  0.2937
  278TMC3    O1 4207   2.548   1.039  13.801 -0.8294 -0.4529 -0.6279
  278TMC3    O2 4208   2.546   0.542  14.118 -0.2682 -0.1749 -0.0465
  279MPD2     C 4209   2.410   0.897   0.582 -0.0140  0.2087  0.2743
  279MPD2    C1 4210   2.365   1.022   0.609  0.2924 -0.1458 -0.0993
  279MPD2    C2 4211   2.440   1.130   0.562 -0.1585  0.5358 -0.7973
  279MPD2    C3 4212   2.553   1.109   0.480  0.2599  0.0425  0.0286
  279MPD2    C4 4213   2.594   0.983   0.465  0.1566 -0.1563 -1.4723
  279MPD2    C5 4214   2.515   0.877   0.513  0.1317  0.1286 -0.9362
  279MPD2     H 4215   2.400   1.229   0.582  2.1161  1.1044  0.8441
  279MPD2    H1 4216   2.678   0.961   0.400  2.8878  0.3245  1.9001
  279MPD2    H2 4217   2.354   0.813   0.621 -1.9450  1.4068  0.0787
  279MPD2    H3 4218   2.549   0.776   0.496 -0.5286 -0.3024  0.3094
  279MPD2     N 4219   2.610   1.212   0.402  0.3819  0.0422  0.4649
  279MPD2    H5 4220   2.676   1.186   0.329  1.3151  2.1926  0.5695
  279MPD2    N1 4221   2.248   1.035   0.683 -0.6482  0.8458 -0.4860
  279MPD2    H7 4222   2.203   0.946   0.703 -1.0991  1.2696  0.3993
  280TMC3    C1 4223   2.045   1.147   0.757 -0.3234 -0.0499 -0.4001
  280TMC3    C2 4224   1.978   1.049   0.695 -0.2291 -0.6854 -0.0399
  280TMC3    C3 4225   1.852   1.077   0.645 -0.0005 -0.1753  0.3247
  280TMC3    C4 4226   1.990   1.267   0.774  0.2980  0.7291 -0.9314
  280TMC3    C5 4227   1.862   1.289   0.713  0.6213  0.5071 -0.1362
  280TMC3    C6 4228   1.788   1.194   0.649 -0.5150  0.3758 -0.0724
  280TMC3     C 4229   2.179   1.156   0.707 -0.2799  0.2998  0.8236
  280TMC3     O 4230   2.210   1.272   0.681  0.2650  0.0968 -0.0368
  280TMC3     H 4231   2.020   0.952   0.671  0.0750 -0.6358  0.2878
  280TMC3    H1 4232   2.037   1.334   0.846  1.3868 -1.3249  0.2787
  280TMC3    H2 4233   1.689   1.208   0.608 -0.8692 -0.6634  0.4257
  280TMC3    C7 4234   1.820   1.427   0.716  0.5668  0.1322 -0.4576
  280TMC3    C8 4235   1.788   0.970   0.580  0.5089  0.5681 -0.3874
  280TMC3    O1 4236   1.895   1.505   0.774 -0.3357 -0.7434  0.3570
  280TMC3    O2 4237   1.729   0.990   0.474 -0.4452  0.4809  0.9969
  281TMC3    C1 4238   0.738   1.193  13.264 -0.2207  0.0739 -0.0392
  281TMC3    C2 4239   0.757   1.185  13.130 -0.4055 -0.5462  0.5896
  281TMC3    C3 4240   0.661   1.120  13.053 -0.5914 -0.4595 -0.3374
  281TMC3    C4 4241   0.634   1.130  13.323 -0.4480  0.4426 -0.4425
  281TMC3    C5 4242   0.547   1.060  13.251  0.7146 -0.0286 -0.2287
  281TMC3    C6 4243   0.565   1.045  13.114 -0.8221 -0.0664 -0.1806
  281TMC3     C 4244   0.785   1.323  13.324 -0.1564 -0.0973  0.0238
  281TMC3     O 4245   0.841   1.401  13.246 -0.7023 -0.2574 -0.0711
  281TMC3     H 4246   0.834   1.239  13.077 -0.9426  0.4250  0.8103
  281TMC3    H1 4247   0.620   1.138  13.431 -0.4863  1.2712 -0.5106
  281TMC3    H2 4248   0.497   0.993  13.048 -1.3476  0.0712  0.2579
  281TMC3    C7 4249   0.426   0.995  13.313  0.2454  0.4450  0.4529
  281TMC3    C8 4250   0.668   1.112  12.908  0.4326  0.3443  0.0126
  281TMC3    O1 4251   0.324   1.004  13.250  0.5131 -0.0395 -0.3254
  281TMC3    O2 4252   0.645   1.006  12.853 -0.4965 -0.0827 -0.6403
  282MPD2     C 4253   3.011   2.548  15.198  0.2396 -0.5260 -0.1423
  282MPD2    C1 4254   2.891   2.611  15.209 -0.0823  0.0585 -0.1506
  282MPD2    C2 4255   2.830   2.649  15.086 -0.3861 -0.1003 -0.0993
  282MPD2    C3 4256   2.879   2.608  14.969  0.0187  0.6576 -0.0194
  282MPD2    C4 4257   2.990   2.528  14.956 -0.0815 -0.0508  0.3439
  282MPD2    C5 4258   3.054   2.503  15.078  0.3460 -0.3222 -0.3269
  282MPD2     H 4259   2.741   2.709  15.076 -1.2117 -0.9690  2.0100
  282MPD2    H1 4260   3.019   2.494  14.858  1.3882  0.2684  0.6552
  282MPD2    H2 4261   3.065   2.515  15.286 -1.4749 -3.3730 -0.1575
  282MPD2    H3 4262   3.147   2.447  15.074  0.4475 -0.2876  1.6260
  282MPD2     N 4263   2.800   2.643  14.860 -0.1781  0.1160 -0.1432
  282MPD2    H5 4264   2.723   2.708  14.869 -0.2030 -0.3181  2.7601
  282MPD2    N1 4265   2.839   2.638  15.338 -0.2485  0.4868  0.2327
  282MPD2    H7 4266   2.746   2.680  15.343 -0.6627 -0.3544 -0.2886
  283TMC3    C1 4267   2.791   2.594  15.564 -0.5097 -0.3374  0.1776
  283TMC3    C2 4268   2.728   2.718  15.564 -0.1418 -0.3430  0.0782
  283TMC3    C3 4269   2.614   2.733  15.637  0.9549 -0.3321  0.0317
  283TMC3    C4 4270   2.739   2.483  15.611 -0.8437 -0.1335  0.1586
  283TMC3    C5 4271   2.626   2.506  15.696 -0.0792 -0.0770 -0.0190
  283TMC3    C6 4272   2.566   2.627  15.713 -0.1501  0.6600  0.4267
  283TMC3     C 4273   2.880   2.568  15.455  0.2404  0.3609 -0.4457
  283TMC3     O 4274   2.965   2.486  15.480 -0.1651 -0.1775  0.0120
  283TMC3     H 4275   2.778   2.806  15.526 -1.0107  0.6687  1.2712
  283TMC3    H1 4276   2.795   2.391  15.602 -1.4373 -0.5237  0.4623
  283TMC3    H2 4277   2.479   2.643  15.776 -0.6306  0.6452 -0.2299
  283TMC3    C7 4278   2.566   2.400  15.778  0.3556 -0.4807  0.2304
  283TMC3    C8 4279   2.576   2.867  15.673  0.4699  0.7181 -0.4251
  283TMC3    O1 4280   2.482   2.436  15.859  0.4033 -0.0017  0.2017
  283TMC3    O2 4281   2.500   2.881  15.767 -0.0912  0.9397  0.4959
  284MPD2     C 4282   1.218   2.084  11.776  0.2744 -0.0353  0.5717
  284MPD2    C1 4283   1.275   2.016  11.674  0.1606 -0.0068 -1.0036
  284MPD2    C2 4284   1.260   1.875  11.665  0.5919  0.8154  0.5727
  284MPD2    C3 4285   1.184   1.809  11.760  0.2319 -0.1208  0.8607
  284MPD2    C4 4286   1.138   1.878  11.865  0.2631 -0.3433  0.1710
  284MPD2    C5 4287   1.156   2.012  11.876  0.3708  0.0474 -0.0224
  284MPD2     H 4288   1.308   1.819  11.585 -0.0033 -0.6843  1.2700
  284MPD2    H1 4289   1.073   1.827  11.934  0.3571  1.1075  1.3309
  284MPD2    H2 4290   1.240   2.188  11.791 -3.8798  0.8706  0.5003
  284MPD2    H3 4291   1.125   2.076  11.958  1.4157 -2.2669  2.1741
  284MPD2     N 4292   1.177   1.669  11.748 -0.4556 -0.0113  0.3205
  284MPD2    H5 4293   1.201   1.632  11.657  0.5999  0.4408  0.4156
  284MPD2    N1 4294   1.354   2.071  11.578  0.2689  0.5545 -0.4185
  284MPD2    H7 4295   1.392   2.002  11.514  0.9509  0.4629  0.0830
  285TMC3    C1 4296   1.469   2.239  11.454  0.1518  0.2364  0.5787
  285TMC3    C2 4297   1.478   2.144  11.359 -0.3523 -0.7152  0.1507
  285TMC3    C3 4298   1.588   2.149  11.276 -0.7344 -1.0545 -0.5013
  285TMC3    C4 4299   1.555   2.344  11.469  0.5906  0.3766  0.0052
  285TMC3    C5 4300   1.661   2.354  11.381 -0.2530  0.6825 -0.6324
  285TMC3    C6 4301   1.677   2.254  11.282  0.0023 -0.8279 -0.4920
  285TMC3     C 4302   1.399   2.201  11.576  0.1069 -0.5993  0.0897
  285TMC3     O 4303   1.418   2.276  11.671 -0.4886  0.4010  0.0283
  285TMC3     H 4304   1.422   2.051  11.357  0.8489 -1.4751  0.9188
  285TMC3    H1 4305   1.525   2.424  11.535 -0.2494  0.8149 -0.9077
  285TMC3    H2 4306   1.761   2.268  11.216  0.5976  0.2580  0.4878
  285TMC3    C7 4307   1.774   2.433  11.434 -0.4921  0.2464  0.6293
  285TMC3    C8 4308   1.632   2.026  11.217 -0.4867  0.2206 -0.6504
  285TMC3    O1 4309   1.859   2.468  11.352 -0.3815 -0.3354  0.0931
  285TMC3    O2 4310   1.545   1.961  11.167  0.0915 -0.0306  0.1226
  286MPD2     C 4311   1.264   0.343   2.078  0.4742 -0.7100 -0.7060
  286MPD2    C1 4312   1.258   0.377   1.946  0.2003 -0.1826  0.4061
  286MPD2    C2 4313   1.374   0.363   1.879  0.2313  0.0862  0.0886
  286MPD2    C3 4314   1.499   0.317   1.934  0.3290 -0.5643 -0.7741
  286MPD2    C4 4315   1.501   0.283   2.072  0.0443  0.7064 -0.0615
  286MPD2    C5 4316   1.383   0.297   2.137 -0.1372  0.1209 -0.4403
  286MPD2     H 4317   1.362   0.403   1.779 -1.7977 -1.9673 -0.4923
  286MPD2    H1 4318   1.594   0.260   2.121  0.4827  1.5573 -0.4868
  286MPD2    H2 4319   1.174   0.351   2.138  0.8729  0.9966 -0.3300
  286MPD2    H3 4320   1.376   0.272   2.243  1.3711 -1.6773 -0.7720
  286MPD2     N 4321   1.620   0.310   1.859 -0.0059  0.6893 -0.0741
  286MPD2    H5 4322   1.698   0.269   1.910  0.3188  0.7180 -0.5543
  286MPD2    N1 4323   1.140   0.421   1.875  0.1815 -0.0634 -0.0776
  286MPD2    H7 4324   1.145   0.441   1.776 -2.5750  1.8621  0.1651
  287TMC3    C1 4325   1.759   0.287   1.671 -0.3021 -0.0791 -0.6104
  287TMC3    C2 4326   1.749   0.274   1.530 -0.4324  0.6304 -0.5666
  287TMC3    C3 4327   1.831   0.184   1.476 -0.3225 -0.4085  0.1927
  287TMC3    C4 4328   1.863   0.238   1.741  0.7986 -0.4126  0.0722
  287TMC3    C5 4329   1.953   0.160   1.674 -0.0138  0.2794 -0.2251
  287TMC3    C6 4330   1.934   0.126   1.544  0.9193 -0.1612  0.1688
  287TMC3     C 4331   1.641   0.353   1.728 -0.6612 -0.1651  0.2651
  287TMC3     O 4332   1.552   0.395   1.656  0.5275  0.4935  0.2236
  287TMC3     H 4333   1.689   0.337   1.465  0.4876  1.4913 -0.5912
  287TMC3    H1 4334   1.886   0.281   1.837 -1.3427  1.5151 -0.2904
  287TMC3    H2 4335   1.991   0.047   1.495  1.0115 -0.1593  0.2746
  287TMC3    C7 4336   2.069   0.131   1.747  0.0013 -0.2309 -0.0980
  287TMC3    C8 4337   1.832   0.169   1.332  0.2463 -0.1097 -0.2212
  287TMC3    O1 4338   2.061   0.114   1.865  0.4841 -0.0246 -0.0568
  287TMC3    O2 4339   1.937   0.132   1.283 -0.1254  0.2171 -0.4397
  288TMC3    C1 4340   2.862   0.392  14.839  0.2021 -0.5879  0.1301
  288TMC3    C2 4341   2.814   0.353  14.957  0.8123  0.4138  0.0684
  288TMC3    C3 4342   2.738   0.241  14.962  0.5792 -0.4997 -0.5581
  288TMC3    C4 4343   2.838   0.326  14.720 -0.4063 -0.5730 -0.1162
  288TMC3    C5 4344   2.776   0.208  14.731  0.1077  0.1021 -0.2312
  288TMC3    C6 4345   2.726   0.160  14.851  0.0458 -0.9008  0.1686
  288TMC3     C 4346   2.931   0.518  14.834 -0.6564  0.4847 -0.3355
  288TMC3     O 4347   2.967   0.563  14.943 -0.2857 -0.5381 -0.0091
  288TMC3     H 4348   2.816   0.424  15.039  1.3687 -0.2207  0.6038
  288TMC3    H1 4349   2.861   0.377  14.627  1.3034  0.2868  0.7661
  288TMC3    H2 4350   2.684   0.060  14.858  2.1217 -1.6559  1.8658
  288TMC3    C7 4351   2.796   0.119  14.621  0.1368 -0.6765  0.0067
  288TMC3    C8 4352   2.692   0.204  15.094  0.3030  0.1625 -0.4843
  288TMC3    O1 4353   2.727   0.022  14.609  0.1910  0.2713  0.1705
  288TMC3    O2 4354   2.757   0.247  15.190  0.1386  0.2202 -0.6339
  289MPD2     C 4355   3.317   4.239  14.754 -0.3582  0.1749  0.5609
  289MPD2    C1 4356   3.268   4.357  14.709  0.4298 -0.6065 -0.1143
  289MPD2    C2 4357   3.145   4.362  14.652 -0.4421 -0.0294 -0.8746
  289MPD2    C3 4358   3.067   4.247  14.639 -0.1128 -0.2990 -0.6494
  289MPD2    C4 4359   3.117   4.128  14.684  0.0456  0.4454  0.2070
  289MPD2    C5 4360   3.237   4.121  14.747 -0.1211 -0.0531 -0.0462
  289MPD2     H 4361   3.101   4.453  14.613 -2.2997 -0.2846  0.6535
  289MPD2    H1 4362   3.060   4.035  14.686 -2.6812  2.1411  1.8336
  289MPD2    H2 4363   3.413   4.223  14.801 -0.3226 -1.9814 -0.2299
  289MPD2    H3 4364   3.275   4.029  14.790  0.3061  0.0081 -0.2982
  289MPD2     N 4365   2.932   4.251  14.586  0.2126  0.6085  0.3102
  289MPD2    H5 4366   2.892   4.159  14.569  2.2084 -0.2117  0.0346
  289MPD2    N1 4367   3.354   4.471  14.719 -0.3224 -0.2945 -0.1341
  289MPD2    H7 4368   3.450   4.461  14.751 -0.6146 -0.8831  0.5281
  290TMC3    C1 4369   2.727   4.349  14.524 -0.2607 -0.5048 -0.2889
  290TMC3    C2 4370   2.651   4.462  14.486 -0.0815  0.8671  0.4751
  290TMC3    C3 4371   2.521   4.459  14.521 -0.0761 -0.2232  0.0244
  290TMC3    C4 4372   2.673   4.252  14.609  0.0453  0.1696  0.2074
  290TMC3    C5 4373   2.543   4.267  14.653 -0.2277 -0.9201  0.2552
  290TMC3    C6 4374   2.468   4.360  14.597  0.2513  0.1294 -0.4927
  290TMC3     C 4375   2.865   4.362  14.539 -0.4566  0.2681  0.5288
  290TMC3     O 4376   2.902   4.479  14.533 -0.4089  0.1533  0.0890
  290TMC3     H 4377   2.704   4.542  14.436 -0.4045 -0.0477 -1.3162
  290TMC3    H1 4378   2.730   4.167  14.645  0.5823  0.7240  0.6642
  290TMC3    H2 4379   2.363   4.335  14.589 -0.1287  1.7887 -0.6059
  290TMC3    C7 4380   2.475   4.143  14.684 -0.1807  0.3141 -0.1573
  290TMC3    C8 4381   2.435   4.555  14.451 -0.3359  0.4430 -0.1900
  290TMC3    O1 4382   2.429   4.146  14.792  0.3203 -0.1379 -0.2122
  290TMC3    O2 4383   2.330   4.515  14.409 -0.4432 -0.3182 -0.5068
  291MPD2     C 4384   2.552   4.262   0.446  0.1310 -0.1250  0.1829
  291MPD2    C1 4385   2.451   4.188   0.385 -0.4705  0.2887  0.1331
  291MPD2    C2 4386   2.444   4.187   0.249 -0.1636 -0.9723  0.0982
  291MPD2    C3 4387   2.517   4.274   0.179 -0.9373  0.0895  0.2213
  291MPD2    C4 4388   2.597   4.367   0.246 -0.3207  0.0274 -0.4142
  291MPD2    C5 4389   2.628   4.353   0.375  0.7502 -0.4482 -0.1026
  291MPD2     H 4390   2.378   4.111   0.208  0.1721 -0.0212 -2.2099
  291MPD2    H1 4391   2.650   4.444   0.192  1.3966  0.4182  1.8484
  291MPD2    H2 4392   2.566   4.262   0.553  0.2745  0.4643  0.1637
  291MPD2    H3 4393   2.697   4.416   0.430 -0.3097  0.9547 -0.3909
  291MPD2     N 4394   2.506   4.291   0.038  0.3120  0.1093  0.4208
  291MPD2    H5 4395   2.559   4.367  17.703  0.2248 -0.5951 -0.9938
  291MPD2    N1 4396   2.356   4.100   0.454  0.2651 -0.6133 -0.3818
  291MPD2    H7 4397   2.281   4.054   0.403  2.0432 -1.8254 -1.8925
  292TMC3    C1 4398   2.272   3.976   0.649  0.3870  0.0803 -0.1406
  292TMC3    C2 4399   2.244   3.978   0.789  0.3189  0.4382  0.0463
  292TMC3    C3 4400   2.180   3.868   0.844  0.2251  0.9408  0.4463
  292TMC3    C4 4401   2.238   3.864   0.570 -0.3773  0.0211  0.3180
  292TMC3    C5 4402   2.189   3.749   0.634  0.5691 -0.5651 -0.0230
  292TMC3    C6 4403   2.160   3.754   0.766  0.2332  0.7071 -0.5688
  292TMC3     C 4404   2.350   4.089   0.589  0.7187 -0.6215  0.2974
  292TMC3     O 4405   2.400   4.176   0.666 -0.0033 -0.1711  0.0905
  292TMC3     H 4406   2.252   4.075   0.838  2.3784  1.5182 -2.4273
  292TMC3    H1 4407   2.268   3.868   0.466 -1.7476  0.7508 -0.0517
  292TMC3    H2 4408   2.143   3.659   0.816  2.0472  0.5075 -0.2932
  292TMC3    C7 4409   2.174   3.621   0.560 -0.5042 -0.2961  0.0884
  292TMC3    C8 4410   2.141   3.867   0.981  0.0491 -0.4395 -0.1895
  292TMC3    O1 4411   2.252   3.600   0.469 -0.2951 -0.6765 -0.0425
  292TMC3    O2 4412   2.187   3.952   1.059  0.0100 -0.0171 -0.5404
  293MPD2     C 4413   3.951   1.208  12.567  0.0683  0.0761  0.5201
  293MPD2    C1 4414   3.938   1.094  12.637 -0.5829 -0.5703 -0.8210
  293MPD2    C2 4415   3.981   1.091  12.770 -0.3681 -0.4168  0.0661
  293MPD2    C3 4416   4.032   1.205  12.835  1.1817 -0.1342  0.5130
  293MPD2    C4 4417   4.043   1.322  12.752 -0.5272 -0.1308  0.3489
  293MPD2    C5 4418   4.001   1.322  12.623 -0.3226  0.2256 -1.1373
  293MPD2     H 4419   3.966   1.008  12.838  0.8492  2.1348  3.4701
  293MPD2    H1 4420   4.084   1.418  12.782  1.0884 -0.7741  0.1790
  293MPD2    H2 4421   3.927   1.208  12.461 -1.2263  2.1177  0.8133
  293MPD2    H3 4422   4.019   1.413  12.567  0.8735 -0.5988 -2.0854
  293MPD2     N 4423   4.087   1.186  12.967 -0.0770  0.5074  0.7036
  293MPD2    H5 4424   4.075   1.094  13.010  1.1291  1.0422  2.1828
  293MPD2    N1 4425   3.879   0.988  12.568  0.0473  0.1725 -0.2071
  293MPD2    H7 4426   3.851   0.993  12.470 -0.3235 -0.0621 -0.1167
  294TMC3    C1 4427   3.763   0.777  12.553 -0.2388  0.0082 -0.0074
  294TMC3    C2 4428   3.657   0.723  12.618 -0.3946 -0.1405  0.0995
  294TMC3    C3 4429   3.568   0.659  12.545 -0.2646 -0.0793 -0.3028
  294TMC3    C4 4430   3.774   0.765  12.415 -0.0674 -0.3725 -0.2146
  294TMC3    C5 4431   3.685   0.686  12.355 -0.6805 -0.2865 -0.5749
  294TMC3    C6 4432   3.582   0.629  12.413 -0.6384 -0.0102 -0.0705
  294TMC3     C 4433   3.849   0.868  12.629  0.3715 -0.0114 -0.5132
  294TMC3     O 4434   3.857   0.843  12.748  0.2540 -0.0215  0.3773
  294TMC3     H 4435   3.636   0.726  12.724  3.0768  0.3161  0.7558
  294TMC3    H1 4436   3.868   0.805  12.379  0.5394 -0.6489  1.0411
  294TMC3    H2 4437   3.502   0.588  12.352  0.5797 -0.5502 -1.2900
  294TMC3    C7 4438   3.666   0.707  12.215  0.8872 -0.6681  0.3488
  294TMC3    C8 4439   3.490   0.560  12.621 -0.1352  0.5870 -0.2758
  294TMC3    O1 4440   3.557   0.713  12.170 -0.3612 -0.2756  0.3764
  294TMC3    O2 4441   3.436   0.582  12.730 -0.4678 -0.6611  0.0170
  295MPD2     C 4442   4.020   3.719   1.111 -0.1441 -0.3311  0.4178
  295MPD2    C1 4443   4.074   3.638   1.017 -0.3388 -0.0346  0.0495
  295MPD2    C2 4444   4.153   3.535   1.052 -0.5487  0.1745 -0.0242
  295MPD2    C3 4445   4.179   3.514   1.185 -0.3774 -0.8217 -0.5730
  295MPD2    C4 4446   4.117   3.597   1.279 -0.6848 -0.7136  0.2996
  295MPD2    C5 4447   4.039   3.702   1.244  0.6333 -0.2902  0.2375
  295MPD2     H 4448   4.205   3.480   0.974 -0.5494 -2.2401  1.7085
  295MPD2    H1 4449   4.133   3.569   1.383 -2.9769 -2.6027  0.1497
  295MPD2    H2 4450   3.959   3.806   1.091  2.9478  1.0015 -3.3697
  295MPD2    H3 4451   4.000   3.766   1.322  1.3655 -1.2157  1.3663
  295MPD2     N 4452   4.271   3.424   1.242 -0.9323 -0.4180 -0.2712
  295MPD2    H5 4453   4.277   3.428   1.343  0.5197 -0.5876 -0.3511
  295MPD2    N1 4454   4.065   3.661   0.878 -0.3307  0.1980 -0.3226
  295MPD2    H7 4455   4.110   3.595   0.816  0.6493 -0.4883  1.1092
  296TMC3    C1 4456   4.447   3.263   1.241 -0.0353  0.2555 -0.1774
  296TMC3    C2 4457   4.474   3.303   1.365  0.7000  0.5505 -0.0609
  296TMC3    C3 4458   4.547   3.219   1.448  0.3274 -0.0073 -0.2784
  296TMC3    C4 4459   4.463   3.129   1.202  0.6665 -0.2173 -0.7227
  296TMC3    C5 4460   4.519   3.043   1.299  0.1030  0.9204 -0.6697
  296TMC3    C6 4461   4.572   3.086   1.416  0.2254  0.1313 -0.3245
  296TMC3     C 4462   4.348   3.336   1.163 -0.1027 -0.7137 -0.6449
  296TMC3     O 4463   4.361   3.318   1.041  0.2264 -0.2140 -0.1643
  296TMC3     H 4464   4.465   3.409   1.387  0.4437 -0.2149  3.4804
  296TMC3    H1 4465   4.435   3.085   1.107  0.5206 -0.5281 -0.5370
  296TMC3    H2 4466   4.631   3.032   1.489  1.8549  1.8924 -0.3564
  296TMC3    C7 4467   4.550   2.903   1.277  0.4436  0.6199  0.3249
  296TMC3    C8 4468   4.608   3.279   1.572 -0.1716  0.3920  0.1934
  296TMC3    O1 4469   4.618   2.851   1.361  0.2690  0.3914 -0.1402
  296TMC3    O2 4470   4.677   3.204   1.639 -0.4563 -0.0458  0.0092
  297MPD2     C 4471   1.787   1.346  16.341 -0.0576 -0.0509 -0.0573
  297MPD2    C1 4472   1.740   1.452  16.270  0.0649 -0.1013  0.4145
  297MPD2    C2 4473   1.811   1.569  16.248 -0.2011 -0.0832  0.1701
  297MPD2    C3 4474   1.933   1.579  16.310 -0.3099 -0.4731 -0.4895
  297MPD2    C4 4475   1.970   1.479  16.404 -0.8508 -0.3181 -0.3975
  297MPD2    C5 4476   1.906   1.364  16.417 -0.5439 -0.2109  1.1563
  297MPD2     H 4477   1.772   1.650  16.188 -1.1868  0.6221  1.7572
  297MPD2    H1 4478   2.064   1.482  16.459 -0.8521  0.1576 -0.4270
  297MPD2    H2 4479   1.734   1.253  16.356 -3.3715  1.7134 -0.7845
  297MPD2    H3 4480   1.949   1.291  16.484 -0.9014 -3.0527 -1.6826
  297MPD2     N 4481   2.013   1.696  16.284  0.3764 -0.7686  0.3284
  297MPD2    H5 4482   1.990   1.763  16.211  2.7336 -0.9044 -0.5547
  297MPD2    N1 4483   1.609   1.443  16.206 -0.0164 -0.5177  0.0360
  297MPD2    H7 4484   1.584   1.515  16.139  0.5348  1.3170  1.8074
  298TMC3    C1 4485   1.402   1.364  16.130 -0.0809  0.0389 -0.2833
  298TMC3    C2 4486   1.329   1.253  16.114  0.0220  0.1203  0.0606
  298TMC3    C3 4487   1.201   1.255  16.109  0.1224  0.8997  0.5725
  298TMC3    C4 4488   1.333   1.488  16.140  0.1880  0.5506 -0.1654
  298TMC3    C5 4489   1.197   1.488  16.141  0.1976  0.0183  0.3503
  298TMC3    C6 4490   1.130   1.367  16.115 -0.1864 -0.5570 -0.3711
  298TMC3     C 4491   1.523   1.350  16.213  0.0016  0.3193 -0.2161
  298TMC3     O 4492   1.533   1.244  16.268  0.1553 -0.0900 -0.5506
  298TMC3     H 4493   1.379   1.157  16.124  1.0018  0.4710 -1.5123
  298TMC3    H1 4494   1.393   1.574  16.169  2.7077 -0.9328 -0.9135
  298TMC3    H2 4495   1.024   1.358  16.134 -0.0027 -0.1706  0.8105
  298TMC3    C7 4496   1.128   1.602  16.204  0.2334  0.0467  0.3975
  298TMC3    C8 4497   1.131   1.135  16.058 -0.1081  0.3440  0.0762
  298TMC3    O1 4498   1.200   1.690  16.243  0.0751  0.0185 -0.4862
  298TMC3    O2 4499   1.012   1.125  16.082  0.7327 -0.1086 -0.3985
  299MPD2     C 4500   2.460   0.959  10.879  0.5330 -0.4171  0.1484
  299MPD2    C1 4501   2.548   0.986  10.769  0.1267  0.1512 -0.2053
  299MPD2    C2 4502   2.501   0.985  10.641 -0.0140 -0.4491  0.3344
  299MPD2    C3 4503   2.366   0.956  10.617  0.5167  0.0124 -0.6934
  299MPD2    C4 4504   2.283   0.930  10.722 -0.3283 -0.2033  0.0449
  299MPD2    C5 4505   2.327   0.933  10.848 -0.1994 -0.1990 -0.0045
  299MPD2     H 4506   2.560   1.014  10.555  0.2452 -2.8637 -0.2996
  299MPD2    H1 4507   2.180   0.909  10.699 -0.6295 -0.2205  1.3877
  299MPD2    H2 4508   2.498   0.951  10.980  1.5190  2.1137 -0.0500
  299MPD2    H3 4509   2.267   0.905  10.934 -1.6834  3.3168  0.1232
  299MPD2     N 4510   2.308   0.951  10.488  0.6045  0.1968  0.3345
  299MPD2    H5 4511   2.209   0.930  10.488  0.9712 -1.6067  5.0638
  299MPD2    N1 4512   2.683   1.013  10.799 -0.7908  0.1227  0.3333
  299MPD2    H7 4513   2.702   1.011  10.899  2.0887  0.1894 -0.2145
  300TMC3    C1 4514   2.261   0.933  10.252  0.2671 -0.0511 -0.2560
  300TMC3    C2 4515   2.298   0.954  10.123 -0.7279 -0.6276  0.1522
  300TMC3    C3 4516   2.213   0.942  10.022  0.2048  0.4118  0.3117
  300TMC3    C4 4517   2.130   0.912  10.287 -0.0716  0.8679  0.2278
  300TMC3    C5 4518   2.044   0.906  10.181 -0.0480  0.6520 -0.2678
  300TMC3    C6 4519   2.082   0.920  10.045  0.2183  0.4690  0.1551
  300TMC3     C 4520   2.357   0.947  10.361 -0.2107 -0.1137  1.2310
  300TMC3     O 4521   2.475   0.970  10.333  0.3757  0.1141 -0.8104
  300TMC3     H 4522   2.405   0.954  10.103 -0.9519 -1.5857 -1.0610
  300TMC3    H1 4523   2.091   0.887  10.385 -2.7884  0.1345 -1.0262
  300TMC3    H2 4524   2.008   0.914   9.966  1.6892  0.6872 -1.2449
  300TMC3    C7 4525   1.902   0.893  10.211  0.1104  0.1431  0.0426
  300TMC3    C8 4526   2.221   1.054   9.933  0.0553  0.1795 -0.3523
  300TMC3    O1 4527   1.830   0.839  10.128  0.4071 -0.3009 -0.0464
  300TMC3    O2 4528   2.152   1.059   9.833 -0.0025  0.6789 -0.3155
  301MPD2     C 4529   0.046   2.127   1.181 -0.1021 -0.9238 -0.2117
  301MPD2    C1 4530   0.022   2.101   1.046 -0.2426  1.0040  0.2785
  301MPD2    C2 4531   4.678   1.983   1.011  0.0675  1.0613  0.4691
  301MPD2    C3 4532   4.636   1.889   1.102  0.6020  0.2283 -0.3390
  301MPD2    C4 4533   4.656   1.920   1.230  0.5392 -0.0051 -0.7028
  301MPD2    C5 4534   0.004   2.029   1.268 -0.6161 -0.5710 -0.1082
  301MPD2     H 4535   4.668   1.961   0.906 -0.3861 -1.3348  1.0046
  301MPD2    H1 4536   4.624   1.844   1.299 -3.1320  1.3396 -0.8954
  301MPD2    H2 4537   0.104   2.202   1.232  0.3069 -1.4813  0.1459
  301MPD2    H3 4538   0.025   2.041   1.373 -0.6569 -1.6138  0.0212
  301MPD2     N 4539   4.564   1.769   1.067 -0.1349 -0.3270 -1.0593
  301MPD2    H5 4540   4.548   1.701   1.141  0.7065  2.3752  1.6224
  301MPD2    N1 4541   0.071   2.185   0.938 -0.2163  0.4947 -0.2907
  301MPD2    H7 4542   0.045   2.151   0.846  1.1819  0.2666 -0.6028
  302TMC3    C1 4543   4.426   1.615   0.954 -0.3666 -0.3845 -0.4013
  302TMC3    C2 4544   4.466   1.506   1.026 -0.1194 -0.0368 -0.2436
  302TMC3    C3 4545   4.438   1.381   0.976 -0.5082  0.0561  0.3369
  302TMC3    C4 4546   4.358   1.598   0.841 -0.1187  0.2728  0.1720
  302TMC3    C5 4547   4.327   1.467   0.797 -0.6884 -0.0453  0.2264
  302TMC3    C6 4548   4.365   1.358   0.866  0.2833 -0.0412  0.6446
  302TMC3     C 4549   4.495   1.747   0.958 -0.6933  0.5613  0.5583
  302TMC3     O 4550   4.478   1.826   0.864 -0.5331 -0.1425 -0.5842
  302TMC3     H 4551   4.523   1.520   1.118 -2.0518  1.1224  0.7721
  302TMC3    H1 4552   4.322   1.688   0.792 -0.9388 -0.6833 -0.9849
  302TMC3    H2 4553   4.337   1.262   0.826 -0.6677  1.1156 -1.4509
  302TMC3    C7 4554   4.271   1.447   0.671 -0.1430  0.3077 -0.0218
  302TMC3    C8 4555   4.517   1.265   1.041  1.0504  0.7292 -0.0113
  302TMC3    O1 4556   4.297   1.341   0.616  0.5578  0.2138 -0.3803
  302TMC3    O2 4557   4.603   1.301   1.124 -0.0234  0.0892 -0.4286
  303MPD2     C 4558   0.327   0.959   9.833 -1.3156 -0.5174  0.5634
  303MPD2    C1 4559   0.188   0.983   9.821  0.6913  0.1197 -0.2787
  303MPD2    C2 4560   0.135   0.978   9.694 -0.1029 -0.8149 -0.7533
  303MPD2    C3 4561   0.215   0.959   9.582  0.1748 -0.4651  0.4649
  303MPD2    C4 4562   0.354   0.958   9.600 -0.6570 -0.5829  0.0836
  303MPD2    C5 4563   0.410   0.962   9.727 -0.5935 -0.1843  0.1685
  303MPD2     H 4564   0.027   0.970   9.690 -0.1310 -1.3954  1.3884
  303MPD2    H1 4565   0.425   0.960   9.517 -0.2590 -0.1379  0.4358
  303MPD2    H2 4566   0.377   0.946   9.928  0.1863  2.9221  0.2451
  303MPD2    H3 4567   0.518   0.971   9.736 -0.4793  1.3702 -2.7335
  303MPD2     N 4568   0.163   0.965   9.447  0.1865  0.1571  0.1144
  303MPD2    H5 4569   0.233   0.980   9.375  0.9198  0.7873  0.9516
  303MPD2    N1 4570   0.114   0.990   9.942  0.0176 -0.3035  0.5044
  303MPD2    H7 4571   0.165   0.963  10.025  1.6135 -0.0361 -0.3977
  304TMC3    C1 4572   4.661   1.007  10.091  0.2065 -0.5514  0.5938
  304TMC3    C2 4573   4.556   1.077  10.145 -0.1469  0.1832  0.2085
  304TMC3    C3 4574   4.470   1.022  10.242  0.3645  0.2688 -0.1242
  304TMC3    C4 4575   4.696   0.888  10.146  0.0374 -0.0688  0.6454
  304TMC3    C5 4576   4.614   0.833  10.239 -0.0165 -0.3664  0.3601
  304TMC3    C6 4577   4.503   0.895  10.284 -0.0777 -0.1411  0.2269
  304TMC3     C 4578   4.718   1.048   9.962 -0.3015  0.5739 -0.0933
  304TMC3     O 4579   4.654   1.110   9.884 -0.5584  0.5750 -0.0491
  304TMC3     H 4580   4.531   1.176  10.109 -2.3922 -0.1513  0.8121
  304TMC3    H1 4581   0.050   0.823  10.112 -0.4201 -1.4023  2.1052
  304TMC3    H2 4582   4.434   0.842  10.350  0.1776  0.1816  0.7541
  304TMC3    C7 4583   4.591   0.693  10.202  0.2301  1.3530  0.4139
  304TMC3    C8 4584   4.328   1.022  10.202  0.0924 -1.0089  0.1017
  304TMC3    O1 4585   4.684   0.614  10.186 -0.7218  0.1140 -0.0500
  304TMC3    O2 4586   4.293   0.908  10.192  1.1432 -0.4238  0.0081
  305MPD2     C 4587   3.185   3.269  14.228 -0.2709 -0.5156  0.8665
  305MPD2    C1 4588   3.114   3.153  14.213  0.5054 -0.5973  0.0183
  305MPD2    C2 4589   3.107   3.098  14.081  0.7058 -0.4570 -0.6590
  305MPD2    C3 4590   3.171   3.156  13.975  0.1574  0.3322 -0.2593
  305MPD2    C4 4591   3.260   3.261  14.003  0.2054  0.2591  0.2925
  305MPD2    C5 4592   3.268   3.315  14.130 -0.5513  0.2391 -0.5220
  305MPD2     H 4593   3.047   3.009  14.065 -0.5238  0.5111 -1.4740
  305MPD2    H1 4594   3.322   3.296  13.921 -0.8644 -2.1490 -1.5645
  305MPD2    H2 4595   3.181   3.315  14.326  2.9070  2.0003 -0.1797
  305MPD2    H3 4596   3.332   3.401  14.145  0.3386 -0.5757  0.3124
  305MPD2     N 4597   3.163   3.114  13.843  0.0385 -0.2857  0.5207
  305MPD2    H5 4598   3.223   3.150  13.770  0.5558  0.9956  1.5770
  305MPD2    N1 4599   3.048   3.102  14.324 -0.5475 -0.5215  0.1178
  305MPD2    H7 4600   3.074   3.133  14.418  0.1303 -0.2598 -0.1594
  306TMC3    C1 4601   2.956   2.938  14.462 -0.3896 -0.4762  0.0627
  306TMC3    C2 4602   3.016   2.823  14.493  0.1215 -0.1956  0.0739
  306TMC3    C3 4603   3.062   2.809  14.623  0.4183 -1.0154 -0.8650
  306TMC3    C4 4604   2.915   3.038  14.558  0.3851  0.2364 -0.2640
  306TMC3    C5 4605   2.946   3.007  14.685 -0.1754 -0.3524  0.1889
  306TMC3    C6 4606   3.020   2.898  14.717  0.8201 -0.1849  0.0723
  306TMC3     C 4607   2.979   2.981  14.329  0.3827 -0.1495 -0.0955
  306TMC3     O 4608   2.941   2.895  14.253  0.8419  0.3108  0.2293
  306TMC3     H 4609   3.061   2.776  14.406  2.6540  0.4654  1.0374
  306TMC3    H1 4610   2.864   3.128  14.527  0.4647  0.7422  1.0840
  306TMC3    H2 4611   3.040   2.873  14.820  2.3819  1.4716  0.1701
  306TMC3    C7 4612   2.976   3.126  14.761  0.7276  0.1013 -0.3846
  306TMC3    C8 4613   3.192   2.748  14.627  0.1690 -0.1080  0.3065
  306TMC3    O1 4614   2.878   3.197  14.780  0.1756 -0.2739 -0.3172
  306TMC3    O2 4615   3.211   2.675  14.531  0.5316 -0.2810  0.5802
  307MPD2     C 4616   0.987   0.411   0.603  0.1858 -0.5836 -0.4276
  307MPD2    C1 4617   0.913   0.487   0.510  0.0774  0.0951 -0.0911
  307MPD2    C2 4618   0.802   0.561   0.550 -0.4323  0.0725 -0.1316
  307MPD2    C3 4619   0.767   0.557   0.681  0.0292 -0.7345 -0.3622
  307MPD2    C4 4620   0.836   0.490   0.770 -0.0706 -0.5587  0.7162
  307MPD2    C5 4621   0.954   0.428   0.736 -0.1250  0.8724 -0.0619
  307MPD2     H 4622   0.724   0.600   0.485  0.6642 -0.7319 -1.9251
  307MPD2    H1 4623   0.818   0.494   0.877  0.2274  1.9886  0.6561
  307MPD2    H2 4624   1.079   0.361   0.575 -0.5612 -0.7395 -2.5692
  307MPD2    H3 4625   1.022   0.382   0.807 -0.7376  1.0507  0.6349
  307MPD2     N 4626   0.647   0.618   0.722 -0.3401 -0.6528 -0.3991
  307MPD2    H5 4627   0.612   0.684   0.654  0.1643  0.6293  0.5955
  307MPD2    N1 4628   0.948   0.504   0.370 -0.3868 -0.5837 -0.1804
  307MPD2    H7 4629   0.897   0.578   0.323 -1.6006  1.0549  3.6975
  308TMC3    C1 4630   0.231   0.679   0.900  0.6560  0.0289  0.2255
  308TMC3    C2 4631   0.223   0.808   0.853 -0.2564  0.2816 -0.0560
  308TMC3    C3 4632   0.336   0.866   0.800  0.0883 -0.0175 -0.0140
  308TMC3    C4 4633   0.353   0.613   0.900 -0.2301 -0.1637 -0.4495
  308TMC3    C5 4634   0.461   0.674   0.848  0.0314 -0.7133 -0.0867
  308TMC3    C6 4635   0.459   0.807   0.805  0.3283  0.6247 -0.5585
  308TMC3     C 4636   0.120   0.591   0.877  0.0654 -0.3402 -0.5383
  308TMC3     O 4637   0.128   0.477   0.907  0.1413 -0.4879 -0.1438
  308TMC3     H 4638   0.133   0.868   0.854  0.4949  1.4351 -1.4966
  308TMC3    H1 4639   0.360   0.512   0.940  0.1499  0.6488  1.5108
  308TMC3    H2 4640   0.548   0.864   0.783 -0.0364  0.5123 -2.3617
  308TMC3    C7 4641   0.588   0.605   0.846 -0.6446 -0.5227 -0.5716
  308TMC3    C8 4642   0.320   1.008   0.769 -0.6674  0.3954 -0.0572
  308TMC3    O1 4643   0.599   0.528   0.937  0.1141 -0.2536  0.2156
  308TMC3    O2 4644   0.246   1.076   0.843 -0.0540 -0.2120 -0.0226
  309MPD2     C 4645   4.481   0.823  17.340 -0.2048 -0.1596  0.9048
  309MPD2    C1 4646   4.473   0.920  17.240 -0.3146  0.2530  0.5918
  309MPD2    C2 4647   4.366   1.009  17.250 -0.2122 -0.0484 -0.2611
  309MPD2    C3 4648   4.280   1.018  17.360  0.3859  0.6298 -0.3558
  309MPD2    C4 4649   4.300   0.930  17.464 -0.5155 -0.1559 -0.0171
  309MPD2    C5 4650   4.395   0.835  17.449  0.2684 -0.4694  0.5403
  309MPD2     H 4651   4.366   1.077  17.167  0.1608 -0.6348 -0.7390
  309MPD2    H1 4652   4.226   0.925  17.543  0.7101  0.9181  1.1973
  309MPD2    H2 4653   4.550   0.740  17.336  0.3560  0.4772 -2.3758
  309MPD2    H3 4654   4.409   0.762  17.528 -2.6916 -1.4047  0.1828
  309MPD2     N 4655   4.179   1.116  17.376 -0.0379 -0.1209 -0.5490
  309MPD2    H5 4656   4.104   1.100  17.442 -0.1456  0.6891 -0.4660
  309MPD2    N1 4657   4.553   0.925  17.125  0.1521 -0.1502 -0.7120
  309MPD2    H7 4658   4.526   0.987  17.050 -0.7534  0.7477  0.3564
  310TMC3    C1 4659   4.713   0.899  16.959 -0.8107 -0.6299  0.0040
  310TMC3    C2 4660   4.688   1.030  16.917  0.3805  0.3075 -0.3209
  310TMC3    C3 4661   0.046   1.079  16.818 -0.3149  0.5065  0.1379
  310TMC3    C4 4662   0.087   0.827  16.906 -0.0641  0.0983 -0.5382
  310TMC3    C5 4663   0.164   0.881  16.806 -0.2709 -0.1320  0.7895
  310TMC3    C6 4664   0.134   1.004  16.757  0.3970  0.0717 -0.8033
  310TMC3     C 4665   4.665   0.852  17.091 -0.3656 -0.3959 -0.4300
  310TMC3     O 4666   4.721   0.762  17.151 -0.7581  0.4453  0.0922
  310TMC3     H 4667   4.622   1.101  16.965  1.5348  1.0737  0.1440
  310TMC3    H1 4668   0.119   0.729  16.941  1.9679  1.5567  1.6364
  310TMC3    H2 4669   0.184   1.043  16.669  0.1737  0.7324 -0.6380
  310TMC3    C7 4670   0.288   0.824  16.764 -0.9891 -0.1841 -0.6175
  310TMC3    C8 4671   0.001   1.200  16.749  0.7191  0.5500 -0.5463
  310TMC3    O1 4672   0.301   0.702  16.767 -0.3288  0.4969 -0.0818
  310TMC3    O2 4673   4.610   1.233  16.774  0.2638  0.3455 -0.0243
  311MPD2     C 4674   2.346   2.678  12.633 -0.4059  0.4779 -0.4252
  311MPD2    C1 4675   2.293   2.785  12.702  0.1720 -0.5403 -0.2688
  311MPD2    C2 4676   2.173   2.761  12.767  0.5901  0.3438 -0.1357
  311MPD2    C3 4677   2.115   2.637  12.770  0.3362 -0.5437  0.8034
  311MPD2    C4 4678   2.174   2.534  12.710 -0.2424  1.0478 -0.2440
  311MPD2    C5 4679   2.288   2.556  12.640 -0.0214  0.7085 -0.8349
  311MPD2     H 4680   2.122   2.852  12.798  1.1622  0.0527  1.6481
  311MPD2    H1 4681   2.141   2.432  12.725 -0.5119  1.4613  1.9908
  311MPD2    H2 4682   2.432   2.690  12.568 -0.1942 -1.0999 -0.4506
  311MPD2    H3 4683   2.335   2.469  12.597 -0.4319 -0.4927  1.1680
  311MPD2     N 4684   1.984   2.619  12.828  0.2938 -0.1642  0.0356
  311MPD2    H5 4685   1.934   2.705  12.850 -1.5318 -1.9046  2.6154
  311MPD2    N1 4686   2.346   2.921  12.694  0.7122 -0.7350  0.1260
  311MPD2    H7 4687   2.288   2.987  12.746 -0.2907  0.0913 -2.0174
  312TMC3    C1 4688   1.752   2.571  12.807 -0.2754 -0.3747 -0.4343
  312TMC3    C2 4689   1.661   2.527  12.716  0.0817  0.8545  0.0268
  312TMC3    C3 4690   1.545   2.595  12.708  0.0042  0.6705 -0.5220
  312TMC3    C4 4691   1.730   2.679  12.887  0.6578 -0.4141  0.2084
  312TMC3    C5 4692   1.619   2.756  12.865  0.1275 -0.0484  0.1746
  312TMC3    C6 4693   1.531   2.716  12.772  0.4543 -0.7822 -0.1553
  312TMC3     C 4694   1.896   2.510  12.817  0.1060 -0.3543  0.2878
  312TMC3     O 4695   1.910   2.410  12.753  0.3020  0.1368 -0.3965
  312TMC3     H 4696   1.679   2.430  12.673 -0.1190  1.2952 -1.0494
  312TMC3    H1 4697   1.807   2.704  12.958 -0.5587  2.4110  0.5240
  312TMC3    H2 4698   1.440   2.772  12.758  1.5459  1.1597  0.4601
  312TMC3    C7 4699   1.559   2.823  12.976 -0.4395 -0.2809 -0.5183
  312TMC3    C8 4700   1.430   2.529  12.647 -0.4813  0.5878 -0.6175
  312TMC3    O1 4701   1.456   2.882  12.950  0.3953 -0.3537  0.4942
  312TMC3    O2 4702   1.431   2.406  12.644  0.5507  0.4552 -0.0806
  313MPD2     C 4703   2.035   1.354  10.311  0.1278  0.3619  0.1499
  313MPD2    C1 4704   1.916   1.356  10.377 -0.3124 -0.0759 -1.2741
  313MPD2    C2 4705   1.803   1.314  10.319 -0.3704 -0.1214  0.2681
  313MPD2    C3 4706   1.807   1.265  10.190 -0.4966 -1.0881  0.0459
  313MPD2    C4 4707   1.925   1.268  10.116  0.3709 -0.5891 -0.1435
  313MPD2    C5 4708   2.041   1.316  10.184  0.1229  0.3422  0.3785
  313MPD2     H 4709   1.707   1.326  10.367 -0.0544 -1.7016  1.2718
  313MPD2    H1 4710   1.931   1.226  10.016 -0.0183 -1.0153  0.0165
  313MPD2    H2 4711   2.128   1.394  10.352 -1.0870 -0.0960  3.3992
  313MPD2    H3 4712   2.139   1.306  10.140  0.1410  3.6661 -0.3225
  313MPD2     N 4713   1.686   1.228  10.126 -0.5119 -0.5898  0.6422
  313MPD2    H5 4714   1.605   1.230  10.187  0.4061 -0.1749  1.8700
  313MPD2    N1 4715   1.897   1.411  10.506 -0.4711 -0.4505  0.0899
  313MPD2    H7 4716   1.799   1.419  10.531 -0.5811  0.7706 -0.7915
  314TMC3    C1 4717   1.944   1.555  10.682 -0.0239  0.0920 -0.4415
  314TMC3    C2 4718   2.018   1.665  10.709 -0.7495  0.6229 -0.5914
  314TMC3    C3 4719   1.967   1.756  10.803 -0.0642  0.2517  0.6782
  314TMC3    C4 4720   1.813   1.532  10.723 -0.5180 -0.2504 -0.1392
  314TMC3    C5 4721   1.765   1.633  10.798  0.3205 -0.0511 -0.2644
  314TMC3    C6 4722   1.834   1.743  10.831 -0.9074 -0.5300  0.7887
  314TMC3     C 4723   1.999   1.469  10.576 -0.4550  0.1645 -0.0356
  314TMC3     O 4724   2.121   1.458  10.575 -0.6168  0.4773  0.4054
  314TMC3     H 4725   2.125   1.665  10.687 -0.7942 -2.0143 -0.8439
  314TMC3    H1 4726   1.757   1.447  10.687 -0.1958 -1.2746  1.7880
  314TMC3    H2 4727   1.783   1.832  10.868  0.9390  2.0659 -2.8439
  314TMC3    C7 4728   1.620   1.653  10.787  0.1787  1.0133 -0.2681
  314TMC3    C8 4729   2.029   1.883  10.819  0.1076 -0.5778 -0.9536
  314TMC3    O1 4730   1.554   1.550  10.803 -0.1185 -0.4481 -0.1211
  314TMC3    O2 4731   1.953   1.979  10.810  0.0520  0.4487  0.1256
  315MPD2     C 4732   1.037   1.052   0.016 -0.2032  0.7142 -0.1378
  315MPD2    C1 4733   1.116   1.095   0.122 -0.2048 -0.2869 -0.1421
  315MPD2    C2 4734   1.184   1.214   0.111 -0.1797 -0.5973 -0.2433
  315MPD2    C3 4735   1.168   1.288   0.002 -1.1145  0.4753  0.0634
  315MPD2    C4 4736   1.081   1.247  17.611  0.4282  1.0521  0.0406
  315MPD2    C5 4737   1.023   1.126  17.613  0.0622 -0.0813  0.3047
  315MPD2     H 4738   1.246   1.250   0.193  1.0112  0.1405 -1.4629
  315MPD2    H1 4739   1.072   1.301  17.517 -0.0388  1.2768  0.2105
  315MPD2    H2 4740   0.986   0.956   0.017  1.0703  0.0552  3.2443
  315MPD2    H3 4741   0.956   1.091  17.535  0.8024 -1.5300  0.3083
  315MPD2     N 4742   1.247   1.404  17.693  0.4010 -0.0026  0.4371
  315MPD2    H5 4743   1.328   1.412   0.047  0.5466 -2.3729  0.5517
  315MPD2    N1 4744   1.144   1.024   0.238  0.1733 -0.1821  0.0381
  315MPD2    H7 4745   1.202   1.074   0.305  0.3332  0.1294 -0.3350
  316TMC3    C1 4746   1.295   1.625  17.636 -0.6184  0.6704 -0.2592
  316TMC3    C2 4747   1.369   1.636   0.047 -0.3887  0.4754  0.0516
  316TMC3    C3 4748   1.409   1.768   0.078  0.0152  0.0203  0.8573
  316TMC3    C4 4749   1.288   1.726  17.543 -0.1078  0.5322 -0.3643
  316TMC3    C5 4750   1.336   1.852  17.579 -0.5094 -0.1121 -0.3603
  316TMC3    C6 4751   1.385   1.876  17.704 -0.7749 -0.0071  0.4087
  316TMC3     C 4752   1.218   1.502  17.603  0.3927 -0.2333 -0.2137
  316TMC3     O 4753   1.122   1.517  17.531  0.5865 -0.4448 -0.2851
  316TMC3     H 4754   1.382   1.557   0.120  2.0133  0.7706 -0.0457
  316TMC3    H1 4755   1.222   1.718  17.457 -0.7651  0.0231  0.1853
  316TMC3    H2 4756   1.406   1.979   0.022  0.9782 -0.7260  1.9691
  316TMC3    C7 4757   1.339   1.959  17.484 -0.3944 -0.7115  0.1740
  316TMC3    C8 4758   1.463   1.807   0.207 -0.3542  0.2899  0.3133
  316TMC3    O1 4759   1.424   2.041  17.516 -0.5853 -0.5344 -0.0871
  316TMC3    O2 4760   1.476   1.926   0.229 -0.7825 -0.3339 -0.2993
  317MPD2     C 4761   3.480   4.514  14.085 -0.0805 -0.5793  0.0952
  317MPD2    C1 4762   3.497   4.506  13.942 -0.3279  0.7743  0.0865
  317MPD2    C2 4763   3.600   4.434  13.888 -0.0773  0.0869 -0.2004
  317MPD2    C3 4764   3.685   4.358  13.964 -0.1223 -0.4615 -0.1225
  317MPD2    C4 4765   3.675   4.371  14.103 -0.0606 -0.3998 -0.0501
  317MPD2    C5 4766   3.576   4.453  14.156  0.4496 -0.7301  1.1567
  317MPD2     H 4767   3.609   4.421  13.781 -0.1058 -2.2511  0.0787
  317MPD2    H1 4768   3.758   4.340  14.164 -3.5255 -0.9871  4.3593
  317MPD2    H2 4769   3.416   4.582  14.141  0.8226  0.1500  0.2429
  317MPD2    H3 4770   3.566   4.483  14.260 -1.3814 -2.2413  1.4129
  317MPD2     N 4771   3.787   4.284  13.897  0.3256  0.2394 -0.3982
  317MPD2    H5 4772   3.788   4.298  13.796  0.0661  2.3386 -0.1119
  317MPD2    N1 4773   3.433   4.580  13.845 -0.6420  0.4765 -0.3750
  317MPD2    H7 4774   3.458   4.563  13.749 -1.7984 -1.2027 -0.3858
  318TMC3    C1 4775   3.946   4.126  13.857 -0.3794 -0.3580 -0.3901
  318TMC3    C2 4776   3.914   3.994  13.833  0.4971  0.0857  0.0251
  318TMC3    C3 4777   3.969   3.929  13.724  0.8281 -0.0001  0.8007
  318TMC3    C4 4778   4.010   4.202  13.760  0.3656 -0.8435 -0.3083
  318TMC3    C5 4779   4.072   4.129  13.656  0.1536  0.1930 -0.7975
  318TMC3    C6 4780   4.061   3.992  13.647 -0.6398  0.2969 -0.0896
  318TMC3     C 4781   3.858   4.182  13.960 -0.1322 -0.4844 -0.2283
  318TMC3     O 4782   3.845   4.129  14.070  0.0372 -0.3952 -0.1434
  318TMC3     H 4783   3.842   3.949  13.901 -1.6806 -1.5122 -3.3349
  318TMC3    H1 4784   4.033   4.305  13.785  1.3807 -0.9262 -0.9378
  318TMC3    H2 4785   4.100   3.940  13.561  0.3597  1.3696 -0.2910
  318TMC3    C7 4786   4.179   4.196  13.574 -0.1503  0.0315 -0.3170
  318TMC3    C8 4787   3.926   3.799  13.676 -0.4969 -0.3195 -0.3844
  318TMC3    O1 4788   4.155   4.318  13.552 -0.3642  0.4300 -0.2227
  318TMC3    O2 4789   4.011   3.736  13.613 -1.2040  0.3995  0.0104
  319MPD2     C 4790   4.132   0.627  16.493 -0.4488 -0.3501  0.2234
  319MPD2    C1 4791   4.018   0.604  16.572 -0.3536 -0.4370  0.1934
  319MPD2    C2 4792   3.895   0.588  16.517  0.2194 -0.2315  0.3978
  319MPD2    C3 4793   3.878   0.594  16.385 -0.1958  0.3614 -0.3656
  319MPD2    C4 4794   3.993   0.612  16.309 -0.1569 -0.4238 -0.3470
  319MPD2    C5 4795   4.120   0.621  16.357 -0.3401 -0.6792  0.2175
  319MPD2     H 4796   3.810   0.560  16.579 -1.0271  1.8700 -0.3619
  319MPD2    H1 4797   3.994   0.625  16.202 -3.4908 -1.7199 -0.5518
  319MPD2    H2 4798   4.234   0.637  16.529 -0.2437 -0.2894 -0.3761
  319MPD2    H3 4799   4.204   0.631  16.289 -0.6086 -0.6384 -0.1052
  319MPD2     N 4800   3.754   0.596  16.312  0.2911  0.4130  0.2488
  319MPD2    H5 4801   3.755   0.581  16.212  0.1118  3.6498 -0.2409
  319MPD2    N1 4802   4.027   0.594  16.718  0.3331  0.0412 -0.1251
  319MPD2    H7 4803   3.943   0.580  16.773 -0.5091  2.1439 -0.8708
  320TMC3    C1 4804   3.514   0.613  16.299 -0.2820  0.0214  0.0550
  320TMC3    C2 4805   3.518   0.634  16.165  0.4882  0.4597 -0.5521
  320TMC3    C3 4806   3.396   0.624  16.104  0.1604 -0.3497 -0.4435
  320TMC3    C4 4807   3.409   0.567  16.366  0.4678 -0.7782  0.0384
  320TMC3    C5 4808   3.291   0.560  16.302 -0.2548  0.4100 -0.1680
  320TMC3    C6 4809   3.280   0.596  16.170 -0.2111  0.2484  0.2891
  320TMC3     C 4810   3.634   0.608  16.381  0.1607  0.8560 -0.3857
  320TMC3     O 4811   3.614   0.619  16.500  0.6025 -0.2881 -0.6626
  320TMC3     H 4812   3.607   0.673  16.117  0.3264  1.7621  0.2033
  320TMC3    H1 4813   3.409   0.547  16.472 -0.5806  0.8392  0.3606
  320TMC3    H2 4814   3.183   0.595  16.123  0.6012  1.2193 -1.4274
  320TMC3    C7 4815   3.188   0.473  16.356 -0.5591 -0.5336 -0.3200
  320TMC3    C8 4816   3.377   0.665  15.965 -0.1641  0.3347  0.1627
  320TMC3    O1 4817   3.113   0.422  16.276  0.2809 -0.2766 -0.5268
  320TMC3    O2 4818   3.448   0.620  15.875 -0.2678  0.0840 -0.0589
  321TMC3    C1 4819   4.122   0.612  16.921 -0.4168  0.7272  0.1070
  321TMC3    C2 4820   4.000   0.656  16.961 -0.0228  0.1768  0.1008
  321TMC3    C3 4821   3.979   0.712  17.081 -0.6503 -0.2441 -0.1595
  321TMC3    C4 4822   4.228   0.640  16.996 -0.5596  0.1883  0.5319
  321TMC3    C5 4823   4.212   0.693  17.123  0.0808  0.1139 -0.0246
  321TMC3    C6 4824   4.086   0.739  17.162  0.2940  0.4808  0.4478
  321TMC3     C 4825   4.146   0.600  16.777  0.2251  0.1226  0.3941
  321TMC3     O 4826   4.260   0.594  16.737  0.2992 -0.6019 -0.0438
  321TMC3     H 4827   3.907   0.631  16.912  0.0843  0.6757 -0.3564
  321TMC3    H1 4828   4.318   0.588  16.967 -1.1506 -0.2517 -0.5212
  321TMC3    H2 4829   4.079   0.796  17.254 -0.2648  0.3954  0.4598
  321TMC3    C7 4830   4.273   0.614  17.230 -0.0676 -0.2026 -0.0735
  321TMC3    C8 4831   3.871   0.648  17.153  0.2292  0.0431 -0.0619
  321TMC3    O1 4832   4.191   0.605  17.323 -0.5275  0.2487  0.3106
  321TMC3    O2 4833   3.754   0.659  17.110 -0.0245  0.4743  0.6223
  322MPD2     C 4834   3.015   2.136  13.143 -0.4077  0.7214 -0.3421
  322MPD2    C1 4835   2.932   2.106  13.250 -0.7509 -0.0619  0.2686
  322MPD2    C2 4836   2.888   1.976  13.263 -0.2181 -0.4490 -0.5654
  322MPD2    C3 4837   2.942   1.877  13.181  0.0149  0.0526 -0.8490
  322MPD2    C4 4838   3.016   1.905  13.073  0.3118  0.1836 -0.1440
  322MPD2    C5 4839   3.049   2.037  13.052  0.1183  0.2874  0.5492
  322MPD2     H 4840   2.829   1.940  13.347 -1.5904 -2.8079 -2.5524
  322MPD2    H1 4841   3.055   1.826  13.008 -1.3117 -0.2735 -0.5550
  322MPD2    H2 4842   3.040   2.239  13.124  0.8441  0.8221  1.8309
  322MPD2    H3 4843   3.112   2.056  12.966 -0.8411 -1.2349 -0.4922
  322MPD2     N 4844   2.890   1.746  13.208  0.0663 -0.3229  0.4296
  322MPD2    H5 4845   2.834   1.737  13.293  2.5508  0.5570  2.1342
  322MPD2    N1 4846   2.915   2.205  13.344  0.0135  0.2752  0.1233
  322MPD2    H7 4847   2.958   2.295  13.324  3.5261 -1.7451 -1.5100
  323TMC3    C1 4848   2.894   2.303  13.556 -0.1200  0.1653 -0.9640
  323TMC3    C2 4849   3.009   2.380  13.536 -0.1643 -0.3357  0.0550
  323TMC3    C3 4850   3.039   2.465  13.637 -0.4525 -0.6570 -0.2052
  323TMC3    C4 4851   2.810   2.321  13.668 -0.7782 -0.0683 -0.3025
  323TMC3    C5 4852   2.864   2.393  13.773  0.8102 -0.1954 -0.5755
  323TMC3    C6 4853   2.973   2.463  13.758  0.3123 -0.5911 -0.3969
  323TMC3     C 4854   2.874   2.187  13.474 -0.1508  0.4661 -0.4032
  323TMC3     O 4855   2.814   2.096  13.534 -0.1665 -0.8060  0.7891
  323TMC3     H 4856   3.087   2.354  13.465  0.2412 -2.8760  1.4188
  323TMC3    H1 4857   2.716   2.268  13.674  0.2778 -1.9193 -0.0641
  323TMC3    H2 4858   3.014   2.523  13.838 -0.0084  1.3017 -1.6573
  323TMC3    C7 4859   2.828   2.342  13.906 -0.1936 -0.2358 -0.3840
  323TMC3    C8 4860   3.142   2.568  13.631 -0.2771  0.0960  1.0073
  323TMC3    O1 4861   2.766   2.239  13.911 -0.0423  0.1140 -0.2725
  323TMC3    O2 4862   3.174   2.627  13.732  0.1661  0.2529  0.2032
  324MPD2     C 4863   0.493   3.639  14.174 -0.4641 -1.1235 -0.8285
  324MPD2    C1 4864   0.504   3.713  14.293 -0.3448 -0.2476 -0.0200
  324MPD2    C2 4865   0.413   3.815  14.308  0.7917  0.1296 -0.3215
  324MPD2    C3 4866   0.314   3.838  14.217 -0.3855 -0.4665 -0.1687
  324MPD2    C4 4867   0.305   3.762  14.102 -0.7184 -0.3959  0.4751
  324MPD2    C5 4868   0.393   3.662  14.084 -0.5204  0.3433  0.0499
  324MPD2     H 4869   0.422   3.887  14.389 -3.5725 -2.1919  2.2219
  324MPD2    H1 4870   0.239   3.783  14.020 -0.6998 -1.5276  0.1643
  324MPD2    H2 4871   0.566   3.563  14.147  0.2349 -0.7008 -0.0977
  324MPD2    H3 4872   0.401   3.612  13.989 -1.6383 -0.2951  0.3000
  324MPD2     N 4873   0.201   3.917  14.250 -0.5334  0.0073  0.0406
  324MPD2    H5 4874   0.138   3.907  14.171  0.2688 -0.3792 -0.5505
  324MPD2    N1 4875   0.608   3.687  14.388  0.0765  0.0686  0.5364
  324MPD2    H7 4876   0.616   3.753  14.466 -3.3950  0.1901  0.7966
  325TMC3    C1 4877   0.028   4.020  14.368  0.1000  0.4127  0.1221
  325TMC3    C2 4878   4.662   3.965  14.283  0.1474  0.4994  0.6096
  325TMC3    C3 4879   4.530   3.981  14.319 -0.2958 -0.2053  0.3246
  325TMC3    C4 4880   4.720   4.091  14.480  0.2155  0.0142  0.2911
  325TMC3    C5 4881   4.589   4.103  14.515 -0.0146 -0.3923 -0.2199
  325TMC3    C6 4882   4.492   4.044  14.431 -0.1397  0.9256  0.4980
  325TMC3     C 4883   0.165   3.975  14.368  0.3247  0.4722  0.3855
  325TMC3     O 4884   0.232   4.003  14.462 -0.1699 -0.2179 -0.0202
  325TMC3     H 4885   4.689   3.911  14.193  1.3307  1.9624  0.0800
  325TMC3    H1 4886   0.068   4.137  14.545 -0.9507  2.5814 -0.1820
  325TMC3    H2 4887   4.387   4.067  14.446 -0.2487  0.0238  1.0883
  325TMC3    C7 4888   4.557   4.187  14.634 -0.2379 -0.2601  0.7039
  325TMC3    C8 4889   4.448   3.871  14.273  0.4667 -0.0638 -0.4072
  325TMC3    O1 4890   4.651   4.226  14.699  0.1881 -0.6244 -0.3936
  325TMC3    O2 4891   4.487   3.812  14.175 -0.0876 -0.1902  0.6288
  326MPD2     C 4892   0.775   4.422  11.427  0.3571  0.5368 -0.7223
  326MPD2    C1 4893   0.739   4.443  11.290 -0.2251  0.6361 -0.0687
  326MPD2    C2 4894   0.834   4.454  11.188  0.0612  0.2597 -0.2385
  326MPD2    C3 4895   0.969   4.425  11.221  0.1531  0.5516 -0.3378
  326MPD2    C4 4896   1.001   4.406  11.351  0.5004  0.0120  0.8419
  326MPD2    C5 4897   0.909   4.406  11.452  0.5172 -0.1620 -0.3542
  326MPD2     H 4898   0.811   4.466  11.083 -4.3217  0.2206  0.7474
  326MPD2    H1 4899   1.103   4.374  11.368  0.3123 -0.4401  1.1056
  326MPD2    H2 4900   0.710   4.403  11.512  0.1962 -0.1258 -0.9997
  326MPD2    H3 4901   0.949   4.382  11.550 -1.4946  0.4174  0.6067
  326MPD2     N 4902   1.071   4.415  11.120  0.0300  0.3088  0.5363
  326MPD2    H5 4903   1.166   4.407  11.154  0.1829  1.7014  0.4424
  326MPD2    N1 4904   0.603   4.451  11.262 -0.9699 -0.9603 -0.2597
  326MPD2    H7 4905   0.593   4.464  11.162 -0.2791 -3.0569 -0.5910
  327TMC3    C1 4906   0.385   4.457  11.278  0.0949 -0.5918  0.3017
  327TMC3    C2 4907   0.333   4.568  11.222 -0.2385 -0.4279 -0.1382
  327TMC3    C3 4908   0.286   4.565  11.093  0.5087  0.2703 -0.1875
  327TMC3    C4 4909   0.385   4.338  11.218  0.5982  0.0914 -0.3447
  327TMC3    C5 4910   0.342   4.338  11.092  1.1329 -0.0314 -0.0506
  327TMC3    C6 4911   0.300   4.447  11.026  0.4479 -0.5416 -0.1004
  327TMC3     C 4912   0.500   4.472  11.352  0.3151 -0.0229 -0.7966
  327TMC3     O 4913   0.506   4.528  11.458 -0.2086 -0.1357  0.3675
  327TMC3     H 4914   0.346   4.661  11.277  0.3066 -0.2904 -0.4999
  327TMC3    H1 4915   0.437   4.252  11.259  0.9348 -0.4196 -1.8156
  327TMC3    H2 4916   0.266   4.437  10.923 -1.0530 -0.2879  0.3652
  327TMC3    C7 4917   0.432   4.264  11.001  1.0684  0.3035 -0.6272
  327TMC3    C8 4918   0.269   4.690  11.023  0.2646 -0.6744 -0.0716
  327TMC3    O1 4919   0.440   4.307  10.885  0.1221  0.1056 -0.4622
  327TMC3    O2 4920   0.295   4.704  10.905  0.0749 -0.2340  0.1521
  328MPD2     C 4921   2.966   3.769  17.546  0.2800  0.2092 -0.1518
  328MPD2    C1 4922   2.994   3.708  17.429 -0.6041 -0.3571 -0.3956
  328MPD2    C2 4923   3.028   3.779  17.318 -0.1676  0.1640  0.1350
  328MPD2    C3 4924   3.061   3.911  17.340  0.3580 -0.1140 -0.2133
  328MPD2    C4 4925   3.059   3.966  17.470 -0.1866  0.3213 -0.3136
  328MPD2    C5 4926   2.994   3.898  17.568  0.1828  0.7694  0.0600
  328MPD2     H 4927   3.037   3.737  17.218 -0.4418  0.9881 -0.2327
  328MPD2    H1 4928   3.069   4.074  17.474 -0.4391  0.3186  0.4692
  328MPD2    H2 4929   2.947   3.705  17.632 -1.2652  0.2062 -0.5040
  328MPD2    H3 4930   2.960   3.948  17.658  1.4168  0.0654  0.9257
  328MPD2     N 4931   3.079   3.996  17.229 -0.1046  0.0513  0.1921
  328MPD2    H5 4932   3.107   4.090  17.255  3.1243 -0.7633 -0.2304
  328MPD2    N1 4933   2.962   3.574  17.426  0.5498  0.2440  0.2507
  328MPD2    H7 4934   2.892   3.547  17.495  1.6531 -1.1759  0.8035
  329TMC3    C1 4935   2.882   3.388  17.307 -0.2714  0.3255 -0.8824
  329TMC3    C2 4936   2.759   3.434  17.290 -0.5043 -0.1078 -0.6337
  329TMC3    C3 4937   2.658   3.341  17.265  0.1650 -1.0412  0.0465
  329TMC3    C4 4938   2.912   3.255  17.305  0.1483 -0.0219  0.2476
  329TMC3    C5 4939   2.814   3.169  17.258 -0.2004 -0.3278  0.4504
  329TMC3    C6 4940   2.687   3.213  17.231  0.6754 -0.0940  0.2073
  329TMC3     C 4941   2.989   3.484  17.325 -1.0078 -0.6257  0.2274
  329TMC3     O 4942   3.095   3.470  17.266  0.2610  0.4065 -0.3198
  329TMC3     H 4943   2.743   3.541  17.302  0.8952 -0.3685  3.3988
  329TMC3    H1 4944   3.015   3.228  17.326  0.8493  2.7427  0.2646
  329TMC3    H2 4945   2.610   3.145  17.197 -0.0272  1.2054 -0.7616
  329TMC3    C7 4946   2.847   3.055  17.178  0.1848  0.0126  0.0626
  329TMC3    C8 4947   2.554   3.394  17.185  1.2360 -0.1693  0.4593
  329TMC3    O1 4948   2.762   2.964  17.176  0.2431 -0.0636 -0.2750
  329TMC3    O2 4949   2.530   3.334  17.082 -0.2842 -0.0847 -0.0507
  330TMC3    C1 4950   1.065   3.688   9.803  0.3163  0.2585 -0.6472
  330TMC3    C2 4951   1.021   3.599   9.707  0.1478  0.3746  0.1360
  330TMC3    C3 4952   1.067   3.471   9.710 -0.1916  0.8242 -0.1140
  330TMC3    C4 4953   1.153   3.657   9.902  0.5524 -0.1052 -0.1374
  330TMC3    C5 4954   1.206   3.529   9.899 -0.7701  0.3226  0.7809
  330TMC3    C6 4955   1.163   3.433   9.803  0.2226 -0.1238  0.6429
  330TMC3     C 4956   1.029   3.830   9.775  0.0915  0.0365  0.4403
  330TMC3     O 4957   1.097   3.914   9.828 -0.1343 -0.4325 -0.4303
  330TMC3     H 4958   0.979   3.631   9.612 -0.0699  0.4641  0.2620
  330TMC3    H1 4959   1.180   3.728   9.980  0.6923 -1.3952  0.9950
  330TMC3    H2 4960   1.217   3.342   9.785 -0.7365 -0.7546  0.9399
  330TMC3    C7 4961   1.310   3.482   9.995 -0.2164  0.3802  0.3342
  330TMC3    C8 4962   1.008   3.376   9.617 -0.9984 -0.0291 -0.4188
  330TMC3    O1 4963   1.372   3.563  10.064  1.0098  0.0187 -0.4381
  330TMC3    O2 4964   0.916   3.423   9.549  0.1564  0.5964 -0.8700
  331MPD2     C 4965   4.158   3.286  12.808  0.2500 -0.0277  0.5165
  331MPD2    C1 4966   4.261   3.281  12.720 -0.0292  0.1350 -0.2236
  331MPD2    C2 4967   4.320   3.165  12.676 -1.0482  0.5749 -0.5741
  331MPD2    C3 4968   4.288   3.038  12.730 -0.6305 -0.3530 -0.0464
  331MPD2    C4 4969   4.191   3.044  12.828  1.0544  0.0631 -0.5654
  331MPD2    C5 4970   4.123   3.162  12.861  0.1290 -0.2023  0.0991
  331MPD2     H 4971   4.384   3.168  12.589  1.5551  0.7445  1.3268
  331MPD2    H1 4972   4.159   2.957  12.883  1.8377  0.2589  0.2065
  331MPD2    H2 4973   4.110   3.374  12.850 -2.3363 -1.0459 -0.2817
  331MPD2    H3 4974   4.051   3.160  12.941 -1.3987 -0.5444 -1.2762
  331MPD2     N 4975   4.333   2.923  12.668 -0.1096  0.4974  0.0021
  331MPD2    H5 4976   4.400   2.933  12.593 -1.6596 -1.2803 -1.6323
  331MPD2    N1 4977   4.305   3.411  12.668 -0.8565 -0.1354  0.3061
  331MPD2    H7 4978   4.241   3.489  12.674 -0.7170 -0.0588  0.8799
  332TMC3    C1 4979   4.383   2.701  12.646  0.3349  0.6311  0.5401
  332TMC3    C2 4980   4.441   2.735  12.525  0.0697 -0.0076  0.6751
  332TMC3    C3 4981   4.510   2.633  12.465  0.2478 -1.1991  0.6237
  332TMC3    C4 4982   4.409   2.586  12.713 -0.1163  0.1071 -0.0791
  332TMC3    C5 4983   4.492   2.493  12.654 -0.0240  0.3616  0.0814
  332TMC3    C6 4984   4.535   2.509  12.522  0.2158 -0.8542  0.4577
  332TMC3     C 4985   4.310   2.798  12.718  0.4331 -0.3639 -0.3555
  332TMC3     O 4986   4.247   2.760  12.815  0.3039 -0.7051  0.9859
  332TMC3     H 4987   4.410   2.821  12.466 -1.9113 -0.5358  0.9377
  332TMC3    H1 4988   4.390   2.577  12.819  1.3538 -2.6359 -0.0486
  332TMC3    H2 4989   4.600   2.438  12.472 -0.9645 -1.7162  0.1251
  332TMC3    C7 4990   4.558   2.397  12.744 -0.4829  0.3940 -0.0623
  332TMC3    C8 4991   4.524   2.646  12.318  0.1066  0.1110 -0.1822
  332TMC3    O1 4992   4.505   2.369  12.849 -0.1241  0.6625 -0.3906
  332TMC3    O2 4993   4.593   2.739  12.274  0.0653 -0.6601 -0.5864
  333MPD2     C 4994   4.077   2.346  10.885 -0.4500  0.3386 -0.6683
  333MPD2    C1 4995   4.209   2.297  10.884 -0.6279  0.1734  0.2654
  333MPD2    C2 4996   4.223   2.174  10.957 -0.2850  0.2357 -0.0966
  333MPD2    C3 4997   4.107   2.112  11.005  0.7437 -0.2328  0.0440
  333MPD2    C4 4998   3.985   2.165  10.993  0.1055 -0.5759 -1.1115
  333MPD2    C5 4999   3.966   2.284  10.937 -0.0971 -0.1509 -0.2606
  333MPD2     H 5000   4.324   2.139  10.973 -0.4603 -1.4868 -2.7368
  333MPD2    H1 5001   3.899   2.126  11.047  0.3983  0.0816 -0.1714
  333MPD2    H2 5002   4.056   2.432  10.822  0.6767  1.0367 -0.0826
  333MPD2    H3 5003   3.872   2.335  10.921 -0.2520 -0.2171  0.4235
  333MPD2     N 5004   4.125   1.997  11.070  0.0426 -0.6759 -0.2972
  333MPD2    H5 5005   4.221   1.965  11.069  1.2455  2.9081 -1.1669
  333MPD2    N1 5006   4.315   2.373  10.834  0.1038 -0.3509  0.3303
  333MPD2    H7 5007   4.291   2.468  10.807  0.4640  0.1258  1.6748
  334TMC3    C1 5008   4.542   2.433  10.769 -0.3008  0.2359  0.2670
  334TMC3    C2 5009   4.654   2.373  10.716 -0.2654 -0.4893  0.5283
  334TMC3    C3 5010   0.047   2.447  10.723 -0.0758  0.5248  0.4373
  334TMC3    C4 5011   4.546   2.561  10.818 -0.0458  0.3624  0.8485
  334TMC3    C5 5012   4.662   2.634  10.814  0.7134  0.0761  0.2213
  334TMC3    C6 5013   0.050   2.580  10.768  0.2519 -0.5579  0.3559
  334TMC3     C 5014   4.450   2.337  10.831  1.2312  0.5426  0.6715
  334TMC3     O 5015   4.497   2.224  10.835  0.0660 -0.1333 -0.2301
  334TMC3     H 5016   4.666   2.269  10.688  0.0309 -0.6221  1.1531
  334TMC3    H1 5017   4.457   2.596  10.870 -1.3293 -0.5696 -0.6822
  334TMC3    H2 5018   0.141   2.637  10.780 -0.7418  1.0045  0.5695
  334TMC3    C7 5019   4.645   2.781  10.827  0.0002 -0.1717 -0.2323
  334TMC3    C8 5020   0.165   2.390  10.656 -0.0781 -0.1414 -0.2135
  334TMC3    O1 5021   0.015   2.855  10.844  0.1715 -0.9922  0.0854
  334TMC3    O2 5022   0.141   2.286  10.596  0.1408  0.5556  0.0954
  335TMC3    C1 5023   4.029   4.368  17.643  0.0154 -0.5771  0.2087
  335TMC3    C2 5024   3.972   4.302  17.535  0.5649  0.2076  0.1545
  335TMC3    C3 5025   4.040   4.309  17.418 -0.4828 -0.6506  0.2023
  335TMC3    C4 5026   4.147   4.431  17.638 -0.4671  0.0425  0.2906
  335TMC3    C5 5027   4.217   4.425  17.520 -0.1749  0.2004  0.0523
  335TMC3    C6 5028   4.164   4.361  17.408  0.1958 -0.3088  0.4984
  335TMC3     C 5029   3.960   4.355   0.073 -0.2785  0.0793 -0.6001
  335TMC3     O 5030   3.970   4.436   0.163 -0.1964 -0.6114 -0.2036
  335TMC3     H 5031   3.877   4.250  17.547  0.3309  0.5844 -0.0732
  335TMC3    H1 5032   4.190   4.486   0.015  1.0840  3.0027 -2.4511
  335TMC3    H2 5033   4.212   4.371  17.312  0.8510 -1.5474  0.7015
  335TMC3    C7 5034   4.345   4.489  17.511  0.5738 -0.0057  0.3399
  335TMC3    C8 5035   3.993   4.257  17.293 -0.9094  0.3176  0.1325
  335TMC3    O1 5036   4.368   4.593  17.579 -0.5551  0.3462  0.0249
  335TMC3    O2 5037   4.042   4.306  17.191 -0.8709 -0.6557  0.4151
  336MPD2     C 5038   3.722   1.848  16.363 -0.5996 -0.7726 -0.1606
  336MPD2    C1 5039   3.732   1.845  16.228  0.3414 -0.2801 -0.2132
  336MPD2    C2 5040   3.754   1.729  16.168 -0.9119 -0.3916 -0.2772
  336MPD2    C3 5041   3.774   1.611  16.241 -0.0230  0.1703 -0.3817
  336MPD2    C4 5042   3.771   1.617  16.379  0.3562  0.7264 -0.2774
  336MPD2    C5 5043   3.746   1.739  16.437  0.0011 -0.4252  0.0201
  336MPD2     H 5044   3.757   1.720  16.060 -1.1301 -0.1981 -0.2976
  336MPD2    H1 5045   3.791   1.530  16.440 -1.1166  2.8064  3.1487
  336MPD2    H2 5046   3.720   1.942  16.417 -0.5667 -2.7228  3.2574
  336MPD2    H3 5047   3.741   1.745  16.545  2.1436  3.2451 -0.0714
  336MPD2     N 5048   3.783   1.481  16.175 -0.1858  0.1159 -0.2067
  336MPD2    H5 5049   3.776   1.397  16.232 -2.0636  0.0938 -0.4737
  336MPD2    N1 5050   3.707   1.955  16.145 -0.4271 -0.6758  0.2086
  336MPD2    H7 5051   3.700   1.930  16.047 -1.0234 -2.7715  0.7983
  337TMC3    C1 5052   3.571   2.121  16.072  0.8921 -0.0973 -0.3663
  337TMC3    C2 5053   3.492   2.029  16.012 -0.5063  0.1638  0.2477
  337TMC3    C3 5054   3.427   2.074  15.896  0.0438 -0.3387 -0.0595
  337TMC3    C4 5055   3.580   2.247  16.035  0.5551 -0.2243  0.0967
  337TMC3    C5 5056   3.525   2.281  15.915  0.4357  0.3151  0.5921
  337TMC3    C6 5057   3.450   2.200  15.839  0.3751  0.2584  0.1328
  337TMC3     C 5058   3.656   2.076  16.176 -0.2329  0.2498  0.3293
  337TMC3     O 5059   3.665   2.135  16.281 -0.7878  0.4161  0.3236
  337TMC3     H 5060   3.488   1.927  16.048  0.1114  0.4132  1.0252
  337TMC3    H1 5061   3.655   2.309  16.081 -0.2321  1.2105 -0.5693
  337TMC3    H2 5062   3.390   2.236  15.756 -1.6406  0.1048  1.5352
  337TMC3    C7 5063   3.545   2.405  15.847  0.3328  0.5473 -0.6375
  337TMC3    C8 5064   3.365   1.971  15.819 -0.0709  0.1036  0.0357
  337TMC3    O1 5065   3.533   2.409  15.726 -0.1308  0.5758 -0.0348
  337TMC3    O2 5066   3.384   1.853  15.852  0.5480  0.2319 -0.4505
  338MPD2     C 5067   3.946   1.332   1.097 -0.5537 -0.7359  0.1744
  338MPD2    C1 5068   3.911   1.336   0.962  0.1354 -0.8424  0.0864
  338MPD2    C2 5069   3.796   1.416   0.930 -0.3350 -0.5371  0.0435
  338MPD2    C3 5070   3.716   1.484   1.020  0.1407 -0.1493 -0.6941
  338MPD2    C4 5071   3.762   1.483   1.148  0.6717  0.1207  0.0009
  338MPD2    C5 5072   3.868   1.406   1.188  0.1979 -0.4048 -0.1982
  338MPD2     H 5073   3.767   1.420   0.825  2.4485  1.0244 -0.6792
  338MPD2    H1 5074   3.702   1.532   1.224  0.5107  2.9263 -1.9499
  338MPD2    H2 5075   4.018   1.259   1.135  0.4456  1.4216  2.4577
  338MPD2    H3 5076   3.901   1.410   1.291 -1.7934  0.3902  0.4116
  338MPD2     N 5077   3.599   1.548   0.971  0.1666  0.7802 -0.9359
  338MPD2    H5 5078   3.586   1.536   0.871  3.0757 -0.6259 -1.1331
  338MPD2    N1 5079   3.977   1.270   0.856 -0.0905 -0.2257 -0.7010
  338MPD2    H7 5080   3.943   1.288   0.762 -0.6578  0.3823 -0.3842
  339TMC3    C1 5081   3.386   1.600   0.966 -0.9275  0.2520  0.3760
  339TMC3    C2 5082   3.294   1.513   1.005  0.2616 -0.8230 -0.2791
  339TMC3    C3 5083   3.210   1.476   0.902  0.0318 -0.2919  0.1732
  339TMC3    C4 5084   3.417   1.640   0.836  0.6800 -0.2160  0.8283
  339TMC3    C5 5085   3.321   1.601   0.745  0.1443  0.1374 -0.0965
  339TMC3    C6 5086   3.214   1.522   0.778 -0.1902  0.5522  0.3323
  339TMC3     C 5087   3.503   1.596   1.050 -0.7326  0.5578  0.4332
  339TMC3     O 5088   3.487   1.579   1.170 -0.3381  0.4941 -0.7561
  339TMC3     H 5089   3.275   1.493   1.110 -0.6478 -2.0755 -0.6841
  339TMC3    H1 5090   3.496   1.709   0.812  0.1866  0.5792  1.4843
  339TMC3    H2 5091   3.151   1.476   0.703  2.7259 -0.2050 -1.6475
  339TMC3    C7 5092   3.350   1.627   0.610  0.4397  0.0728 -0.1037
  339TMC3    C8 5093   3.185   1.329   0.893  0.1297  0.4508 -0.2501
  339TMC3    O1 5094   3.434   1.714   0.585 -0.6145 -0.2116  0.6051
  339TMC3    O2 5095   3.207   1.277   0.780  0.1460 -0.1917 -0.4518
  340MPD2     C 5096   3.907   3.782  10.141 -0.1726  0.6595  0.0748
  340MPD2    C1 5097   4.011   3.748  10.219  0.1253  0.4219 -0.0075
  340MPD2    C2 5098   4.119   3.839  10.236 -0.4141  0.1407  0.0829
  340MPD2    C3 5099   4.111   3.968  10.181  1.2068  0.6062  0.0324
  340MPD2    C4 5100   4.005   3.990  10.089  0.2180  0.5225  0.3782
  340MPD2    C5 5101   3.904   3.902  10.071  0.2278  0.9398  0.5841
  340MPD2     H 5102   4.190   3.816  10.315 -1.5282  1.9813  1.6222
  340MPD2    H1 5103   3.999   4.090  10.048 -1.7132 -0.5690 -1.9970
  340MPD2    H2 5104   3.829   3.709  10.122  1.0988 -0.9036  0.8184
  340MPD2    H3 5105   3.820   3.932  10.009 -0.0370  0.8849  0.9181
  340MPD2     N 5106   4.208   4.072  10.205 -0.2173 -0.7274  0.8405
  340MPD2    H5 5107   4.197   4.156  10.149 -0.4115 -1.6010 -0.4163
  340MPD2    N1 5108   4.018   3.612  10.266 -0.1524 -0.0887 -0.6714
  340MPD2    H7 5109   3.947   3.543  10.244  1.6103 -1.3918 -2.2543
  341TMC3    C1 5110   4.104   3.411  10.342 -0.7545  0.4330  0.2356
  341TMC3    C2 5111   4.040   3.348  10.235  0.1878 -0.5929  0.8638
  341TMC3    C3 5112   4.038   3.212  10.233 -0.2286  0.2830 -0.0221
  341TMC3    C4 5113   4.183   3.328  10.422 -0.0387 -0.3621 -0.2076
  341TMC3    C5 5114   4.178   3.192  10.415 -0.0962  0.6088 -0.0094
  341TMC3    C6 5115   4.098   3.130  10.330  0.3010  0.7310  0.1817
  341TMC3     C 5116   4.114   3.557  10.344  0.5074 -0.1313  0.4350
  341TMC3     O 5117   4.168   3.618  10.438 -0.6586 -0.1269 -0.2067
  341TMC3     H 5118   3.987   3.394  10.154 -0.1612  1.4375  2.2527
  341TMC3    H1 5119   4.253   3.378  10.488  0.1888  0.3283 -0.9583
  341TMC3    H2 5120   4.066   3.029  10.354  2.7004  0.6243  2.8510
  341TMC3    C7 5121   4.301   3.110  10.433  0.5127 -0.1075 -0.5572
  341TMC3    C8 5122   3.934   3.144  10.168  0.2668  0.3484  0.1487
  341TMC3    O1 5123   4.402   3.175  10.414 -0.1359 -0.3869 -0.1341
  341TMC3    O2 5124   3.822   3.192  10.166 -0.5912  0.8268  0.2490
  342MPD2     C 5125   1.974   2.309  17.547  0.2401  0.5600  0.4015
  342MPD2    C1 5126   2.108   2.328  17.511  0.1305 -0.0626 -0.1289
  342MPD2    C2 5127   2.168   2.448  17.543  0.0945  0.6653 -0.4265
  342MPD2    C3 5128   2.104   2.545  17.619 -0.1223  0.6325  0.6424
  342MPD2    C4 5129   1.971   2.520  17.655  0.4301  0.6098  0.0369
  342MPD2    C5 5130   1.909   2.401  17.625  0.0571  0.3155 -0.1705
  342MPD2     H 5131   2.273   2.456  17.514  0.1025  0.3479 -0.4850
  342MPD2    H1 5132   1.906   2.595  17.699 -2.5246 -1.8415 -0.1425
  342MPD2    H2 5133   1.925   2.215  17.524 -0.1007  0.9739 -0.5459
  342MPD2    H3 5134   1.808   2.384  17.661  0.4022  1.6803  1.4381
  342MPD2     N 5135   2.160   2.664  17.665 -0.2572 -0.0268 -0.1076
  342MPD2    H5 5136   2.095   2.726   0.006 -1.4171 -0.5579 -1.0087
  342MPD2    N1 5137   2.181   2.232  17.443  0.6219 -0.1344 -0.5161
  342MPD2    H7 5138   2.274   2.254  17.409  1.0956 -0.4601  0.5657
  343TMC3    C1 5139   2.261   2.020  17.366  0.3060  0.1498  0.9156
  343TMC3    C2 5140   2.312   2.056  17.238 -0.1823  0.0641 -0.1162
  343TMC3    C3 5141   2.367   1.960  17.154  0.6306  0.1847 -0.3316
  343TMC3    C4 5142   2.281   1.891  17.412 -0.0516  0.6469 -0.0964
  343TMC3    C5 5143   2.330   1.800  17.323  0.1538 -0.4297  0.2831
  343TMC3    C6 5144   2.366   1.834  17.196 -0.0490  0.3652  0.3829
  343TMC3     C 5145   2.155   2.097  17.433  0.6220  0.2803 -0.1617
  343TMC3     O 5146   2.069   2.028  17.484 -0.0182 -0.2227  0.2279
  343TMC3     H 5147   2.302   2.159  17.206  0.1329  0.6458  1.6213
  343TMC3    H1 5148   2.246   1.871  17.512  1.9686  1.4641  0.7611
  343TMC3    H2 5149   2.406   1.758  17.130  0.2023  0.4850  0.3957
  343TMC3    C7 5150   2.314   1.662  17.351  0.4502  0.0436 -0.3627
  343TMC3    C8 5151   2.473   2.012  17.060 -0.4895  0.7675 -0.1382
  343TMC3    O1 5152   2.313   1.582  17.257 -0.7401 -0.4207  0.3642
  343TMC3    O2 5153   2.529   2.121  17.082  0.1048  0.5596 -0.2023
  344MPD2     C 5154   3.460   1.410  10.806  0.2903  0.3491  0.4936
  344MPD2    C1 5155   3.343   1.447  10.743 -0.4470  0.5718  0.4795
  344MPD2    C2 5156   3.326   1.575  10.693 -0.5139 -0.0536  0.5089
  344MPD2    C3 5157   3.423   1.681  10.718  0.4888  0.6378 -0.1639
  344MPD2    C4 5158   3.540   1.641  10.774  0.2531  0.2122 -0.8773
  344MPD2    C5 5159   3.549   1.513  10.815 -0.0327 -0.4566  0.6820
  344MPD2     H 5160   3.227   1.590  10.650 -0.7964 -0.3642  1.0412
  344MPD2    H1 5161   3.627   1.702  10.797 -0.4271  1.3910 -1.4590
  344MPD2    H2 5162   3.485   1.311  10.843  1.6992  0.4242 -0.2488
  344MPD2    H3 5163   3.642   1.485  10.863 -0.0192 -0.8230  0.4478
  344MPD2     N 5164   3.415   1.810  10.665 -0.0282 -0.4237  0.5505
  344MPD2    H5 5165   3.501   1.863  10.681  0.2356 -0.6988  0.0663
  344MPD2    N1 5166   3.232   1.365  10.732  0.2730  0.0206  0.1088
  344MPD2    H7 5167   3.146   1.417  10.720 -0.3096 -0.7210  1.0449
  345TMC3    C1 5168   3.362   2.002  10.556 -0.7473  0.7132 -0.5644
  345TMC3    C2 5169   3.455   2.075  10.628 -0.6906  0.4762  0.2162
  345TMC3    C3 5170   3.491   2.200  10.584  0.1317  0.2817 -0.0028
  345TMC3    C4 5171   3.321   2.044  10.434  0.2336  0.5737 -0.0630
  345TMC3    C5 5172   3.369   2.164  10.381 -0.4212 -0.6365 -0.1486
  345TMC3    C6 5173   3.459   2.239  10.454 -0.7670 -0.1782  0.0219
  345TMC3     C 5174   3.315   1.872  10.603  0.1752 -0.2996  0.2328
  345TMC3     O 5175   3.213   1.830  10.548 -0.4484  0.1176  0.3245
  345TMC3     H 5176   3.489   2.045  10.726 -0.6520  0.1214  0.0926
  345TMC3    H1 5177   3.244   1.987  10.382  0.7475  0.4380 -0.6831
  345TMC3    H2 5178   3.495   2.337  10.425 -0.2456 -0.0118  1.1936
  345TMC3    C7 5179   3.288   2.229  10.269  0.1858 -0.1669 -0.0204
  345TMC3    C8 5180   3.513   2.307  10.677  0.0698  0.8830  0.2124
  345TMC3    O1 5181   3.329   2.338  10.233  0.4027 -0.7616 -0.0314
  345TMC3    O2 5182   3.497   2.423  10.642 -0.1560  0.3282 -0.4300
  346MPD2     C 5183   3.721   3.623  14.176 -0.4490  0.5220  0.1580
  346MPD2    C1 5184   3.828   3.707  14.196 -0.2428  0.5382 -0.6348
  346MPD2    C2 5185   3.821   3.781  14.311  0.3900 -0.7820  0.5729
  346MPD2    C3 5186   3.718   3.776  14.405  0.1682 -0.2962 -0.7662
  346MPD2    C4 5187   3.623   3.674  14.394 -0.1703  0.0258 -0.1969
  346MPD2    C5 5188   3.627   3.606  14.274 -0.3603  1.0122  0.0896
  346MPD2     H 5189   3.893   3.861  14.324 -0.1761 -0.0263 -0.8644
  346MPD2    H1 5190   3.544   3.637  14.458  0.5208 -0.4874  0.3595
  346MPD2    H2 5191   3.701   3.562  14.089 -1.0191  0.1875  0.5204
  346MPD2    H3 5192   3.544   3.536  14.265  0.4728  0.1951 -1.4031
  346MPD2     N 5193   3.716   3.875  14.510 -0.1770  0.5806 -0.4212
  346MPD2    H5 5194   3.784   3.950  14.519 -0.9114  1.2517 -0.4544
  346MPD2    N1 5195   3.943   3.727  14.118 -0.1058 -0.2123 -0.2901
  346MPD2    H7 5196   4.000   3.800  14.159 -0.0157 -1.9678  2.7162
  347TMC3    C1 5197   3.647   3.994  14.693  0.8409  1.4994  1.1108
  347TMC3    C2 5198   3.768   4.061  14.679 -0.7574  0.5283  0.3906
  347TMC3    C3 5199   3.801   4.146  14.779 -0.7951  0.4732 -0.5182
  347TMC3    C4 5200   3.582   3.992  14.808 -0.0805  0.6942 -1.0472
  347TMC3    C5 5201   3.623   4.071  14.910 -0.0161  0.2643 -0.0867
  347TMC3    C6 5202   3.732   4.149  14.896 -0.2426 -0.3003 -0.1900
  347TMC3     C 5203   3.615   3.890  14.599 -0.1797 -0.2662  0.8140
  347TMC3     O 5204   3.502   3.842  14.606 -0.0308  0.5383  0.6254
  347TMC3     H 5205   3.837   4.037  14.600 -2.2170 -1.1296 -0.3810
  347TMC3    H1 5206   3.494   3.929  14.818  0.9121 -0.4548  0.4810
  347TMC3    H2 5207   3.757   4.225  14.970 -1.1257 -1.4516  1.2857
  347TMC3    C7 5208   3.568   4.033  15.039  0.0231 -0.4749  0.3136
  347TMC3    C8 5209   3.932   4.202  14.764  0.3035  0.5025 -0.3263
  347TMC3    O1 5210   3.455   3.987  15.035  0.0493 -0.2167 -0.2314
  347TMC3    O2 5211   3.966   4.213  14.644  0.4335  0.5012 -0.3675
  348MPD2     C 5212   1.863   2.970  12.137  0.3038 -0.2163  0.7376
  348MPD2    C1 5213   1.982   3.042  12.126  0.2761  0.0805 -0.0909
  348MPD2    C2 5214   1.992   3.130  12.019  0.2598 -0.3161  0.1101
  348MPD2    C3 5215   1.894   3.140  11.926  0.1306  0.2125  0.2511
  348MPD2    C4 5216   1.777   3.080  11.950  0.2439  0.3695 -0.2048
  348MPD2    C5 5217   1.762   3.003  12.059 -0.3860 -0.2149  1.0450
  348MPD2     H 5218   2.080   3.191  12.002 -0.2236  0.5589  0.7212
  348MPD2    H1 5219   1.700   3.081  11.874  0.3967 -0.6230 -0.3692
  348MPD2    H2 5220   1.841   2.891  12.208 -0.6686 -0.0381  0.6313
  348MPD2    H3 5221   1.659   2.971  12.077 -0.6794 -0.0397 -0.3716
  348MPD2     N 5222   1.923   3.220  11.810 -0.2040  0.2273 -0.0111
  348MPD2    H5 5223   2.000   3.285  11.818  0.0129  0.0215 -0.4173
  348MPD2    N1 5224   2.099   3.008  12.194 -0.5337 -0.0362 -0.2454
  348MPD2    H7 5225   2.188   3.050  12.167 -0.8279 -0.1165 -1.3223
  349TMC3    C1 5226   2.243   2.905  12.338  0.2720 -0.0394  0.1149
  349TMC3    C2 5227   2.290   2.775  12.337 -0.1000  0.4370 -0.1659
  349TMC3    C3 5228   2.411   2.756  12.282  0.1597  0.0537 -0.7849
  349TMC3    C4 5229   2.318   3.011  12.300  0.3237 -0.2474 -0.3075
  349TMC3    C5 5230   2.441   2.993  12.245 -0.3712 -0.8415  0.3628
  349TMC3    C6 5231   2.490   2.865  12.241  0.0931 -0.6992 -0.0020
  349TMC3     C 5232   2.107   2.914  12.296  0.1199 -0.3007  0.8113
  349TMC3     O 5233   2.023   2.824  12.325 -0.0923 -0.2070 -0.7268
  349TMC3     H 5234   2.223   2.698  12.375 -1.5720  1.5419 -0.5384
  349TMC3    H1 5235   2.282   3.108  12.333  1.9452  0.0918  0.5182
  349TMC3    H2 5236   2.590   2.847  12.203  0.0808 -1.4160  0.3004
  349TMC3    C7 5237   2.476   3.075  12.133  0.0725  0.1647 -0.7838
  349TMC3    C8 5238   2.466   2.622  12.280  0.7613  0.7247 -0.0376
  349TMC3    O1 5239   2.513   3.012  12.037 -0.4176  0.1676 -0.4282
  349TMC3    O2 5240   2.587   2.609  12.305  0.1348  0.3500 -0.1359
  350MPD2     C 5241   0.839   1.122   9.448  0.3451 -0.7397 -0.1758
  350MPD2    C1 5242   0.866   1.001   9.511  0.3262  0.2875  0.0169
  350MPD2    C2 5243   0.962   0.993   9.608 -0.2387  0.5782 -0.2210
  350MPD2    C3 5244   1.049   1.099   9.634  0.0919  0.0287  0.3792
  350MPD2    C4 5245   1.034   1.217   9.553  0.0918 -0.5526  0.0647
  350MPD2    C5 5246   0.926   1.219   9.467 -0.8942 -0.0924 -0.5129
  350MPD2     H 5247   0.977   0.896   9.654 -0.4297  1.1846  1.1160
  350MPD2    H1 5248   1.098   1.302   9.572 -2.0745  1.3639 -1.2316
  350MPD2    H2 5249   0.767   1.139   9.368 -0.4715 -2.9582  0.0781
  350MPD2    H3 5250   0.923   1.308   9.406 -3.5516  0.2620  0.1628
  350MPD2     N 5251   1.150   1.083   9.734  0.6651 -0.1331 -0.0283
  350MPD2    H5 5252   1.151   0.995   9.785 -0.2745 -0.7809 -1.1161
  350MPD2    N1 5253   0.785   0.890   9.489 -0.6681  0.5127  0.1514
  350MPD2    H7 5254   0.810   0.803   9.535 -0.2729  1.2389  1.3348
  351TMC3    C1 5255   0.627   0.742   9.394  0.4664  0.8827 -1.1154
  351TMC3    C2 5256   0.707   0.634   9.405 -0.4485  0.4319 -1.0759
  351TMC3    C3 5257   0.651   0.511   9.385 -0.0821 -0.5237  0.3950
  351TMC3    C4 5258   0.493   0.728   9.370 -0.2434  0.2236 -0.9168
  351TMC3    C5 5259   0.442   0.601   9.366  0.7746  0.6893 -0.2650
  351TMC3    C6 5260   0.522   0.488   9.358  0.2521  0.3950 -0.4838
  351TMC3     C 5261   0.683   0.878   9.399  0.2341 -0.5290  0.2925
  351TMC3     O 5262   0.623   0.966   9.340 -0.2111 -0.4422 -0.2919
  351TMC3     H 5263   0.814   0.652   9.409 -0.3672 -0.4469  0.8513
  351TMC3    H1 5264   0.422   0.810   9.364  0.3330  0.7920  0.0039
  351TMC3    H2 5265   0.485   0.387   9.351  2.3278 -0.3913 -0.2851
  351TMC3    C7 5266   0.299   0.589   9.334 -0.5259 -0.0087  0.3671
  351TMC3    C8 5267   0.736   0.393   9.405  0.1359 -0.5200 -0.1263
  351TMC3    O1 5268   0.225   0.680   9.360 -0.3282 -0.5576 -0.9592
  351TMC3    O2 5269   0.707   0.282   9.359  0.0206  0.0928  0.4798
  352MPD2     C 5270   4.660   3.168   0.728 -0.0783 -0.0043 -0.0900
  352MPD2    C1 5271   4.576   3.069   0.779 -0.0693 -0.0520 -0.2083
  352MPD2    C2 5272   4.621   2.938   0.793 -0.1407  0.0872  0.6815
  352MPD2    C3 5273   0.021   2.902   0.742  0.5931  0.1846 -0.6340
  352MPD2    C4 5274   0.103   2.998   0.680  0.0404 -0.9415 -0.1144
  352MPD2    C5 5275   0.062   3.133   0.686  0.5052 -0.5164 -0.1299
  352MPD2     H 5276   4.555   2.861   0.831 -1.6108  1.6683  1.3298
  352MPD2    H1 5277   0.197   2.965   0.638 -0.8276 -2.1182 -1.1398
  352MPD2    H2 5278   4.624   3.265   0.695  1.6600  0.2041 -1.3810
  352MPD2    H3 5279   0.126   3.206   0.639 -0.5256 -0.8628 -2.0424
  352MPD2     N 5280   0.054   2.766   0.746 -0.8765  0.2143  0.1340
  352MPD2    H5 5281   4.708   2.696   0.754  0.3096 -0.5076  4.5802
  352MPD2    N1 5282   4.442   3.106   0.804 -0.0244  0.3081  0.2389
  352MPD2    H7 5283   4.410   3.195   0.767 -2.2236 -0.6818 -0.2383
  353TMC3    C1 5284   0.184   2.574   0.719  0.3253 -0.0467  0.3101
  353TMC3    C2 5285   0.198   2.498   0.833 -0.7738  0.5081 -0.2327
  353TMC3    C3 5286   0.175   2.364   0.827  0.0638  0.8343 -0.2061
  353TMC3    C4 5287   0.136   2.525   0.602  0.2345 -0.6505 -0.0672
  353TMC3    C5 5288   0.110   2.388   0.598  0.1958  0.1908  0.0164
  353TMC3    C6 5289   0.124   2.311   0.709  0.3404 -0.2029 -0.3524
  353TMC3     C 5290   0.185   2.719   0.736  0.1940  0.4596 -0.0220
  353TMC3     O 5291   0.291   2.779   0.717 -0.0443 -0.0698 -0.1483
  353TMC3     H 5292   0.241   2.544   0.922 -0.9899 -0.4391  0.3556
  353TMC3    H1 5293   0.111   2.595   0.523  2.2431 -0.0918 -0.2169
  353TMC3    H2 5294   0.109   2.205   0.692  1.0568 -0.3945  0.2107
  353TMC3    C7 5295   0.036   2.338   0.478  0.1438  0.3033  0.4041
  353TMC3    C8 5296   0.144   2.301   0.951  0.6030 -0.1411 -0.0281
  353TMC3    O1 5297   4.720   2.221   0.480  0.3195  0.6683 -0.3746
  353TMC3    O2 5298   0.189   2.347   1.059  0.4886  0.1675  0.7605
  354TMC3    C1 5299   1.338   4.312  13.635  0.1961  0.0290  0.9599
  354TMC3    C2 5300   1.338   4.446  13.621  0.0550 -0.0455 -1.1938
  354TMC3    C3 5301   1.334   4.487  13.488  0.1994  0.7143  0.0546
  354TMC3    C4 5302   1.313   4.220  13.538  1.2251  0.4037  0.1236
  354TMC3    C5 5303   1.294   4.268  13.414  0.6526 -0.0278 -0.3820
  354TMC3    C6 5304   1.317   4.403  13.383  0.1674 -0.6873 -0.0036
  354TMC3     C 5305   1.302   4.261  13.769  0.1388 -0.6728 -0.2033
  354TMC3     O 5306   1.254   4.149  13.777  0.1486  0.5555 -0.1305
  354TMC3     H 5307   1.344   4.522  13.698  0.9025 -3.2735  1.9254
  354TMC3    H1 5308   1.278   4.120  13.562  0.3361  0.5692 -0.4924
  354TMC3    H2 5309   1.314   4.443  13.282 -0.9157 -0.3591  0.1588
  354TMC3    C7 5310   1.299   4.170  13.310 -0.4170 -0.2080  0.1997
  354TMC3    C8 5311   1.335   4.627  13.451 -0.0446  1.3324  0.9199
  354TMC3    O1 5312   1.270   4.053  13.326 -0.1053 -0.3772  0.5029
  354TMC3    O2 5313   1.270   4.668  13.352  0.0416  0.1223  0.8177
  355MPD2     C 5314   1.434   0.494  11.836 -0.2842  0.1291  0.4716
  355MPD2    C1 5315   1.494   0.413  11.742  0.5562  0.4634 -0.1060
  355MPD2    C2 5316   1.576   0.308  11.791 -0.0285 -0.0824 -0.4886
  355MPD2    C3 5317   1.602   0.283  11.924 -0.2063  0.0279  0.3989
  355MPD2    C4 5318   1.536   0.366  12.016  0.0059  0.4491  0.0369
  355MPD2    C5 5319   1.444   0.465  11.970 -1.2177  0.0968  0.1871
  355MPD2     H 5320   1.624   0.240  11.721 -0.3202  0.1198 -0.8791
  355MPD2    H1 5321   1.561   0.356  12.121  1.3313  2.1986 -0.1022
  355MPD2    H2 5322   1.368   0.572  11.802 -0.4253  0.2405  1.0076
  355MPD2    H3 5323   1.403   0.526  12.049 -0.1000 -0.2057  1.0071
  355MPD2     N 5324   1.706   0.198  11.959  0.2215  0.0183  0.0648
  355MPD2    H5 5325   1.730   0.217  12.056  2.1837  0.1197 -0.4579
  355MPD2    N1 5326   1.482   0.435  11.603 -0.1681 -0.0415  0.0366
  355MPD2    H7 5327   1.429   0.517  11.575 -0.4724 -0.7070 -1.3414
  356TMC3    C1 5328   1.914   0.093  11.915  0.4453  0.4056 -0.3140
  356TMC3    C2 5329   2.000   0.145  11.817  0.0880 -0.4298  0.6334
  356TMC3    C3 5330   2.111   0.217  11.853  0.0590 -0.3655  0.3581
  356TMC3    C4 5331   1.951   0.105  12.045  0.3237 -0.0640  0.2244
  356TMC3    C5 5332   2.065   0.167  12.071 -0.5973 -0.2814  0.9746
  356TMC3    C6 5333   2.138   0.237  11.982  0.3832 -0.8472 -0.9309
  356TMC3     C 5334   1.777   0.110  11.877 -0.0334  0.0039  0.0744
  356TMC3     O 5335   1.757   0.058  11.769 -0.1933  0.2248  0.3069
  356TMC3     H 5336   1.973   0.147  11.711 -0.5723 -0.8042  0.7942
  356TMC3    H1 5337   1.891   0.065  12.125 -0.3002 -0.4885 -0.4512
  356TMC3    H2 5338   2.240   0.267  12.002  0.8024  0.8548 -5.6328
  356TMC3    C7 5339   2.065   0.224  12.202  0.1690  0.0334  0.6663
  356TMC3    C8 5340   2.147   0.331  11.769  0.5647  0.7602  0.4142
  356TMC3    O1 5341   2.011   0.160  12.291 -0.4208  0.0973  0.4295
  356TMC3    O2 5342   2.142   0.438  11.830  0.0775 -0.2574 -0.0301
  357MPD2     C 5343   1.022   0.136   1.066 -0.8979 -0.3047  0.4747
  357MPD2    C1 5344   1.132   0.106   1.141 -0.4224  0.4332  0.0164
  357MPD2    C2 5345   1.120   0.129   1.279 -0.2405  0.6105  0.2041
  357MPD2    C3 5346   1.008   0.185   1.332  0.4994 -0.0269  0.0827
  357MPD2    C4 5347   0.898   0.207   1.253  0.3065 -0.1472  0.0609
  357MPD2    C5 5348   0.906   0.179   1.119  1.3643  0.4563  0.2466
  357MPD2     H 5349   1.197   0.086   1.341 -1.0255 -2.2354 -0.7773
  357MPD2    H1 5350   0.810   0.258   1.291  0.4884 -0.3217  0.7242
  357MPD2    H2 5351   1.025   0.109   0.961  1.9152 -0.1159  0.4995
  357MPD2    H3 5352   0.826   0.207   1.051  1.5060  0.2301 -0.0137
  357MPD2     N 5353   0.994   0.183   1.476  0.1671 -0.4470  0.0096
  357MPD2    H5 5354   0.898   0.183   1.507 -0.5008 -0.3481 -2.0618
  357MPD2    N1 5355   1.242   0.055   1.077 -0.1866 -0.7978  0.0603
  357MPD2    H7 5356   1.231   0.024   0.981 -0.6233  0.7670 -0.3934
  358TMC3    C1 5357   1.446   4.661   1.064 -0.2766  0.4844 -0.4718
  358TMC3    C2 5358   1.405   4.623   0.943  0.3504 -0.3011  0.1409
  358TMC3    C3 5359   1.487   4.536   0.876 -0.3566 -0.4432 -0.0238
  358TMC3    C4 5360   1.550   4.605   1.135  0.4455  0.2653 -0.0247
  358TMC3    C5 5361   1.621   4.514   1.071 -0.5399 -1.0055 -0.7638
  358TMC3    C6 5362   1.594   4.473   0.941 -1.0171  0.4521 -0.2438
  358TMC3     C 5363   1.363   0.020   1.139 -0.6134 -0.2674  0.0102
  358TMC3     O 5364   1.409   0.053   1.245 -0.1359 -0.1851  0.1313
  358TMC3     H 5365   1.330   4.663   0.877 -3.0197 -3.9211  1.7868
  358TMC3    H1 5366   1.588   4.651   1.225  1.9294 -1.7089  0.3657
  358TMC3    H2 5367   1.672   4.423   0.884 -1.1584 -0.2077  0.1430
  358TMC3    C7 5368   1.762   4.503   1.110 -0.2231  0.1627 -0.4306
  358TMC3    C8 5369   1.470   4.524   0.734  0.0500 -0.2797  0.0187
  358TMC3    O1 5370   1.843   4.517   1.020 -0.0292 -0.2059  0.0309
  358TMC3    O2 5371   1.423   4.613   0.668  0.7114  0.4331 -0.0162
  359MPD2     C 5372   1.056   4.344  12.408  0.2698  0.0931 -0.1884
  359MPD2    C1 5373   1.111   4.221  12.390  0.1274 -1.1954 -0.2733
  359MPD2    C2 5374   1.037   4.110  12.435 -0.1794 -0.7759 -0.4197
  359MPD2    C3 5375   0.927   4.118  12.515 -0.2416  0.5469  0.4781
  359MPD2    C4 5376   0.868   4.244  12.528 -0.4390 -0.6566 -0.2430
  359MPD2    C5 5377   0.933   4.354  12.471 -0.0831 -0.1169 -0.5820
  359MPD2     H 5378   1.085   4.020  12.399  3.7189  1.5917 -1.0554
  359MPD2    H1 5379   0.780   4.263  12.588 -0.6541 -1.9475 -0.1488
  359MPD2    H2 5380   1.103   4.432  12.365 -0.2473  0.1625 -0.6049
  359MPD2    H3 5381   0.885   4.451  12.480  1.4203  0.5231  0.4375
  359MPD2     N 5382   0.850   4.010  12.551  0.4395 -0.1704  0.1755
  359MPD2    H5 5383   0.757   4.026  12.590  0.0169  0.7832 -1.1927
  359MPD2    N1 5384   1.233   4.202  12.316 -0.1931  0.0474  0.0308
  359MPD2    H7 5385   1.272   4.109  12.314 -3.0507 -1.1715  2.1673
  360TMC3    C1 5386   1.408   4.237  12.163  0.6145 -0.4493  0.6133
  360TMC3    C2 5387   1.519   4.313  12.149  0.0132  0.0355  0.3897
  360TMC3    C3 5388   1.618   4.251  12.076 -0.4906 -0.5921  1.5127
  360TMC3    C4 5389   1.408   4.103  12.138 -0.7311 -0.2799  0.0790
  360TMC3    C5 5390   1.516   4.044  12.078  0.2110  0.3429 -0.2458
  360TMC3    C6 5391   1.623   4.119  12.046  0.0272  0.2206  0.2401
  360TMC3     C 5392   1.306   4.293  12.240 -0.7663 -0.3820 -0.7447
  360TMC3     O 5393   1.291   4.414  12.230 -0.6741  0.0954 -0.7699
  360TMC3     H 5394   1.500   4.420  12.143 -3.3295 -0.5536  0.4159
  360TMC3    H1 5395   1.316   4.046  12.147  0.0908 -1.4893  0.8328
  360TMC3    H2 5396   1.708   4.068  12.004 -0.4659 -0.1233 -0.3324
  360TMC3    C7 5397   1.504   3.927  12.006  0.2922 -0.2256 -0.0880
  360TMC3    C8 5398   1.698   4.339  11.984 -0.8305 -0.8030 -0.3666
  360TMC3    O1 5399   1.582   3.902  11.913 -0.3100 -0.1291 -0.0015
  360TMC3    O2 5400   1.664   4.458  11.974  0.0391 -0.0051  0.2652
  361MPD2     C 5401   2.934   2.481  16.427  0.0361 -0.5172 -0.5886
  361MPD2    C1 5402   2.981   2.551  16.535 -0.5267 -0.4210 -0.0808
  361MPD2    C2 5403   3.120   2.535  16.561 -0.2073  0.4227 -0.6526
  361MPD2    C3 5404   3.191   2.431  16.503  0.9924  0.0762  0.2236
  361MPD2    C4 5405   3.135   2.356  16.402  0.3678 -0.3544 -0.1172
  361MPD2    C5 5406   3.011   2.389  16.360 -0.2942  0.0547 -0.2095
  361MPD2     H 5407   3.159   2.598  16.640 -0.0939  1.5377 -1.6049
  361MPD2    H1 5408   3.186   2.269  16.362 -0.1992  0.1815 -1.9864
  361MPD2    H2 5409   2.836   2.514  16.392  1.2361  1.5849 -1.9639
  361MPD2    H3 5410   2.975   2.335  16.274 -0.1564  2.4046 -1.7420
  361MPD2     N 5411   3.318   2.399  16.562  0.0292  0.2750  0.1185
  361MPD2    H5 5412   3.361   2.312  16.532 -0.8422 -0.5439  1.2420
  361MPD2    N1 5413   2.902   2.646  16.601 -0.4324  0.2996  0.3233
  361MPD2    H7 5414   2.958   2.698  16.668  0.4398 -2.0581  1.4228
  362TMC3    C1 5415   2.734   2.767  16.697  0.0880  1.2087  0.3176
  362TMC3    C2 5416   2.630   2.760  16.782 -0.6867  0.1006 -0.9128
  362TMC3    C3 5417   2.608   2.866  16.865  0.3730  0.5551 -0.8736
  362TMC3    C4 5418   2.805   2.879  16.676  0.3759 -0.0334  0.5251
  362TMC3    C5 5419   2.780   2.984  16.757  0.9317  0.7844  0.2222
  362TMC3    C6 5420   2.679   2.984  16.852  0.9278 -0.5114 -0.9459
  362TMC3     C 5421   2.767   2.654  16.608 -0.0436  0.3840 -0.2273
  362TMC3     O 5422   2.685   2.562  16.594  0.4217 -0.1537  0.4530
  362TMC3     H 5423   2.571   2.669  16.787  0.2429 -0.3784  1.2417
  362TMC3    H1 5424   2.865   2.884  16.586 -0.0867  2.0472  0.3276
  362TMC3    H2 5425   2.650   3.074  16.905  2.5953 -0.1616 -0.6421
  362TMC3    C7 5426   2.830   3.116  16.715  0.2157 -0.5852 -0.5285
  362TMC3    C8 5427   2.513   2.847  16.971 -0.0634 -0.2171 -0.5357
  362TMC3    O1 5428   2.775   3.214  16.757 -0.0041 -0.0271 -0.0028
  362TMC3    O2 5429   2.518   2.737  17.028  0.0949 -0.2401 -0.3028
  363TMC3    C1 5430   1.636   0.319   8.889 -0.4843  0.2724  0.3409
  363TMC3    C2 5431   1.693   0.317   9.010 -0.2361 -0.0329 -0.5548
  363TMC3    C3 5432   1.672   0.423   9.093 -0.1585 -0.2757  0.4764
  363TMC3    C4 5433   1.550   0.409   8.843  0.5882 -1.0330  0.0745
  363TMC3    C5 5434   1.528   0.515   8.927  0.8390  0.0561  0.0344
  363TMC3    C6 5435   1.591   0.527   9.054  0.0343  0.2647  0.5734
  363TMC3     C 5436   1.660   0.194   8.816 -0.3210 -0.0462 -0.2053
  363TMC3     O 5437   1.753   0.126   8.854 -0.6106  0.3656 -0.8085
  363TMC3     H 5438   1.733   0.227   9.055  0.3045  0.3821 -0.2005
  363TMC3    H1 5439   1.506   0.409   8.744  0.7570  0.5595 -0.0037
  363TMC3    H2 5440   1.566   0.604   9.126 -0.7564  0.5249  0.0200
  363TMC3    C7 5441   1.404   0.582   8.901 -0.5037  0.0339 -0.1417
  363TMC3    C8 5442   1.730   0.426   9.222  0.1986 -0.6117 -0.0151
  363TMC3    O1 5443   1.324   0.520   8.834 -0.0397 -0.6872  0.1250
  363TMC3    O2 5444   1.696   0.513   9.299  0.2008  0.2670 -0.1136
  364MPD2     C 5445   0.152   0.473  11.040  0.0338  1.1270  0.4361
  364MPD2    C1 5446   0.229   0.406  10.949  0.2564 -0.2056  0.9961
  364MPD2    C2 5447   0.241   0.267  10.951 -0.1753 -0.0500 -0.0214
  364MPD2    C3 5448   0.197   0.202  11.068 -0.1805 -0.5959  0.3177
  364MPD2    C4 5449   0.121   0.271  11.158 -1.4611 -0.0190 -0.0515
  364MPD2    C5 5450   0.092   0.406  11.144  0.0773  0.7867  0.6479
  364MPD2     H 5451   0.296   0.214  10.875 -1.1259  0.6144 -1.1657
  364MPD2    H1 5452   0.077   0.226  11.247 -0.9415  0.2545  0.3454
  364MPD2    H2 5453   0.152   0.582  11.040 -0.3413  1.1254 -0.3331
  364MPD2    H3 5454   0.046   0.465  11.222 -0.0079  0.9850  0.4477
  364MPD2     N 5455   0.205   0.061  11.105 -0.9589 -0.1894  0.1615
  364MPD2    H5 5456   0.178   0.028  11.197 -1.2320  0.3299  0.2649
  364MPD2    N1 5457   0.290   0.480  10.850 -0.1511 -0.4844  0.0753
  364MPD2    H7 5458   0.281   0.580  10.868 -0.9851  0.2436 -4.3102
  365TMC3    C1 5459   0.427   0.551  10.672  0.6284  0.1060 -0.4203
  365TMC3    C2 5460   0.469   0.522  10.542 -0.0406 -0.1654 -0.3204
  365TMC3    C3 5461   0.527   0.618  10.470  0.1370 -0.1266  0.4110
  365TMC3    C4 5462   0.439   0.682  10.721 -0.0312  0.0791  0.2418
  365TMC3    C5 5463   0.499   0.781  10.641  0.3466 -0.2064 -0.2293
  365TMC3    C6 5464   0.547   0.745  10.515  0.3304 -0.6118 -0.2985
  365TMC3     C 5465   0.360   0.435  10.740  0.6109 -0.3101  0.8552
  365TMC3     O 5466   0.393   0.320  10.709 -0.1196 -0.3060  0.4400
  365TMC3     H 5467   0.465   0.418  10.512  1.0271 -0.3920  0.3369
  365TMC3    H1 5468   0.388   0.710  10.813  0.6635  1.2732  0.2653
  365TMC3    H2 5469   0.595   0.819  10.453 -0.4315  0.8170  0.8251
  365TMC3    C7 5470   0.507   0.915  10.692 -0.1339  0.2643  0.4586
  365TMC3    C8 5471   0.624   0.584  10.365  0.2587  0.0663 -0.0891
  365TMC3    O1 5472   0.561   0.992  10.611 -0.3752 -0.6727 -0.0221
  365TMC3    O2 5473   0.688   0.673  10.312  0.0068 -0.6095 -0.6138
  366MPD2     C 5474   3.503   1.198  15.579 -0.1271 -0.2809 -0.3799
  366MPD2    C1 5475   3.483   1.272  15.464  0.0359  0.2435  0.8014
  366MPD2    C2 5476   3.480   1.214  15.339 -0.7003  0.1029 -0.1208
  366MPD2    C3 5477   3.481   1.078  15.323  0.7527 -0.1783  0.2239
  366MPD2    C4 5478   3.483   0.997  15.440  0.1271 -0.3094  0.3342
  366MPD2    C5 5479   3.501   1.055  15.565  0.0113 -0.5791 -0.0771
  366MPD2     H 5480   3.468   1.279  15.253 -1.5038  1.2478  0.8558
  366MPD2    H1 5481   3.483   0.890  15.426 -0.8357 -0.2194 -0.3261
  366MPD2    H2 5482   3.536   1.238  15.674  0.7128  0.3973 -0.9502
  366MPD2    H3 5483   3.499   0.992  15.654  1.4555  0.4018  0.6437
  366MPD2     N 5484   3.470   1.022  15.191  0.6493  0.0189 -0.0876
  366MPD2    H5 5485   3.461   1.088  15.114  0.4755 -0.2614 -0.3042
  366MPD2    N1 5486   3.498   1.414  15.469 -0.2281  0.3296 -0.4762
  366MPD2    H7 5487   3.501   1.457  15.377  0.2048  0.5543 -0.3555
  367TMC3    C1 5488   3.560   1.633  15.539 -0.3308  0.4326  0.3765
  367TMC3    C2 5489   3.597   1.702  15.653 -0.6246 -0.1885  0.3463
  367TMC3    C3 5490   3.626   1.836  15.645  0.0567  0.1427  0.2703
  367TMC3    C4 5491   3.532   1.693  15.423  0.3727  0.0564  0.8572
  367TMC3    C5 5492   3.551   1.827  15.421  0.3619 -0.1811  0.6876
  367TMC3    C6 5493   3.603   1.901  15.526 -0.3187 -0.0589  0.1940
  367TMC3     C 5494   3.550   1.492  15.570 -0.0533  0.1103  0.1991
  367TMC3     O 5495   3.587   1.451  15.677 -0.3735 -0.0736  0.0076
  367TMC3     H 5496   3.602   1.649  15.748 -2.1752 -0.2758  0.3893
  367TMC3    H1 5497   3.509   1.630  15.338 -0.9869 -0.1667  1.3987
  367TMC3    H2 5498   3.590   2.008  15.536 -1.1616 -0.0885 -0.4980
  367TMC3    C7 5499   3.477   1.898  15.331  0.1556  0.3265  0.2031
  367TMC3    C8 5500   3.723   1.881  15.738  0.0607 -0.0438  0.3492
  367TMC3    O1 5501   3.451   2.018  15.343 -0.2119 -0.2581 -0.1703
  367TMC3    O2 5502   3.708   1.880  15.859  0.0165  0.6704  0.2918
  368MPD2     C 5503   0.333   2.855  13.020 -0.4451 -0.8173  0.3711
  368MPD2    C1 5504   0.270   2.902  12.908 -0.5437 -0.1750  0.3544
  368MPD2    C2 5505   0.327   2.876  12.787 -0.2499 -0.1272  1.0036
  368MPD2    C3 5506   0.453   2.827  12.775 -0.4248  0.3762  0.1570
  368MPD2    C4 5507   0.525   2.784  12.883  0.2693  0.2253  0.1839
  368MPD2    C5 5508   0.460   2.800  13.002  0.2206  0.8352  0.1054
  368MPD2     H 5509   0.278   2.916  12.699 -0.2506 -0.1963  0.9725
  368MPD2    H1 5510   0.626   2.744  12.883  0.4917  0.7891  0.7043
  368MPD2    H2 5511   0.311   2.895  13.118 -1.9107  1.9494 -1.0849
  368MPD2    H3 5512   0.510   2.778  13.096  0.0383  0.4686  0.1170
  368MPD2     N 5513   0.522   2.819  12.651 -0.2948 -0.3003  0.6472
  368MPD2    H5 5514   0.622   2.805  12.656  0.2473  2.4266 -2.3309
  368MPD2    N1 5515   0.160   2.988  12.922 -0.3299 -0.1380 -0.2261
  368MPD2    H7 5516   0.117   2.986  13.014  0.6717 -1.6170  0.2055
  369TMC3    C1 5517   0.011   3.164  12.859 -0.1016  0.0223 -0.0212
  369TMC3    C2 5518   0.034   3.294  12.842 -0.5112 -0.0612 -0.3632
  369TMC3    C3 5519   4.664   3.382  12.893 -0.4922 -0.9576  0.0847
  369TMC3    C4 5520   4.634   3.124  12.940  0.4574  0.4603  0.3237
  369TMC3    C5 5521   4.543   3.208  12.977  0.6674  0.1368  0.8627
  369TMC3    C6 5522   4.546   3.341  12.941  0.1149  0.3913 -0.2634
  369TMC3     C 5523   0.131   3.088  12.828  0.1602 -0.0838 -0.5842
  369TMC3     O 5524   0.208   3.130  12.733  0.2914  0.0359  0.0539
  369TMC3     H 5525   0.127   3.320  12.792 -0.0275 -0.5182  0.3019
  369TMC3    H1 5526   4.615   3.020  12.962 -2.0719  1.2499  1.8831
  369TMC3    H2 5527   4.481   3.417  12.983 -1.8082 -1.1477 -0.4448
  369TMC3    C7 5528   4.457   3.175  13.086 -0.3998 -0.3584 -0.1184
  369TMC3    C8 5529   4.704   3.527  12.906 -1.3372  0.3650 -0.1997
  369TMC3    O1 5530   4.480   3.073  13.153 -0.7964 -0.0568 -0.1296
  369TMC3    O2 5531   4.613   3.606  12.921 -0.4027  0.0332 -0.6586
  370TMC3    C1 5532   4.095   3.798  16.119 -1.2669  0.7581 -0.2620
  370TMC3    C2 5533   4.028   3.710  16.202  0.1435  0.3121  0.7607
  370TMC3    C3 5534   3.991   3.583  16.158 -0.0207 -0.7831 -0.2277
  370TMC3    C4 5535   4.143   3.757  15.996  0.1152  0.0106  0.2100
  370TMC3    C5 5536   4.105   3.631  15.960 -0.2779  0.3914  0.0287
  370TMC3    C6 5537   4.030   3.542  16.035  0.4823 -0.4822 -0.0036
  370TMC3     C 5538   4.112   3.931  16.177  0.6448  0.0727  0.2117
  370TMC3     O 5539   4.048   3.940  16.282 -0.4328  0.2902 -0.3397
  370TMC3     H 5540   3.987   3.742  16.297 -1.2047 -0.2282  0.3639
  370TMC3    H1 5541   4.185   3.825  15.922  2.5810 -0.4245  1.1897
  370TMC3    H2 5542   3.988   3.451  15.995  1.8728 -0.1227 -2.2637
  370TMC3    C7 5543   4.156   3.573  15.834  0.2206  0.4478 -0.0528
  370TMC3    C8 5544   3.936   3.489  16.256 -0.0968 -0.6877  0.4910
  370TMC3    O1 5545   4.180   3.647  15.738  0.8863 -0.1280 -0.2334
  370TMC3    O2 5546   3.957   3.369  16.233 -0.1218  0.0310  0.5356
  371TMC3    C1 5547   0.604   1.849  15.726  0.7859  0.7280  0.2746
  371TMC3    C2 5548   0.481   1.850  15.786  0.5329 -0.8316 -0.0627
  371TMC3    C3 5549   0.401   1.949  15.742  0.5768 -0.5785 -0.4845
  371TMC3    C4 5550   0.648   1.938  15.634 -0.7313  0.2658  0.4886
  371TMC3    C5 5551   0.556   2.032  15.595  0.2508 -0.3644 -0.9649
  371TMC3    C6 5552   0.430   2.042  15.647  0.0809  0.5055 -0.2025
  371TMC3     C 5553   0.695   1.736  15.753  0.3799  0.0157  0.0051
  371TMC3     O 5554   0.808   1.750  15.705 -0.1098  0.0753  0.0061
  371TMC3     H 5555   0.450   1.781  15.864 -1.1698 -0.9056 -0.7939
  371TMC3    H1 5556   0.744   1.924  15.586 -1.3522 -1.7475 -0.1995
  371TMC3    H2 5557   0.350   2.105  15.610  0.3341 -0.0318 -1.6796
  371TMC3    C7 5558   0.606   2.115  15.489  0.0938 -0.7060  1.1644
  371TMC3    C8 5559   0.267   1.946  15.788  1.3149 -0.3126 -0.0872
  371TMC3    O1 5560   0.716   2.109  15.441 -0.2280 -0.3853 -0.0658
  371TMC3    O2 5561   0.224   1.836  15.807 -0.1772 -0.1534  0.2324
  372MPD2     C 5562   0.110   3.296  13.250 -0.0815  0.7719 -0.1273
  372MPD2    C1 5563   0.218   3.217  13.282  0.2356  0.6262  0.5818
  372MPD2    C2 5564   0.211   3.137  13.391 -0.0817  0.2197  0.1474
  372MPD2    C3 5565   0.092   3.109  13.458 -0.5099  0.2956 -0.6714
  372MPD2    C4 5566   4.713   3.184  13.427  0.7463 -0.0973 -0.0590
  372MPD2    C5 5567   4.724   3.282  13.328  0.2570 -0.1838 -0.8231
  372MPD2     H 5568   0.305   3.089  13.418 -0.7042 -2.6239 -2.7190
  372MPD2    H1 5569   4.613   3.164  13.463  0.0559  0.9037 -1.4294
  372MPD2    H2 5570   0.130   3.375  13.179 -0.1242  0.0666 -0.9222
  372MPD2    H3 5571   4.635   3.337  13.299 -0.5287 -1.6659 -1.2333
  372MPD2     N 5572   0.092   3.019  13.567 -0.5648  0.2817  0.4256
  372MPD2    H5 5573   0.177   2.974  13.598  0.6356 -1.1139 -4.8359
  372MPD2    N1 5574   0.344   3.214  13.216  0.0325  0.7094  0.2018
  372MPD2    H7 5575   0.418   3.157  13.256  0.8724  1.7610  0.1192
  373TMC3    C1 5576   0.035   2.876  13.733 -0.2331  0.4732 -0.6688
  373TMC3    C2 5577   0.000   2.883  13.869  0.1760  0.0750  0.2651
  373TMC3    C3 5578   0.091   2.818  13.955 -0.3861 -0.2415  0.0670
  373TMC3    C4 5579   0.128   2.783  13.680  0.0720 -0.1821 -0.6916
  373TMC3    C5 5580   0.212   2.734  13.775 -0.3286  0.4732 -0.4926
  373TMC3    C6 5581   0.194   2.750  13.905  0.0157  0.6168  0.3874
  373TMC3     C 5582   4.712   2.982  13.642 -0.1830 -0.1435  0.1868
  373TMC3     O 5583   4.598   3.029  13.650 -0.1292 -0.3254 -0.1979
  373TMC3     H 5584   4.653   2.955  13.904  0.4949  0.5668 -0.0728
  373TMC3    H1 5585   0.143   2.764  13.574 -0.1176 -1.2577 -0.5276
  373TMC3    H2 5586   0.262   2.707  13.978  1.8931  0.8770 -1.2068
  373TMC3    C7 5587   0.324   2.655  13.729  0.2242 -0.4663 -0.5056
  373TMC3    C8 5588   0.137   2.901  14.070  0.7145 -0.4204 -0.3915
  373TMC3    O1 5589   0.366   2.689  13.619  0.0746  0.4391 -0.1405
  373TMC3    O2 5590   0.053   2.911  14.155  1.3304  0.6900 -1.0817
  374TMC3    C1 5591   0.734   2.901   9.760 -0.3682 -0.3276  0.1827
  374TMC3    C2 5592   0.758   3.021   9.827  0.5395 -0.0211  0.1815
  374TMC3    C3 5593   0.707   3.134   9.770  0.2975 -0.4310  0.1977
  374TMC3    C4 5594   0.682   2.902   9.631  0.0221  0.4061  0.0424
  374TMC3    C5 5595   0.646   3.019   9.571 -0.4703  0.0097  0.1776
  374TMC3    C6 5596   0.654   3.135   9.641  0.2512 -0.5238  0.0381
  374TMC3     C 5597   0.741   2.777   9.838  0.6250 -0.3487  0.3831
  374TMC3     O 5598   0.788   2.783   9.949  0.4355  0.0638 -0.0564
  374TMC3     H 5599   0.790   3.015   9.931  0.5365 -0.0296  0.1819
  374TMC3    H1 5600   0.662   2.811   9.575 -1.4458 -0.4044  1.9118
  374TMC3    H2 5601   0.603   3.225   9.612  0.3786 -0.8251 -1.1029
  374TMC3    C7 5602   0.590   3.026   9.435  0.0743 -0.0989  0.1561
  374TMC3    C8 5603   0.713   3.263   9.839 -1.1292  0.4771  0.1785
  374TMC3    O1 5604   0.569   2.922   9.369 -0.3532  0.4778 -0.5626
  374TMC3    O2 5605   0.646   3.348   9.787  0.5846  0.4567 -0.0761
  375MPD2     C 5606   0.760   3.684  17.205  0.4224 -0.0785  0.0634
  375MPD2    C1 5607   0.688   3.705  17.092 -0.8815  0.2959 -0.0993
  375MPD2    C2 5608   0.741   3.683  16.964 -0.0630  0.0435 -0.2562
  375MPD2    C3 5609   0.872   3.639  16.953  0.2284 -0.0529 -0.6332
  375MPD2    C4 5610   0.946   3.622  17.064 -0.0517  0.2495  0.4913
  375MPD2    C5 5611   0.888   3.636  17.192  0.1871  0.4050 -0.4544
  375MPD2     H 5612   0.691   3.720  16.875 -2.1725  1.7972  1.6663
  375MPD2    H1 5613   1.047   3.584  17.059  0.3330  1.1931  1.1592
  375MPD2    H2 5614   0.708   3.705  17.298 -0.4785 -0.0699 -0.4430
  375MPD2    H3 5615   0.945   3.627  17.284 -0.1197 -1.9256 -0.4959
  375MPD2     N 5616   0.931   3.619  16.825 -0.3099  0.1613  0.2882
  375MPD2    H5 5617   1.032   3.605  16.832 -0.2006  1.0472  0.4528
  375MPD2    N1 5618   0.559   3.765  17.094  0.6090 -0.3114 -0.5298
  375MPD2    H7 5619   0.508   3.746  17.009 -1.2648  2.8247 -0.1202
  376TMC3    C1 5620   0.937   3.601  16.584 -0.0912  0.0482 -0.5773
  376TMC3    C2 5621   1.081   3.595  16.579  0.2981 -0.5583  0.3438
  376TMC3    C3 5622   1.136   3.556  16.459  0.2959  0.2113  0.1237
  376TMC3    C4 5623   0.864   3.602  16.462 -0.2936 -0.4969  0.1754
  376TMC3    C5 5624   0.931   3.565  16.351  0.1057 -0.6622  0.3045
  376TMC3    C6 5625   1.062   3.541  16.346 -0.0101 -0.2416  0.2129
  376TMC3     C 5626   0.861   3.629  16.704 -0.1630 -0.5185  0.2554
  376TMC3     O 5627   0.738   3.644  16.678  0.6441 -0.0880  0.4448
  376TMC3     H 5628   1.139   3.617  16.667  1.1950 -0.8651 -0.1698
  376TMC3    H1 5629   0.764   3.641  16.447  0.7774  0.3939 -4.6642
  376TMC3    H2 5630   1.122   3.538  16.256 -1.0170 -1.1967 -0.4314
  376TMC3    C7 5631   0.857   3.571  16.226 -0.0902  0.1333 -0.1206
  376TMC3    C8 5632   1.276   3.589  16.424  0.3613 -0.2302 -0.3471
  376TMC3    O1 5633   0.765   3.649  16.206  0.2908 -0.3326  0.0676
  376TMC3    O2 5634   1.284   3.672  16.338  0.0508 -0.5055 -0.5873
  377MPD2     C 5635   3.848   4.371  12.722 -0.5609 -0.1679  0.8533
  377MPD2    C1 5636   3.912   4.255  12.751  0.4468  0.4917 -0.4509
  377MPD2    C2 5637   3.874   4.187  12.863  0.0922  0.0164 -0.2158
  377MPD2    C3 5638   3.768   4.227  12.944 -0.7527  0.2287  0.4853
  377MPD2    C4 5639   3.702   4.337  12.916 -0.3173 -0.1952 -0.3099
  377MPD2    C5 5640   3.739   4.408  12.801 -0.6533 -0.5256 -0.3838
  377MPD2     H 5641   3.934   4.099  12.880 -1.9147 -1.3329 -0.0826
  377MPD2    H1 5642   3.621   4.382  12.971  0.6563  1.8462 -0.5408
  377MPD2    H2 5643   3.869   4.427  12.632 -3.9910 -1.7070 -0.8912
  377MPD2    H3 5644   3.680   4.496  12.776  1.4203  1.9090  3.1390
  377MPD2     N 5645   3.708   4.149  13.048 -0.3436  0.1532  0.4833
  377MPD2    H5 5646   3.627   4.195  13.087 -0.9135 -1.3099  1.0161
  377MPD2    N1 5647   4.004   4.205  12.657 -0.3276 -0.6043 -0.8946
  377MPD2    H7 5648   4.013   4.245  12.564 -1.9829  3.0874  0.5377
  378TMC3    C1 5649   4.233   4.152  12.318 -0.2175 -0.5350 -0.2089
  378TMC3    C2 5650   4.138   4.157  12.420  0.1550 -0.7158 -0.1934
  378TMC3    C3 5651   4.159   4.079  12.535 -0.0507  0.2786 -0.1615
  378TMC3    C4 5652   4.345   4.074  12.329  0.2347  0.4596 -1.1454
  378TMC3    C5 5653   4.361   4.000  12.442  0.6076 -0.3190  0.0688
  378TMC3    C6 5654   4.270   4.006  12.548 -0.7394 -0.9845  0.3529
  378TMC3     C 5655   4.210   4.231  12.196  0.1348 -0.5364 -0.2634
  378TMC3     O 5656   4.295   4.267  12.117  0.0083  0.1392 -0.0730
  378TMC3     H 5657   4.059   4.232  12.417  0.7525 -0.0233  1.9050
  378TMC3    H1 5658   4.415   4.067  12.247 -2.0752 -0.9071 -2.9850
  378TMC3    H2 5659   4.288   3.958  12.643 -0.5908 -0.3887  0.6262
  378TMC3    C7 5660   4.492   3.946  12.476 -0.3735 -0.2245  0.0198
  378TMC3    C8 5661   4.085   4.091  12.664 -0.4027 -0.5468  0.4447
  378TMC3    O1 5662   4.525   3.939  12.592 -0.0540 -0.0492  0.0016
  378TMC3    O2 5663   4.119   4.021  12.756  0.2014 -0.2756  0.1223
  379MPD2     C 5664   0.015   1.592  16.413  0.1918  0.1935 -0.2289
  379MPD2    C1 5665   4.640   1.527  16.475 -0.5818 -0.2726  1.2273
  379MPD2    C2 5666   4.656   1.419  16.557  0.5930  0.0131 -0.7466
  379MPD2    C3 5667   0.055   1.363  16.570 -0.4086 -0.1206 -0.0333
  379MPD2    C4 5668   0.161   1.418  16.505 -0.2721 -0.3800 -0.1642
  379MPD2    C5 5669   0.142   1.532  16.423  0.0435 -0.8420  0.0317
  379MPD2     H 5670   4.568   1.376  16.603  0.7322  0.9934  0.4402
  379MPD2    H1 5671   0.257   1.369  16.511 -0.8951 -1.6123 -0.2794
  379MPD2    H2 5672   0.006   1.673  16.341  0.5958  1.0069  0.6219
  379MPD2    H3 5673   0.223   1.580  16.370 -0.4159  0.1539  0.2454
  379MPD2     N 5674   0.085   1.254  16.651  0.7813  0.1075 -0.2330
  379MPD2    H5 5675   0.180   1.219  16.653  0.1231 -1.6723  0.2870
  379MPD2    N1 5676   4.510   1.585  16.438  0.3630 -0.1474 -0.1117
  379MPD2    H7 5677   4.509   1.645  16.356 -0.8278  0.3084  0.2340
  380TMC3    C1 5678   4.270   1.571  16.419  0.4972 -0.4097 -0.0520
  380TMC3    C2 5679   4.204   1.449  16.397  0.2274  0.2928  0.2261
  380TMC3    C3 5680   4.131   1.423  16.275  0.0471  0.2121  0.1503
  380TMC3    C4 5681   4.287   1.651  16.309  0.1291  0.1092 -0.1802
  380TMC3    C5 5682   4.208   1.628  16.195 -0.4826  0.3704 -0.3716
  380TMC3    C6 5683   4.119   1.521  16.180  0.3820 -0.1490  0.5876
  380TMC3     C 5684   4.390   1.572  16.501  0.4118  0.6056  0.1313
  380TMC3     O 5685   4.360   1.514  16.604  0.3537 -0.3521  0.8524
  380TMC3     H 5686   4.225   1.367  16.465 -1.4745 -1.1795 -1.0205
  380TMC3    H1 5687   4.331   1.748  16.331 -2.3896  1.2641 -0.2036
  380TMC3    H2 5688   4.075   1.490  16.086  1.9137  0.2300 -0.2552
  380TMC3    C7 5689   4.213   1.734  16.095 -0.6121  0.3914  0.3394
  380TMC3    C8 5690   4.173   1.305  16.212 -0.6798 -0.0300 -0.4383
  380TMC3    O1 5691   4.313   1.803  16.108  0.0121 -0.1038  0.0609
  380TMC3    O2 5692   4.135   1.283  16.096  0.1093  0.0677 -0.4731
  381TMC3    C1 5693   3.979   2.809  16.120  0.2648  0.2890  0.0794
  381TMC3    C2 5694   4.069   2.908  16.096  0.4233  0.4946  0.0295
  381TMC3    C3 5695   4.088   3.009  16.184 -0.4413  0.1224  0.1177
  381TMC3    C4 5696   3.904   2.806  16.235 -0.1028 -0.2905  0.4206
  381TMC3    C5 5697   3.924   2.906  16.328  0.0207 -0.0135  0.4243
  381TMC3    C6 5698   4.012   3.012  16.298 -0.6893 -0.0235  0.1358
  381TMC3     C 5699   3.965   2.709  16.023  0.4240 -0.1079  0.8510
  381TMC3     O 5700   3.990   2.748  15.909 -0.6059 -0.4829  0.4856
  381TMC3     H 5701   4.130   2.901  16.006  2.2757  1.1675  1.2205
  381TMC3    H1 5702   3.834   2.725  16.256 -0.6299  0.0471 -0.0494
  381TMC3    H2 5703   4.034   3.084  16.376  0.1826  0.7784 -0.8449
  381TMC3    C7 5704   3.891   2.875  16.464 -0.2690  1.0224 -0.0294
  381TMC3    C8 5705   4.215   3.082  16.156 -0.1480  0.7332  0.0408
  381TMC3    O1 5706   3.885   2.756  16.493  0.5772 -0.3220  0.1097
  381TMC3    O2 5707   4.300   3.026  16.090 -0.0948  0.1180 -0.1226
  382MPD2     C 5708   3.288   0.488  17.566 -0.1523  0.4454  0.3366
  382MPD2    C1 5709   3.148   0.475  17.537  0.0366 -0.8583  0.3507
  382MPD2    C2 5710   3.106   0.345  17.500 -0.1122  0.2994 -0.0017
  382MPD2    C3 5711   3.197   0.237  17.495 -0.4630 -0.4052 -0.1885
  382MPD2    C4 5712   3.331   0.252  17.528  0.0838  0.4279 -0.0072
  382MPD2    C5 5713   3.370   0.378  17.571 -0.0749  0.0488 -0.5359
  382MPD2     H 5714   3.002   0.326  17.473  0.0042  0.2327 -0.4105
  382MPD2    H1 5715   3.397   0.167  17.539  0.1262  0.1979 -2.0096
  382MPD2    H2 5716   3.329   0.584  17.596 -1.5607  0.9528  0.6811
  382MPD2    H3 5717   3.471   0.394  17.607 -0.0875 -0.5756 -0.2304
  382MPD2     N 5718   3.152   0.110  17.464 -0.2609  0.0367  0.7340
  382MPD2    H5 5719   3.228   0.043  17.453 -2.3055 -1.8578 -1.8134
  382MPD2    N1 5720   3.070   0.585  17.521 -0.4779 -0.0658  0.1898
  382MPD2    H7 5721   2.974   0.572  17.489 -0.2118  0.8791 -0.9897
  383TMC3    C1 5722   3.005   4.659  17.408 -0.2443  1.0371 -0.1131
  383TMC3    C2 5723   2.890   4.621  17.335 -0.1732  0.6506 -0.2878
  383TMC3    C3 5724   2.884   4.494  17.283  0.6410 -0.2612  0.2186
  383TMC3    C4 5725   3.103   4.571  17.441  0.6808 -0.0229  0.1954
  383TMC3    C5 5726   3.089   4.441  17.395 -0.8420 -0.6467  0.4276
  383TMC3    C6 5727   2.987   4.405  17.309 -0.0257 -0.2697 -0.2184
  383TMC3     C 5728   3.023   0.069  17.440 -0.6877  0.4422  0.5339
  383TMC3     O 5729   2.918   0.125  17.444  0.3991  0.8331  0.2763
  383TMC3     H 5730   2.818   4.697  17.307 -1.5066 -0.3537  0.4589
  383TMC3    H1 5731   3.179   4.600  17.513 -0.5521 -2.4692  2.4930
  383TMC3    H2 5732   2.986   4.304  17.269  1.8995 -0.8743  1.2495
  383TMC3    C7 5733   3.203   4.344  17.420  0.8887 -0.3074 -1.0013
  383TMC3    C8 5734   2.795   4.470  17.178 -1.2702  0.1906  0.5324
  383TMC3    O1 5735   3.209   4.242  17.345  0.0829  0.3097 -0.1715
  383TMC3    O2 5736   2.795   4.563  17.093 -0.0879 -0.1085  0.2537
  384MPD2     C 5737   0.198   2.015  11.963  0.1180 -0.8016 -0.0479
  384MPD2    C1 5738   0.194   1.999  12.101  0.0396 -0.4355 -0.0245
  384MPD2    C2 5739   0.302   1.941  12.162  0.6654 -0.5782  0.6257
  384MPD2    C3 5740   0.411   1.894  12.085 -0.1640  0.2612  0.2523
  384MPD2    C4 5741   0.421   1.921  11.952  0.0364  0.3310  0.0684
  384MPD2    C5 5742   0.300   1.970  11.892 -0.5940 -0.0920  0.5819
  384MPD2     H 5743   0.289   1.916  12.266  3.0327 -1.2633  0.7603
  384MPD2    H1 5744   0.510   1.898  11.895  1.3106 -0.0814  2.2446
  384MPD2    H2 5745   0.110   2.051  11.910  0.0379 -0.9286  0.0020
  384MPD2    H3 5746   0.298   1.991  11.785 -0.5706  2.3052  1.0601
  384MPD2     N 5747   0.519   1.829  12.146 -0.2831 -0.5141 -0.4707
  384MPD2    H5 5748   0.503   1.828  12.246  0.4799  1.8634 -0.3250
  384MPD2    N1 5749   0.089   2.038  12.189 -0.5060  0.2174  0.0755
  384MPD2    H7 5750   0.106   2.007  12.284  0.2443 -0.6668 -0.3345
  385TMC3    C1 5751   0.694   1.686  12.207 -0.4054  0.0806  0.0260
  385TMC3    C2 5752   0.707   1.547  12.184 -0.3457  0.4537 -0.1076
  385TMC3    C3 5753   0.665   1.461  12.281  0.7195 -0.3910  0.5350
  385TMC3    C4 5754   0.659   1.730  12.335  0.3619 -0.2745 -0.1664
  385TMC3    C5 5755   0.618   1.638  12.429  0.0275 -0.9260  0.2471
  385TMC3    C6 5756   0.616   1.504  12.404 -0.1383 -0.1080  0.3562
  385TMC3     C 5757   0.622   1.751  12.094 -0.2804 -0.5827  0.4229
  385TMC3     O 5758   0.649   1.724  11.982 -0.5971  0.2739 -0.0475
  385TMC3     H 5759   0.738   1.525  12.082 -0.3361 -0.9001  0.1897
  385TMC3    H1 5760   0.671   1.836  12.354  1.6386 -0.1564 -1.5862
  385TMC3    H2 5761   0.572   1.434  12.473  0.0811  0.4475  1.0578
  385TMC3    C7 5762   0.497   1.683  12.484 -0.3436  0.8970  0.5999
  385TMC3    C8 5763   0.632   1.324  12.254  0.0384 -0.0046 -0.3885
  385TMC3    O1 5764   0.457   1.786  12.431 -0.3656  0.1069  0.1705
  385TMC3    O2 5765   0.628   1.250  12.349  0.1183 -0.2730  0.1368
  386TMC3    C1 5766   0.644   3.738  11.893 -0.3071 -0.9755  0.7508
  386TMC3    C2 5767   0.627   3.691  11.765  0.0151 -0.0990  0.0062
  386TMC3    C3 5768   0.515   3.741  11.702  0.0108  0.0492 -0.1488
  386TMC3    C4 5769   0.571   3.835  11.951  0.3128 -0.3346  0.9181
  386TMC3    C5 5770   0.460   3.881  11.883 -0.1860 -0.3863 -0.3847
  386TMC3    C6 5771   0.433   3.834  11.758  0.3411  0.3475  0.1440
  386TMC3     C 5772   0.751   3.683  11.976 -0.5898  0.6711  0.3562
  386TMC3     O 5773   0.787   3.747  12.071 -0.3203 -0.1301 -0.2389
  386TMC3     H 5774   0.706   3.637  11.716 -0.9256 -0.5836 -0.9829
  386TMC3    H1 5775   0.587   3.867  12.053 -0.8932  0.9134  0.7207
  386TMC3    H2 5776   0.349   3.869  11.699  0.5558 -1.9766 -1.5772
  386TMC3    C7 5777   0.351   3.933  11.967  0.2032 -0.3010  0.2620
  386TMC3    C8 5778   0.474   3.700  11.573 -0.0135  0.2940 -0.7132
  386TMC3    O1 5779   0.364   3.919  12.084 -0.5194 -0.1687  0.0344
  386TMC3    O2 5780   0.382   3.763  11.518 -0.2277 -0.2724  0.5286
  387MPD2     C 5781   2.699   3.554   9.898  0.0410  0.3351 -0.0568
  387MPD2    C1 5782   2.824   3.509   9.941  0.1858 -0.5438 -0.1258
  387MPD2    C2 5783   2.838   3.371   9.967  0.7265 -0.2048 -0.4587
  387MPD2    C3 5784   2.741   3.286   9.947 -0.4699 -0.5370  0.1537
  387MPD2    C4 5785   2.624   3.333   9.885  0.8170  0.5415  0.1331
  387MPD2    C5 5786   2.600   3.467   9.867  0.1017 -0.1559 -0.2080
  387MPD2     H 5787   2.933   3.333  10.003  0.2807 -1.1318 -0.2666
  387MPD2    H1 5788   2.543   3.265   9.863  0.6684  1.0106 -0.7756
  387MPD2    H2 5789   2.674   3.658   9.881  2.9577  0.9998 -0.2515
  387MPD2    H3 5790   2.504   3.505   9.833 -0.6654 -1.4568  0.5132
  387MPD2     N 5791   2.775   3.153   9.962  0.8641  0.2223 -0.1292
  387MPD2    H5 5792   2.871   3.123   9.973  0.9313  0.3688 -0.3114
  387MPD2    N1 5793   2.938   3.592   9.951 -0.2568  0.1764  0.0374
  387MPD2    H7 5794   3.023   3.540   9.963 -0.6176  0.3332  3.4734
  388TMC3    C1 5795   3.059   3.791  10.022  0.2919  0.8073 -0.3663
  388TMC3    C2 5796   3.033   3.907  10.096 -0.5436  1.0018 -0.5134
  388TMC3    C3 5797   3.129   3.930  10.192 -0.1960 -0.9702  0.2724
  388TMC3    C4 5798   3.171   3.715  10.039  0.4508 -0.3969  1.0113
  388TMC3    C5 5799   3.248   3.742  10.140 -0.4688  0.7292 -0.5489
  388TMC3    C6 5800   3.223   3.844  10.224  0.7127 -0.1950  0.0123
  388TMC3     C 5801   2.939   3.732   9.960 -0.1371  0.1950 -0.0174
  388TMC3     O 5802   2.849   3.810   9.940 -0.6296  0.7488 -0.2863
  388TMC3     H 5803   2.949   3.976  10.085  0.7273  2.6967  0.3452
  388TMC3    H1 5804   3.196   3.635   9.971 -0.8202  1.0200 -1.1153
  388TMC3    H2 5805   3.284   3.842  10.314  2.4037 -1.6518 -1.1717
  388TMC3    C7 5806   3.331   3.626  10.193 -0.0159  0.3136  0.1987
  388TMC3    C8 5807   3.096   4.031  10.286 -0.9586 -0.5394 -0.3314
  388TMC3    O1 5808   3.407   3.649  10.286 -0.2167  0.4282  0.1340
  388TMC3    O2 5809   2.982   4.074  10.286 -0.5540 -0.2277 -0.2019
  389MPD2     C 5810   2.789   1.734  11.010  0.1299 -1.0232 -0.7378
  389MPD2    C1 5811   2.668   1.672  10.965  0.4837 -0.5843  0.1590
  389MPD2    C2 5812   2.586   1.606  11.052 -0.1632  0.0128 -0.0151
  389MPD2    C3 5813   2.625   1.607  11.187  0.2265 -0.3736 -0.2766
  389MPD2    C4 5814   2.745   1.660  11.229  0.1431 -0.1939  0.1790
  389MPD2    C5 5815   2.826   1.730  11.146 -0.7130 -0.0772 -0.3316
  389MPD2     H 5816   2.489   1.568  11.021  0.0180 -1.5149  1.3270
  389MPD2    H1 5817   2.784   1.655  11.330 -1.2938 -1.9248  0.6419
  389MPD2    H2 5818   2.861   1.783  10.945 -0.8919 -0.4274 -1.4162
  389MPD2    H3 5819   2.916   1.785  11.172  1.8104 -2.5414 -3.8471
  389MPD2     N 5820   2.551   1.538  11.289 -0.4241  0.7100  0.0653
  389MPD2    H5 5821   2.576   1.549  11.387 -2.3440 -2.1865  0.8637
  389MPD2    N1 5822   2.642   1.691  10.828 -0.4471 -0.2031  0.4845
  389MPD2    H7 5823   2.689   1.773  10.788  0.9677 -1.0340  0.4304
  390TMC3    C1 5824   2.372   1.435  11.383 -0.8681 -0.3027  0.1285
  390TMC3    C2 5825   2.320   1.309  11.377 -0.2089  0.0841  0.7978
  390TMC3    C3 5826   2.238   1.268  11.482 -0.9739  0.2295  1.2878
  390TMC3    C4 5827   2.344   1.535  11.478 -0.4780  0.2629 -0.0039
  390TMC3    C5 5828   2.246   1.497  11.572 -0.2309  0.0519 -0.5870
  390TMC3    C6 5829   2.205   1.361  11.584  0.4018 -0.5586  0.0842
  390TMC3     C 5830   2.437   1.471  11.263  0.4985  0.0180 -0.1983
  390TMC3     O 5831   2.381   1.435  11.160 -0.1801  0.6063  0.2061
  390TMC3     H 5832   2.348   1.242  11.297  0.1058  0.1021  0.8913
  390TMC3    H1 5833   2.371   1.639  11.468 -0.6379  0.1186 -2.0263
  390TMC3    H2 5834   2.140   1.337  11.667  0.4440 -1.4162 -0.1307
  390TMC3    C7 5835   2.136   1.589  11.584  0.2870 -0.6427 -0.0601
  390TMC3    C8 5836   2.184   1.128  11.496 -0.2808  0.0833 -1.0590
  390TMC3    O1 5837   2.161   1.707  11.553 -0.2729 -0.1535 -0.4534
  390TMC3    O2 5838   2.178   1.074  11.386  0.3266  0.6300 -0.0699
  391MPD2     C 5839   1.415   3.143  11.256 -0.2526  0.5696 -0.7156
  391MPD2    C1 5840   1.520   3.214  11.202 -0.4368  0.0047 -0.0210
  391MPD2    C2 5841   1.513   3.248  11.069 -0.0514 -0.1901 -0.9995
  391MPD2    C3 5842   1.400   3.218  10.989 -0.3741 -0.4903  0.3151
  391MPD2    C4 5843   1.300   3.146  11.051  0.1223 -0.1819 -0.5528
  391MPD2    C5 5844   1.302   3.115  11.187 -0.3934 -0.0001  0.1399
  391MPD2     H 5845   1.593   3.302  11.020  0.0899  1.6065  1.2214
  391MPD2    H1 5846   1.210   3.127  10.995 -1.1896  0.3102  1.4092
  391MPD2    H2 5847   1.422   3.119  11.362 -0.3963 -1.0993 -1.0864
  391MPD2    H3 5848   1.218   3.074  11.242 -0.0017  0.0497  0.7743
  391MPD2     N 5849   1.402   3.266  10.854 -0.6474  0.5557  0.4880
  391MPD2    H5 5850   1.491   3.303  10.821  0.3315 -0.1601  2.3005
  391MPD2    N1 5851   1.637   3.250  11.286 -0.0307 -0.3534 -0.1829
  391MPD2    H7 5852   1.642   3.215  11.381 -0.1313 -0.2882 -0.1538
  392TMC3    C1 5853   1.322   3.327  10.639 -0.6901  0.0289  0.0316
  392TMC3    C2 5854   1.253   3.289  10.531  0.5537  0.0110  0.1478
  392TMC3    C3 5855   1.260   3.370  10.420 -0.3068 -0.1093  0.0739
  392TMC3    C4 5856   1.393   3.443  10.642  0.0575  1.3423 -0.6780
  392TMC3    C5 5857   1.402   3.516  10.528  0.4537 -0.1788  0.7246
  392TMC3    C6 5858   1.346   3.473  10.416  0.0738 -0.1960  0.5230
  392TMC3     C 5859   1.308   3.242  10.756 -0.6055  0.2515  0.4770
  392TMC3     O 5860   1.204   3.180  10.763  0.4831 -0.1552 -0.2843
  392TMC3     H 5861   1.180   3.209  10.539  0.7451 -0.2211 -0.4580
  392TMC3    H1 5862   1.457   3.461  10.727  0.9982  1.1023 -1.3350
  392TMC3    H2 5863   1.363   3.529  10.325  0.0634 -0.9998  0.0348
  392TMC3    C7 5864   1.502   3.622  10.526  0.2422 -0.3816 -0.3315
  392TMC3    C8 5865   1.152   3.350  10.328  0.6408  0.6146 -0.0032
  392TMC3    O1 5866   1.572   3.639  10.623  0.1701 -0.0698 -0.6597
  392TMC3    O2 5867   1.106   3.234  10.321 -0.5168  0.3895  0.6607
  393TMC3    C1 5868   0.597   1.363  10.495  0.3202 -0.3544  0.4328
  393TMC3    C2 5869   0.500   1.403  10.580 -0.6122 -0.1787 -0.1559
  393TMC3    C3 5870   0.543   1.447  10.704  0.0997  0.3650  0.0143
  393TMC3    C4 5871   0.729   1.364  10.524 -0.7569  0.0134 -0.0104
  393TMC3    C5 5872   0.766   1.401  10.651  0.5136  0.5163  0.7611
  393TMC3    C6 5873   0.675   1.452  10.745 -0.0768  0.0863 -0.6148
  393TMC3     C 5874   0.568   1.342  10.349  0.1812 -0.1408 -0.3329
  393TMC3     O 5875   0.655   1.286  10.278  0.2794  0.2695  0.1536
  393TMC3     H 5876   0.393   1.398  10.565 -0.2305 -1.5773 -2.3011
  393TMC3    H1 5877   0.799   1.343  10.443 -0.7998  0.8987 -0.2794
  393TMC3    H2 5878   0.714   1.481  10.842  1.0499  0.3051 -1.1358
  393TMC3    C7 5879   0.908   1.382  10.687 -0.4970 -0.2446 -0.0973
  393TMC3    C8 5880   0.441   1.468  10.813 -0.4138  0.3202 -0.6321
  393TMC3    O1 5881   0.950   1.424  10.788 -0.3037 -0.5129 -0.3796
  393TMC3    O2 5882   0.347   1.387  10.814  0.7451 -0.3890  0.4813
  394TMC3    C1 5883   2.571   1.657  10.610  0.6253 -0.4365 -0.0918
  394TMC3    C2 5884   2.500   1.580  10.523  0.2249  0.0236 -0.0928
  394TMC3    C3 5885   2.491   1.621  10.392  0.3386  0.3002 -0.4433
  394TMC3    C4 5886   2.663   1.744  10.565 -0.1505  0.1791  0.4245
  394TMC3    C5 5887   2.659   1.778  10.433 -0.0847  0.5969  0.5496
  394TMC3    C6 5888   2.572   1.719  10.345 -0.7095 -0.5060  0.3176
  394TMC3     C 5889   2.586   1.605  10.742 -0.4106  0.0712  0.2125
  394TMC3     O 5890   2.533   1.496  10.762 -0.2216  0.0871 -0.1337
  394TMC3     H 5891   2.439   1.501  10.565 -1.8742  0.6919 -1.9497
  394TMC3    H1 5892   2.712   1.811  10.635  2.1087 -2.0278  0.9427
  394TMC3    H2 5893   2.553   1.759  10.246 -0.5932 -0.7231  0.2075
  394TMC3    C7 5894   2.704   1.911  10.403  0.2362 -0.1181  0.0437
  394TMC3    C8 5895   2.425   1.532  10.301 -0.1862 -0.6772 -0.3737
  394TMC3    O1 5896   2.629   1.967  10.323  0.1041  0.1129  0.3018
  394TMC3    O2 5897   2.415   1.420  10.343  0.0749  0.2424  0.1088
  395TMC3    C1 5898   1.441   3.951  14.599 -0.0752 -0.1042  0.3667
  395TMC3    C2 5899   1.394   3.824  14.623  0.1581  0.1724 -0.4306
  395TMC3    C3 5900   1.322   3.803  14.737 -0.8051 -0.3419 -0.0001
  395TMC3    C4 5901   1.398   4.055  14.677 -0.2584 -0.8202 -0.1386
  395TMC3    C5 5902   1.316   4.031  14.785  0.7177  0.2182  0.1012
  395TMC3    C6 5903   1.280   3.904  14.818 -0.7646  0.0395  0.2034
  395TMC3     C 5904   1.552   3.981  14.506 -0.1401 -0.8819 -0.3661
  395TMC3     O 5905   1.559   4.089  14.448  0.0973  0.5746 -0.0743
  395TMC3     H 5906   1.437   3.742  14.568 -1.9907 -1.9730  1.1025
  395TMC3    H1 5907   1.433   4.157  14.666 -0.1590 -0.9178 -0.7301
  395TMC3    H2 5908   1.225   3.885  14.910 -1.0976 -4.2614 -0.8938
  395TMC3    C7 5909   1.336   4.120  14.900 -0.0949 -0.6669 -0.6195
  395TMC3    C8 5910   1.338   3.674  14.795  0.1978 -0.6623  0.6996
  395TMC3    O1 5911   1.351   4.067  15.010 -0.1209  0.7611  0.0967
  395TMC3    O2 5912   1.301   3.664  14.914 -0.3621  0.1828  0.1859
  396MPD2     C 5913   1.794   0.431  17.565 -0.1197 -0.6649 -0.1644
  396MPD2    C1 5914   1.804   0.398  17.434  0.0173 -0.2935  0.0066
  396MPD2    C2 5915   1.867   0.478  17.344 -0.1612 -0.1638 -0.5777
  396MPD2    C3 5916   1.928   0.595  17.387 -0.0142 -0.0626 -0.0542
  396MPD2    C4 5917   1.909   0.634  17.517 -0.1436  0.3762 -0.0326
  396MPD2    C5 5918   1.839   0.554  17.609 -0.1082 -0.4120 -0.5803
  396MPD2     H 5919   1.897   0.451  17.243 -0.0012  0.0288 -0.5820
  396MPD2    H1 5920   1.950   0.722  17.565 -0.9596 -0.9868  3.1894
  396MPD2    H2 5921   1.744   0.366  17.636  0.7233 -1.3681 -0.2007
  396MPD2    H3 5922   1.822   0.583   0.005 -0.4900 -0.4254 -0.6380
  396MPD2     N 5923   2.003   0.671  17.292 -0.3798 -0.3665  0.0074
  396MPD2    H5 5924   1.982   0.654  17.195  1.9930  0.5568 -0.6759
  396MPD2    N1 5925   1.756   0.269  17.391 -0.0633  0.4526  0.5078
  396MPD2    H7 5926   1.705   0.210  17.456  0.4107 -0.3747  0.1374
  397TMC3    C1 5927   1.729   0.082  17.244  0.1879 -0.0436 -0.1886
  397TMC3    C2 5928   1.765   0.039  17.122 -0.0414  0.2839 -0.0589
  397TMC3    C3 5929   1.749   4.636  17.099 -0.1927  0.4810 -0.4704
  397TMC3    C4 5930   1.722   0.001  17.354  0.5935 -0.0828  0.0251
  397TMC3    C5 5931   1.710   4.592  17.322 -0.0018  0.5638 -0.4763
  397TMC3    C6 5932   1.711   4.543  17.195  0.5403  0.2979 -0.2799
  397TMC3     C 5933   1.754   0.222  17.260 -0.2458 -0.0620  0.5386
  397TMC3     O 5934   1.772   0.279  17.153  0.1850 -0.7802  0.1000
  397TMC3     H 5935   1.761   0.103  17.035  1.2626 -0.0423 -0.3505
  397TMC3    H1 5936   1.708   0.048  17.450 -1.3478  0.6191 -0.6108
  397TMC3    H2 5937   1.703   4.437  17.175  0.7524  0.6881 -2.4544
  397TMC3    C7 5938   1.695   4.481  17.421 -0.7287  0.4150 -0.0801
  397TMC3    C8 5939   1.751   4.606  16.960 -0.5554  0.1653  0.0832
  397TMC3    O1 5940   1.659   4.371  17.380  0.0425  0.8875  0.2467
  397TMC3    O2 5941   1.778   4.689  16.877  0.1802  0.8485 -0.2161
  398MPD2     C 5942   4.418   1.210  17.627 -0.7571 -0.6000 -0.4776
  398MPD2    C1 5943   4.497   1.164   0.021 -1.3437 -0.8470  0.4387
  398MPD2    C2 5944   4.628   1.208   0.024  0.2326 -0.4303 -0.2096
  398MPD2    C3 5945   4.679   1.287  17.632 -0.9875  0.5179 -0.3715
  398MPD2    C4 5946   4.593   1.328  17.531 -0.1604  0.2013  0.4454
  398MPD2    C5 5947   4.462   1.295  17.535 -0.2477 -0.5139  0.0746
  398MPD2     H 5948   4.683   1.184   0.115  0.6451 -1.4935 -0.7306
  398MPD2    H1 5949   4.631   1.382  17.444  1.7748  0.7345  1.6279
  398MPD2    H2 5950   4.316   1.176  17.618 -1.1730  0.0994  1.8059
  398MPD2    H3 5951   4.398   1.326  17.452  0.4935 -0.6814 -0.5636
  398MPD2     N 5952   0.085   1.313  17.642  0.2371  0.3729  0.2934
  398MPD2    H5 5953   0.133   1.253   0.002  1.1301  2.2986  1.3885
  398MPD2    N1 5954   4.453   1.085   0.126 -0.6077 -0.8254 -0.5553
  398MPD2    H7 5955   4.522   1.049   0.191 -1.3591 -1.5292 -0.1453
  399TMC3    C1 5956   4.320   0.946   0.243  0.3919 -0.3589  0.1028
  399TMC3    C2 5957   4.429   0.936   0.328  0.5563  0.6081  0.1855
  399TMC3    C3 5958   4.452   0.815   0.386  0.1774 -0.2177 -0.0618
  399TMC3    C4 5959   4.231   0.848   0.225 -0.4301 -0.5845  0.1767
  399TMC3    C5 5960   4.245   0.738   0.302 -0.1225 -0.2381 -0.8916
  399TMC3    C6 5961   4.360   0.712   0.371  0.0583 -0.3772 -1.0452
  399TMC3     C 5962   4.325   1.038   0.138  0.4657  0.0684  0.4584
  399TMC3     O 5963   4.228   1.051   0.065 -0.0628  0.2613 -0.2235
  399TMC3     H 5964   4.493   1.016   0.363  0.9931  0.3981 -0.1396
  399TMC3    H1 5965   4.151   0.870   0.155  0.9762  0.0594 -1.2319
  399TMC3    H2 5966   4.370   0.615   0.418  3.0448  0.3391 -0.2036
  399TMC3    C7 5967   4.150   0.624   0.293 -0.0038  0.1929 -0.2138
  399TMC3    C8 5968   4.581   0.791   0.438 -0.6292 -0.4394 -0.5033
  399TMC3    O1 5969   4.168   0.523   0.365 -0.3783  0.5865 -0.1132
  399TMC3    O2 5970   4.647   0.890   0.473 -0.1743 -0.6146  0.1847
  400TMC3    C1 5971   3.029   4.094  17.015  0.0434  1.3064 -0.4558
  400TMC3    C2 5972   2.916   4.113  16.940  1.5646 -0.4378 -0.1803
  400TMC3    C3 5973   2.908   4.235  16.884  0.3548  0.0408 -0.8644
  400TMC3    C4 5974   3.119   4.195  17.040 -0.2306  0.2073  0.2547
  400TMC3    C5 5975   3.100   4.313  16.982  0.3552  0.1510 -0.1098
  400TMC3    C6 5976   2.996   4.341  16.900 -0.5638 -0.2445 -0.0630
  400TMC3     C 5977   3.029   3.971  17.098 -0.2207 -1.0479  0.5211
  400TMC3     O 5978   2.954   3.888  17.053 -0.4541 -0.1440 -0.2128
  400TMC3     H 5979   2.846   4.030  16.941  0.1244  0.7843 -1.2733
  400TMC3    H1 5980   3.202   4.183  17.109  1.0722  2.4770 -0.8776
  400TMC3    H2 5981   3.001   4.419  16.826  0.1661 -0.0932  0.1487
  400TMC3    C7 5982   3.177   4.424  17.035 -0.3215 -0.0304  0.6045
  400TMC3    C8 5983   2.816   4.244  16.775 -0.4603  0.4414  0.2552
  400TMC3    O1 5984   3.284   4.405  17.100 -0.1297  0.2552  0.0391
  400TMC3    O2 5985   2.804   4.360  16.741 -0.2053 -0.0956 -0.7326
  401MPD2     C 5986   0.943   3.293   0.884 -0.6457  0.6361  0.6765
  401MPD2    C1 5987   1.048   3.204   0.921  0.7373 -0.2397  0.7627
  401MPD2    C2 5988   1.036   3.071   0.892  0.3601  0.5621  0.3217
  401MPD2    C3 5989   0.938   3.019   0.806  0.2847  1.0370 -0.0562
  401MPD2    C4 5990   0.845   3.109   0.762 -0.3417  0.0153  0.1306
  401MPD2    C5 5991   0.848   3.241   0.798  0.0920 -0.3877  0.5674
  401MPD2     H 5992   1.110   3.002   0.930  0.7214  1.3184  0.9982
  401MPD2    H1 5993   0.763   3.091   0.693  0.4898 -1.8733 -0.3839
  401MPD2    H2 5994   0.941   3.396   0.917  0.7285  0.8351  0.1382
  401MPD2    H3 5995   0.767   3.309   0.775 -1.3610 -1.3013  2.9241
  401MPD2     N 5996   0.942   2.880   0.776  0.4615  0.2418 -0.8710
  401MPD2    H5 5997   1.010   2.816   0.816  1.7179  1.5882 -0.8284
  401MPD2    N1 5998   1.159   3.236   0.992 -0.4473  0.4659  0.7001
  401MPD2    H7 5999   1.219   3.157   1.013 -0.4564  0.8267  2.0893
  402TMC3    C1 6000   0.901   2.702   0.645  0.3220 -0.1633  0.0291
  402TMC3    C2 6001   0.930   2.621   0.749 -0.4993  0.3959  0.1283
  402TMC3    C3 6002   1.011   2.513   0.725  0.2233 -0.8453 -0.0969
  402TMC3    C4 6003   0.940   2.675   0.516  0.4770  0.4582 -0.0671
  402TMC3    C5 6004   1.042   2.578   0.503 -0.3690  0.4949 -0.1473
  402TMC3    C6 6005   1.075   2.494   0.606 -0.4573  0.3078 -0.4754
  402TMC3     C 6006   0.861   2.833   0.675 -0.6577 -0.2395 -0.0177
  402TMC3     O 6007   0.780   2.888   0.597  0.3908  0.4775 -0.5642
  402TMC3     H 6008   0.890   2.655   0.844 -1.5911  1.6847 -0.8019
  402TMC3    H1 6009   0.921   2.749   0.440 -0.1556 -0.5498 -0.8955
  402TMC3    H2 6010   1.131   2.404   0.583 -1.1370 -0.1926 -0.1782
  402TMC3    C7 6011   1.140   2.617   0.408  0.9346  0.5814  0.1070
  402TMC3    C8 6012   1.044   2.431   0.840  0.0845 -0.0005 -0.0394
  402TMC3    O1 6013   1.100   2.663   0.302 -0.1829  0.3296 -0.1709
  402TMC3    O2 6014   1.146   2.363   0.844 -0.3186 -0.1911  0.1236
  403MPD2     C 6015   4.578   1.671  13.382 -0.0298  0.4046  0.5780
  403MPD2    C1 6016   4.547   1.560  13.454 -0.0555  0.3091  0.3375
  403MPD2    C2 6017   4.592   1.544  13.584 -0.5690 -0.4830 -0.3727
  403MPD2    C3 6018   4.673   1.635  13.641  0.3526  0.0977 -0.2554
  403MPD2    C4 6019   4.704   1.749  13.568 -0.0912 -0.7330  0.2842
  403MPD2    C5 6020   4.654   1.763  13.441  0.5930  0.2257 -0.5815
  403MPD2     H 6021   4.589   1.445  13.627 -0.0992 -0.3670 -0.0744
  403MPD2    H1 6022   0.062   1.813  13.592 -0.6988  0.2396 -0.2141
  403MPD2    H2 6023   4.543   1.683  13.280 -0.2428 -1.3458  0.4401
  403MPD2    H3 6024   4.674   1.854  13.386  1.5629  0.3615  0.0057
  403MPD2     N 6025   4.722   1.602  13.769 -0.4521  0.0897  0.4995
  403MPD2    H5 6026   4.677   1.521  13.811 -1.1220  0.8128  1.1779
  403MPD2    N1 6027   4.463   1.454  13.401  0.3310 -0.2583  0.1833
  403MPD2    H7 6028   4.435   1.465  13.303  0.2269 -0.3846  0.1993
  404TMC3    C1 6029   4.302   1.288  13.381  0.0141 -0.5757 -0.5371
  404TMC3    C2 6030   4.241   1.177  13.440  0.1646 -0.0384  0.6774
  404TMC3    C3 6031   4.159   1.099  13.363 -0.4890  0.1997  0.2472
  404TMC3    C4 6032   4.280   1.318  13.246  0.3824 -0.3387 -0.0624
  404TMC3    C5 6033   4.192   1.240  13.177 -0.0144 -0.5287  0.0998
  404TMC3    C6 6034   4.136   1.128  13.231  0.1632 -0.4346 -0.0686
  404TMC3     C 6035   4.401   1.354  13.466 -0.0564 -0.8489 -0.8983
  404TMC3     O 6036   4.407   1.333  13.581  0.2278 -0.2567  0.0041
  404TMC3     H 6037   4.247   1.162  13.547 -2.0831  1.9302  1.0872
  404TMC3    H1 6038   4.317   1.404  13.191  1.2389  0.0240  1.0712
  404TMC3    H2 6039   4.060   1.069  13.181 -2.1815  2.5621 -0.1112
  404TMC3    C7 6040   4.155   1.279  13.041  0.4270  0.1357  0.3891
  404TMC3    C8 6041   4.141   0.961  13.395  0.1547 -0.1007 -0.0412
  404TMC3    O1 6042   4.181   1.397  13.010  0.1800 -0.0825  0.0513
  404TMC3    O2 6043   4.127   0.877  13.308  0.7449 -0.1118  0.0330
  405MPD2     C 6044   4.724   1.858  15.021 -0.5371  0.6198 -0.0510
  405MPD2    C1 6045   0.017   1.749  14.948  0.1466  1.1337  0.8629
  405MPD2    C2 6046   4.723   1.765  14.815 -0.3610 -0.2164 -0.5719
  405MPD2    C3 6047   4.690   1.887  14.754  0.3936  0.1296  0.4199
  405MPD2    C4 6048   4.660   1.995  14.836  0.5693  0.4865  0.0846
  405MPD2    C5 6049   4.683   1.980  14.969 -0.1219 -0.0477 -0.6837
  405MPD2     H 6050   0.020   1.681  14.750 -2.3710 -0.8131 -0.5200
  405MPD2    H1 6051   4.614   2.087  14.799 -0.2389  1.6668  4.0355
  405MPD2    H2 6052   0.020   1.857  15.127  0.2093  1.1104 -0.2001
  405MPD2    H3 6053   4.665   2.068  15.030  0.0781 -2.8377  3.3878
  405MPD2     N 6054   4.667   1.882  14.616 -0.1684  0.5741 -0.3861
  405MPD2    H5 6055   4.706   1.797  14.575  0.9942  1.4844 -1.1405
  405MPD2    N1 6056   0.054   1.624  15.007 -0.2207 -0.1493 -0.1964
  405MPD2    H7 6057   0.064   1.629  15.108 -0.8580 -2.8883  0.0198
  406TMC3    C1 6058   4.544   1.911  14.181 -0.3661 -0.0627 -0.1790
  406TMC3    C2 6059   4.511   1.786  14.181 -0.4840 -0.6263  0.2858
  406TMC3    C3 6060   4.503   1.720  14.301 -0.1491 -0.7507 -0.0808
  406TMC3    C4 6061   4.573   1.981  14.295 -0.3199  0.3524  0.1476
  406TMC3    C5 6062   4.573   1.912  14.413 -0.6588  0.0561 -0.4053
  406TMC3    C6 6063   4.544   1.782  14.416  0.1234 -0.8093 -0.2934
  406TMC3     C 6064   4.499   1.983  14.059  0.6170 -0.2037  0.1314
  406TMC3     O 6065   4.511   1.922  13.954 -0.2537 -0.2428  0.4481
  406TMC3     H 6066   4.467   1.740  14.093  2.6512 -1.4393 -0.8261
  406TMC3    H1 6067   4.589   2.088  14.296  0.0621  0.2865  1.3435
  406TMC3    H2 6068   4.512   1.741  14.511 -2.0016 -0.8263 -1.0203
  406TMC3    C7 6069   4.601   1.970  14.536 -0.4453 -0.0358 -0.6142
  406TMC3    C8 6070   4.471   1.577  14.300 -0.1696 -0.4886 -0.2155
  406TMC3    O1 6071   4.572   2.084  14.567 -0.2548 -0.2671  0.3382
  406TMC3    O2 6072   4.393   1.534  14.217 -0.3680  0.0021  0.4267
  407MPD2     C 6073   2.117   3.347   9.990 -0.6300 -0.1581  0.4506
  407MPD2    C1 6074   2.241   3.291  10.015  0.1394 -0.1849  0.3564
  407MPD2    C2 6075   2.331   3.352  10.097  0.5640  0.1110  0.1989
  407MPD2    C3 6076   2.288   3.481  10.155  0.1119 -0.2560  0.8200
  407MPD2    C4 6077   2.175   3.542  10.104  0.2146 -0.3656  0.4394
  407MPD2    C5 6078   2.091   3.473  10.021  0.4056  0.7121  0.5490
  407MPD2     H 6079   2.426   3.302  10.110 -0.2927 -1.7877 -0.8907
  407MPD2    H1 6080   2.150   3.640  10.142 -3.2309 -0.2961 -1.9608
  407MPD2    H2 6081   2.048   3.280   9.940 -1.1507  1.4191 -0.9361
  407MPD2    H3 6082   1.993   3.515  10.002  0.1750 -1.1313 -2.2636
  407MPD2     N 6083   2.371   3.549  10.246 -0.3181  0.0640  0.1549
  407MPD2    H5 6084   2.350   3.645  10.271  1.3201  0.1542  1.1611
  407MPD2    N1 6085   2.282   3.163   9.964  0.3382  0.2756 -0.2355
  407MPD2    H7 6086   2.377   3.132   9.978  0.0567 -0.1910  0.6219
  408TMC3    C1 6087   2.273   2.962   9.831  0.0053 -1.3000 -0.6643
  408TMC3    C2 6088   2.373   2.989   9.745  0.1586 -1.0218  0.3598
  408TMC3    C3 6089   2.440   2.884   9.690 -0.0332  0.3187  0.1344
  408TMC3    C4 6090   2.229   2.833   9.851 -0.6122  0.0982 -0.0007
  408TMC3    C5 6091   2.302   2.729   9.801  0.0083 -0.1382 -1.2829
  408TMC3    C6 6092   2.404   2.754   9.710  0.2083  0.0879  0.4851
  408TMC3     C 6093   2.200   3.073   9.890  0.2179 -0.0826 -0.1462
  408TMC3     O 6094   2.082   3.078   9.862  0.5846 -0.0305 -0.1924
  408TMC3     H 6095   2.389   3.095   9.730 -2.9896 -0.7889 -1.4618
  408TMC3    H1 6096   2.134   2.819   9.900  0.0789 -1.0043  1.0209
  408TMC3    H2 6097   2.457   2.667   9.674  0.0155  0.7355 -1.3647
  408TMC3    C7 6098   2.250   2.601   9.833  0.7140 -1.1263  0.2927
  408TMC3    C8 6099   2.584   2.914   9.674  0.3343 -0.2573 -0.8468
  408TMC3    O1 6100   2.135   2.597   9.864 -0.0550 -0.0234 -0.2753
  408TMC3    O2 6101   2.659   2.817   9.677  0.1263 -0.1876 -0.1006
  409MPD2     C 6102   1.776   3.830  16.648 -0.4618 -0.6561  0.0164
  409MPD2    C1 6103   1.836   3.877  16.767  0.3735  0.1835 -0.5593
  409MPD2    C2 6104   1.888   4.002  16.768  0.1435  0.3685 -0.3908
  409MPD2    C3 6105   1.881   4.080  16.653  0.3108  0.0259 -0.1720
  409MPD2    C4 6106   1.833   4.027  16.541  0.2374 -0.0799 -1.1803
  409MPD2    C5 6107   1.774   3.907  16.535  0.0132  0.0114  0.1680
  409MPD2     H 6108   1.946   4.030  16.855  1.2068  3.1432 -1.9748
  409MPD2    H1 6109   1.832   4.092  16.454  1.1717  1.9082  0.2976
  409MPD2    H2 6110   1.730   3.732  16.644  0.1386 -0.9864  1.5312
  409MPD2    H3 6111   1.730   3.871  16.443 -0.0576  0.8294 -0.1243
  409MPD2     N 6112   1.939   4.215  16.639 -0.6575  0.0967  0.2977
  409MPD2    H5 6113   1.911   4.265  16.556  0.1971 -2.8788 -1.7843
  409MPD2    N1 6114   1.854   3.793  16.886  0.1829 -0.1114  0.5963
  409MPD2    H7 6115   1.895   3.839  16.966 -1.0659  0.7416  0.7302
  410TMC3    C1 6116   2.067   4.409  16.699 -0.1402 -0.6886 -0.0966
  410TMC3    C2 6117   2.151   4.459  16.796  0.7655 -0.6784  0.2819
  410TMC3    C3 6118   2.253   4.530  16.745  0.6513 -0.2153 -0.0573
  410TMC3    C4 6119   2.084   4.435  16.566 -0.8713  0.9466  0.2911
  410TMC3    C5 6120   2.184   4.521  16.523 -0.4143  0.5539 -0.1480
  410TMC3    C6 6121   2.286   4.553  16.614 -0.5682 -0.0218 -0.5820
  410TMC3     C 6122   2.014   4.277  16.735 -0.7787  0.2527 -0.5188
  410TMC3     O 6123   2.032   4.243  16.856 -0.7009  0.1830 -0.6230
  410TMC3     H 6124   2.143   4.451  16.904 -0.1091  2.0314  0.4088
  410TMC3    H1 6125   2.017   4.400  16.489 -0.3204 -0.7992  0.6023
  410TMC3    H2 6126   2.367   4.621  16.590 -1.7113  1.1573 -1.0804
  410TMC3    C7 6127   2.171   4.582  16.394  0.4258  0.4509  0.1305
  410TMC3    C8 6128   2.371   4.505  16.824  1.1549  0.4981  0.2018
  410TMC3    O1 6129   2.107   4.518  16.305 -0.3147 -0.4573  0.3583
  410TMC3    O2 6130   2.472   4.573  16.801  0.4492 -0.1153  0.1751
  411MPD2     C 6131   2.397   0.136  14.789  0.0840 -0.1992  0.4074
  411MPD2    C1 6132   2.266   0.184  14.786 -0.2560  1.0903 -0.5805
  411MPD2    C2 6133   2.162   0.098  14.799 -0.8466 -0.3575  0.1604
  411MPD2    C3 6134   2.186   4.686  14.812 -0.4830  0.2008  0.0343
  411MPD2    C4 6135   2.315   4.636  14.819  0.8099  0.8041  0.2379
  411MPD2    C5 6136   2.421   0.006  14.805  0.2428 -0.6075  0.0062
  411MPD2     H 6137   2.061   0.137  14.803 -1.6213 -2.3837  0.2879
  411MPD2    H1 6138   2.335   4.531  14.836 -0.2208  0.3772 -1.1812
  411MPD2    H2 6139   2.482   0.200  14.769  0.6322 -0.4100  2.0717
  411MPD2    H3 6140   2.524   4.704  14.782  0.5039  0.4598 -0.1283
  411MPD2     N 6141   2.081   4.589  14.804  0.7697 -0.0602  0.3341
  411MPD2    H5 6142   2.108   4.491  14.798  0.9626 -0.0448  0.9978
  411MPD2    N1 6143   2.234   0.318  14.761  0.1331  0.3638 -0.1120
  411MPD2    H7 6144   2.134   0.326  14.744  0.3710 -0.5097 -1.9510
  412TMC3    C1 6145   1.881   4.482  14.769 -0.0257  0.2685 -0.6863
  412TMC3    C2 6146   1.793   4.490  14.668  0.6032 -0.1500  0.5414
  412TMC3    C3 6147   1.769   4.385  14.581  0.3239  0.5854  0.4965
  412TMC3    C4 6148   1.950   4.363  14.779 -0.0658 -0.8115  0.3676
  412TMC3    C5 6149   1.933   4.263  14.683  0.4714  0.3470  0.3420
  412TMC3    C6 6150   1.834   4.265  14.591 -0.8223  0.0912 -0.3987
  412TMC3     C 6151   1.949   4.606  14.794 -0.3959 -0.0864 -0.4728
  412TMC3     O 6152   1.890   4.715  14.793  0.0731 -0.5397 -0.1830
  412TMC3     H 6153   1.744   4.586  14.659 -0.7571 -0.7174  1.9366
  412TMC3    H1 6154   2.043   4.353  14.834 -1.1752 -1.0388  2.1972
  412TMC3    H2 6155   1.839   4.187  14.515  0.8376  0.0018 -0.1965
  412TMC3    C7 6156   2.055   4.257  14.613  0.5877  0.1674 -0.0077
  412TMC3    C8 6157   1.721   4.423  14.456  0.1189 -0.1161 -0.1316
  412TMC3    O1 6158   2.119   4.361  14.603  0.5984 -0.2343 -0.7527
  412TMC3    O2 6159   1.696   4.540  14.431 -0.5663 -0.0336 -0.3909
  413MPD2     C 6160   4.387   3.179  15.122 -0.0920  0.0976  0.5455
  413MPD2    C1 6161   4.281   3.094  15.078  0.4994 -1.0881 -0.0809
  413MPD2    C2 6162   4.311   2.962  15.059 -0.8456  0.1028 -0.1883
  413MPD2    C3 6163   4.437   2.913  15.085 -0.2982 -0.6134 -0.2580
  413MPD2    C4 6164   4.532   2.997  15.115 -0.2882 -0.2200 -0.2215
  413MPD2    C5 6165   4.509   3.128  15.132  0.0697 -0.5828 -0.1088
  413MPD2     H 6166   4.237   2.898  15.011  0.2022 -0.0304 -1.6354
  413MPD2    H1 6167   4.637   2.973  15.125  0.2660  1.5190 -1.8908
  413MPD2    H2 6168   4.368   3.283  15.145 -1.6402 -0.4588  1.7505
  413MPD2    H3 6169   4.592   3.192  15.154  0.2203  0.5737 -3.9704
  413MPD2     N 6170   4.470   2.778  15.056 -0.3359  0.4295  0.4165
  413MPD2    H5 6171   4.401   2.714  15.018  1.9677  0.0390 -3.1037
  413MPD2    N1 6172   4.152   3.154  15.067 -0.0483 -0.1811  0.1788
  413MPD2    H7 6173   4.148   3.255  15.073 -0.1711 -0.2244  0.7919
  414TMC3    C1 6174   4.606   2.589  15.057  0.3112 -0.2315  0.2955
  414TMC3    C2 6175   4.696   2.514  15.130 -0.0132 -0.4594  0.4005
  414TMC3    C3 6176   0.028   2.409  15.076  0.4468 -0.1606  0.0585
  414TMC3    C4 6177   4.568   2.553  14.934  0.2618 -0.1661 -0.3192
  414TMC3    C5 6178   4.624   2.444  14.878  0.5254  0.1453 -0.4806
  414TMC3    C6 6179   4.720   2.367  14.950  0.2247 -0.7200  0.7385
  414TMC3     C 6180   4.584   2.719  15.108  0.1902 -0.0747  0.4673
  414TMC3     O 6181   4.673   2.759  15.187  0.8240 -0.1294 -0.0397
  414TMC3     H 6182   4.726   2.541  15.231 -0.4277  0.4392  0.2883
  414TMC3    H1 6183   4.506   2.620  14.876 -3.0120 -0.4805  2.7630
  414TMC3    H2 6184   0.037   2.273  14.916  0.2432 -0.1857 -0.6923
  414TMC3    C7 6185   4.563   2.390  14.760  0.3607 -0.2023  0.5269
  414TMC3    C8 6186   0.063   2.308  15.177  0.0229 -0.4034 -0.5900
  414TMC3    O1 6187   4.441   2.380  14.763 -0.5554  0.3605 -0.2976
  414TMC3    O2 6188   0.015   2.328  15.289  0.0159 -0.0606 -0.2163
  415TMC3    C1 6189   0.006   0.966   9.273 -0.1379  0.0849 -0.9029
  415TMC3    C2 6190   0.099   0.926   9.184  0.0248 -0.0476  0.1410
  415TMC3    C3 6191   0.073   0.918   9.049 -0.1315 -0.2046 -0.0850
  415TMC3    C4 6192   4.611   1.003   9.231  0.2289 -0.0429 -0.2503
  415TMC3    C5 6193   4.581   0.996   9.092  0.9919  0.2489 -0.0029
  415TMC3    C6 6194   4.675   0.959   8.994 -0.0690  0.0332 -0.3796
  415TMC3     C 6195   0.028   0.958   9.416 -0.2269  1.0150 -0.1730
  415TMC3     O 6196   4.663   0.913   9.480  0.0422  0.4874  0.4172
  415TMC3     H 6197   0.201   0.907   9.216  0.8327  0.7351 -1.9494
  415TMC3    H1 6198   4.539   1.035   9.306  1.1336 -0.7574  0.9325
  415TMC3    H2 6199   4.664   0.958   8.887 -1.6223  1.4282 -0.2303
  415TMC3    C7 6200   4.440   0.985   9.065  0.4981  0.2891  0.1679
  415TMC3    C8 6201   0.140   0.810   8.972  0.4958  0.1943 -0.5299
  415TMC3    O1 6202   4.394   1.022   8.959  0.2563  0.1011 -0.3803
  415TMC3    O2 6203   0.067   0.737   8.904 -0.5925 -0.8180  0.0967
  416MPD2     C 6204   1.735   4.478  11.593 -0.1916 -0.1694  0.2578
  416MPD2    C1 6205   1.601   4.499  11.569 -0.1992 -0.1646 -0.8198
  416MPD2    C2 6206   1.534   4.417  11.483  0.2005  1.3663  0.0149
  416MPD2    C3 6207   1.605   4.314  11.430 -0.8552  0.1160 -0.2427
  416MPD2    C4 6208   1.727   4.278  11.478  0.5867  0.5524  0.6235
  416MPD2    C5 6209   1.801   4.369  11.546  0.1131 -0.2072  0.7636
  416MPD2     H 6210   1.432   4.441  11.455 -1.1330 -1.6668  2.2104
  416MPD2    H1 6211   1.768   4.196  11.421 -0.9613  1.3334 -1.6051
  416MPD2    H2 6212   1.787   4.555  11.650  0.3994  0.0488 -0.5857
  416MPD2    H3 6213   1.908   4.358  11.562  0.3460  1.2629  0.2334
  416MPD2     N 6214   1.539   4.220  11.344  1.0557 -0.4318  0.7685
  416MPD2    H5 6215   1.586   4.131  11.328  0.6562 -0.5706  0.3918
  416MPD2    N1 6216   1.534   4.613  11.626  0.2770 -0.3705 -0.2682
  416MPD2    H7 6217   1.587   4.662  11.696  2.5055 -1.7789 -0.9696
  417TMC3    C1 6218   1.367   0.032  11.707  0.6722  0.2095  0.5454
  417TMC3    C2 6219   1.408   0.016  11.838  0.5244 -0.7213 -0.1818
  417TMC3    C3 6220   1.329   0.074  11.935 -0.3115 -0.2929  0.3626
  417TMC3    C4 6221   1.252   0.107  11.672 -0.1282 -0.2904  0.2145
  417TMC3    C5 6222   1.188   0.172  11.778 -0.2942  0.8929 -0.2197
  417TMC3    C6 6223   1.226   0.155  11.905 -0.2411  0.6433  0.0392
  417TMC3     C 6224   1.405   4.660  11.603 -0.2706  0.1515 -0.2451
  417TMC3     O 6225   1.322   4.633  11.517 -0.4889 -0.4977  0.3353
  417TMC3     H 6226   1.488   4.673  11.862  2.0336  1.5126  1.2615
  417TMC3    H1 6227   1.223   0.107  11.568 -1.2362 -0.2038  0.5239
  417TMC3    H2 6228   1.175   0.203  11.988 -1.0489 -0.3580  0.1274
  417TMC3    C7 6229   1.076   0.253  11.739  0.0222  0.2337 -0.2869
  417TMC3    C8 6230   1.354   0.051  12.077  0.2243 -0.0550 -0.0241
  417TMC3    O1 6231   1.056   0.277  11.621 -0.1032  0.2963 -0.4404
  417TMC3    O2 6232   1.265   0.098  12.150 -0.5590 -0.0177  0.6507
  418TMC3    C1 6233   0.486   1.278  17.520 -0.5518 -0.7786 -0.1718
  418TMC3    C2 6234   0.379   1.361  17.493  0.1390 -0.0819  0.1028
  418TMC3    C3 6235   0.290   1.396  17.596  0.4740  0.4347 -0.1028
  418TMC3    C4 6236   0.516   1.240  17.645  0.1519  0.6760 -0.2500
  418TMC3    C5 6237   0.442   1.294   0.041  0.8334  0.7923 -0.1011
  418TMC3    C6 6238   0.321   1.368   0.022  0.4560 -0.3426 -0.7582
  418TMC3     C 6239   0.557   1.214  17.414 -0.1346 -0.2519  0.4927
  418TMC3     O 6240   0.574   1.289  17.326 -0.1577 -0.2032 -0.2921
  418TMC3     H 6241   0.357   1.383  17.389 -2.3694  2.2244  1.1184
  418TMC3    H1 6242   0.613   1.199  17.670 -0.8168 -0.2699  1.8803
  418TMC3    H2 6243   0.256   1.391   0.106 -0.8477 -0.2402 -1.7954
  418TMC3    C7 6244   0.479   1.253   0.176 -0.1049  0.3021 -0.1006
  418TMC3    C8 6245   0.156   1.398  17.562  0.0343  0.1558 -0.8118
  418TMC3    O1 6246   0.532   1.145   0.199  0.0475 -0.3292 -0.3186
  418TMC3    O2 6247   0.126   1.474  17.467 -0.0574  0.4605 -0.1586
  419MPD2     C 6248   4.101   4.618  12.703  0.8430  0.0133  0.3874
  419MPD2    C1 6249   3.993   4.689  12.669 -0.2041  0.2246 -1.0859
  419MPD2    C2 6250   3.927   0.045  12.762 -0.2673  0.5091  0.0116
  419MPD2    C3 6251   3.978   0.060  12.891  0.1337 -0.4578  0.1847
  419MPD2    C4 6252   4.091   4.714  12.919  0.8663  0.1405 -0.5465
  419MPD2    C5 6253   4.148   4.626  12.824 -0.2706 -0.2589 -0.2275
  419MPD2     H 6254   3.834   0.096  12.741  0.0486  1.2820  0.4883
  419MPD2    H1 6255   4.131   4.720  13.020 -0.6644  0.7802  0.0302
  419MPD2    H2 6256   4.164   4.570  12.630 -1.1702 -0.8173 -0.7980
  419MPD2    H3 6257   4.246   4.581  12.834 -0.2243 -0.2279 -0.5276
  419MPD2     N 6258   3.909   0.143  12.987  0.0970  0.0483 -0.0397
  419MPD2    H5 6259   3.827   0.190  12.952 -0.3181 -0.0959  0.7548
  419MPD2    N1 6260   3.948   4.687  12.533  0.2851  0.8263  0.0764
  419MPD2    H7 6261   3.872   0.023  12.504  1.2007  1.1113 -1.7438
  420TMC3    C1 6262   3.864   0.253  13.196 -0.4719 -0.0851 -0.0075
  420TMC3    C2 6263   3.777   0.341  13.133 -1.1526 -0.1975  0.1420
  420TMC3    C3 6264   3.673   0.376  13.209 -0.4091 -0.2068  0.3113
  420TMC3    C4 6265   3.860   0.227  13.329  0.5628  0.4748  0.4007
  420TMC3    C5 6266   3.755   0.265  13.398 -0.1030 -0.1387 -0.3794
  420TMC3    C6 6267   3.661   0.341  13.342  0.0506 -0.1782 -0.6769
  420TMC3     C 6268   3.938   0.150  13.123 -0.3164 -0.6452 -0.8987
  420TMC3     O 6269   4.005   0.070  13.190  0.1842  0.2849 -0.4764
  420TMC3     H 6270   3.792   0.378  13.032 -2.0941  1.1869  0.5061
  420TMC3    H1 6271   3.925   0.152  13.373 -0.4893 -0.3044  0.6051
  420TMC3    H2 6272   3.570   0.363  13.397 -0.2264 -0.9005 -0.8493
  420TMC3    C7 6273   3.738   0.220  13.534 -0.0172  0.5112 -0.7619
  420TMC3    C8 6274   3.557   0.418  13.134 -0.5402  1.6166  0.6268
  420TMC3    O1 6275   3.832   0.160  13.579  0.7962  0.0453 -0.2137
  420TMC3    O2 6276   3.586   0.474  13.031 -0.2971  0.0730 -0.0792
  421TMC3    C1 6277   0.091   1.615  13.988 -0.5030 -0.0966 -0.0671
  421TMC3    C2 6278   0.118   1.702  14.093 -0.9215  0.4214 -0.1699
  421TMC3    C3 6279   0.126   1.643  14.215 -0.3162 -0.6069 -0.5426
  421TMC3    C4 6280   0.089   1.477  13.995  0.1069  0.1330  0.3895
  421TMC3    C5 6281   0.105   1.430  14.124  0.2628 -0.0001 -0.1604
  421TMC3    C6 6282   0.113   1.510  14.232  0.1561 -0.1065 -0.0509
  421TMC3     C 6283   0.064   1.683  13.856 -0.3290  0.8236 -0.1583
  421TMC3     O 6284   0.098   1.800  13.849  0.1836 -0.3060  0.3661
  421TMC3     H 6285   0.149   1.803  14.067  1.2344 -0.3349 -0.5418
  421TMC3    H1 6286   0.083   1.410  13.910 -0.5450  0.9949 -0.2508
  421TMC3    H2 6287   0.142   1.458  14.322  1.2732 -1.9675 -1.4712
  421TMC3    C7 6288   0.172   1.305  14.125 -0.7287 -0.2605 -0.0946
  421TMC3    C8 6289   0.157   1.719  14.331 -0.3253  0.0699 -0.1723
  421TMC3    O1 6290   0.290   1.319  14.092  0.3533 -0.2115  0.5534
  421TMC3    O2 6291   0.110   1.691  14.442  0.1179 -0.0984  0.5130
  422TMC3    C1 6292   2.653   3.257  12.620 -0.4207  0.3490  0.3164
  422TMC3    C2 6293   2.643   3.316  12.739 -0.0158  0.5980  0.0010
  422TMC3    C3 6294   2.559   3.244  12.822 -0.0868  0.2597 -0.2519
  422TMC3    C4 6295   2.579   3.150  12.580  0.2771 -0.6427 -0.3612
  422TMC3    C5 6296   2.494   3.092  12.665 -0.7639  0.7598 -0.5362
  422TMC3    C6 6297   2.477   3.139  12.792 -0.6736 -0.3877  0.2959
  422TMC3     C 6298   2.749   3.309  12.522 -1.1004 -0.0611 -0.2290
  422TMC3     O 6299   2.775   3.242  12.425  0.4033 -0.1794 -0.1360
  422TMC3     H 6300   2.717   3.384  12.778 -0.3527  0.8654  0.1781
  422TMC3    H1 6301   2.581   3.114  12.478  1.1325 -0.5495 -0.3769
  422TMC3    H2 6302   2.420   3.085  12.866 -0.7405 -1.6363 -0.6631
  422TMC3    C7 6303   2.461   2.955  12.628  1.0596 -0.1134  0.2999
  422TMC3    C8 6304   2.589   3.273  12.963  0.0263 -0.5803 -0.7335
  422TMC3    O1 6305   2.542   2.900  12.552  0.2571  0.2355 -0.1442
  422TMC3    O2 6306   2.622   3.387  12.986  0.6975  0.0163 -0.2944
  423MPD2     C 6307   3.862   3.526   0.533 -0.4314 -0.6316  0.3225
  423MPD2    C1 6308   3.882   3.404   0.475  0.5667 -0.1228  0.0594
  423MPD2    C2 6309   3.817   3.363   0.359  0.3596  0.4618  0.1194
  423MPD2    C3 6310   3.758   3.458   0.284 -0.6200 -0.8000  0.3616
  423MPD2    C4 6311   3.736   3.583   0.342 -0.5681  0.2132  0.8122
  423MPD2    C5 6312   3.786   3.614   0.458  0.4278  0.2630 -0.0855
  423MPD2     H 6313   3.835   3.265   0.317  3.0633  0.7831  0.5132
  423MPD2    H1 6314   3.674   3.660   0.297 -1.2500 -0.6356  0.2998
  423MPD2    H2 6315   3.900   3.554   0.630 -0.0781  1.5726 -0.4501
  423MPD2    H3 6316   3.760   3.711   0.499 -0.4019  0.9513 -2.2346
  423MPD2     N 6317   3.703   3.436   0.158  0.5642 -0.2752 -0.0500
  423MPD2    H5 6318   3.668   3.521   0.114  1.4823  0.5417  0.8070
  423MPD2    N1 6319   3.950   3.306   0.550  0.0651 -0.0942 -0.2196
  423MPD2    H7 6320   3.944   3.207   0.531 -1.9176 -0.0758  0.4006
  424TMC3    C1 6321   4.055   3.216   0.725  0.4557 -0.7414  0.1382
  424TMC3    C2 6322   4.193   3.193   0.755 -0.0707  0.6351 -0.9167
  424TMC3    C3 6323   4.212   3.090   0.849  0.1369 -0.4299  0.5205
  424TMC3    C4 6324   3.949   3.138   0.766 -0.3410 -0.2666 -0.2662
  424TMC3    C5 6325   3.984   3.037   0.850  0.3321 -0.2239  0.1671
  424TMC3    C6 6326   4.112   3.010   0.893  0.3314 -0.0962  0.1575
  424TMC3     C 6327   4.023   3.339   0.663  0.2100 -0.4129  0.2810
  424TMC3     O 6328   4.066   3.438   0.719 -0.5826  0.0728  0.3147
  424TMC3     H 6329   4.273   3.254   0.716  0.6130  1.0969  1.1615
  424TMC3    H1 6330   3.846   3.172   0.759 -0.5732 -1.0421 -0.5618
  424TMC3    H2 6331   4.143   2.922   0.948  1.2726 -1.0177 -1.8081
  424TMC3    C7 6332   3.879   2.945   0.894  0.4671  0.4602 -0.2090
  424TMC3    C8 6333   4.347   3.035   0.874 -0.0748  0.1613  0.1449
  424TMC3    O1 6334   3.770   2.954   0.835 -0.1082 -0.1621  0.2750
  424TMC3    O2 6335   4.364   2.940   0.947 -0.6938 -0.3460 -0.5606
  425MPD2     C 6336   3.062   3.130  17.630 -0.2257  0.6917  0.4451
  425MPD2    C1 6337   3.008   3.010  17.588  0.3154 -0.1420 -0.1557
  425MPD2    C2 6338   2.874   2.991  17.587 -0.3775  0.1494  0.3034
  425MPD2    C3 6339   2.786   3.072  17.655  1.3043 -0.0527  0.2576
  425MPD2    C4 6340   2.839   3.184   0.012 -0.1228  0.7538 -0.8664
  425MPD2    C5 6341   2.976   3.211  17.702  0.3317  0.0016  0.2668
  425MPD2     H 6342   2.828   2.900  17.550  0.0615 -0.5006  1.3716
  425MPD2    H1 6343   2.780   3.266   0.049  1.4322  0.7120  1.6443
  425MPD2    H2 6344   3.168   3.153  17.621 -0.3609  2.3354  2.9010
  425MPD2    H3 6345   3.012   3.304   0.038 -0.2113  0.4241 -0.1937
  425MPD2     N 6346   2.653   3.034  17.661  0.0732 -0.0818  0.2232
  425MPD2    H5 6347   2.628   2.957  17.600 -1.2651  1.7537 -1.5468
  425MPD2    N1 6348   3.097   2.924  17.518  0.0403 -0.3095  0.6873
  425MPD2    H7 6349   3.194   2.953  17.531  0.3211 -0.1205 -1.7718
  426TMC3    C1 6350   3.185   2.749  17.410 -0.2380 -0.6946 -0.3865
  426TMC3    C2 6351   3.178   2.681  17.291  0.2830  0.2788  0.4649
  426TMC3    C3 6352   3.230   2.554  17.276  0.0999  0.4633 -0.4588
  426TMC3    C4 6353   3.242   2.688  17.519  0.0495  0.0340 -0.4135
  426TMC3    C5 6354   3.296   2.565  17.499 -0.6170  0.0256  0.1951
  426TMC3    C6 6355   3.302   2.499  17.377  0.0203 -0.0462 -0.1071
  426TMC3     C 6356   3.063   2.821  17.436  0.6178  0.0305 -0.1614
  426TMC3     O 6357   2.953   2.780  17.406 -0.5259 -0.7170  0.1477
  426TMC3     H 6358   3.128   2.739  17.214 -3.6170 -1.2183  1.9210
  426TMC3    H1 6359   3.252   2.742  17.612 -0.3235  1.7048 -1.3470
  426TMC3    H2 6360   3.340   2.398  17.378 -1.0779 -0.4780 -3.1389
  426TMC3    C7 6361   3.302   2.477  17.612  0.2242  0.0973  0.2814
  426TMC3    C8 6362   3.167   2.473  17.170 -0.7441  0.3077 -0.2420
  426TMC3    O1 6363   3.368   2.372  17.596  0.0315  0.1362  0.0606
  426TMC3    O2 6364   3.230   2.378  17.118 -0.0831  0.1702  0.1412
  427MPD2     C 6365   1.218   0.106  14.910  0.7685  0.0630  0.2230
  427MPD2    C1 6366   1.195   0.119  15.042  0.0755 -0.2441 -0.3298
  427MPD2    C2 6367   1.076   0.150  15.086  0.0018 -0.0780  0.0849
  427MPD2    C3 6368   0.962   0.153  15.005 -0.4816  0.0788  0.0533
  427MPD2    C4 6369   0.982   0.141  14.872  0.3093 -0.7995  0.2107
  427MPD2    C5 6370   1.109   0.121  14.822 -0.1486  0.6344 -0.8382
  427MPD2     H 6371   1.073   0.166  15.193 -1.3723 -1.3995  0.2428
  427MPD2    H1 6372   0.897   0.144  14.804 -0.5942  0.6154  1.4039
  427MPD2    H2 6373   1.315   0.099  14.860  1.1715 -0.5942  1.1101
  427MPD2    H3 6374   1.132   0.130  14.717  0.4439 -0.1353 -0.7721
  427MPD2     N 6375   0.828   0.187  15.055 -0.6237  0.3742  0.2676
  427MPD2    H5 6376   0.756   0.164  14.987  0.1494  0.1476 -0.4766
  427MPD2    N1 6377   1.303   0.111  15.138  0.6170  0.0508  0.0017
  427MPD2    H7 6378   1.274   0.099  15.234 -0.7378  1.7089 -0.1971
  428TMC3    C1 6379   1.511   0.056  15.215  0.2748  0.9994 -0.2788
  428TMC3    C2 6380   1.460   4.679  15.287  0.4270  0.0158 -0.1495
  428TMC3    C3 6381   1.540   4.621  15.381  0.1840 -0.1718  0.3906
  428TMC3    C4 6382   1.640   0.093  15.209 -0.7479  0.7483  0.1109
  428TMC3    C5 6383   1.720   0.024  15.291  0.0752  0.9738  0.2263
  428TMC3    C6 6384   1.674   4.651  15.378 -0.1730  0.4583 -0.2634
  428TMC3     C 6385   1.434   0.116  15.106  0.2841 -0.5832 -0.5405
  428TMC3     O 6386   1.484   0.165  15.007 -0.1384  0.6031  0.1804
  428TMC3     H 6387   1.370   4.631  15.249  0.2672 -0.4843  0.8724
  428TMC3    H1 6388   1.673   0.176  15.147  1.0483  1.0853  1.5323
  428TMC3    H2 6389   1.733   4.592  15.447 -1.3168  0.6675  0.8851
  428TMC3    C7 6390   1.860   0.056  15.306 -0.6030 -0.3907  0.0413
  428TMC3    C8 6391   1.511   4.493  15.438  0.1472  0.6074  0.3487
  428TMC3    O1 6392   1.900   0.024  15.419  0.1862 -0.1785  0.6160
  428TMC3    O2 6393   1.604   4.426  15.478 -0.2973 -0.0362 -0.3887
  429MPD2     C 6394   2.101   0.138  17.354 -0.0987  0.1434 -0.5565
  429MPD2    C1 6395   2.199   0.112  17.443 -0.1977 -1.0142 -0.3881
  429MPD2    C2 6396   2.318   0.191  17.429  0.3114  0.4947  0.9131
  429MPD2    C3 6397   2.328   0.303  17.338 -0.0902 -0.3994  0.4984
  429MPD2    C4 6398   2.215   0.326  17.255  0.3399 -0.8837 -0.0389
  429MPD2    C5 6399   2.109   0.239  17.264  1.0070 -0.6794 -0.1355
  429MPD2     H 6400   2.403   0.163  17.489 -0.7347 -2.3277  1.0872
  429MPD2    H1 6401   2.207   0.410  17.188  0.8613 -1.7173 -1.1506
  429MPD2    H2 6402   2.014   0.073  17.353  0.2576 -0.3303 -0.3355
  429MPD2    H3 6403   2.022   0.258  17.201  0.8936  0.4494  0.3625
  429MPD2     N 6404   2.441   0.384  17.343 -0.5185 -0.0391 -0.3278
  429MPD2    H5 6405   2.514   0.359  17.409  0.8153  0.7268 -1.5349
  429MPD2    N1 6406   2.191   0.015  17.544 -0.0998 -0.5632  0.2941
  429MPD2    H7 6407   2.270   0.008  17.607  0.4770  0.1224 -0.3464
  430TMC3    C1 6408   2.608   0.494  17.236 -0.0164 -0.5931 -0.1307
  430TMC3    C2 6409   2.660   0.609  17.185  0.3821 -1.5768  0.2789
  430TMC3    C3 6410   2.778   0.617  17.125 -0.4329  0.5417  0.2496
  430TMC3    C4 6411   2.669   0.376  17.200  0.2344  0.1265 -0.3304
  430TMC3    C5 6412   2.795   0.383  17.151 -0.3263 -0.4534  0.6667
  430TMC3    C6 6413   2.851   0.502  17.110  0.3509  0.3153  1.0011
  430TMC3     C 6414   2.466   0.481  17.251  0.5209 -0.6301  0.0396
  430TMC3     O 6415   2.393   0.560  17.196 -0.0697 -0.4968  0.7757
  430TMC3     H 6416   2.609   0.705  17.193  1.6917 -0.5873 -3.1651
  430TMC3    H1 6417   2.626   0.278  17.218 -0.0353  0.4127  0.5721
  430TMC3    H2 6418   2.946   0.493  17.059 -0.5563 -1.6578 -0.3382
  430TMC3    C7 6419   2.871   0.262  17.140 -0.0213 -0.3854 -0.3096
  430TMC3    C8 6420   2.771   0.689  17.002 -0.6976 -0.1421  0.1306
  430TMC3    O1 6421   2.812   0.154  17.157 -0.8744 -0.0750  0.1812
  430TMC3    O2 6422   2.791   0.617  16.905 -0.5693  0.0243 -0.0596
  431MPD2     C 6423   3.410   0.277  12.710  0.3457 -0.2143  0.0798
  431MPD2    C1 6424   3.464   0.313  12.585 -0.3411  0.3903  0.0843
  431MPD2    C2 6425   3.499   0.216  12.496 -0.0222 -0.0689 -0.0563
  431MPD2    C3 6426   3.472   0.081  12.523 -0.2446 -0.8393  0.1219
  431MPD2    C4 6427   3.415   0.054  12.645 -0.2643 -0.3271  0.2850
  431MPD2    C5 6428   3.392   0.148  12.740 -0.1193 -0.6774 -0.1226
  431MPD2     H 6429   3.555   0.248  12.409  0.6390 -1.6946 -0.2186
  431MPD2    H1 6430   3.393   4.676  12.668 -1.7997  0.1262  0.9032
  431MPD2    H2 6431   3.371   0.355  12.774  1.7927  2.6045 -2.5061
  431MPD2    H3 6432   3.339   0.116  12.829 -1.4270 -1.6400 -1.2461
  431MPD2     N 6433   3.520   4.707  12.441  0.0506  0.1371  0.6133
  431MPD2    H5 6434   3.527   4.611  12.474  1.5605 -0.5999 -1.8090
  431MPD2    N1 6435   3.493   0.441  12.549  0.6110 -0.1214 -0.0210
  431MPD2    H7 6436   3.536   0.439  12.457 -0.1117  0.5319 -0.3733
  432TMC3    C1 6437   3.665   4.641  12.267 -0.7149 -0.4201  0.3109
  432TMC3    C2 6438   3.699   4.685  12.143 -0.1903  0.5325 -0.2635
  432TMC3    C3 6439   3.833   4.697  12.107 -0.4938  0.0330  0.0842
  432TMC3    C4 6440   3.759   4.608  12.359 -0.0256 -0.8942  0.2020
  432TMC3    C5 6441   3.887   4.621  12.321 -0.3150  0.2010  0.3813
  432TMC3    C6 6442   3.925   4.666  12.197 -0.6588 -0.2556 -0.2519
  432TMC3     C 6443   3.553   0.002  12.313  0.2327  0.2935 -0.5566
  432TMC3     O 6444   3.518   0.097  12.246  0.6187 -0.7869 -0.2185
  432TMC3     H 6445   3.617   4.690  12.073 -0.8888 -2.8117  0.3095
  432TMC3    H1 6446   3.744   4.571  12.460 -2.9855 -1.6950 -0.5052
  432TMC3    H2 6447   4.030   4.682  12.179 -0.0651 -1.3736  2.2371
  432TMC3    C7 6448   3.988   4.610  12.427  0.5799  0.1396  0.0284
  432TMC3    C8 6449   3.861   0.075  12.007  0.1144  0.5949  0.9138
  432TMC3    O1 6450   4.077   4.526  12.409 -0.1395  0.5282  0.1840
  432TMC3    O2 6451   3.770   0.110  11.939  0.4883 -0.0327  0.7054
  433MPD2     C 6452   2.490   3.787  10.828 -0.4498 -0.5427  0.8424
  433MPD2    C1 6453   2.505   3.678  10.913 -0.0977 -0.6457  0.0760
  433MPD2    C2 6454   2.502   3.707  11.050  0.2013 -0.6519  0.0427
  433MPD2    C3 6455   2.476   3.831  11.105 -0.4449 -0.4349 -0.5636
  433MPD2    C4 6456   2.439   3.934  11.012  0.1609  0.2458 -0.3974
  433MPD2    C5 6457   2.453   3.910  10.877 -0.3916  0.5749 -0.7290
  433MPD2     H 6458   2.530   3.629  11.121  1.0057  0.2053  0.6609
  433MPD2    H1 6459   2.411   4.027  11.059 -0.5499 -1.9233  3.4357
  433MPD2    H2 6460   2.512   3.781  10.722  2.1448  0.0092  1.3331
  433MPD2    H3 6461   2.427   3.987  10.806 -0.7874  1.1637  0.0454
  433MPD2     N 6462   2.470   3.846  11.249 -0.0564  0.7933  0.1981
  433MPD2    H5 6463   2.476   3.757  11.297 -0.2636 -0.2318 -1.6674
  433MPD2    N1 6464   2.553   3.548  10.876 -1.0570  0.4128  0.2431
  433MPD2    H7 6465   2.592   3.490  10.949  1.5672  2.1718  0.2352
  434TMC3    C1 6466   2.538   3.349  10.758  1.2074  0.0465 -0.3398
  434TMC3    C2 6467   2.639   3.288  10.832 -0.4193  0.6576 -0.4067
  434TMC3    C3 6468   2.624   3.159  10.883  0.0582 -0.3716 -0.3920
  434TMC3    C4 6469   2.420   3.273  10.734 -0.0809  0.7598 -0.0071
  434TMC3    C5 6470   2.404   3.158  10.802  0.3096 -0.3050  0.0022
  434TMC3    C6 6471   2.507   3.095  10.871  0.1182 -0.3352 -0.7738
  434TMC3     C 6472   2.526   3.493  10.751 -0.4043  0.3557 -0.8089
  434TMC3     O 6473   2.469   3.542  10.655 -0.2328 -0.6593 -0.1048
  434TMC3     H 6474   2.728   3.349  10.847 -1.1997  1.7311 -0.1731
  434TMC3    H1 6475   2.338   3.330  10.693 -0.9136  0.1934  0.8722
  434TMC3    H2 6476   2.487   3.009  10.934  2.3604  0.2953  0.8271
  434TMC3    C7 6477   2.298   3.076  10.747  0.0874  0.1884 -0.0133
  434TMC3    C8 6478   2.711   3.105  10.994  0.3773 -0.2750 -0.1093
  434TMC3    O1 6479   2.198   3.127  10.692 -0.4996 -0.0855 -0.0299
  434TMC3    O2 6480   2.662   3.015  11.058 -0.2122  0.2642 -0.2016
  435MPD2     C 6481   4.210   3.668  15.257  0.4028  0.1536  0.5248
  435MPD2    C1 6482   4.211   3.682  15.396  0.9460  0.0441  0.1078
  435MPD2    C2 6483   4.334   3.652  15.456  0.4200  0.1353  0.0101
  435MPD2    C3 6484   4.443   3.603  15.393  0.4633 -0.7799  0.2812
  435MPD2    C4 6485   4.429   3.572  15.260  0.1153  0.1798  0.2567
  435MPD2    C5 6486   4.318   3.612  15.193  0.4736  0.4440  0.0518
  435MPD2     H 6487   4.339   3.661  15.564 -1.7611  1.1360  0.0255
  435MPD2    H1 6488   4.511   3.539  15.197  0.2113 -0.0693  0.5115
  435MPD2    H2 6489   4.117   3.688  15.205  0.5943 -1.4743 -0.4356
  435MPD2    H3 6490   4.323   3.588  15.088 -2.0118 -0.9163  0.2519
  435MPD2     N 6491   4.546   3.560  15.479  0.4587  0.2407  0.0573
  435MPD2    H5 6492   4.536   3.590  15.575 -3.4572 -1.9404  0.3320
  435MPD2    N1 6493   4.103   3.713  15.477 -0.0751 -0.3704 -0.6192
  435MPD2    H7 6494   4.105   3.707  15.579  3.4342  0.9435 -0.6064
  436TMC3    C1 6495   3.826   3.829  15.759  0.4116  0.8943  0.3156
  436TMC3    C2 6496   3.926   3.793  15.679 -0.1405  0.5029 -0.7069
  436TMC3    C3 6497   3.886   3.733  15.559  0.2730  0.0860  0.4649
  436TMC3    C4 6498   3.689   3.794  15.741 -0.2489  0.1841  0.5446
  436TMC3    C5 6499   3.658   3.729  15.627 -0.3378 -0.1653 -0.0038
  436TMC3    C6 6500   3.760   3.694  15.538 -0.7672  0.6829 -0.0261
  436TMC3     C 6501   3.860   3.918  15.865 -0.0388  0.2567  0.7915
  436TMC3     O 6502   3.961   3.988  15.847 -0.1482 -0.0350 -0.0956
  436TMC3     H 6503   4.023   3.835  15.702 -0.6183 -0.0324  2.2516
  436TMC3    H1 6504   3.606   3.822  15.806 -0.9445 -0.3818 -0.0983
  436TMC3    H2 6505   3.731   3.645  15.445 -0.8597  2.2716 -0.8378
  436TMC3    C7 6506   3.515   3.693  15.600  0.0450 -0.0558 -0.2120
  436TMC3    C8 6507   3.974   3.714  15.442  0.7883  0.7066  0.3095
  436TMC3    O1 6508   3.435   3.759  15.663  0.2287 -0.0724  0.0623
  436TMC3    O2 6509   3.921   3.690  15.332  0.0274  0.5934  0.0315
  437TMC3    C1 6510   2.617   1.200  12.444 -0.3397 -1.2451  0.3658
  437TMC3    C2 6511   2.490   1.265  12.432  0.3949 -0.8719  0.0886
  437TMC3    C3 6512   2.496   1.390  12.376  0.1444 -0.6863 -0.1151
  437TMC3    C4 6513   2.729   1.248  12.390  0.1769 -0.7186 -0.1270
  437TMC3    C5 6514   2.724   1.366  12.317  0.3678 -0.2957  0.5123
  437TMC3    C6 6515   2.608   1.441  12.317 -0.7499  0.1910 -0.2572
  437TMC3     C 6516   2.629   1.078  12.530 -0.8430 -0.7944 -0.1698
  437TMC3     O 6517   2.522   1.023  12.556 -0.1832 -0.6307  0.2435
  437TMC3     H 6518   2.402   1.238  12.490  1.4440  1.2033  2.6149
  437TMC3    H1 6519   2.822   1.193  12.380  0.9402  0.5575 -0.0245
  437TMC3    H2 6520   2.610   1.534  12.260 -1.5593  0.6095  0.3976
  437TMC3    C7 6521   2.840   1.429  12.253  0.7629 -0.3777  0.5363
  437TMC3    C8 6522   2.365   1.448  12.352  1.0301 -0.2277 -0.1953
  437TMC3    O1 6523   2.810   1.510  12.168 -0.1916 -1.1382  0.3265
  437TMC3    O2 6524   2.280   1.378  12.298 -0.4115  0.6568  1.1412
  438MPD2     C 6525   0.655   1.579  16.449  0.0914 -0.1567  0.2240
  438MPD2    C1 6526   0.727   1.605  16.564 -0.4497 -0.5154 -0.2369
  438MPD2    C2 6527   0.667   1.677  16.658  0.0692 -0.6243 -0.4903
  438MPD2    C3 6528   0.539   1.717  16.657 -0.4724 -0.1428  0.3805
  438MPD2    C4 6529   0.468   1.698  16.543  0.2608  0.0694  0.4400
  438MPD2    C5 6530   0.527   1.622  16.444 -0.1281 -0.4116  0.4959
  438MPD2     H 6531   0.721   1.696  16.750 -0.7605  1.0525 -0.3636
  438MPD2    H1 6532   0.362   1.722  16.545  0.0372 -0.6710 -1.6960
  438MPD2    H2 6533   0.696   1.522  16.367 -1.4861 -2.7476  1.2512
  438MPD2    H3 6534   0.469   1.594  16.356  2.9484 -1.4536 -1.1962
  438MPD2     N 6535   0.469   1.759  16.774 -0.0504 -0.3084 -0.0340
  438MPD2    H5 6536   0.371   1.786  16.767  0.7002  2.1191 -1.2737
  438MPD2    N1 6537   0.852   1.539  16.585  0.1082 -0.6883 -0.0136
  438MPD2    H7 6538   0.891   1.546  16.679  0.7734 -0.1837 -0.3333
  439TMC3    C1 6539   1.034   1.400  16.562  0.0691  0.5994 -0.5254
  439TMC3    C2 6540   1.083   1.287  16.504 -0.0413  0.1660 -0.2462
  439TMC3    C3 6541   1.223   1.268  16.510 -0.0214  0.0706  0.9703
  439TMC3    C4 6542   1.114   1.480  16.635 -0.5973 -0.1898  0.0951
  439TMC3    C5 6543   1.244   1.444  16.658 -0.8645  0.1274 -0.0543
  439TMC3    C6 6544   1.307   1.337  16.591 -0.1008 -0.3154  0.0749
  439TMC3     C 6545   0.916   1.451  16.501  0.4859 -0.0910 -0.0162
  439TMC3     O 6546   0.890   1.414  16.389  0.0020  0.0621  0.4341
  439TMC3     H 6547   1.015   1.225  16.448 -0.6241  1.9334 -1.4794
  439TMC3    H1 6548   1.077   1.575  16.671  0.7572  0.8853 -1.3861
  439TMC3    H2 6549   1.411   1.310  16.604 -0.5584 -2.1236  0.0170
  439TMC3    C7 6550   1.285   1.456  16.794  0.0966  0.1728 -0.8837
  439TMC3    C8 6551   1.268   1.131  16.484 -0.8182  0.3540 -0.6300
  439TMC3    O1 6552   1.408   1.458  16.806 -0.2329  0.3834  0.0025
  439TMC3    O2 6553   1.383   1.099  16.508 -0.1657  0.0774 -0.2123
  440MPD2     C 6554   3.839   1.583  15.376 -0.6322  0.2164  1.2504
  440MPD2    C1 6555   3.908   1.683  15.313  0.4413  0.3085  0.1639
  440MPD2    C2 6556   4.023   1.726  15.378  0.0298  0.4529  0.6006
  440MPD2    C3 6557   4.077   1.663  15.490  0.6153  0.2444 -0.9908
  440MPD2    C4 6558   3.998   1.572  15.554 -0.3555 -0.0980  0.5066
  440MPD2    C5 6559   3.878   1.536  15.496 -0.1740 -0.0624  0.0806
  440MPD2     H 6560   4.087   1.801  15.333 -0.1935 -1.5441 -3.0675
  440MPD2    H1 6561   4.032   1.533  15.649 -2.8547 -1.0822  0.9828
  440MPD2    H2 6562   3.747   1.550  15.330 -0.2630  1.4796 -0.3842
  440MPD2    H3 6563   3.818   1.465  15.552 -0.5589 -0.7711 -1.2211
  440MPD2     N 6564   4.213   1.680  15.542 -0.0986 -0.4056  0.2743
  440MPD2    H5 6565   4.235   1.632  15.629 -1.3002 -1.3114  0.0871
  440MPD2    N1 6566   3.881   1.741  15.189 -0.3188  0.4344  0.4598
  440MPD2    H7 6567   3.951   1.806  15.156  1.0333 -0.1554  2.1826
  441TMC3    C1 6568   4.424   1.765  15.588 -0.3015  0.0388 -0.4751
  441TMC3    C2 6569   4.542   1.799  15.535  0.2464  0.4322  0.3223
  441TMC3    C3 6570   4.648   1.730  15.593  0.2497  0.0144 -0.0451
  441TMC3    C4 6571   4.406   1.694  15.702 -0.4244 -0.6135  0.1675
  441TMC3    C5 6572   4.516   1.647  15.760  0.3327  0.5601 -0.4728
  441TMC3    C6 6573   4.641   1.656  15.703 -0.1054  0.2697  0.4718
  441TMC3     C 6574   4.315   1.756  15.492  0.1288  0.3005 -0.0694
  441TMC3     O 6575   4.321   1.804  15.380 -0.2089 -0.2475 -0.1766
  441TMC3     H 6576   4.547   1.840  15.435  0.9135 -0.1512  0.1119
  441TMC3    H1 6577   4.311   1.696  15.753 -0.8259 -0.1687 -0.6042
  441TMC3    H2 6578   4.721   1.591  15.738 -0.2032  0.7470  1.6064
  441TMC3    C7 6579   4.486   1.539  15.854 -0.3970 -0.4856  0.1512
  441TMC3    C8 6580   0.049   1.763  15.540  0.5427  0.3725  0.1524
  441TMC3    O1 6581   4.375   1.494  15.838  0.5080  0.0948  0.2081
  441TMC3    O2 6582   0.143   1.691  15.546 -0.3973  0.3391  0.6229
  442MPD2     C 6583   2.172   2.677  16.187  0.0336  0.5418  0.6176
  442MPD2    C1 6584   2.103   2.609  16.289  0.8689 -0.2200  0.1036
  442MPD2    C2 6585   2.115   2.470  16.291  0.1610  0.7377  0.3997
  442MPD2    C3 6586   2.207   2.408  16.213  0.0171  0.2038  0.7331
  442MPD2    C4 6587   2.284   2.475  16.121  0.0428 -1.1683  0.6047
  442MPD2    C5 6588   2.263   2.611  16.112  0.2704 -0.2453  0.4706
  442MPD2     H 6589   2.056   2.402  16.353 -1.5155  1.3396 -0.5293
  442MPD2    H1 6590   2.350   2.420  16.055  0.6602  2.2098 -1.6104
  442MPD2    H2 6591   2.175   2.785  16.173  3.5285  0.4181  0.3073
  442MPD2    H3 6592   2.315   2.668  16.036  0.1793  0.0529  0.6342
  442MPD2     N 6593   2.242   2.270  16.226 -0.8448 -0.1562 -0.0748
  442MPD2    H5 6594   2.333   2.244  16.188 -1.4235 -2.1404 -0.1377
  442MPD2    N1 6595   2.030   2.678  16.399  0.2437 -0.2118 -0.0812
  442MPD2    H7 6596   1.983   2.625  16.472 -1.9672 -0.1966 -1.4962
  443TMC3    C1 6597   1.938   2.864  16.515 -0.3348  0.3994  0.2601
  443TMC3    C2 6598   1.834   2.943  16.469 -0.2764  0.0748  0.0748
  443TMC3    C3 6599   1.703   2.914  16.513 -0.2519 -0.5299 -0.0773
  443TMC3    C4 6600   1.911   2.780  16.621  0.1949 -1.1858 -0.9668
  443TMC3    C5 6601   1.785   2.777  16.683  0.1172 -0.1682 -0.0869
  443TMC3    C6 6602   1.675   2.841  16.621 -0.1105 -0.0034  0.9812
  443TMC3     C 6603   2.019   2.812  16.405  0.1826  0.7470 -0.1533
  443TMC3     O 6604   2.048   2.902  16.331 -0.3765 -0.7406  0.2105
  443TMC3     H 6605   1.849   3.014  16.388 -1.0566 -0.3391 -0.4342
  443TMC3    H1 6606   1.994   2.728  16.666 -0.3195  0.8523  2.3778
  443TMC3    H2 6607   1.575   2.807  16.646 -0.4354  0.3907  0.2332
  443TMC3    C7 6608   1.764   2.690  16.798 -0.0188 -0.1066 -0.1520
  443TMC3    C8 6609   1.623   2.860  16.403 -0.5087  0.3121  0.3997
  443TMC3    O1 6610   1.651   2.639  16.797 -0.0592  0.3159  0.5933
  443TMC3    O2 6611   1.566   2.755  16.427 -0.8759  0.0390 -0.0278
  444MPD2     C 6612   2.737   1.952  16.954  0.1016 -0.1536 -0.2160
  444MPD2    C1 6613   2.629   1.867  16.930  0.2316  0.3228  0.5511
  444MPD2    C2 6614   2.647   1.746  16.864  0.2106 -0.0861  0.5953
  444MPD2    C3 6615   2.776   1.709  16.814  0.3628  0.1484  0.0405
  444MPD2    C4 6616   2.877   1.792  16.846 -0.1558  1.0336 -0.5962
  444MPD2    C5 6617   2.861   1.904  16.918 -0.8900  0.2282 -0.5339
  444MPD2     H 6618   2.568   1.673  16.848 -0.3649  1.3130 -2.8464
  444MPD2    H1 6619   2.982   1.771  16.829 -0.6671 -0.0851 -2.4285
  444MPD2    H2 6620   2.735   2.048  17.005  0.2190  0.4261 -1.3070
  444MPD2    H3 6621   2.953   1.955  16.946 -1.4182  1.3757 -0.8949
  444MPD2     N 6622   2.792   1.581  16.758  0.0870 -0.0120  0.4743
  444MPD2    H5 6623   2.708   1.524  16.751 -0.4373  1.1043 -2.3568
  444MPD2    N1 6624   2.504   1.902  16.982 -0.1191  0.0278  0.4191
  444MPD2    H7 6625   2.430   1.833  16.981  0.2316 -0.3397 -0.3709
  445TMC3    C1 6626   2.885   1.388  16.664  0.9696  1.2216  0.3347
  445TMC3    C2 6627   2.780   1.380  16.574  0.0155  0.2422 -0.0486
  445TMC3    C3 6628   2.777   1.287  16.474 -0.1512 -0.2330 -0.4942
  445TMC3    C4 6629   2.992   1.305  16.653  0.4384  0.0032 -0.0347
  445TMC3    C5 6630   2.988   1.220  16.548  0.2255 -0.3162  0.4682
  445TMC3    C6 6631   2.890   1.214  16.456 -0.8980 -0.0169 -1.5148
  445TMC3     C 6632   2.909   1.509  16.735  0.0597 -0.7016 -0.4242
  445TMC3     O 6633   3.028   1.546  16.743 -0.1779 -0.4928  0.2134
  445TMC3     H 6634   2.698   1.448  16.592  0.0016  0.2143 -0.0052
  445TMC3    H1 6635   3.071   1.300  16.727  1.8858  1.5474 -1.4591
  445TMC3    H2 6636   2.905   1.141  16.378  0.8663 -1.0258 -0.2273
  445TMC3    C7 6637   3.101   1.127  16.539  0.3786 -0.5325 -0.3620
  445TMC3    C8 6638   2.700   1.331  16.356  0.2333 -0.4060 -0.1301
  445TMC3    O1 6639   3.167   1.107  16.639  0.2020  0.0609 -0.0464
  445TMC3    O2 6640   2.638   1.433  16.378  0.1739 -0.0949  0.0833
  446MPD2     C 6641   2.430   2.831  11.429  0.4597 -0.5763  0.5631
  446MPD2    C1 6642   2.420   2.907  11.312 -0.4077  0.1053 -0.6047
  446MPD2    C2 6643   2.473   3.034  11.307 -0.1654 -0.8182 -0.2892
  446MPD2    C3 6644   2.541   3.084  11.413 -0.0007 -0.0195 -0.3938
  446MPD2    C4 6645   2.535   3.012  11.536  0.3050 -0.3097 -0.1556
  446MPD2    C5 6646   2.489   2.884  11.539  0.5962  0.3335  0.5469
  446MPD2     H 6647   2.471   3.086  11.212  0.6197 -1.1028 -0.4646
  446MPD2    H1 6648   2.573   3.040  11.634  0.4158 -1.6361  0.1814
  446MPD2    H2 6649   2.401   2.727  11.437  1.2533 -0.7047  1.7210
  446MPD2    H3 6650   2.497   2.823  11.628  0.1220  0.6937  0.8393
  446MPD2     N 6651   2.605   3.206  11.396  0.4798  1.1378 -0.1577
  446MPD2    H5 6652   2.599   3.249  11.304 -1.7625  0.0716 -0.5145
  446MPD2    N1 6653   2.346   2.863  11.196 -0.0680  0.3762 -0.7542
  446MPD2    H7 6654   2.326   2.935  11.127  0.9233  0.5485 -0.8664
  447TMC3    C1 6655   2.756   3.388  11.435 -0.2769 -0.6120 -0.3527
  447TMC3    C2 6656   2.759   3.412  11.302 -0.6425  0.0933  0.2516
  447TMC3    C3 6657   2.860   3.493  11.260 -0.1583 -0.2985 -0.4559
  447TMC3    C4 6658   2.835   3.461  11.520  0.1962  0.2278 -0.3252
  447TMC3    C5 6659   2.909   3.565  11.477  0.3118  0.2116  0.5313
  447TMC3    C6 6660   2.934   3.575  11.344  0.0286  0.0013  0.6054
  447TMC3     C 6661   2.675   3.277  11.490  0.1585 -0.4881 -0.2228
  447TMC3     O 6662   2.687   3.252  11.606 -0.9965 -0.1421 -0.4712
  447TMC3     H 6663   2.694   3.370  11.226  2.0392 -1.9001 -0.9652
  447TMC3    H1 6664   2.820   3.457  11.628 -1.0786  0.8362 -0.4721
  447TMC3    H2 6665   3.007   3.647  11.310 -1.9920  1.3171 -0.9150
  447TMC3    C7 6666   3.018   3.614  11.562 -0.0517 -0.0556 -1.1274
  447TMC3    C8 6667   2.859   3.529  11.117  0.1510  0.3261  0.5150
  447TMC3    O1 6668   3.120   3.631  11.503  0.3535 -0.0277  0.4927
  447TMC3    O2 6669   2.764   3.489  11.052  0.0591  0.5654  0.1607
  448TMC3    C1 6670   1.489   2.967  16.939  0.5024  0.3035  0.0705
  448TMC3    C2 6671   1.371   2.923  16.877  0.6381  0.5622  0.5813
  448TMC3    C3 6672   1.328   2.795  16.923 -0.0249 -0.2643  0.3644
  448TMC3    C4 6673   1.556   2.892  17.041 -0.6775  0.5905 -1.0523
  448TMC3    C5 6674   1.512   2.773  17.076  0.9172 -0.0327 -0.3503
  448TMC3    C6 6675   1.393   2.723  17.019  0.7741 -0.0655  0.0955
  448TMC3     C 6676   1.519   3.109  16.924  0.2389 -0.2985 -0.0107
  448TMC3     O 6677   1.471   3.167  16.828 -0.5346  0.2118 -0.5314
  448TMC3     H 6678   1.300   2.983  16.822  1.2592  2.1859  1.5571
  448TMC3    H1 6679   1.648   2.929  17.084 -0.6907 -0.8078  0.1697
  448TMC3    H2 6680   1.360   2.624  17.050 -0.0338 -0.5011 -2.1743
  448TMC3    C7 6681   1.562   2.716  17.194 -0.0314 -0.1410  0.2186
  448TMC3    C8 6682   1.222   2.729  16.868  0.0521  0.2526 -0.4838
  448TMC3    O1 6683   1.676   2.728  17.239  0.1062 -0.3079 -0.1290
  448TMC3    O2 6684   1.193   2.619  16.911 -0.0646 -0.4282  0.2024
  449MPD2     C 6685   2.038   1.581  13.683  0.0959 -0.3204 -0.1594
  449MPD2    C1 6686   1.909   1.548  13.652 -0.3968 -0.3913  0.1918
  449MPD2    C2 6687   1.841   1.474  13.739 -0.3597 -0.3637  0.3886
  449MPD2    C3 6688   1.894   1.415  13.855  0.1800 -0.2695  0.1269
  449MPD2    C4 6689   2.022   1.450  13.885  0.3894 -0.1861  0.2172
  449MPD2    C5 6690   2.090   1.527  13.802  0.7288 -0.1556  0.4355
  449MPD2     H 6691   1.742   1.446  13.705  0.6000 -1.9581 -1.0874
  449MPD2    H1 6692   2.077   1.416  13.972 -1.3838 -1.0156  1.0042
  449MPD2    H2 6693   2.098   1.646  13.621 -1.6240  2.0033  0.5983
  449MPD2    H3 6694   2.197   1.540  13.811  1.0472 -1.5879 -1.2160
  449MPD2     N 6695   1.802   1.338  13.940  0.9481 -0.4652 -0.8103
  449MPD2    H5 6696   1.712   1.306  13.906  1.8831 -1.9372 -1.9583
  449MPD2    N1 6697   1.840   1.585  13.533  0.0017 -0.4676 -0.2725
  449MPD2    H7 6698   1.745   1.549  13.533 -0.7902  1.5871 -0.5011
  450TMC3    C1 6699   1.777   1.654  13.329  0.3393  0.6708  0.1301
  450TMC3    C2 6700   1.779   1.578  13.215  0.2914 -1.0057 -0.7941
  450TMC3    C3 6701   1.659   1.523  13.169  0.0927 -0.2899 -0.1616
  450TMC3    C4 6702   1.661   1.671  13.402 -0.3129 -0.2285  0.3794
  450TMC3    C5 6703   1.545   1.612  13.355  0.0151  0.2603  0.1155
  450TMC3    C6 6704   1.540   1.530  13.241  0.3572  0.0488 -0.0088
  450TMC3     C 6705   1.887   1.636  13.415 -0.0282 -0.7968 -0.2172
  450TMC3     O 6706   2.000   1.655  13.373  0.3236 -0.2859 -0.3268
  450TMC3     H 6707   1.877   1.557  13.173  1.7458  4.0130  0.0485
  450TMC3    H1 6708   1.657   1.741  13.485 -2.1239 -0.6673  0.6660
  450TMC3    H2 6709   1.449   1.482  13.207  1.2540 -1.0174 -0.9055
  450TMC3    C7 6710   1.481   1.548  13.472  0.0095 -0.3615  0.0805
  450TMC3    C8 6711   1.671   1.428  13.059 -0.0496 -0.2456  0.1021
  450TMC3    O1 6712   1.558   1.547  13.565  0.2600  0.1068  1.0557
  450TMC3    O2 6713   1.572   1.372  13.020 -0.1663 -0.0363  0.3905
  451MPD2     C 6714   3.151   4.635   1.944 -0.3630  0.0734  0.1730
  451MPD2    C1 6715   3.172   0.001   1.841 -0.6292  0.0177 -0.1431
  451MPD2    C2 6716   3.301   4.719   1.777  0.1045  0.1861  0.2604
  451MPD2    C3 6717   3.396   4.624   1.814 -0.0222 -0.0044  0.1058
  451MPD2    C4 6718   3.370   4.546   1.923 -0.8128 -0.3575 -0.9235
  451MPD2    C5 6719   3.252   4.551   1.987  0.0328  0.5396  0.5631
  451MPD2     H 6720   3.321   0.061   1.695 -0.9173 -0.3305 -0.4172
  451MPD2    H1 6721   3.446   4.479   1.959 -0.3825  0.6418  0.0199
  451MPD2    H2 6722   3.058   4.621   1.998 -0.8908  0.6099 -0.6005
  451MPD2    H3 6723   3.240   4.484   2.071 -2.8902  1.3964  0.8379
  451MPD2     N 6724   3.502   4.572   1.740 -0.4894  0.6787 -0.1999
  451MPD2    H5 6725   3.560   4.496   1.774  1.0507  2.0826  0.3263
  451MPD2    N1 6726   3.073   0.096   1.790 -0.1583  0.0061  0.0709
  451MPD2    H7 6727   3.120   0.163   1.730 -0.1007 -0.1194 -0.0255
  452TMC3    C1 6728   3.657   4.577   1.563 -0.0104 -0.2142  0.2148
  452TMC3    C2 6729   3.730   4.490   1.635 -0.6816  0.1041  0.3550
  452TMC3    C3 6730   3.796   4.392   1.570  0.7689 -0.8267  0.0660
  452TMC3    C4 6731   3.656   4.583   1.427  0.1009 -0.1038  0.8355
  452TMC3    C5 6732   3.726   4.478   1.364  0.9883  0.0801  0.4554
  452TMC3    C6 6733   3.796   4.381   1.436 -0.4226 -0.0942 -0.1584
  452TMC3     C 6734   3.543   4.633   1.622 -0.7316 -0.4586  0.3222
  452TMC3     O 6735   3.486   4.722   1.561 -0.2818 -0.2174 -0.0439
  452TMC3     H 6736   3.726   4.496   1.744 -1.7421 -1.6789  0.4228
  452TMC3    H1 6737   3.577   4.625   1.367 -0.0065 -2.2952 -0.5702
  452TMC3    H2 6738   3.865   4.316   1.383 -0.5785  0.1460 -0.6450
  452TMC3    C7 6739   3.732   4.479   1.218 -0.0515  0.7482 -0.1073
  452TMC3    C8 6740   3.873   4.288   1.629  0.0720  0.1382  0.0183
  452TMC3    O1 6741   3.707   4.584   1.163 -0.1684  0.1578  0.3642
  452TMC3    O2 6742   3.901   4.189   1.559 -0.1167  0.5445 -0.9685
  453TMC3    C1 6743   4.717   2.200  11.656  0.5450  0.5761  0.7685
  453TMC3    C2 6744   4.615   2.133  11.719 -0.1597  0.2389 -0.1434
  453TMC3    C3 6745   4.505   2.100  11.647 -0.1989  0.6664 -0.1614
  453TMC3    C4 6746   4.714   2.209  11.521  0.8471 -0.3784 -0.4288
  453TMC3    C5 6747   4.604   2.168  11.444 -0.4800 -0.1774 -0.2598
  453TMC3    C6 6748   4.499   2.103  11.510  0.2849  0.0629  0.7993
  453TMC3     C 6749   0.088   2.274  11.729 -0.0338 -0.4233 -0.6033
  453TMC3     O 6750   0.171   2.329  11.654  0.2345  0.4454 -0.4309
  453TMC3     H 6751   4.613   2.126  11.827  1.2947 -0.6927 -0.1752
  453TMC3    H1 6752   0.076   2.252  11.475 -1.3754  2.0581 -2.4628
  453TMC3    H2 6753   4.411   2.082  11.450  0.8715 -2.9931  0.9981
  453TMC3    C7 6754   4.609   2.179  11.299 -0.0328  0.4318 -0.0721
  453TMC3    C8 6755   4.395   2.040  11.715  0.1288  0.1573  0.7957
  453TMC3    O1 6756   4.513   2.127  11.243  0.0375  0.0136 -0.1403
  453TMC3    O2 6757   4.291   2.050  11.651  0.4492 -0.0120  0.5810
  454MPD2     C 6758   3.442   1.495  16.228  0.3935 -0.1761  0.6625
  454MPD2    C1 6759   3.411   1.600  16.152  1.1526  0.0522 -0.4488
  454MPD2    C2 6760   3.376   1.721  16.217 -0.6435  0.1871 -0.3424
  454MPD2    C3 6761   3.346   1.727  16.351  0.2259 -0.2469 -0.0217
  454MPD2    C4 6762   3.375   1.616  16.423  0.3579 -0.6111 -0.1347
  454MPD2    C5 6763   3.429   1.502  16.367 -0.1858 -0.5912  0.1505
  454MPD2     H 6764   3.366   1.811  16.157  0.6698  0.7205  0.2448
  454MPD2    H1 6765   3.360   1.627  16.530 -1.6186 -0.3924 -0.4408
  454MPD2    H2 6766   3.477   1.403  16.183 -0.6849 -1.8503  3.2155
  454MPD2    H3 6767   3.454   1.415  16.426  2.6705  1.1366  1.4898
  454MPD2     N 6768   3.288   1.835  16.421 -0.3229  0.7332 -0.0406
  454MPD2    H5 6769   3.258   1.822  16.517  0.7665 -0.3126  0.1486
  454MPD2    N1 6770   3.416   1.600  16.010 -0.0079  0.1656  0.4322
  454MPD2    H7 6771   3.413   1.686  15.956 -0.5830 -0.3287 -0.3256
  455TMC3    C1 6772   3.137   2.010  16.424 -0.2795 -0.2994  0.2788
  455TMC3    C2 6773   3.135   2.052  16.553 -0.5197  0.6677  0.6041
  455TMC3    C3 6774   3.017   2.077  16.617  0.7843  0.3208 -0.4550
  455TMC3    C4 6775   3.018   1.978  16.363 -0.3521  0.4749 -0.0935
  455TMC3    C5 6776   2.903   1.977  16.443 -0.0441 -0.4394  1.3114
  455TMC3    C6 6777   2.898   2.045  16.563 -1.0713  0.1099 -0.1415
  455TMC3     C 6778   3.256   1.953  16.366 -0.2726 -0.8829 -0.0199
  455TMC3     O 6779   3.277   1.996  16.257 -0.4388 -0.0130  0.1550
  455TMC3     H 6780   3.226   2.098  16.590 -0.5396  0.4964  0.8648
  455TMC3    H1 6781   3.018   1.926  16.267 -0.5911  1.1294 -0.4471
  455TMC3    H2 6782   2.809   2.049  16.624  0.0205 -1.6287  1.5494
  455TMC3    C7 6783   2.773   1.911  16.410  0.1416  0.2711  0.6567
  455TMC3    C8 6784   3.024   2.157  16.740  0.2676  0.0252 -0.0321
  455TMC3    O1 6785   2.671   1.975  16.438  0.3859 -0.0238 -0.4717
  455TMC3    O2 6786   3.133   2.168  16.789 -0.4707 -0.2364  0.2485
  456MPD2     C 6787   0.797   1.697  16.131 -0.0584  0.3469 -0.2710
  456MPD2    C1 6788   0.907   1.690  16.208  0.4049  0.0957 -0.4418
  456MPD2    C2 6789   0.919   1.761  16.323  0.2721  0.0069  0.6190
  456MPD2    C3 6790   0.821   1.848  16.359  0.2003 -0.6079 -0.4471
  456MPD2    C4 6791   0.712   1.862  16.275 -0.0779 -0.8150 -0.7381
  456MPD2    C5 6792   0.699   1.791  16.158  0.9880  0.7441  0.1204
  456MPD2     H 6793   1.010   1.749  16.381  0.3595  0.1346  0.5105
  456MPD2    H1 6794   0.618   1.908  16.303  1.6615  1.1056  1.8047
  456MPD2    H2 6795   0.795   1.646  16.035  0.5787 -1.0840  0.4776
  456MPD2    H3 6796   0.605   1.792  16.104  0.2601  0.2598  1.3721
  456MPD2     N 6797   0.830   1.925  16.479  0.6486 -0.1057  0.4432
  456MPD2    H5 6798   0.900   1.884  16.540  0.2233 -2.5909 -0.7255
  456MPD2    N1 6799   1.001   1.595  16.167  0.1288  0.0254  0.3091
  456MPD2    H7 6800   0.970   1.528  16.098 -0.9775  1.0807 -0.2286
  457TMC3    C1 6801   0.777   2.070  16.658  0.1680 -0.0239 -0.3847
  457TMC3    C2 6802   0.743   2.200  16.662 -0.1327 -0.0575  0.0134
  457TMC3    C3 6803   0.736   2.260  16.783 -0.0012  0.0757 -0.5403
  457TMC3    C4 6804   0.817   2.000  16.765  0.1854  0.2663 -0.4891
  457TMC3    C5 6805   0.806   2.058  16.885  0.4948  0.0997  0.3477
  457TMC3    C6 6806   0.755   2.187  16.893  0.2707  0.3467  0.0776
  457TMC3     C 6807   0.735   2.011  16.538  0.9145 -0.0083  0.8324
  457TMC3     O 6808   0.629   2.052  16.491 -0.3618  0.4674 -0.3732
  457TMC3     H 6809   0.728   2.257  16.571  0.0307  0.0022  0.0239
  457TMC3    H1 6810   0.821   1.893  16.749 -1.1330 -0.0107  1.0799
  457TMC3    H2 6811   0.742   2.234  16.990  0.5550  1.4737 -0.4436
  457TMC3    C7 6812   0.909   2.032  16.984 -0.3928 -0.5331  0.0250
  457TMC3    C8 6813   0.798   2.396  16.794  0.1806  1.0182 -0.3271
  457TMC3    O1 6814   0.937   1.914  17.001 -0.6410  0.1679  0.8215
  457TMC3    O2 6815   0.850   2.428  16.901  0.0658 -0.0943  0.1420
  458MPD2     C 6816   3.315   1.593  12.217 -0.1043 -0.2730  0.9535
  458MPD2    C1 6817   3.309   1.528  12.343  0.4753  0.0876 -0.1826
  458MPD2    C2 6818   3.198   1.452  12.367 -0.6596  0.0640 -0.8608
  458MPD2    C3 6819   3.087   1.451  12.280  0.0698  0.3418  0.1954
  458MPD2    C4 6820   3.100   1.515  12.157  0.3512  0.5593 -0.1499
  458MPD2    C5 6821   3.215   1.585  12.127 -0.2703 -0.0986 -0.1215
  458MPD2     H 6822   3.186   1.414  12.468 -0.9716 -1.1591 -1.3588
  458MPD2    H1 6823   3.021   1.499  12.085  1.1792  1.8305 -1.3398
  458MPD2    H2 6824   3.410   1.627  12.178 -0.5867 -0.9901 -0.8422
  458MPD2    H3 6825   3.218   1.637  12.032  1.8606 -1.3326 -0.7319
  458MPD2     N 6826   2.960   1.396  12.316  0.0704  0.6607  1.1456
  458MPD2    H5 6827   2.954   1.322  12.386 -0.3861  1.7323  2.2459
  458MPD2    N1 6828   3.426   1.537  12.422  0.4587 -0.3808 -0.2408
  458MPD2    H7 6829   3.502   1.587  12.378 -0.1449  0.3009 -0.5158
  459TMC3    C1 6830   3.570   1.486  12.613 -0.1481 -0.0179 -0.3395
  459TMC3    C2 6831   3.653   1.591  12.577 -0.9844 -0.5411 -0.2004
  459TMC3    C3 6832   3.765   1.606  12.660 -0.1540  0.1846  0.9709
  459TMC3    C4 6833   3.596   1.394  12.710 -0.1095  0.4066  0.3448
  459TMC3    C5 6834   3.704   1.416  12.789 -0.3685  0.2630  0.1510
  459TMC3    C6 6835   3.788   1.523  12.767  0.7913  0.8412  0.5769
  459TMC3     C 6836   3.442   1.471  12.545  0.4424 -0.2427  0.0604
  459TMC3     O 6837   3.363   1.406  12.611 -0.5638  0.1973  0.0312
  459TMC3     H 6838   3.619   1.658  12.499  0.6773  2.8810  1.9973
  459TMC3    H1 6839   3.521   1.321  12.740 -1.6308  1.0633 -1.8108
  459TMC3    H2 6840   3.875   1.540  12.830  1.3150 -2.2331  0.7045
  459TMC3    C7 6841   3.718   1.325  12.901 -0.7229 -0.3240 -0.0715
  459TMC3    C8 6842   3.861   1.695  12.616  0.4295  0.4670 -0.8321
  459TMC3    O1 6843   3.646   1.227  12.919 -0.4578 -0.7164 -0.3839
  459TMC3    O2 6844   3.972   1.709  12.662 -0.1397  0.1561 -0.1432
  460MPD2     C 6845   3.147   3.645  10.911  0.0012  0.2049 -0.0385
  460MPD2    C1 6846   3.013   3.617  10.938  0.3115  0.2687  0.0631
  460MPD2    C2 6847   2.923   3.631  10.835  0.0989  0.0209 -0.2949
  460MPD2    C3 6848   2.963   3.665  10.709 -0.4132  0.1420  0.2134
  460MPD2    C4 6849   3.093   3.691  10.683 -0.9404 -0.4417 -0.4512
  460MPD2    C5 6850   3.179   3.683  10.785 -0.8083  0.2771  0.6386
  460MPD2     H 6851   2.821   3.598  10.849 -0.4814  1.2218 -1.6824
  460MPD2    H1 6852   3.123   3.730  10.587 -0.5472 -2.9982 -1.3595
  460MPD2    H2 6853   3.228   3.639  10.983  0.1846  3.2416  0.0126
  460MPD2    H3 6854   3.281   3.715  10.769 -1.7198  1.2590 -3.1628
  460MPD2     N 6855   2.863   3.669  10.604 -0.3843 -0.2183  0.9823
  460MPD2    H5 6856   2.770   3.634  10.626 -0.4210 -1.8397 -1.7762
  460MPD2    N1 6857   2.974   3.588  11.074  0.4317  0.0128 -0.4351
  460MPD2    H7 6858   3.048   3.594  11.143  0.4314  0.2251 -0.4520
  461TMC3    C1 6859   2.762   3.726  10.406  1.1729 -0.5996  0.4422
  461TMC3    C2 6860   2.685   3.617  10.400  0.3702  0.0347  0.6084
  461TMC3    C3 6861   2.583   3.620  10.308  0.2664  0.0974 -0.1178
  461TMC3    C4 6862   2.747   3.827  10.312 -0.5095  0.2886 -1.4125
  461TMC3    C5 6863   2.638   3.828  10.227 -0.0403  0.3234  0.1843
  461TMC3    C6 6864   2.561   3.714  10.216 -0.8110 -0.4131  0.6250
  461TMC3     C 6865   2.885   3.713  10.474 -0.1078 -0.0940 -0.4047
  461TMC3     O 6866   2.981   3.755  10.412 -0.5203 -0.0886  0.2621
  461TMC3     H 6867   2.700   3.524  10.455 -1.0638  0.1265  1.1604
  461TMC3    H1 6868   2.812   3.913  10.320  1.1351 -1.0610 -0.2162
  461TMC3    H2 6869   2.498   3.702  10.129 -1.5957  1.9397  0.8735
  461TMC3    C7 6870   2.608   3.942  10.140  0.1157  0.2496  0.4921
  461TMC3    C8 6871   2.494   3.505  10.286  0.1475 -0.0126  0.1916
  461TMC3    O1 6872   2.510   3.922  10.073  0.0552 -0.3080  0.5188
  461TMC3    O2 6873   2.535   3.392  10.301  0.4322 -0.0019 -0.3681
  462TMC3    C1 6874   2.382   4.384  17.354  0.1766  0.1711 -0.3806
  462TMC3    C2 6875   2.313   4.292  17.277  0.3284 -0.1422 -0.4035
  462TMC3    C3 6876   2.303   4.169  17.335  0.0488  0.6983 -0.3897
  462TMC3    C4 6877   2.431   4.352  17.476  0.4094  0.3954 -0.0533
  462TMC3    C5 6878   2.430   4.222  17.520  0.2530 -0.0277  0.2186
  462TMC3    C6 6879   2.349   4.130  17.455 -0.0571 -0.1565  0.8558
  462TMC3     C 6880   2.414   4.510  17.292 -0.2413  0.1167  0.3324
  462TMC3     O 6881   2.518   4.566  17.328  0.1745  0.6412 -0.2048
  462TMC3     H 6882   2.293   4.314  17.173 -1.8694  1.9653  0.4648
  462TMC3    H1 6883   2.499   4.426  17.517  2.7327 -2.8252  1.8815
  462TMC3    H2 6884   2.358   4.030  17.495  3.1284 -0.9973 -1.9843
  462TMC3    C7 6885   2.464   4.191  17.661 -0.4529 -0.0223  0.4457
  462TMC3    C8 6886   2.256   4.057  17.255 -0.6321 -1.1483  0.1177
  462TMC3    O1 6887   2.446   4.078  17.691  0.2477 -0.3094  0.4334
  462TMC3    O2 6888   2.191   4.079  17.154 -0.1418  0.4585  0.3898
  463MPD2     C 6889   3.376   2.175   1.132  0.7650  0.4303  0.5117
  463MPD2    C1 6890   3.479   2.233   1.195 -0.1805 -0.1787 -0.0819
  463MPD2    C2 6891   3.600   2.251   1.128 -0.1319  0.3043 -0.2540
  463MPD2    C3 6892   3.616   2.194   1.005 -0.3527 -0.6216  0.7535
  463MPD2    C4 6893   3.513   2.137   0.943  0.1673  1.3044  0.3555
  463MPD2    C5 6894   3.396   2.121   1.008  0.5521 -0.3501  0.1083
  463MPD2     H 6895   3.679   2.309   1.174  0.3524 -0.7856  0.2896
  463MPD2    H1 6896   3.536   2.093   0.846  2.1154 -0.0569  1.4383
  463MPD2    H2 6897   3.278   2.156   1.173 -0.5409 -0.1487 -2.8823
  463MPD2    H3 6898   3.322   2.064   0.953  0.0109 -1.0830  1.5761
  463MPD2     N 6899   3.742   2.193   0.937 -0.2139  0.7376  0.1756
  463MPD2    H5 6900   3.739   2.160   0.840 -0.1914 -0.0724  0.4482
  463MPD2    N1 6901   3.465   2.281   1.329 -0.3447 -0.7031  0.2606
  463MPD2    H7 6902   3.543   2.336   1.361  0.0298 -1.7215  1.0662
  464TMC3    C1 6903   3.351   2.345   1.533 -0.3322  0.3116  0.0459
  464TMC3    C2 6904   3.422   2.469   1.532  0.0621  0.7552  0.6347
  464TMC3    C3 6905   3.379   2.568   1.620 -0.4851  0.1518  0.0786
  464TMC3    C4 6906   3.253   2.321   1.625  0.1135  0.5431 -0.0318
  464TMC3    C5 6907   3.215   2.427   1.708  0.5227 -0.3462  0.1799
  464TMC3    C6 6908   3.273   2.551   1.700 -0.3415  0.0177  0.4717
  464TMC3     C 6909   3.351   2.261   1.413  0.5760 -0.4721  0.4401
  464TMC3     O 6910   3.261   2.181   1.400  0.0346 -0.2742  0.6178
  464TMC3     H 6911   3.489   2.509   1.457  0.2392  1.0487  0.9511
  464TMC3    H1 6912   3.208   2.223   1.630 -0.2215  0.8777  3.9360
  464TMC3    H2 6913   3.232   2.634   1.757 -0.7221  1.5649 -2.0740
  464TMC3    C7 6914   3.109   2.413   1.806  0.3850 -0.5930  0.4221
  464TMC3    C8 6915   3.426   2.702   1.594  0.4763  0.0606 -0.6219
  464TMC3    O1 6916   3.094   2.483   1.906  0.5992 -0.0901 -0.7943
  464TMC3    O2 6917   3.504   2.718   1.498 -0.0345 -0.3740  0.0016
  465MPD2     C 6918   0.415   2.084  16.866  0.0067 -0.9434 -0.3913
  465MPD2    C1 6919   0.304   2.040  16.936 -0.4612 -0.3399 -0.2577
  465MPD2    C2 6920   0.206   1.981  16.855 -0.5774  0.3665 -0.6824
  465MPD2    C3 6921   0.210   1.978  16.716 -0.2944  0.2647  0.4204
  465MPD2    C4 6922   0.311   2.049  16.654  1.1961 -1.1079  0.0121
  465MPD2    C5 6923   0.412   2.095  16.727  0.3632 -0.1770 -0.9570
  465MPD2     H 6924   0.112   1.948  16.899  0.2814 -0.4446  0.5541
  465MPD2    H1 6925   0.320   2.061  16.547  0.8848 -3.2790 -0.2591
  465MPD2    H2 6926   0.502   2.137  16.901 -1.1855 -0.9087  2.4918
  465MPD2    H3 6927   0.488   2.144  16.667 -0.2520  0.4592 -1.2214
  465MPD2     N 6928   0.097   1.919  16.648  0.2472  0.4600 -0.1589
  465MPD2    H5 6929   0.025   1.882  16.709  1.3003 -1.6522 -0.1839
  465MPD2    N1 6930   0.281   2.062  17.076  0.2152 -0.4942 -0.2827
  465MPD2    H7 6931   0.199   2.012  17.107 -0.0940  0.1328 -0.0967
  466TMC3    C1 6932   4.464   1.926  16.565  0.6439 -0.6544 -0.0184
  466TMC3    C2 6933   4.427   2.030  16.483 -0.3556 -0.6490  0.0344
  466TMC3    C3 6934   4.514   2.072  16.387  0.7839  0.0305  0.1663
  466TMC3    C4 6935   4.586   1.869  16.567 -0.3425 -0.3483 -0.3736
  466TMC3    C5 6936   4.671   1.913  16.469 -0.1761 -0.5724  0.1060
  466TMC3    C6 6937   4.636   2.009  16.376 -0.6444 -0.0032 -0.1131
  466TMC3     C 6938   4.373   1.880  16.668 -0.0682 -0.4398 -0.8151
  466TMC3     O 6939   4.406   1.803  16.757 -0.5056  0.3334  0.4278
  466TMC3     H 6940   4.329   2.076  16.487  0.8580  2.0837 -1.2503
  466TMC3    H1 6941   4.602   1.783  16.631 -1.7290 -1.1078 -1.0458
  466TMC3    H2 6942   4.695   2.042  16.292  0.2049  0.0770  0.5210
  466TMC3    C7 6943   0.079   1.914  16.508  0.1976 -0.5379  0.4020
  466TMC3    C8 6944   4.494   2.190  16.307  0.1509 -0.0833  0.9054
  466TMC3    O1 6945   0.158   1.955  16.421  0.1835 -0.5354 -0.0661
  466TMC3    O2 6946   4.525   2.187  16.186 -0.4780 -0.3112  0.0002
  467TMC3    C1 6947   0.725   0.640  14.182  0.3878  0.1066 -0.4920
  467TMC3    C2 6948   0.655   0.738  14.113  0.3318 -0.2167  0.2661
  467TMC3    C3 6949   0.540   0.700  14.059 -0.2576 -0.0242  0.9738
  467TMC3    C4 6950   0.675   0.515  14.216  0.0515 -0.1277  0.7064
  467TMC3    C5 6951   0.549   0.495  14.170  0.9536 -0.0994  1.2482
  467TMC3    C6 6952   0.478   0.585  14.088  0.5413  0.2691 -0.1779
  467TMC3     C 6953   0.876   0.652  14.181  0.1529 -0.2319 -0.0410
  467TMC3     O 6954   0.926   0.766  14.177  0.5023 -0.3136 -0.1243
  467TMC3     H 6955   0.701   0.831  14.082 -0.9483  0.7257  1.1792
  467TMC3    H1 6956   0.721   0.437  14.276  0.6433  0.7665  1.4138
  467TMC3    H2 6957   0.375   0.568  14.057 -0.0811  0.7586  1.6190
  467TMC3    C7 6958   0.487   0.363  14.201 -0.2659 -0.4111 -0.4240
  467TMC3    C8 6959   0.504   0.773  13.944 -0.0835 -0.5497 -0.5833
  467TMC3    O1 6960   0.569   0.275  14.240  0.5631  0.7522 -0.2932
  467TMC3    O2 6961   0.588   0.850  13.898  0.0896 -0.2364  0.2435
  468MPD2     C 6962   4.336   3.189  10.790 -0.1121  1.1405 -0.1025
  468MPD2    C1 6963   4.475   3.186  10.807 -0.1740  0.6011 -0.2950
  468MPD2    C2 6964   4.534   3.065  10.828  0.1885 -0.2860  0.9456
  468MPD2    C3 6965   4.460   2.947  10.821  0.1387  0.6297  0.0040
  468MPD2    C4 6966   4.322   2.956  10.800 -0.5359 -0.5904 -0.7245
  468MPD2    C5 6967   4.260   3.073  10.786 -0.3891  0.2796 -0.8048
  468MPD2     H 6968   4.640   3.059  10.853  0.0609  1.3996  1.8891
  468MPD2    H1 6969   4.262   2.866  10.804  1.1255 -1.7606 -2.1442
  468MPD2    H2 6970   4.292   3.288  10.785 -0.9277  0.8379  1.0508
  468MPD2    H3 6971   4.154   3.068  10.763 -0.9171  0.5498  1.5220
  468MPD2     N 6972   4.510   2.814  10.825  0.5384  0.2061 -0.4175
  468MPD2    H5 6973   4.438   2.747  10.801  1.6518 -1.1479  0.0074
  468MPD2    N1 6974   4.555   3.303  10.824  0.1467 -0.3793  0.2870
  468MPD2    H7 6975   4.655   3.285  10.830 -0.1325 -1.6373  1.1020
  469TMC3    C1 6976   4.620   3.527  10.878  0.2228  0.1942 -0.2626
  469TMC3    C2 6977   0.024   3.485  10.892 -0.5212  0.1449  0.4025
  469TMC3    C3 6978   0.115   3.567  10.957  0.3893  0.0088 -0.4595
  469TMC3    C4 6979   4.581   3.653  10.922 -0.3856  0.2805 -0.7139
  469TMC3    C5 6980   4.671   3.732  10.988 -0.4431 -0.4543  0.8786
  469TMC3    C6 6981   0.073   3.690  11.009 -0.6726 -0.0257  0.3242
  469TMC3     C 6982   4.514   3.435  10.840  0.0392  0.5622 -0.1116
  469TMC3     O 6983   4.397   3.475  10.847  0.0344  0.0040  0.1467
  469TMC3     H 6984   0.051   3.383  10.867 -0.0808  0.7853 -1.7758
  469TMC3    H1 6985   4.479   3.688  10.915 -0.5349  0.3986  2.0620
  469TMC3    H2 6986   0.146   3.752  11.060  0.2576  0.6087 -1.8119
  469TMC3    C7 6987   4.611   3.843  11.066 -0.5593  0.0393  0.4936
  469TMC3    C8 6988   0.244   3.513  10.987 -0.1045 -0.5575  0.1740
  469TMC3    O1 6989   4.499   3.879  11.039 -0.2277 -0.0560  0.3646
  469TMC3    O2 6990   0.278   3.409  10.934 -0.6281 -0.5432  0.3116
  470TMC3    C1 6991   2.779   0.119   0.669  0.3227  0.6899 -0.5704
  470TMC3    C2 6992   2.655   0.165   0.696 -0.3200 -0.7242  0.1059
  470TMC3    C3 6993   2.606   0.153   0.824  0.5403 -0.0423 -0.1087
  470TMC3    C4 6994   2.855   0.061   0.768 -0.0362  0.2554  0.3077
  470TMC3    C5 6995   2.817   0.066   0.899 -0.2954  0.0012  0.5199
  470TMC3    C6 6996   2.687   0.110   0.926  0.2634  0.3864  0.9072
  470TMC3     C 6997   2.837   0.137   0.543 -0.7644 -0.5208 -0.1735
  470TMC3     O 6998   2.929   0.061   0.512  0.2988  0.1949  0.0525
  470TMC3     H 6999   2.585   0.211   0.627 -0.8033 -0.0947  1.0097
  470TMC3    H1 7000   2.954   0.023   0.746  0.3248  2.3972 -1.8385
  470TMC3    H2 7001   2.656   0.123   1.029 -3.0630  1.5139 -0.2353
  470TMC3    C7 7002   2.925   0.093   0.996 -1.1171  0.0764  0.1298
  470TMC3    C8 7003   2.470   0.189   0.849 -0.3116 -0.3544 -0.2343
  470TMC3    O1 7004   3.034   0.121   0.948 -0.1977 -0.1589 -0.6019
  470TMC3    O2 7005   2.446   0.193   0.970 -0.2693 -0.4491  0.5786
  471MPD2     C 7006   2.634   1.024  16.660  0.1513  0.8745  0.1615
  471MPD2    C1 7007   2.598   0.893  16.674  0.7427 -1.4717 -0.8850
  471MPD2    C2 7008   2.634   0.824  16.788 -0.0520 -0.6585  0.1046
  471MPD2    C3 7009   2.693   0.892  16.899  0.6728  0.7357 -0.4398
  471MPD2    C4 7010   2.709   1.027  16.895  0.3400 -0.1872 -0.1793
  471MPD2    C5 7011   2.680   1.087  16.772 -0.1426  0.8312 -0.0188
  471MPD2     H 7012   2.617   0.717  16.790 -1.5671 -0.4395 -1.3581
  471MPD2    H1 7013   2.757   1.082  16.976 -1.3362 -0.1615  0.7961
  471MPD2    H2 7014   2.616   1.072  16.564 -0.2866 -2.0951 -1.2449
  471MPD2    H3 7015   2.710   1.191  16.768 -0.3399  0.9743  2.3070
  471MPD2     N 7016   2.741   0.820  17.005  0.2128 -0.1940  0.3144
  471MPD2    H5 7017   2.772   0.873  17.086  0.3865  1.6709 -0.9780
  471MPD2    N1 7018   2.523   0.821  16.573  0.2087 -0.7173 -0.2294
  471MPD2    H7 7019   2.497   0.728  16.602  0.0404 -1.3494 -2.4084
  472TMC3    C1 7020   2.421   0.780  16.357  0.5031  0.5809  1.0620
  472TMC3    C2 7021   2.339   0.822  16.256  0.5257  0.2235 -0.7345
  472TMC3    C3 7022   2.324   0.738  16.144 -0.6299 -0.0886  0.0232
  472TMC3    C4 7023   2.497   0.663  16.344 -0.6483 -0.1766 -0.7578
  472TMC3    C5 7024   2.465   0.576  16.242  0.5556 -0.7699 -0.1843
  472TMC3    C6 7025   2.381   0.613  16.146 -0.3765  0.3409 -0.2202
  472TMC3     C 7026   2.463   0.876  16.453  0.0901  0.8406  0.7427
  472TMC3     O 7027   2.473   0.990  16.413  0.4360 -0.2201 -0.0024
  472TMC3     H 7028   2.299   0.922  16.267 -0.3469  0.3086 -4.7246
  472TMC3    H1 7029   2.565   0.631  16.422 -0.7792  0.5749 -0.3412
  472TMC3    H2 7030   2.376   0.569  16.048 -1.1026  1.0159 -0.4896
  472TMC3    C7 7031   2.458   0.433  16.267 -1.0659 -0.6095 -0.1429
  472TMC3    C8 7032   2.196   0.736  16.084 -0.0158 -0.6532  0.4503
  472TMC3    O1 7033   2.470   0.391  16.384 -0.4816 -0.8565  0.3225
  472TMC3    O2 7034   2.144   0.831  16.029  0.7679 -0.2757 -0.2932
  473MPD2     C 7035   2.213   2.853  13.932  0.0064  0.2300  0.2404
  473MPD2    C1 7036   2.332   2.901  13.885 -0.2520 -0.4497  0.9530
  473MPD2    C2 7037   2.421   2.965  13.964  0.6802 -0.0213  0.3517
  473MPD2    C3 7038   2.398   2.972  14.096 -0.4141 -0.0545  0.3438
  473MPD2    C4 7039   2.284   2.924  14.147  0.9348 -0.3704 -0.3247
  473MPD2    C5 7040   2.187   2.873  14.066  0.4481 -0.0492  0.1107
  473MPD2     H 7041   2.515   3.003  13.924  0.6882 -0.5954 -0.1740
  473MPD2    H1 7042   2.285   2.922  14.255  1.5102 -0.2071 -0.3269
  473MPD2    H2 7043   2.138   2.811  13.866  0.4575  0.6499 -0.5458
  473MPD2    H3 7044   2.090   2.848  14.110 -0.0629  2.5509  0.4838
  473MPD2     N 7045   2.488   3.037  14.187  0.4206  0.3289  0.2234
  473MPD2    H5 7046   2.455   3.055  14.281 -1.8994  0.2113 -0.5778
  473MPD2    N1 7047   2.368   2.886  13.745 -0.3415 -0.4016  0.5915
  473MPD2    H7 7048   2.456   2.927  13.716 -1.0611  1.4353  1.0229
  474TMC3    C1 7049   2.629   3.218  14.246 -1.0072 -0.8060 -0.3026
  474TMC3    C2 7050   2.517   3.287  14.288  1.1435 -0.1127  0.4739
  474TMC3    C3 7051   2.524   3.422  14.305  0.1414 -0.7356 -0.5830
  474TMC3    C4 7052   2.738   3.282  14.212 -0.4797  0.3306 -0.8107
  474TMC3    C5 7053   2.744   3.413  14.226  0.2097  0.5314 -0.2045
  474TMC3    C6 7054   2.642   3.484  14.276 -0.2739  0.0459  0.3621
  474TMC3     C 7055   2.610   3.100  14.154 -0.5259 -0.7719  0.7476
  474TMC3     O 7056   2.683   3.075  14.064 -0.1166 -0.0292 -0.2971
  474TMC3     H 7057   2.420   3.244  14.311  1.4522 -0.1003  1.8523
  474TMC3    H1 7058   2.825   3.226  14.179 -1.2602 -0.7691 -1.0120
  474TMC3    H2 7059   2.656   3.590  14.255 -2.0430  0.2608  0.3196
  474TMC3    C7 7060   2.865   3.453  14.291  0.1554 -0.8825 -0.2574
  474TMC3    C8 7061   2.441   3.480  14.410 -0.2475 -0.0466 -0.1572
  474TMC3    O1 7062   2.948   3.518  14.226  0.3471 -0.2533  0.5685
  474TMC3    O2 7063   2.357   3.409  14.467  0.4555 -0.0089 -0.1556
  475MPD2     C 7064   1.373   1.243  10.553 -0.4130  0.5969  0.5222
  475MPD2    C1 7065   1.280   1.195  10.460  0.1162  0.0225 -0.6567
  475MPD2    C2 7066   1.152   1.221  10.479 -0.6974 -0.7357  0.3219
  475MPD2    C3 7067   1.112   1.291  10.585  0.0134 -0.6609 -0.4485
  475MPD2    C4 7068   1.204   1.346  10.681  0.1027 -0.1358  0.3833
  475MPD2    C5 7069   1.337   1.327  10.654 -0.4853  0.0895  0.0745
  475MPD2     H 7070   1.078   1.188  10.406  1.5940  0.7933 -2.7171
  475MPD2    H1 7071   1.176   1.401  10.769  2.8012  2.2552 -0.2477
  475MPD2    H2 7072   1.477   1.215  10.536 -1.0640 -0.3073 -2.0570
  475MPD2    H3 7073   1.412   1.360  10.725 -0.9552  0.5041  0.3818
  475MPD2     N 7074   0.973   1.304  10.595  0.3608 -0.3302  0.0889
  475MPD2    H5 7075   0.911   1.269  10.523 -0.1540  0.5723  0.0858
  475MPD2    N1 7076   1.329   1.141  10.338 -0.6293 -0.0921  0.2408
  475MPD2    H7 7077   1.427   1.159  10.318 -0.2705 -1.7261  0.5401
  476TMC3    C1 7078   1.325   1.073  10.111  0.2020 -0.2080 -0.2604
  476TMC3    C2 7079   1.248   1.096  10.002 -0.2089  0.0958 -0.5634
  476TMC3    C3 7080   1.316   1.134   9.888 -0.1583 -0.4013 -0.1091
  476TMC3    C4 7081   1.465   1.105  10.112  0.0155 -1.1365 -0.4727
  476TMC3    C5 7082   1.522   1.149   9.996  0.2253  0.0530 -0.0360
  476TMC3    C6 7083   1.446   1.169   9.888 -1.2795  0.2058  0.2915
  476TMC3     C 7084   1.249   1.091  10.238  0.0348  0.0530  0.1110
  476TMC3     O 7085   1.136   1.052  10.246 -0.3975  0.4131 -0.3183
  476TMC3     H 7086   1.141   1.082  10.008 -0.4832  2.2602 -0.3816
  476TMC3    H1 7087   1.525   1.077  10.198  1.4177 -0.3993 -1.2067
  476TMC3    H2 7088   1.491   1.202   9.796 -0.3860  4.2219  2.1917
  476TMC3    C7 7089   1.657   1.186   9.997  0.7445  0.4895 -0.1726
  476TMC3    C8 7090   1.244   1.180   9.768 -0.3657  0.8637 -0.2701
  476TMC3    O1 7091   1.721   1.162   9.896  0.8564  0.2779 -0.1235
  476TMC3    O2 7092   1.277   1.282   9.706 -0.1302  0.2764 -0.1599
  477MPD2     C 7093   3.267   2.672  11.601 -0.9681 -0.5071 -0.0854
  477MPD2    C1 7094   3.198   2.644  11.717  0.6531 -0.1408  0.3027
  477MPD2    C2 7095   3.249   2.550  11.809  0.0149  0.5540  0.2626
  477MPD2    C3 7096   3.369   2.488  11.774  0.6161  0.2079  0.5570
  477MPD2    C4 7097   3.431   2.518  11.652  0.0598  0.1804 -0.0243
  477MPD2    C5 7098   3.381   2.613  11.568  0.7991  1.0138  0.0644
  477MPD2     H 7099   3.198   2.531  11.903 -0.1849  2.7828  0.6173
  477MPD2    H1 7100   3.523   2.470  11.622  0.7837 -0.0623  2.5585
  477MPD2    H2 7101   3.218   2.732  11.525 -0.0637 -2.0667 -1.9049
  477MPD2    H3 7102   3.429   2.634  11.473  1.5036  0.3478  0.2742
  477MPD2     N 7103   3.415   2.382  11.856 -0.3965  0.5490  0.6493
  477MPD2    H5 7104   3.366   2.373  11.944 -1.7893 -2.5305 -0.4532
  477MPD2    N1 7105   3.069   2.691  11.718 -1.1661  0.7706  0.3093
  477MPD2    H7 7106   3.031   2.735  11.635  0.0006 -0.1477 -0.6948
  478TMC3    C1 7107   2.870   2.788  11.778  0.3045  0.0406  0.1661
  478TMC3    C2 7108   2.852   2.882  11.872 -0.4848  0.1356  0.6854
  478TMC3    C3 7109   2.839   3.016  11.831 -0.0403  0.1981  0.5102
  478TMC3    C4 7110   2.866   2.813  11.648 -0.0113 -0.1162 -0.3375
  478TMC3    C5 7111   2.875   2.946  11.615 -0.3959 -0.2458 -0.3656
  478TMC3    C6 7112   2.870   3.043  11.706  0.7591  0.4702 -0.8254
  478TMC3     C 7113   2.984   2.702  11.824  0.5793  0.1621 -0.4030
  478TMC3     O 7114   2.997   2.675  11.944 -0.1689  0.4784  0.4602
  478TMC3     H 7115   2.863   2.871  11.980 -0.0863  0.0424  0.6376
  478TMC3    H1 7116   2.881   2.742  11.567  3.4242  1.0037 -0.6782
  478TMC3    H2 7117   2.881   3.142  11.663  0.0178 -0.2238 -2.6374
  478TMC3    C7 7118   2.894   2.983  11.475  0.7924  0.4014  0.4622
  478TMC3    C8 7119   2.820   3.120  11.928  0.3474  0.1841 -0.0290
  478TMC3    O1 7120   2.867   2.891  11.399 -0.9306  0.5552  0.1338
  478TMC3    O2 7121   2.860   3.106  12.045 -0.1985  0.7976 -0.4009
  479MPD2     C 7122   2.084   0.268  15.116  0.3993 -0.1426 -0.9313
  479MPD2    C1 7123   2.044   0.190  15.222  0.3498 -0.3360  0.7894
  479MPD2    C2 7124   2.135   0.183  15.328 -0.6312 -0.1392  0.9466
  479MPD2    C3 7125   2.255   0.262  15.335 -0.0958  0.1859 -0.1198
  479MPD2    C4 7126   2.298   0.319  15.220 -0.4489  0.2427 -0.2727
  479MPD2    C5 7127   2.207   0.330  15.109  0.2877 -0.0873 -0.0259
  479MPD2     H 7128   2.114   0.110  15.405 -2.7493  1.0682  1.5252
  479MPD2    H1 7129   2.396   0.363  15.212  0.1385 -0.9006  0.5655
  479MPD2    H2 7130   2.019   0.280  15.029  0.8388  0.5079 -1.1726
  479MPD2    H3 7131   2.237   0.388  15.022 -0.7706  1.6512  0.7576
  479MPD2     N 7132   2.342   0.257  15.455 -0.2593 -0.7084  0.3624
  479MPD2    H5 7133   2.438   0.272  15.426 -0.8315 -0.8154 -1.6211
  479MPD2    N1 7134   1.918   0.132  15.211  0.1385 -0.1371 -0.0676
  479MPD2    H7 7135   1.859   0.157  15.133 -1.5849  2.3208  2.0030
  480TMC3    C1 7136   2.005   0.082  15.713 -0.2298  0.1068 -0.1792
  480TMC3    C2 7137   1.918   0.184  15.688 -0.4492 -0.8697 -0.0128
  480TMC3    C3 7138   1.960   0.288  15.618 -0.1849  0.1812 -0.0244
  480TMC3    C4 7139   2.139   0.100  15.693 -0.4671 -0.6897  0.2389
  480TMC3    C5 7140   2.178   0.214  15.633  0.4230  0.2443  0.0608
  480TMC3    C6 7141   2.095   0.312  15.596  0.2317 -0.5219 -0.3823
  480TMC3     C 7142   1.961   4.674  15.741  0.8319 -0.6835 -0.5666
  480TMC3     O 7143   2.056   4.604  15.778 -0.5096  0.0587  0.8062
  480TMC3     H 7144   1.816   0.148  15.691 -1.0317  0.8897  1.6881
  480TMC3    H1 7145   2.206   0.014  15.688 -1.7231 -1.6972  0.8353
  480TMC3    H2 7146   2.126   0.397  15.536  0.0782  0.0844  0.4054
  480TMC3    C7 7147   2.313   0.209  15.577 -0.2337  0.3776  0.0341
  480TMC3    C8 7148   1.855   0.347  15.534  0.3129 -0.3447  0.0145
  480TMC3    O1 7149   2.392   0.161  15.656 -0.9290 -0.1002  0.0381
  480TMC3    O2 7150   1.740   0.318  15.556 -0.4475  0.3261  0.1632
  481MPD2     C 7151   4.014   4.603  14.884  0.2399  0.2389  1.2041
  481MPD2    C1 7152   3.904   4.557  14.818 -0.2358  0.3776  0.0077
  481MPD2    C2 7153   3.794   4.500  14.883  0.7147  0.4008 -0.2082
  481MPD2    C3 7154   3.808   4.501  15.019  0.6976  0.3443  0.1229
  481MPD2    C4 7155   3.916   4.543  15.095  0.2388  0.1757  0.7176
  481MPD2    C5 7156   4.011   4.595  15.025 -0.4192  0.1461  0.3398
  481MPD2     H 7157   3.711   4.459  14.828 -0.2806  1.0720  0.8011
  481MPD2    H1 7158   3.920   4.545  15.204 -2.1174 -0.8432  0.8022
  481MPD2    H2 7159   4.099   4.650  14.835 -2.5496  3.0249 -0.9486
  481MPD2    H3 7160   4.087   4.634  15.091 -1.3993  1.4006  0.7217
  481MPD2     N 7161   3.692   4.485  15.101 -0.8814  0.1394 -0.0549
  481MPD2    H5 7162   3.697   4.496  15.202 -2.0253  3.1531 -0.3288
  481MPD2    N1 7163   3.904   4.573  14.679  0.5038 -0.3141  0.6113
  481MPD2    H7 7164   3.988   4.617  14.642  0.5274 -0.6477  0.2787
  482TMC3    C1 7165   3.820   4.586  14.451  0.3652 -0.7266 -0.8749
  482TMC3    C2 7166   3.939   4.535  14.398 -1.0758 -0.2744  0.0731
  482TMC3    C3 7167   3.951   4.564  14.260  1.2233 -0.3094  0.2998
  482TMC3    C4 7168   3.733   4.667  14.377 -0.7603 -0.3446  0.2706
  482TMC3    C5 7169   3.764   4.712  14.254  0.4749 -0.1439 -0.2136
  482TMC3    C6 7170   3.866   4.647  14.189 -0.0085 -0.2181 -0.2045
  482TMC3     C 7171   3.789   4.568  14.591 -0.4678  0.8034 -0.6374
  482TMC3     O 7172   3.670   4.563  14.617 -0.2257 -0.1524  0.6280
  482TMC3     H 7173   3.999   4.459  14.446  0.6352 -0.4841 -2.3839
  482TMC3    H1 7174   3.640   4.698  14.424 -0.5497 -0.8554  1.0237
  482TMC3    H2 7175   3.889   4.673  14.086  0.8744  0.9222  0.2800
  482TMC3    C7 7176   3.663   0.058  14.178  0.8875  0.5507  0.3320
  482TMC3    C8 7177   4.031   4.457  14.196 -0.4414  0.4637  0.4140
  482TMC3    O1 7178   3.567   0.090  14.241  0.1700  0.1578  0.2926
  482TMC3    O2 7179   4.025   4.344  14.251 -0.2633  0.5480 -0.1911
  483TMC3    C1 7180   1.284   3.360   1.146 -0.0948 -0.1712 -0.1608
  483TMC3    C2 7181   1.369   3.468   1.147  0.3171 -0.1147  0.0997
  483TMC3    C3 7182   1.480   3.459   1.224  0.4548 -0.3266  0.4348
  483TMC3    C4 7183   1.304   3.251   1.223 -0.8909 -0.1244  0.3962
  483TMC3    C5 7184   1.415   3.252   1.309  0.6647 -0.2141 -0.0542
  483TMC3    C6 7185   1.504   3.355   1.309 -0.3599 -0.8206  0.0751
  483TMC3     C 7186   1.185   3.356   1.041  0.1158  0.1085  0.2920
  483TMC3     O 7187   1.145   3.462   0.998  0.3423 -0.2083 -0.3456
  483TMC3     H 7188   1.355   3.553   1.081  1.6569 -0.5827 -0.7858
  483TMC3    H1 7189   1.225   3.177   1.217 -0.4323 -0.4416 -1.5832
  483TMC3    H2 7190   1.597   3.347   1.363 -1.5632 -4.3112  1.6681
  483TMC3    C7 7191   1.479   3.128   1.349  0.2329  0.2520  0.1525
  483TMC3    C8 7192   1.594   3.548   1.187  0.1736  0.2186  0.2406
  483TMC3    O1 7193   1.591   3.127   1.395  0.1129 -0.8801  0.1918
  483TMC3    O2 7194   1.573   3.606   1.083  0.1429 -0.3693  0.3968
  484MPD2     C 7195   3.847   1.907  12.311 -0.1718  0.4128 -0.1488
  484MPD2    C1 7196   3.911   1.853  12.424  0.1770 -0.0696 -0.2582
  484MPD2    C2 7197   4.044   1.895  12.447 -0.8343 -0.2620  0.5850
  484MPD2    C3 7198   4.104   1.981  12.355  0.5128 -1.0390 -0.3250
  484MPD2    C4 7199   4.034   2.041  12.253 -0.8753 -0.1652 -0.1298
  484MPD2    C5 7200   3.917   1.985  12.221  0.2034 -0.3066 -0.7534
  484MPD2     H 7201   4.109   1.842  12.516 -1.0730 -0.0062  1.0042
  484MPD2    H1 7202   4.086   2.109  12.186 -0.2223 -1.1125 -0.5981
  484MPD2    H2 7203   3.749   1.870  12.283 -1.2023  2.3105  0.9373
  484MPD2    H3 7204   3.874   2.018  12.127 -1.0478  2.5088  0.8073
  484MPD2     N 7205   4.241   2.015  12.359  0.1071 -0.8464 -0.1093
  484MPD2    H5 7206   4.277   2.071  12.282 -1.5731 -0.1956 -0.4096
  484MPD2    N1 7207   3.827   1.765  12.506  0.3021 -0.1010  0.6094
  484MPD2    H7 7208   3.732   1.752  12.473  1.2613  0.7353 -2.5377
  485TMC3    C1 7209   4.478   2.017  12.411 -1.4225  0.3761  0.1961
  485TMC3    C2 7210   4.562   1.999  12.519  0.9949  0.0936  0.6061
  485TMC3    C3 7211   4.686   2.054  12.503  0.1087  0.0706 -0.0763
  485TMC3    C4 7212   4.508   2.079  12.297 -0.1839  0.0865  0.2465
  485TMC3    C5 7213   4.634   2.131  12.288  1.1550 -0.2908  0.4111
  485TMC3    C6 7214   4.721   2.124  12.388  0.6048 -0.6024  0.3258
  485TMC3     C 7215   4.343   1.965  12.443 -0.5796 -0.1316 -0.6120
  485TMC3     O 7216   4.329   1.895  12.537 -0.0472 -0.2405  0.1110
  485TMC3     H 7217   4.530   1.943  12.606 -0.3833  0.7909  0.5650
  485TMC3    H1 7218   4.455   2.057  12.205  0.5271  2.3936 -0.7188
  485TMC3    H2 7219   0.096   2.164  12.388  0.8039 -1.1022 -0.4532
  485TMC3    C7 7220   4.700   2.099  12.162  0.0925  0.3880 -0.4084
  485TMC3    C8 7221   0.069   1.968  12.532  0.1067  0.0413  0.0325
  485TMC3    O1 7222   4.638   2.120  12.055 -0.6103 -0.1393 -0.4844
  485TMC3    O2 7223   0.167   1.984  12.463 -0.3329  0.1925  0.2034
  486MPD2     C 7224   1.928   0.311  13.107  0.1264 -0.1762 -0.3712
  486MPD2    C1 7225   1.872   0.271  12.988 -0.0484 -0.4792  0.2339
  486MPD2    C2 7226   1.813   0.361  12.904 -0.2212 -0.0497 -0.1982
  486MPD2    C3 7227   1.798   0.495  12.947 -0.3423 -0.0848 -0.4691
  486MPD2    C4 7228   1.870   0.537  13.061  0.2649 -0.1910  1.0371
  486MPD2    C5 7229   1.936   0.443  13.135 -0.3388 -0.2699 -0.5232
  486MPD2     H 7230   1.756   0.319  12.821  1.7487 -1.4960 -0.8220
  486MPD2    H1 7231   1.880   0.636  13.104 -1.0743  1.3097 -2.0666
  486MPD2    H2 7232   1.973   0.244  13.179 -1.6410 -1.6492 -0.6422
  486MPD2    H3 7233   1.992   0.467  13.225  1.6415  0.0729 -1.8534
  486MPD2     N 7234   1.721   0.591  12.869  0.3555  0.2335  0.4813
  486MPD2    H5 7235   1.676   0.559  12.783 -0.8341  4.2164 -0.3925
  486MPD2    N1 7236   1.882   0.131  12.958 -0.1817 -0.4138  0.6540
  486MPD2    H7 7237   1.915   0.070  13.031 -1.6022  0.2607  1.8611
  487TMC3    C1 7238   1.881   4.663  12.829  0.0613 -0.2115  0.8365
  487TMC3    C2 7239   1.794   4.584  12.772  0.1384 -0.1023 -0.3262
  487TMC3    C3 7240   1.805   4.448  12.785  0.3296  0.6690  0.1476
  487TMC3    C4 7241   1.985   4.622  12.899  0.6116 -0.1670  0.8361
  487TMC3    C5 7242   1.997   4.483  12.908 -0.6911 -0.8614  0.2782
  487TMC3    C6 7243   1.919   4.399  12.841 -0.3319 -0.6247 -0.2658
  487TMC3     C 7244   1.846   0.075  12.836 -0.5401 -0.1246 -0.6893
  487TMC3     O 7245   1.761   0.116  12.755 -0.2765 -0.0642 -0.5440
  487TMC3     H 7246   1.699   4.629  12.745 -1.0587 -2.4371 -0.0112
  487TMC3    H1 7247   2.059   4.688  12.943  1.4816  0.4362 -1.5096
  487TMC3    H2 7248   1.921   4.304  12.894  0.3183 -1.1953 -1.3251
  487TMC3    C7 7249   2.113   4.428  12.967  0.2980  0.0879  0.1815
  487TMC3    C8 7250   1.693   4.399  12.861 -0.7650 -0.4485 -0.3336
  487TMC3    O1 7251   2.164   4.338  12.903  0.0729 -0.1576  0.0263
  487TMC3    O2 7252   1.638   4.484  12.926  0.1493 -0.2592  0.1865
  488MPD2     C 7253   1.556   1.818  16.333 -0.2117 -0.4989  0.6157
  488MPD2    C1 7254   1.626   1.926  16.383 -0.1372  0.0603 -0.1831
  488MPD2    C2 7255   1.604   1.961  16.517  0.6267 -0.3695 -0.6636
  488MPD2    C3 7256   1.515   1.885  16.598  0.2087 -0.8857  0.2730
  488MPD2    C4 7257   1.455   1.775  16.548 -0.0997 -0.7202 -0.5025
  488MPD2    C5 7258   1.477   1.750  16.416  0.5834  0.0791  0.3137
  488MPD2     H 7259   1.653   2.047  16.561  1.2725 -1.4048  0.6637
  488MPD2    H1 7260   1.388   1.714  16.608  0.0472  0.2392  0.6160
  488MPD2    H2 7261   1.566   1.792  16.228 -1.1547 -0.3995  0.4943
  488MPD2    H3 7262   1.411   1.676  16.373 -0.2597  1.3622 -0.6098
  488MPD2     N 7263   1.489   1.932  16.725 -0.3594  0.4743 -0.0979
  488MPD2    H5 7264   1.558   2.000  16.755 -0.4235 -1.5006  4.4310
  488MPD2    N1 7265   1.701   2.003  16.298  0.8036  0.1616 -0.0658
  488MPD2    H7 7266   1.722   2.098  16.330 -3.5502  1.5466 -1.2919
  489TMC3    C1 7267   1.430   1.960  16.954  0.4704 -0.3195 -0.0734
  489TMC3    C2 7268   1.461   2.092  16.961 -0.2489 -0.0170 -0.1199
  489TMC3    C3 7269   1.530   2.130  17.073 -0.5288 -0.8372  0.3767
  489TMC3    C4 7270   1.435   1.879  17.062  0.0491 -0.5275  0.4241
  489TMC3    C5 7271   1.508   1.926  17.170  0.3252  0.2241  1.3697
  489TMC3    C6 7272   1.564   2.052  17.181 -0.1791 -0.5626  0.4164
  489TMC3     C 7273   1.410   1.889  16.824 -0.0077  0.6276 -0.5228
  489TMC3     O 7274   1.327   1.797  16.825  0.0320 -0.1872 -0.4656
  489TMC3     H 7275   1.467   2.144  16.866  2.5447 -1.4148 -0.7271
  489TMC3    H1 7276   1.409   1.777  17.035  0.9148 -0.9659  1.2196
  489TMC3    H2 7277   1.592   2.089  17.279 -0.4844 -1.8208  0.9751
  489TMC3    C7 7278   1.594   1.835  17.249 -0.4220  0.3745 -0.1127
  489TMC3    C8 7279   1.586   2.261  17.048  0.0774  0.1445  0.5734
  489TMC3    O1 7280   1.688   1.886  17.310  0.7664 -0.4568  0.2200
  489TMC3    O2 7281   1.533   2.339  16.966 -0.2863 -0.4029 -0.2915
  490MPD2     C 7282   2.783   2.046   0.174  0.2665  0.5451  0.8212
  490MPD2    C1 7283   2.806   1.954   0.077 -0.7737  0.1412  0.4840
  490MPD2    C2 7284   2.881   1.991  17.673  0.3958 -0.0553 -0.2263
  490MPD2    C3 7285   2.934   2.124  17.664  0.3231  0.3872 -0.5572
  490MPD2    C4 7286   2.899   2.220   0.054  0.2713  0.4431 -0.0600
  490MPD2    C5 7287   2.813   2.182   0.159 -0.4277  0.3631 -0.7265
  490MPD2     H 7288   2.903   1.918  17.596 -0.2725  0.2698 -0.7209
  490MPD2    H1 7289   2.938   2.321   0.050  0.3475  0.4282  0.3141
  490MPD2    H2 7290   2.721   2.021   0.259 -0.9869 -0.3686 -0.3758
  490MPD2    H3 7291   2.787   2.254   0.236  1.7740 -2.5513  2.7305
  490MPD2     N 7292   3.030   2.158  17.563  0.2052 -0.3638  0.0723
  490MPD2    H5 7293   3.045   2.256  17.543  0.6888 -0.8094 -1.7589
  490MPD2    N1 7294   2.758   1.817   0.084 -0.0605 -0.5813  0.4324
  490MPD2    H7 7295   2.778   1.749   0.011  0.2732 -0.0231  0.0055
  491TMC3    C1 7296   2.634   1.634   0.172  0.4595 -0.0322  0.4010
  491TMC3    C2 7297   2.621   1.559   0.288  0.0334  0.4787 -0.0582
  491TMC3    C3 7298   2.629   1.424   0.279  0.4919 -0.0831 -0.2356
  491TMC3    C4 7299   2.640   1.580   0.048  0.1285  0.5464 -0.1363
  491TMC3    C5 7300   2.640   1.442   0.038  0.4292  0.4662  0.8775
  491TMC3    C6 7301   2.648   1.364   0.153  0.1449  0.0751  0.2202
  491TMC3     C 7302   2.694   1.764   0.197 -0.0721  0.1210 -0.5478
  491TMC3     O 7303   2.683   1.802   0.309 -0.5045  0.0638  0.2163
  491TMC3     H 7304   2.607   1.606   0.385  2.2634  0.0682  0.4471
  491TMC3    H1 7305   2.632   1.638  17.664  0.6991 -0.5359 -0.8781
  491TMC3    H2 7306   2.662   1.256   0.150  0.6980  0.1111  1.4753
  491TMC3    C7 7307   2.622   1.368  17.619  0.1986 -1.0829 -0.8368
  491TMC3    C8 7308   2.571   1.346   0.396  0.4772 -0.8151  0.4864
  491TMC3    O1 7309   2.574   1.258  17.631  0.3178 -0.4538 -0.2658
  491TMC3    O2 7310   2.489   1.404   0.464 -0.4859  0.2607 -0.8011
  492MPD2     C 7311   3.208   1.139  11.441 -0.1458 -0.2535  0.8291
  492MPD2    C1 7312   3.122   1.063  11.362  0.9731 -0.1046  0.1517
  492MPD2    C2 7313   3.038   0.977  11.429  0.0351  0.0114  0.1504
  492MPD2    C3 7314   3.039   0.961  11.561  0.2887  0.5973 -0.1776
  492MPD2    C4 7315   3.124   1.036  11.640 -0.4867  0.0638  0.0627
  492MPD2    C5 7316   3.208   1.123  11.578 -0.1871  0.0065  0.0804
  492MPD2     H 7317   2.955   0.929  11.379 -0.2773  0.9692 -0.2586
  492MPD2    H1 7318   3.122   1.025  11.748  0.5367 -0.7057  0.0054
  492MPD2    H2 7319   3.265   1.216  11.390 -1.1961 -0.5918 -0.8533
  492MPD2    H3 7320   3.283   1.177  11.634 -0.9172 -0.5574  1.6207
  492MPD2     N 7321   2.954   0.874  11.627  0.0728  0.3653  0.3259
  492MPD2    H5 7322   2.961   0.879  11.728 -0.5639 -1.2691  0.4517
  492MPD2    N1 7323   3.122   1.085  11.220  0.3326 -0.6538  0.0280
  492MPD2    H7 7324   3.192   1.146  11.180  0.1796 -0.9241 -0.6506
  493TMC3    C1 7325   3.041   1.059  10.992  0.1927  0.1357  0.2815
  493TMC3    C2 7326   3.134   1.142  10.938 -0.5184  0.0155  0.3569
  493TMC3    C3 7327   3.107   1.192  10.815 -0.9153 -0.0616  0.6050
  493TMC3    C4 7328   2.928   1.027  10.920  0.8119 -0.0781  0.8413
  493TMC3    C5 7329   2.912   1.063  10.789 -0.1889  0.2577 -0.1745
  493TMC3    C6 7330   3.011   1.136  10.728  0.5315  0.4863 -0.2131
  493TMC3     C 7331   3.042   1.012  11.132 -0.3618  0.5182 -0.0791
  493TMC3     O 7332   2.958   0.926  11.156  0.2836 -0.2579 -0.2050
  493TMC3     H 7333   3.220   1.189  10.986 -1.0932  1.3501  0.0950
  493TMC3    H1 7334   2.847   0.979  10.973  0.1181  1.6341  1.3349
  493TMC3    H2 7335   3.002   1.176  10.627 -1.2492  1.9164  0.5112
  493TMC3    C7 7336   2.782   1.056  10.720 -1.2474  0.7884 -0.5039
  493TMC3    C8 7337   3.235   1.233  10.761 -0.5517 -0.3043 -0.0280
  493TMC3    O1 7338   2.780   1.103  10.606  0.7636 -0.4558 -0.4829
  493TMC3    O2 7339   3.321   1.145  10.776 -0.6455 -0.2736 -0.0913
  494TMC3    C1 7340   3.511   3.184   0.562 -0.3268 -0.2789  0.2530
  494TMC3    C2 7341   3.594   3.081   0.529 -0.3145  0.7214 -0.4649
  494TMC3    C3 7342   3.579   3.023   0.408 -0.1863  0.3869 -0.3824
  494TMC3    C4 7343   3.435   3.243   0.459 -0.4205  0.6883  0.4187
  494TMC3    C5 7344   3.426   3.187   0.335 -0.0535 -0.1410 -1.0000
  494TMC3    C6 7345   3.494   3.069   0.313 -0.0731 -0.8538  0.4896
  494TMC3     C 7346   3.537   3.255   0.684 -0.3066  0.1480 -1.1113
  494TMC3     O 7347   3.605   3.189   0.763  0.0514 -0.1666  0.4854
  494TMC3     H 7348   3.662   3.034   0.599 -0.2434  1.2760 -0.1660
  494TMC3    H1 7349   3.369   3.328   0.477 -0.8587  0.2528  0.8656
  494TMC3    H2 7350   3.492   3.018   0.217  1.9455  0.1695 -0.1135
  494TMC3    C7 7351   3.379   3.265   0.223  0.0437  0.2856  0.4506
  494TMC3    C8 7352   3.635   2.891   0.385  0.8157 -0.4528 -0.1147
  494TMC3    O1 7353   3.367   3.204   0.117 -0.0560  0.1079 -0.3604
  494TMC3    O2 7354   3.705   2.886   0.288  0.2763  0.2503 -0.5532
  495TMC3    C1 7355   2.237   0.553  14.755  0.2583  0.2060 -0.2551
  495TMC3    C2 7356   2.152   0.560  14.648  0.3151 -0.7303  0.1251
  495TMC3    C3 7357   2.050   0.660  14.658 -0.4699 -0.6132 -0.1017
  495TMC3    C4 7358   2.237   0.640  14.860 -0.0781  0.7698  0.0737
  495TMC3    C5 7359   2.125   0.717  14.880 -0.0407 -1.0986 -0.1580
  495TMC3    C6 7360   2.034   0.730  14.775  0.7493 -0.0477  0.0254
  495TMC3     C 7361   2.312   0.433  14.776  0.3066 -0.1627 -0.0983
  495TMC3     O 7362   2.428   0.430  14.823 -0.0051 -0.3520  0.1027
  495TMC3     H 7363   2.153   0.485  14.570  0.1884 -1.0252  0.4091
  495TMC3    H1 7364   2.296   0.604  14.944  0.5263  0.7356 -0.3663
  495TMC3    H2 7365   1.945   0.791  14.787  0.9115  0.2623 -0.3570
  495TMC3    C7 7366   2.068   0.696  15.012 -0.0104  0.1364  0.3828
  495TMC3    C8 7367   1.938   0.641  14.567  0.7238 -0.4583  0.8922
  495TMC3    O1 7368   2.150   0.668  15.100  0.0130 -0.2691 -0.3033
  495TMC3    O2 7369   1.832   0.661  14.616 -0.7630  0.2829 -0.5791
  496MPD2     C 7370   3.701   0.476  15.320 -0.4995  0.0583  0.6653
  496MPD2    C1 7371   3.785   0.398  15.400  0.2531 -0.4856  0.1157
  496MPD2    C2 7372   3.747   0.350  15.523 -0.3728  0.0376 -1.0910
  496MPD2    C3 7373   3.622   0.384  15.573  0.3604 -0.2709  0.3932
  496MPD2    C4 7374   3.537   0.466  15.502 -0.0407 -0.1251 -0.1629
  496MPD2    C5 7375   3.571   0.509  15.368 -0.6136 -0.4937  0.3304
  496MPD2     H 7376   3.809   0.278  15.575  0.2700  0.4894 -1.2459
  496MPD2    H1 7377   3.433   0.469  15.531  0.5322  0.9655  1.7759
  496MPD2    H2 7378   3.741   0.515  15.227 -0.8854 -1.6108 -0.1917
  496MPD2    H3 7379   3.505   0.574  15.312  0.5927  1.5113  1.2203
  496MPD2     N 7380   3.567   0.350  15.700  0.1445 -0.6263  0.0699
  496MPD2    H5 7381   3.471   0.380  15.711  1.0396  1.3573  2.4364
  496MPD2    N1 7382   3.912   0.373  15.347 -1.0384  0.4059  0.0483
  496MPD2    H7 7383   3.925   0.398  15.250  1.0980 -0.6755  0.0397
  497TMC3    C1 7384   3.542   0.252  15.914 -0.7261 -0.3175 -0.0131
  497TMC3    C2 7385   3.406   0.266  15.886 -0.9592  0.0158 -0.0200
  497TMC3    C3 7386   3.324   0.264  16.001  0.0651  0.4844  0.6842
  497TMC3    C4 7387   3.593   0.239  16.036  0.0911  0.0666  0.1184
  497TMC3    C5 7388   3.510   0.223  16.142 -0.2539 -0.1598 -0.2576
  497TMC3    C6 7389   3.375   0.244  16.127 -0.5583 -0.5413 -0.1086
  497TMC3     C 7390   3.631   0.292  15.806 -0.2702 -0.6573  0.4547
  497TMC3     O 7391   3.749   0.251  15.813  0.5596 -0.1705 -0.2176
  497TMC3     H 7392   3.367   0.258  15.786 -1.9707 -1.5813  0.5034
  497TMC3    H1 7393   3.701   0.244  16.050  0.1652 -2.0282  0.3214
  497TMC3    H2 7394   3.310   0.221  16.211 -0.6143 -0.1054 -0.0344
  497TMC3    C7 7395   3.554   0.240  16.278  0.5141  0.3358 -0.1586
  497TMC3    C8 7396   3.182   0.257  15.974 -0.5200  0.3426 -0.0502
  497TMC3    O1 7397   3.460   0.247  16.358 -0.6852 -0.6324 -0.1052
  497TMC3    O2 7398   3.154   0.258  15.860  0.0335 -0.2400  0.5479
  498MPD2     C 7399   0.553   0.497   8.945 -0.2604  0.5629  0.5779
  498MPD2    C1 7400   0.592   0.621   9.002 -0.2746  0.6541 -0.1302
  498MPD2    C2 7401   0.491   0.716   9.023 -0.2722  0.1824  0.1365
  498MPD2    C3 7402   0.361   0.695   8.977  0.0419 -0.0121 -0.3064
  498MPD2    C4 7403   0.330   0.576   8.922  0.6879 -0.0708  0.6114
  498MPD2    C5 7404   0.421   0.475   8.905  0.3435  0.6999 -0.1704
  498MPD2     H 7405   0.520   0.805   9.077  0.1869  0.4699 -0.5810
  498MPD2    H1 7406   0.227   0.553   8.895  0.4478  0.1772  1.3184
  498MPD2    H2 7407   0.620   0.416   8.917 -0.6943  0.1520  0.7209
  498MPD2    H3 7408   0.407   0.376   8.863 -1.3335  0.8956 -0.0591
  498MPD2     N 7409   0.273   0.806   8.998 -0.2225  0.4037 -0.1577
  498MPD2    H5 7410   0.303   0.886   9.053  0.0997  0.5043 -0.4804
  498MPD2    N1 7411   0.720   0.647   9.061 -0.1690 -0.1742 -0.6559
  498MPD2    H7 7412   0.738   0.745   9.082  1.9827 -0.6625 -0.1848
  499TMC3    C1 7413   0.939   0.599   9.108  0.4766  0.3881 -0.7414
  499TMC3    C2 7414   1.038   0.507   9.120 -0.3322  0.2069  0.7230
  499TMC3    C3 7415   1.163   0.546   9.175  0.0977 -0.1092 -0.3452
  499TMC3    C4 7416   0.957   0.729   9.151  0.1410  0.2236  0.1678
  499TMC3    C5 7417   1.082   0.763   9.194 -0.6749 -0.1644  0.2955
  499TMC3    C6 7418   1.184   0.674   9.227  0.1530  0.3838  0.1981
  499TMC3     C 7419   0.811   0.544   9.079  0.4252  0.4920  0.5818
  499TMC3     O 7420   0.794   0.424   9.085  0.0383 -0.1821 -0.5185
  499TMC3     H 7421   1.028   0.407   9.078  0.5954 -0.1631  1.3934
  499TMC3    H1 7422   0.884   0.807   9.130 -1.1181 -0.3791  2.2935
  499TMC3    H2 7423   1.284   0.704   9.256  0.3532 -1.4837  1.4104
  499TMC3    C7 7424   1.106   0.907   9.221 -0.1378 -0.3255 -0.1652
  499TMC3    C8 7425   1.279   0.456   9.180  0.3013  0.0202 -0.2532
  499TMC3    O1 7426   1.024   0.990   9.178  0.3250 -0.6530 -0.3770
  499TMC3    O2 7427   1.370   0.483   9.261 -0.4820  0.1012 -0.2899
  500MPD2     C 7428   2.152   1.801  10.400 -0.2130 -0.2705 -0.3620
  500MPD2    C1 7429   2.139   1.939  10.418 -0.3952  0.0551 -0.1293
  500MPD2    C2 7430   2.035   2.005  10.362  0.4841  0.9501 -0.1916
  500MPD2    C3 7431   1.935   1.942  10.291 -1.0557 -0.0077  0.1543
  500MPD2    C4 7432   1.947   1.808  10.279 -0.4530  0.6996  0.0363
  500MPD2    C5 7433   2.056   1.738  10.325  0.1793  0.9386  0.1987
  500MPD2     H 7434   2.028   2.113  10.373 -0.5535  0.6188  2.3093
  500MPD2    H1 7435   1.865   1.748  10.240  1.2506 -0.6165 -1.5246
  500MPD2    H2 7436   2.230   1.742  10.445  0.6014  1.0070 -0.0945
  500MPD2    H3 7437   2.063   1.631  10.307 -0.1164  0.6362  1.9409
  500MPD2     N 7438   1.829   2.001  10.223  0.1584 -0.4493 -0.1643
  500MPD2    H5 7439   1.757   1.936  10.192  0.0073 -1.1038  1.5036
  500MPD2    N1 7440   2.212   2.022  10.503  0.5795  0.2251  0.0356
  500MPD2    H7 7441   2.201   2.122  10.490 -0.0574 -0.0359 -1.5223
  501TMC3    C1 7442   2.388   2.068  10.647 -0.5973 -0.4268 -0.8702
  501TMC3    C2 7443   2.358   2.203  10.625 -0.3199 -0.3391  0.3461
  501TMC3    C3 7444   2.456   2.294  10.651 -0.0708  0.0838 -0.4871
  501TMC3    C4 7445   2.509   2.033  10.701  0.6689 -0.4024  0.5675
  501TMC3    C5 7446   2.599   2.133  10.737  0.8539  0.1110  0.0051
  501TMC3    C6 7447   2.569   2.263  10.709  0.2301  0.4191 -0.4052
  501TMC3     C 7448   2.304   1.966  10.592  0.1775 -0.0915  0.1658
  501TMC3     O 7449   2.319   1.854  10.630 -0.3060 -0.4103 -0.6036
  501TMC3     H 7450   2.260   2.237  10.593 -0.2785 -1.4471 -1.0073
  501TMC3    H1 7451   2.531   1.927  10.713 -0.6563 -0.5427  1.6751
  501TMC3    H2 7452   2.639   2.343  10.731  0.3889  0.4035 -0.8652
  501TMC3    C7 7453   2.730   2.094  10.778  0.7916  0.6430 -0.0667
  501TMC3    C8 7454   2.413   2.432  10.674  0.2951 -0.3081 -0.4606
  501TMC3    O1 7455   2.748   1.973  10.796 -0.3255  0.2262  0.0785
  501TMC3    O2 7456   2.481   2.500  10.749  0.6228 -0.3611  0.3612
  502TMC3    C1 7457   1.583   1.307  15.380  0.0151 -0.5294  0.7882
  502TMC3    C2 7458   1.539   1.440  15.373 -0.6158  0.1879  0.2252
  502TMC3    C3 7459   1.413   1.470  15.325 -0.6502 -0.5044  0.2223
  502TMC3    C4 7460   1.499   1.206  15.346  0.1404  0.3930  0.0535
  502TMC3    C5 7461   1.372   1.238  15.309  0.8063 -0.8824 -0.0715
  502TMC3    C6 7462   1.331   1.368  15.294 -0.7425  0.0825 -0.0512
  502TMC3     C 7463   1.699   1.281  15.455 -0.0378  0.4053  0.1573
  502TMC3     O 7464   1.779   1.373  15.471  0.3493 -0.1721 -0.3550
  502TMC3     H 7465   1.604   1.522  15.401 -1.1177  0.6453  0.0364
  502TMC3    H1 7466   1.523   1.101  15.340 -0.8885  0.1526  0.2054
  502TMC3    H2 7467   1.244   1.392  15.235 -1.3483 -1.3584  0.2558
  502TMC3    C7 7468   1.297   1.152  15.226 -0.2244 -0.6050  0.6567
  502TMC3    C8 7469   1.367   1.608  15.317 -0.7332 -0.4130  0.5513
  502TMC3    O1 7470   1.358   1.093  15.138  0.2137 -0.3493  0.0120
  502TMC3    O2 7471   1.454   1.694  15.330 -0.2034  0.3110 -0.0818
  503MPD2     C 7472   3.534   1.753  16.795  0.4404 -0.4298  0.1421
  503MPD2    C1 7473   3.567   1.818  16.912 -0.2434  0.9444 -0.3203
  503MPD2    C2 7474   3.629   1.754  17.018 -0.1610 -0.1880  0.0445
  503MPD2    C3 7475   3.652   1.618  17.008 -0.4322  0.7030  0.4759
  503MPD2    C4 7476   3.609   1.549  16.898  0.0930 -0.0282 -0.1993
  503MPD2    C5 7477   3.562   1.618  16.790 -0.5881 -1.0848  0.6582
  503MPD2     H 7478   3.658   1.805  17.109 -1.3757 -1.9203  1.3942
  503MPD2    H1 7479   3.626   1.442  16.891 -2.7557 -0.5511  0.8877
  503MPD2    H2 7480   3.500   1.805  16.706  0.9055  1.2440  0.9293
  503MPD2    H3 7481   3.531   1.575  16.696 -0.4251  1.0249 -0.3586
  503MPD2     N 7482   3.731   1.560  17.107 -0.1607  0.2846 -0.1154
  503MPD2    H5 7483   3.742   1.614  17.191 -1.0313 -2.0883  1.5387
  503MPD2    N1 7484   3.555   1.960  16.921 -0.0788  0.0497 -0.5490
  503MPD2    H7 7485   3.574   1.995  17.014 -0.0166  0.8095 -0.8520
  504TMC3    C1 7486   3.855   1.391  17.214  0.5750  0.1537  0.3735
  504TMC3    C2 7487   3.811   1.426  17.340 -0.0139 -0.3351 -0.1127
  504TMC3    C3 7488   3.888   1.393  17.445  0.0405 -1.1410 -0.1494
  504TMC3    C4 7489   3.967   1.314  17.194 -0.3964 -0.7948 -0.2044
  504TMC3    C5 7490   4.043   1.291  17.302 -0.0295  0.1230  0.0002
  504TMC3    C6 7491   4.008   1.323  17.427  0.5818 -0.1049  0.0094
  504TMC3     C 7492   3.800   1.441  17.091  0.5835 -0.0445  0.4576
  504TMC3     O 7493   3.827   1.374  16.995  1.0250 -0.2078 -0.0479
  504TMC3     H 7494   3.716   1.471  17.363 -0.5339 -0.7092 -1.5736
  504TMC3    H1 7495   3.986   1.270  17.097 -0.6941 -0.5527 -0.3753
  504TMC3    H2 7496   4.090   1.309  17.497  1.0487  2.9216  0.0833
  504TMC3    C7 7497   4.163   1.220  17.280  0.4655  0.1455 -0.5033
  504TMC3    C8 7498   3.840   1.436  17.574  0.2582  0.2469  0.4639
  504TMC3    O1 7499   4.233   1.261  17.186  0.2699 -0.2091 -0.4278
  504TMC3    O2 7500   3.727   1.488  17.577  0.4697 -0.6180  0.0216
  505MPD2     C 7501   3.948   1.221   9.936 -0.7819  1.1371  0.6937
  505MPD2    C1 7502   3.988   1.090   9.954  0.8126  0.0868  0.1278
  505MPD2    C2 7503   4.085   1.058  10.047  0.3741  0.5526  0.3913
  505MPD2    C3 7504   4.162   1.164  10.092  0.6069  0.4766 -0.2378
  505MPD2    C4 7505   4.134   1.297  10.059  0.7405 -0.0120 -0.8545
  505MPD2    C5 7506   4.028   1.325   9.981 -0.4104 -0.6782  0.1507
  505MPD2     H 7507   4.103   0.954  10.073 -0.4214  0.3204  0.0002
  505MPD2    H1 7508   4.185   1.382  10.103  1.4941 -1.2907  0.7474
  505MPD2    H2 7509   3.863   1.239   9.872 -0.1034  3.0481  0.3211
  505MPD2    H3 7510   4.000   1.421   9.939  2.4145 -0.0348 -0.2302
  505MPD2     N 7511   4.282   1.144  10.160 -0.3288 -0.1524 -0.4849
  505MPD2    H5 7512   4.349   1.220  10.164  0.1324 -0.5149 -1.2504
  505MPD2    N1 7513   3.908   0.990   9.897 -0.1926  0.0987  0.8806
  505MPD2    H7 7514   3.844   1.010   9.821 -1.5691 -1.0417  1.7606
  506TMC3    C1 7515   3.836   0.767   9.839  0.0998 -0.7185  0.1603
  506TMC3    C2 7516   3.822   0.817   9.713 -0.4851 -0.2795 -0.2914
  506TMC3    C3 7517   3.869   0.736   9.611  0.5788 -0.4365 -0.1775
  506TMC3    C4 7518   3.870   0.635   9.859 -0.1575 -0.4916 -0.6704
  506TMC3    C5 7519   3.908   0.558   9.751  0.1848 -0.1746 -0.4124
  506TMC3    C6 7520   3.910   0.608   9.631  0.1539 -0.4266 -0.4040
  506TMC3     C 7521   3.911   0.854   9.932 -0.3587 -0.0057  0.1171
  506TMC3     O 7522   3.976   0.791  10.013 -0.6309  0.0118 -0.7353
  506TMC3     H 7523   3.779   0.914   9.689 -0.5714 -0.2938 -0.1963
  506TMC3    H1 7524   3.865   0.594   9.959 -0.8172 -0.1598 -0.5693
  506TMC3    H2 7525   3.946   0.546   9.549 -0.5528  2.4072 -2.8618
  506TMC3    C7 7526   4.034   0.490   9.774  0.0810 -0.3251 -0.8734
  506TMC3    C8 7527   3.876   0.795   9.478  0.2690  0.9087 -0.2337
  506TMC3    O1 7528   4.067   0.400   9.696 -1.0354 -0.5854  0.2610
  506TMC3    O2 7529   3.789   0.873   9.447 -0.6752 -0.8225  0.3684
  507TMC3    C1 7530   4.622   1.330  15.183 -0.0629 -0.1657 -0.1870
  507TMC3    C2 7531   4.590   1.227  15.098 -0.3908  0.2605  0.1340
  507TMC3    C3 7532   4.676   1.194  14.996  0.1167 -0.1707  0.4890
  507TMC3    C4 7533   0.009   1.408  15.161 -0.4256 -0.9316 -0.3290
  507TMC3    C5 7534   0.076   1.391  15.041  0.0190 -0.2616  0.5115
  507TMC3    C6 7535   0.059   1.276  14.968  0.1476 -0.0092  0.0311
  507TMC3     C 7536   4.576   1.302  15.318 -0.1637  0.7453  0.3480
  507TMC3     O 7537   4.470   1.243  15.330 -0.1028  0.1684  0.5846
  507TMC3     H 7538   4.510   1.156  15.115  0.3707 -0.4861  0.6717
  507TMC3    H1 7539   0.026   1.494  15.225  0.5345 -0.4653 -1.1999
  507TMC3    H2 7540   0.111   1.257  14.875  0.2023  2.7643 -0.4824
  507TMC3    C7 7541   0.064   1.505  14.948 -0.3928  1.2019  0.3868
  507TMC3    C8 7542   4.601   1.150  14.881  0.2970  0.6264 -0.1679
  507TMC3    O1 7543   0.054   1.476  14.828  0.5253 -0.1073 -0.2913
  507TMC3    O2 7544   4.499   1.082  14.897  0.8633 -0.2801  0.5931
  508MPD2     C 7545   0.919   3.357  15.933 -0.3681 -1.2862 -0.0668
  508MPD2    C1 7546   0.892   3.473  15.994 -0.1343  0.1107 -0.1011
  508MPD2    C2 7547   0.869   3.594  15.926 -1.1918 -0.7159 -0.2639
  508MPD2    C3 7548   0.852   3.579  15.794  0.0702  0.0142  0.4613
  508MPD2    C4 7549   0.858   3.460  15.731 -0.5230 -0.4881  0.0364
  508MPD2    C5 7550   0.894   3.350  15.798  0.3740 -0.6582  0.1601
  508MPD2     H 7551   0.862   3.689  15.977 -1.4279  0.1940 -1.9688
  508MPD2    H1 7552   0.835   3.455  15.625 -0.9962  0.8689  0.0741
  508MPD2    H2 7553   0.946   3.264  15.980 -0.4793 -0.2202  2.0991
  508MPD2    H3 7554   0.907   3.259  15.741 -1.4747  0.3907 -1.9410
  508MPD2     N 7555   0.816   3.702  15.725  0.4761 -0.3951 -0.1044
  508MPD2    H5 7556   0.806   3.786  15.782 -1.3588 -0.1678 -0.7630
  508MPD2    N1 7557   0.906   3.477  16.136 -0.4485 -0.6591 -0.0926
  508MPD2    H7 7558   0.956   3.398  16.176 -0.4440 -0.7206 -0.2189
  509TMC3    C1 7559   0.598   4.018  15.554  0.0750 -0.3860 -0.2018
  509TMC3    C2 7560   0.624   4.035  15.422  0.0908  0.3316 -0.1068
  509TMC3    C3 7561   0.714   3.964  15.356  0.1316 -0.2729  0.4750
  509TMC3    C4 7562   0.665   3.913  15.616  0.9977  0.7658  0.2279
  509TMC3    C5 7563   0.750   3.832  15.538  0.0957 -0.0808  0.0211
  509TMC3    C6 7564   0.779   3.854  15.408  0.3740 -1.0381 -0.4572
  509TMC3     C 7565   0.610   4.135  15.634  0.2182  0.7417 -0.7021
  509TMC3     O 7566   0.679   4.129  15.735  0.1377 -0.2344 -0.0420
  509TMC3     H 7567   0.566   4.110  15.369  0.5887 -0.9123 -2.3930
  509TMC3    H1 7568   0.652   3.899  15.722  0.3368 -1.0440 -0.0916
  509TMC3    H2 7569   0.847   3.796  15.346  2.1445 -1.4183  1.8264
  509TMC3    C7 7570   0.807   3.709  15.590 -0.1410  0.0619  0.4253
  509TMC3    C8 7571   0.809   4.047  15.276  0.6466 -0.3312 -1.0184
  509TMC3    O1 7572   0.821   3.626  15.498 -0.2879  0.5372 -0.6208
  509TMC3    O2 7573   0.894   3.987  15.211 -0.8831 -0.3848 -0.2567
  510MPD2     C 7574   3.402   0.792  14.645  0.1613  0.2326  0.2238
  510MPD2    C1 7575   3.485   0.707  14.720  0.9102 -0.7866  0.0163
  510MPD2    C2 7576   3.610   0.676  14.671  0.5403 -0.2039 -0.3282
  510MPD2    C3 7577   3.657   0.742  14.556  0.3675  0.2413  0.3561
  510MPD2    C4 7578   3.577   0.839  14.492 -0.4778 -0.4488  0.1721
  510MPD2    C5 7579   3.458   0.866  14.539  0.3041 -0.0649 -0.0528
  510MPD2     H 7580   3.662   0.591  14.714 -1.1033 -1.4629 -0.8145
  510MPD2    H1 7581   3.615   0.906  14.416 -0.8684  2.4754  2.5661
  510MPD2    H2 7582   3.302   0.820  14.674 -1.2033 -1.1997 -3.0876
  510MPD2    H3 7583   3.404   0.950  14.496 -1.5605 -0.3055  1.7923
  510MPD2     N 7584   3.786   0.701  14.497 -0.4729  0.3867 -0.2243
  510MPD2    H5 7585   3.834   0.622  14.538 -3.1360 -0.8737  0.4837
  510MPD2    N1 7586   3.420   0.654  14.837  0.0424 -0.2551 -0.3600
  510MPD2    H7 7587   3.321   0.669  14.850  0.1360 -0.2477  0.3587
  511TMC3    C1 7588   3.397   0.522  15.037 -0.3751  0.2718  0.2273
  511TMC3    C2 7589   3.303   0.604  15.100  0.3936  0.1549 -0.8826
  511TMC3    C3 7590   3.189   0.546  15.151 -0.1400  0.0846 -0.7287
  511TMC3    C4 7591   3.386   0.383  15.059  0.0026 -0.4672  0.2291
  511TMC3    C5 7592   3.272   0.334  15.102 -0.3547 -0.1175 -0.1664
  511TMC3    C6 7593   3.169   0.410  15.144  0.1793  0.2064  0.3514
  511TMC3     C 7594   3.487   0.569  14.926  0.1848  0.2752  0.0879
  511TMC3     O 7595   3.598   0.515  14.921  0.0048 -0.7138 -0.3480
  511TMC3     H 7596   3.321   0.711  15.111 -0.4137 -0.1254  2.8915
  511TMC3    H1 7597   3.470   0.318  15.037  0.2526 -0.0047 -0.1965
  511TMC3    H2 7598   3.072   0.369  15.167  0.0736 -0.1518 -0.7267
  511TMC3    C7 7599   3.230   0.226  15.019 -0.5477 -0.5328  0.0596
  511TMC3    C8 7600   3.133   0.613  15.267  0.0803  0.4308  0.1498
  511TMC3    O1 7601   3.272   0.239  14.904 -0.0919 -0.4251 -0.1137
  511TMC3    O2 7602   3.153   0.731  15.280  0.4570  0.4869 -0.1401
  512TMC3    C1 7603   2.569   4.672  13.345 -0.1534 -0.4392  0.0618
  512TMC3    C2 7604   2.547   4.671  13.480 -0.4760  0.3272  0.1075
  512TMC3    C3 7605   2.614   4.589  13.565 -0.2035 -0.5472 -0.5275
  512TMC3    C4 7606   2.647   4.570  13.290 -0.8925  0.1457  0.2713
  512TMC3    C5 7607   2.700   4.473  13.372  0.5543  0.4501  0.9184
  512TMC3    C6 7608   2.679   4.484  13.513  0.0127  0.2299  0.2987
  512TMC3     C 7609   2.465   0.008  13.267 -0.0587  0.3737 -0.4888
  512TMC3     O 7610   2.398   0.091  13.323 -0.1124  0.1686 -0.0447
  512TMC3     H 7611   2.488   0.024  13.523  1.7833  1.2362  1.5481
  512TMC3    H1 7612   2.649   4.547  13.184 -2.9063  1.6461 -0.0967
  512TMC3    H2 7613   2.734   4.415  13.576  1.7172  2.5586  1.3505
  512TMC3    C7 7614   2.808   4.390  13.316 -0.3574 -0.0444  0.5723
  512TMC3    C8 7615   2.635   4.621  13.702 -0.6043  0.3480 -0.4056
  512TMC3    O1 7616   2.874   4.452  13.235 -0.0440 -0.3640 -0.3409
  512TMC3    O2 7617   2.637   4.524  13.777 -0.3584 -0.6267 -0.0608
  513MPD2     C 7618   0.155   4.355  12.929  0.0712 -0.5885 -0.2385
  513MPD2    C1 7619   0.239   4.461  12.924 -0.5614  0.1413  0.2712
  513MPD2    C2 7620   0.214   4.574  13.001  0.0810  0.0923 -0.0837
  513MPD2    C3 7621   0.111   4.569  13.094 -0.1136  0.6377  1.0175
  513MPD2    C4 7622   0.043   4.453  13.115  0.4106  0.2501  0.2622
  513MPD2    C5 7623   0.061   4.348  13.034  0.1683 -0.0804  0.6648
  513MPD2     H 7624   0.276   4.662  12.986 -0.2799 -0.3177 -4.0265
  513MPD2    H1 7625   4.682   4.448  13.180 -0.2928  1.6643 -0.5822
  513MPD2    H2 7626   0.182   4.267  12.871  0.0932 -1.8524  1.6912
  513MPD2    H3 7627   0.000   4.258  13.042 -1.1072  0.6945 -0.4463
  513MPD2     N 7628   0.077   4.685  13.163 -0.7749 -0.1824 -0.0485
  513MPD2    H5 7629   0.123   0.041  13.124  1.0371 -0.1189  2.2375
  513MPD2    N1 7630   0.351   4.466  12.840 -0.0835 -0.0244  0.4022
  513MPD2    H7 7631   0.419   4.536  12.865 -0.7264  1.1673 -1.1989
  514TMC3    C1 7632   0.500   4.413  12.672  0.2079 -0.8781 -1.0600
  514TMC3    C2 7633   0.483   4.391  12.542  0.0943 -0.1315  0.3290
  514TMC3    C3 7634   0.512   4.497  12.456  0.8240 -0.1951 -0.0649
  514TMC3    C4 7635   0.559   4.528  12.714  0.0936  0.8455 -0.2110
  514TMC3    C5 7636   0.578   4.638  12.630  0.4442  0.2297  0.4862
  514TMC3    C6 7637   0.547   4.625  12.497 -0.4632  0.4519 -0.6323
  514TMC3     C 7638   0.385   4.371  12.750 -0.5112 -0.0900 -0.1037
  514TMC3     O 7639   0.357   4.253  12.734 -0.6963 -0.3052 -0.0186
  514TMC3     H 7640   0.440   4.300  12.502  0.4024 -0.3067  0.3969
  514TMC3    H1 7641   0.578   4.539  12.820  1.9350 -0.2228 -0.4161
  514TMC3    H2 7642   0.570   4.704  12.426 -0.0451 -0.7374 -1.8165
  514TMC3    C7 7643   0.532   0.034  12.698 -0.2413  0.3500 -0.5686
  514TMC3    C8 7644   0.468   4.473  12.322 -0.1436  0.1648  0.0605
  514TMC3    O1 7645   0.413   0.032  12.736 -0.8703 -0.4750  0.1683
  514TMC3    O2 7646   0.454   4.356  12.289  0.0279  0.2731 -0.2347
  515MPD2     C 7647   2.443   2.044  14.546  0.6328  1.0557 -0.3495
  515MPD2    C1 7648   2.402   1.966  14.654 -0.4968  0.4094 -0.0882
  515MPD2    C2 7649   2.453   1.990  14.781  0.5847  0.2865 -0.0182
  515MPD2    C3 7650   2.555   2.084  14.792  0.6223  0.1633  1.1372
  515MPD2    C4 7651   2.613   2.146  14.679 -0.6054 -0.2031 -0.2411
  515MPD2    C5 7652   2.544   2.137  14.564  0.3588 -0.2952 -0.3118
  515MPD2     H 7653   2.415   1.932  14.864 -1.6936  1.6598 -0.1012
  515MPD2    H1 7654   2.698   2.211  14.698 -2.1095  1.6370  0.1193
  515MPD2    H2 7655   2.392   2.044  14.450  1.1495  0.2202 -0.6280
  515MPD2    H3 7656   2.582   2.188  14.476 -0.3974 -0.0073 -0.4702
  515MPD2     N 7657   2.619   2.108  14.912 -0.9204  0.3760 -0.0033
  515MPD2    H5 7658   2.699   2.170  14.911  1.5401 -2.7164  1.7211
  515MPD2    N1 7659   2.281   1.888  14.648  0.2873  0.5300 -0.4057
  515MPD2    H7 7660   2.243   1.847  14.734  2.0233  1.1445  0.6473
  516TMC3    C1 7661   2.101   1.762  14.549  0.8436 -0.3564  0.2072
  516TMC3    C2 7662   2.003   1.778  14.457  0.4833  0.1586 -0.0564
  516TMC3    C3 7663   1.900   1.690  14.461 -0.5820  0.0969  0.4052
  516TMC3    C4 7664   2.105   1.663  14.639 -0.3818  0.4359  0.2176
  516TMC3    C5 7665   1.999   1.575  14.635 -0.1575 -0.3613 -0.0959
  516TMC3    C6 7666   1.895   1.587  14.549  0.5071  0.5338  0.4742
  516TMC3     C 7667   2.224   1.840  14.535 -0.3901 -0.1943  0.2060
  516TMC3     O 7668   2.249   1.870  14.418  1.2688  0.6632  0.0518
  516TMC3     H 7669   2.003   1.864  14.392  1.5027  0.7557  0.7465
  516TMC3    H1 7670   2.191   1.647  14.703 -1.0996 -1.4398  0.7017
  516TMC3    H2 7671   1.827   1.504  14.530  0.1138  1.0341 -0.3167
  516TMC3    C7 7672   2.011   1.440  14.694 -0.6837 -0.3218  0.5585
  516TMC3    C8 7673   1.818   1.677  14.344 -1.1220  0.5042 -0.7600
  516TMC3    O1 7674   1.903   1.387  14.718  0.0170 -0.3474 -0.1153
  516TMC3    O2 7675   1.710   1.616  14.349  0.4087 -0.2915  1.1943
  517MPD2     C 7676   2.027   3.122   0.545  0.2089  0.4044 -0.1428
  517MPD2    C1 7677   2.113   3.184   0.461 -0.7448 -0.0868 -0.4707
  517MPD2    C2 7678   2.130   3.320   0.486 -0.5105 -0.1338 -0.2753
  517MPD2    C3 7679   2.066   3.397   0.583  0.2238  0.0997  0.0773
  517MPD2    C4 7680   1.983   3.332   0.661  0.7027 -0.2549  0.3208
  517MPD2    C5 7681   1.963   3.197   0.638 -0.2379  0.1337  0.4239
  517MPD2     H 7682   2.209   3.367   0.428  0.9938 -0.7238  1.2807
  517MPD2    H1 7683   1.925   3.374   0.743  0.7922  0.2122  0.1486
  517MPD2    H2 7684   1.996   3.020   0.526  0.8719  0.1701  0.0570
  517MPD2    H3 7685   1.892   3.145   0.701 -2.2818 -0.8338 -2.6769
  517MPD2     N 7686   2.090   3.533   0.619  0.0417 -0.4531  0.2145
  517MPD2    H5 7687   2.044   3.561   0.704 -1.0069  0.6094 -0.7069
  517MPD2    N1 7688   2.183   3.129   0.350 -0.2350  0.3570 -0.5209
  517MPD2    H7 7689   2.255   3.187   0.308 -1.3151  1.2968 -1.0722
  518TMC3    C1 7690   2.266   2.961   0.198 -0.1609 -0.2296  0.5675
  518TMC3    C2 7691   2.239   2.848   0.122 -0.1928  0.7819  0.1599
  518TMC3    C3 7692   2.329   2.816   0.023  0.0137  0.1334 -0.0125
  518TMC3    C4 7693   2.368   3.040   0.158 -0.3234 -0.1302 -0.2149
  518TMC3    C5 7694   2.448   3.004   0.047  0.0028 -0.0476  0.8194
  518TMC3    C6 7695   2.436   2.884  17.694  0.4426  0.0236  0.3961
  518TMC3     C 7696   2.177   2.995   0.313 -0.3170 -0.4678 -0.2182
  518TMC3     O 7697   2.080   2.924   0.335  0.0520  0.1434  0.1124
  518TMC3     H 7698   2.185   2.768   0.171  0.9241  0.2185  0.4687
  518TMC3    H1 7699   2.393   3.130   0.212 -1.6790 -2.3165  4.0499
  518TMC3    H2 7700   2.495   2.836  17.616 -0.9074  0.1033 -0.6728
  518TMC3    C7 7701   2.563   3.091   0.031 -0.9267  0.3203  0.5089
  518TMC3    C8 7702   2.293   2.703  17.648 -0.2768 -0.0977  0.2005
  518TMC3    O1 7703   2.561   3.197   0.089 -0.5759 -0.3256  0.0878
  518TMC3    O2 7704   2.375   2.651  17.569  0.2377  0.1134  0.3897
  519MPD2     C 7705   3.470   1.936  14.426 -1.1010  0.0860  0.2312
  519MPD2    C1 7706   3.469   1.931  14.289  0.2999 -1.2805  1.2438
  519MPD2    C2 7707   3.542   1.834  14.218 -0.0028 -0.4878 -0.5180
  519MPD2    C3 7708   3.607   1.739  14.288  0.3736  0.5961  0.8246
  519MPD2    C4 7709   3.616   1.743  14.424 -0.5708 -0.3585  0.0225
  519MPD2    C5 7710   3.540   1.837  14.491  0.0918  0.8687  0.6891
  519MPD2     H 7711   3.540   1.825  14.110  0.8044 -1.6235 -0.4390
  519MPD2    H1 7712   3.656   1.656  14.476 -0.5671 -0.0975  0.4533
  519MPD2    H2 7713   3.408   2.006  14.481 -0.4227  1.3597 -0.6375
  519MPD2    H3 7714   3.535   1.834  14.600 -2.6297 -2.4117  0.4487
  519MPD2     N 7715   3.658   1.623  14.219 -0.4380 -0.4174  0.3031
  519MPD2    H5 7716   3.723   1.570  14.276 -0.0586 -1.7106 -1.3225
  519MPD2    N1 7717   3.373   2.005  14.225  0.2954  0.4777 -0.1362
  519MPD2    H7 7718   3.302   2.052  14.282 -1.0024 -1.9299  0.2482
  520TMC3    C1 7719   3.677   1.451  14.057 -0.3224 -0.1297 -0.6066
  520TMC3    C2 7720   3.587   1.375  13.989 -0.4163  0.0919 -0.1029
  520TMC3    C3 7721   3.607   1.235  13.995 -0.0436 -0.5239 -0.4598
  520TMC3    C4 7722   3.769   1.401  14.143 -0.1322 -0.4901  0.2796
  520TMC3    C5 7723   3.783   1.265  14.138 -0.5350  0.0479  0.0654
  520TMC3    C6 7724   3.705   1.182  14.068 -0.4115 -0.5125  0.4055
  520TMC3     C 7725   3.629   1.587  14.089 -0.3922  0.3686 -0.3336
  520TMC3     O 7726   3.546   1.632  14.006  0.5184  0.6639 -0.5336
  520TMC3     H 7727   3.509   1.425  13.933 -0.7407  0.8459  1.0163
  520TMC3    H1 7728   3.850   1.461  14.183  0.2506  1.2646 -3.1447
  520TMC3    H2 7729   3.730   1.077  14.074  1.4047 -0.0617  0.8145
  520TMC3    C7 7730   3.909   1.215  14.177  0.0741  0.3623  0.4847
  520TMC3    C8 7731   3.557   1.154  13.887  0.4119  0.4018  0.1293
  520TMC3    O1 7732   3.923   1.187  14.295  0.4582  0.2211  0.0480
  520TMC3    O2 7733   3.611   1.046  13.874 -0.6918 -0.2504 -0.0210
  521MPD2     C 7734   4.632   4.546  17.457  0.2603 -0.6546 -0.2692
  521MPD2    C1 7735   4.567   4.431  17.418 -0.7293 -0.2699  0.0206
  521MPD2    C2 7736   4.643   4.334  17.347  0.3870  0.4548  0.3047
  521MPD2    C3 7737   0.049   4.347  17.334  0.2198  0.2039  0.8599
  521MPD2    C4 7738   0.116   4.466  17.369 -0.4619  0.2583  0.2029
  521MPD2    C5 7739   0.039   4.564  17.426  0.0267 -0.4441  0.0254
  521MPD2     H 7740   4.599   4.238  17.322 -0.5701  0.6790  1.1281
  521MPD2    H1 7741   0.222   4.483  17.356 -0.9208  2.6086 -0.5230
  521MPD2    H2 7742   4.576   4.621  17.512 -0.4818 -1.9854  0.7998
  521MPD2    H3 7743   0.086   4.657  17.456 -0.3893 -0.6294  1.2591
  521MPD2     N 7744   0.111   4.233  17.279 -0.1319 -0.4529 -0.2419
  521MPD2    H5 7745   0.053   4.162  17.235  0.0958 -0.6097 -0.2920
  521MPD2    N1 7746   4.428   4.410  17.437  0.6416 -0.0143 -0.3405
  521MPD2    H7 7747   4.390   4.327  17.392 -1.5933  0.9202 -0.1628
  522TMC3    C1 7748   0.279   4.103  17.176  0.0557 -0.0924 -0.0914
  522TMC3    C2 7749   0.375   4.022  17.224  0.1846 -0.1971 -0.0456
  522TMC3    C3 7750   0.375   3.890  17.176 -0.3383 -0.2503 -0.9675
  522TMC3    C4 7751   0.184   4.063  17.087 -0.2111  0.0355  0.1486
  522TMC3    C5 7752   0.186   3.933  17.043  0.5307  0.2762  0.3077
  522TMC3    C6 7753   0.295   3.853  17.073  0.0184 -0.2937 -0.9882
  522TMC3     C 7754   0.244   4.221  17.258 -0.4290  1.0037 -0.5410
  522TMC3     O 7755   0.336   4.269  17.324  0.4646  0.3343  0.2053
  522TMC3     H 7756   0.449   4.057  17.295  1.5212 -2.6487 -0.2111
  522TMC3    H1 7757   0.128   4.143  17.041 -1.2297 -0.0275  1.2887
  522TMC3    H2 7758   0.284   3.750  17.041  1.8016 -0.3409 -1.4818
  522TMC3    C7 7759   0.139   3.917  16.903 -0.1163 -0.3725 -0.3222
  522TMC3    C8 7760   0.499   3.824  17.200  0.2940 -0.3168  0.1696
  522TMC3    O1 7761   0.195   3.843  16.830  0.4312 -0.3129  1.0965
  522TMC3    O2 7762   0.549   3.857  17.308 -0.1779  0.6165 -0.0270
  523MPD2     C 7763   2.813   4.241  10.058 -0.0474  0.8725  0.2681
  523MPD2    C1 7764   2.698   4.165  10.067  0.0110 -0.0111 -0.5701
  523MPD2    C2 7765   2.587   4.201   9.985  0.1913  0.1517  0.3415
  523MPD2    C3 7766   2.599   4.310   9.899 -0.1307  0.9891 -0.9061
  523MPD2    C4 7767   2.712   4.389   9.910  0.3221  0.0769  0.6708
  523MPD2    C5 7768   2.815   4.361   9.993  0.1417 -0.3939  0.7839
  523MPD2     H 7769   2.494   4.144   9.987 -0.7327  1.6924  0.8123
  523MPD2    H1 7770   2.724   4.476   9.847  1.8589  1.1551  2.4792
  523MPD2    H2 7771   2.902   4.203  10.108 -2.0513 -1.4410  2.0749
  523MPD2    H3 7772   2.906   4.420   9.988 -1.0724  1.4983  0.9249
  523MPD2     N 7773   2.507   4.349   9.795  0.0825  0.4465 -0.4448
  523MPD2    H5 7774   2.520   4.434   9.741  3.2351 -0.4175 -0.9846
  523MPD2    N1 7775   2.695   4.049  10.147 -0.0728 -0.0700 -0.2301
  523MPD2    H7 7776   2.777   4.036  10.206  0.8972  0.4443 -1.4766
  524TMC3    C1 7777   2.290   4.352   9.698  0.0636 -0.2047 -0.1719
  524TMC3    C2 7778   2.208   4.276   9.627  0.5017  0.0355  0.4086
  524TMC3    C3 7779   2.121   4.326   9.536 -0.6814 -0.0124 -0.4183
  524TMC3    C4 7780   2.258   4.484   9.721  0.0741  0.4354 -0.0932
  524TMC3    C5 7781   2.167   4.540   9.626  0.5229  0.4954  1.2016
  524TMC3    C6 7782   2.103   4.463   9.533  0.0630  0.7595 -0.3273
  524TMC3     C 7783   2.389   4.275   9.778 -0.5824  0.1006 -0.1040
  524TMC3     O 7784   2.376   4.156   9.780 -0.6734 -0.5717  0.8327
  524TMC3     H 7785   2.231   4.171   9.615  0.4328  0.0536  0.1120
  524TMC3    H1 7786   2.309   4.536   9.801  2.1874 -0.3270 -0.9383
  524TMC3    H2 7787   2.050   4.501   9.447  1.1000  1.3128 -0.7184
  524TMC3    C7 7788   2.137   4.683   9.640 -0.3882  0.0751 -0.6792
  524TMC3    C8 7789   2.024   4.238   9.471  0.5831 -0.0207  0.2928
  524TMC3    O1 7790   2.138   0.008   9.753  0.3492 -0.1934  0.3304
  524TMC3    O2 7791   1.948   4.293   9.391 -0.1147 -0.3404  0.5803
  525MPD2     C 7792   0.147   1.040  14.628 -0.8600  0.0823 -0.1039
  525MPD2    C1 7793   0.252   1.041  14.722  0.0926 -0.4070 -0.3350
  525MPD2    C2 7794   0.320   1.159  14.740  0.3986 -0.1176  0.2819
  525MPD2    C3 7795   0.289   1.275  14.666  0.0328  0.8935  0.3488
  525MPD2    C4 7796   0.191   1.262  14.567  0.6708 -0.0820  0.2689
  525MPD2    C5 7797   0.118   1.146  14.554 -0.3422 -0.3751 -0.0953
  525MPD2     H 7798   0.398   1.164  14.815  0.7112  1.3773 -0.1442
  525MPD2    H1 7799   0.142   1.341  14.511 -1.6212 -1.9363 -0.3569
  525MPD2    H2 7800   0.091   0.951  14.602 -0.8918  0.1505 -0.2710
  525MPD2    H3 7801   0.057   1.124  14.467  0.4212  0.3545 -0.8121
  525MPD2     N 7802   0.357   1.394  14.690 -0.5214  0.5559  0.1177
  525MPD2    H5 7803   0.407   1.405  14.777 -1.2479  0.0681  0.5963
  525MPD2    N1 7804   0.285   0.931  14.804  0.1244 -0.0565  0.0248
  525MPD2    H7 7805   0.368   0.946  14.860  1.7802  2.2391 -3.0319
  526TMC3    C1 7806   0.277   0.702  14.876  0.4935 -0.2366 -0.4581
  526TMC3    C2 7807   0.223   0.622  14.974 -0.4149 -0.1950 -0.7792
  526TMC3    C3 7808   0.304   0.555  15.056  0.8009  0.0296  0.3060
  526TMC3    C4 7809   0.414   0.710  14.854  1.0278 -0.0060 -0.0625
  526TMC3    C5 7810   0.493   0.646  14.941 -0.2066 -0.1715  0.5893
  526TMC3    C6 7811   0.443   0.560  15.040  0.0030 -0.8372 -0.3717
  526TMC3     C 7812   0.204   0.813  14.817  0.0027  0.0704  0.0709
  526TMC3     O 7813   0.084   0.798  14.789  0.5126  0.0145  0.0346
  526TMC3     H 7814   0.116   0.632  14.990 -0.1203  0.9801  0.4497
  526TMC3    H1 7815   0.453   0.765  14.769  0.9460 -0.8991 -0.6766
  526TMC3    H2 7816   0.507   0.525  15.119 -0.8306  1.0348  1.1371
  526TMC3    C7 7817   0.632   0.623  14.901  0.7972  0.3306 -0.0902
  526TMC3    C8 7818   0.249   0.542  15.194 -0.4264  0.5858 -0.5325
  526TMC3    O1 7819   0.660   0.657  14.790 -0.1200  0.0984 -0.1479
  526TMC3    O2 7820   0.332   0.536  15.281  1.0017 -0.1593 -0.2957
  527MPD2     C 7821   3.669   2.597   1.196  0.4836 -0.0137  0.3745
  527MPD2    C1 7822   3.788   2.632   1.260 -0.4448  0.0168  0.7066
  527MPD2    C2 7823   3.869   2.723   1.197  0.1621 -0.2467 -0.0967
  527MPD2    C3 7824   3.837   2.771   1.069 -0.2762  0.2772  0.6659
  527MPD2    C4 7825   3.716   2.738   1.013  0.2708  0.6312  0.6438
  527MPD2    C5 7826   3.628   2.660   1.082 -1.0498  0.3375 -0.6619
  527MPD2     H 7827   3.960   2.768   1.235 -0.7763  2.3737 -0.9353
  527MPD2    H1 7828   3.671   2.777   0.923  2.0683  2.4221  0.5299
  527MPD2    H2 7829   3.597   2.542   1.255 -0.8805  1.7341  0.3444
  527MPD2    H3 7830   3.532   2.637   1.037 -0.6500 -0.0072 -1.3291
  527MPD2     N 7831   3.914   2.875   1.008  0.1872 -0.7120  0.7849
  527MPD2    H5 7832   3.997   2.906   1.056  1.0383 -1.5333 -0.1514
  527MPD2    N1 7833   3.822   2.585   1.384 -0.1307  0.0232 -0.3098
  527MPD2    H7 7834   3.895   2.634   1.435  0.0292  0.5876 -1.0746
  528TMC3    C1 7835   3.785   2.497   1.603 -0.5900  1.0383 -0.5710
  528TMC3    C2 7836   3.808   2.618   1.652  0.0326  0.2575  0.4356
  528TMC3    C3 7837   3.767   2.656   1.775 -1.2495 -0.1151 -0.8515
  528TMC3    C4 7838   3.715   2.405   1.678  0.8010  0.0084 -0.7609
  528TMC3    C5 7839   3.683   2.444   1.807 -0.6282  0.0819  0.3773
  528TMC3    C6 7840   3.707   2.564   1.864  0.1021  0.3724  0.3666
  528TMC3     C 7841   3.764   2.489   1.457 -0.0125 -0.6783 -0.1508
  528TMC3     O 7842   3.692   2.396   1.420 -0.1161  0.2072 -0.2099
  528TMC3     H 7843   3.837   2.698   1.585  0.2890 -0.2172 -0.0280
  528TMC3    H1 7844   3.679   2.314   1.632 -0.2202 -0.5598  1.1704
  528TMC3    H2 7845   3.695   2.584   1.970  1.5727 -0.0088  0.6125
  528TMC3    C7 7846   3.592   2.353   1.878  0.3519  0.4260  0.2339
  528TMC3    C8 7847   3.807   2.791   1.821 -0.4584  0.2934  0.0307
  528TMC3    O1 7848   3.523   2.407   1.959  0.0594  0.0725  0.2938
  528TMC3    O2 7849   3.901   2.841   1.767  0.0046  0.0333 -0.3932
  529MPD2     C 7850   0.553   2.350   0.783  1.0112 -1.2647 -0.3414
  529MPD2    C1 7851   0.642   2.252   0.746 -0.5261 -0.0761 -0.4237
  529MPD2    C2 7852   0.722   2.260   0.636  0.5422 -0.0597  0.0851
  529MPD2    C3 7853   0.713   2.371   0.556 -0.1719 -0.4496  0.2352
  529MPD2    C4 7854   0.622   2.470   0.586 -0.0411  0.3159 -0.3438
  529MPD2    C5 7855   0.549   2.466   0.707  0.4792  0.4800  0.1939
  529MPD2     H 7856   0.794   2.180   0.620  1.7635  1.7009 -3.2106
  529MPD2    H1 7857   0.634   2.570   0.546 -1.3924 -0.1581 -1.9356
  529MPD2    H2 7858   0.497   2.351   0.875  1.2946 -1.6097 -0.1688
  529MPD2    H3 7859   0.507   2.559   0.744  0.1160 -0.9095  3.2305
  529MPD2     N 7860   0.772   2.382   0.431 -0.4558  0.3992 -0.2805
  529MPD2    H5 7861   0.743   2.457   0.369  1.0430  0.0698 -1.3635
  529MPD2    N1 7862   0.671   2.145   0.838  0.5583  0.1834 -0.0278
  529MPD2    H7 7863   0.728   2.072   0.797 -1.2863 -2.5577  2.2609
  530TMC3    C1 7864   0.657   2.001   1.024  0.0775  0.6954 -0.1754
  530TMC3    C2 7865   0.639   2.000   1.159 -0.2803  0.3612 -0.1011
  530TMC3    C3 7866   0.664   1.884   1.227 -0.4946 -0.1830 -0.3389
  530TMC3    C4 7867   0.663   1.886   0.955 -0.6055  0.1652 -0.6992
  530TMC3    C5 7868   0.660   1.769   1.020  0.2079 -0.6227 -0.2468
  530TMC3    C6 7869   0.664   1.762   1.162 -0.4347  0.3131  0.5220
  530TMC3     C 7870   0.611   2.124   0.964 -0.2698 -0.2018  0.2861
  530TMC3     O 7871   0.528   2.185   1.025  0.6604 -0.2256 -0.3221
  530TMC3     H 7872   0.628   2.095   1.210 -0.3409 -0.8275  2.1061
  530TMC3    H1 7873   0.663   1.893   0.847 -0.4874  0.5837 -0.6691
  530TMC3    H2 7874   0.674   1.668   1.216  0.3671 -0.2670 -0.6242
  530TMC3    C7 7875   0.640   1.649   0.938  0.0813  0.1136  0.7809
  530TMC3    C8 7876   0.679   1.902   1.373 -1.2165 -0.2311  0.0682
  530TMC3    O1 7877   0.654   1.661   0.819 -0.8601 -0.1590  0.4611
  530TMC3    O2 7878   0.642   2.006   1.420  0.1037 -0.1181  0.1926
  531MPD2     C 7879   0.629   0.353  13.087  0.7947 -0.1503  0.5101
  531MPD2    C1 7880   0.515   0.292  13.055 -0.4165  0.0370  0.1783
  531MPD2    C2 7881   0.514   0.210  12.944 -0.2218  0.1417  0.7247
  531MPD2    C3 7882   0.630   0.189  12.865  0.1747  0.1719  0.0184
  531MPD2    C4 7883   0.740   0.246  12.913 -0.7441 -0.0947 -0.2908
  531MPD2    C5 7884   0.747   0.329  13.019  0.0081 -0.1161 -0.2094
  531MPD2     H 7885   0.423   0.166  12.907  0.8900 -0.6600 -1.0398
  531MPD2    H1 7886   0.833   0.237  12.859 -0.2299 -1.0062  0.7676
  531MPD2    H2 7887   0.634   0.424  13.170 -1.2936  2.8671 -1.9432
  531MPD2    H3 7888   0.837   0.389  13.027 -2.7974  3.9911  0.2914
  531MPD2     N 7889   0.634   0.097  12.758 -0.5950  0.2738  0.4239
  531MPD2    H5 7890   0.726   0.074  12.722 -0.5126 -0.2440  0.9765
  531MPD2    N1 7891   0.406   0.320  13.143  0.2626  0.4504 -0.1796
  531MPD2    H7 7892   0.421   0.381  13.222 -0.2755  0.8954 -0.4151
  532TMC3    C1 7893   0.197   0.237  13.242  0.1581 -0.7706  0.1794
  532TMC3    C2 7894   0.075   0.179  13.215 -0.3284  0.5737  0.2973
  532TMC3    C3 7895   0.003   0.116  13.310 -0.1824  0.3909 -0.4303
  532TMC3    C4 7896   0.257   0.217  13.365  0.4321  0.1665  0.6632
  532TMC3    C5 7897   0.179   0.164  13.465  0.4337 -1.0537  0.8197
  532TMC3    C6 7898   0.055   0.120  13.442 -0.3611 -0.3107 -0.2032
  532TMC3     C 7899   0.283   0.254  13.127  0.3314 -0.4247 -0.1276
  532TMC3     O 7900   0.229   0.200  13.033  0.7248  0.1781  0.1493
  532TMC3     H 7901   0.015   0.193  13.126  3.2537  2.6766 -1.7479
  532TMC3    H1 7902   0.359   0.251  13.380  0.9003 -0.6886 -0.6098
  532TMC3    H2 7903   0.005   0.070  13.525 -1.8233  2.6438  0.6748
  532TMC3    C7 7904   0.240   0.113  13.584 -0.1153 -0.1176 -0.2386
  532TMC3    C8 7905   4.714   4.707  13.268  0.0567 -0.0199 -0.1656
  532TMC3    O1 7906   0.176   0.122  13.687  0.0499  0.1220  0.0257
  532TMC3    O2 7907   4.653   4.627  13.337 -0.1218 -0.2923 -0.3212
  533TMC3    C1 7908   0.416   1.616  14.669  1.0019  0.0092 -0.0291
  533TMC3    C2 7909   0.540   1.657  14.635  0.2436 -0.0894  0.0444
  533TMC3    C3 7910   0.609   1.735  14.725  0.3995 -0.8951 -1.0256
  533TMC3    C4 7911   0.366   1.639  14.792 -0.4761  0.0041  0.0931
  533TMC3    C5 7912   0.435   1.708  14.890 -0.1784  0.0366  0.0601
  533TMC3    C6 7913   0.559   1.754  14.854  0.5216  0.2698  0.5206
  533TMC3     C 7914   0.366   1.498  14.598 -0.3604  0.2175  0.4002
  533TMC3     O 7915   0.366   1.496  14.479 -0.5553  0.2705 -0.1146
  533TMC3     H 7916   0.590   1.616  14.548 -3.7714  1.0641 -2.8109
  533TMC3    H1 7917   0.263   1.614  14.812 -0.6612  0.3525 -0.4424
  533TMC3    H2 7918   0.616   1.814  14.924  0.1024  0.2934  0.8411
  533TMC3    C7 7919   0.420   1.648  15.017  0.0234  0.3457 -0.0418
  533TMC3    C8 7920   0.726   1.812  14.695 -1.0965 -0.4389  0.1444
  533TMC3    O1 7921   0.350   1.549  15.016  0.4362 -0.1003 -0.3099
  533TMC3    O2 7922   0.733   1.917  14.755  0.7901 -0.0040 -0.2634
  534MPD2     C 7923   2.830   2.376   1.907  0.1968 -0.1045 -0.0731
  534MPD2    C1 7924   2.885   2.309   1.803  0.0599 -0.4097  0.2616
  534MPD2    C2 7925   2.804   2.228   1.723 -0.2086 -0.8377  0.0689
  534MPD2    C3 7926   2.669   2.216   1.744 -0.1830 -0.7649  0.5570
  534MPD2    C4 7927   2.617   2.292   1.845 -0.0984 -0.2687  0.4314
  534MPD2    C5 7928   2.695   2.366   1.930  0.7206 -0.0533 -0.0704
  534MPD2     H 7929   2.843   2.190   1.629  0.5021 -0.3763  0.1814
  534MPD2    H1 7930   2.510   2.299   1.859 -0.0651 -3.3390  2.4374
  534MPD2    H2 7931   2.893   2.444   1.963  0.8182  0.5279 -1.5313
  534MPD2    H3 7932   2.652   2.427   2.008  1.8824  0.0148  0.5123
  534MPD2     N 7933   2.578   2.161   1.655 -0.5357 -0.5022 -0.0759
  534MPD2    H5 7934   2.482   2.192   1.657  0.1813  1.8326 -1.3500
  534MPD2    N1 7935   3.020   2.318   1.765  0.0826 -0.0133  0.2238
  534MPD2    H7 7936   3.048   2.267   1.682 -1.3137 -1.7283  0.7993
  535TMC3    C1 7937   2.508   2.063   1.452  0.4011  0.0463  0.4690
  535TMC3    C2 7938   2.375   2.090   1.482  0.3250  0.5909 -0.1396
  535TMC3    C3 7939   2.292   2.119   1.372  0.3984 -0.3115 -0.2661
  535TMC3    C4 7940   2.556   2.061   1.324 -0.3819 -0.7485  0.4638
  535TMC3    C5 7941   2.472   2.087   1.225  0.0291 -0.2678  0.2099
  535TMC3    C6 7942   2.342   2.121   1.248 -0.7384 -0.2364  0.0324
  535TMC3     C 7943   2.614   2.077   1.553  0.2475 -0.7165 -1.0802
  535TMC3     O 7944   2.719   2.024   1.527  1.1583  0.6807 -0.1515
  535TMC3     H 7945   2.340   2.082   1.584 -2.5406  0.6130 -1.1032
  535TMC3    H1 7946   2.661   2.039   1.308  0.2125  2.3781 -0.0282
  535TMC3    H2 7947   2.270   2.140   1.169 -0.4811  1.0153  0.1042
  535TMC3    C7 7948   2.525   2.150   1.106  0.0379  0.3844 -0.0318
  535TMC3    C8 7949   2.149   2.123   1.391  0.5143 -0.4577  0.1252
  535TMC3    O1 7950   2.609   2.084   1.053  0.4861 -0.7398  0.7135
  535TMC3    O2 7951   2.080   2.103   1.292 -0.0757 -0.0636  0.4690
  536MPD2     C 7952   2.243   1.148  16.609 -0.1399  0.6078  0.5646
  536MPD2    C1 7953   2.184   1.040  16.675  0.2562 -0.1449 -0.3083
  536MPD2    C2 7954   2.099   0.957  16.598 -0.1121  0.3378  0.2505
  536MPD2    C3 7955   2.065   0.987  16.469 -0.4146  0.2634  0.2938
  536MPD2    C4 7956   2.122   1.099  16.411  0.1905 -0.0817  0.1651
  536MPD2    C5 7957   2.215   1.173  16.478  0.1935  0.6822  0.2707
  536MPD2     H 7958   2.054   0.869  16.643 -0.5034  0.6366  0.4447
  536MPD2    H1 7959   2.103   1.137  16.311 -0.5511 -0.6915  0.0739
  536MPD2    H2 7960   2.305   1.218  16.664 -0.1741 -0.0656  1.4579
  536MPD2    H3 7961   2.254   1.266  16.438 -1.0775  1.2686  0.4144
  536MPD2     N 7962   1.974   0.924  16.382  0.1146  0.9117  0.1165
  536MPD2    H5 7963   1.946   0.962  16.292  0.5110  2.2238  0.5538
  536MPD2    N1 7964   2.223   1.008  16.813  0.5019 -0.4446 -0.0561
  536MPD2    H7 7965   2.278   1.077  16.864 -0.7223  0.4666  0.0429
  537TMC3    C1 7966   2.239   0.867  17.011  0.3460  0.0981 -0.2109
  537TMC3    C2 7967   2.348   0.938  17.044  0.4608  0.4283 -0.2543
  537TMC3    C3 7968   2.380   0.935  17.180 -0.8665  0.2749 -0.2151
  537TMC3    C4 7969   2.152   0.814  17.101  0.5661 -0.3442 -0.4372
  537TMC3    C5 7970   2.180   0.830  17.236  0.1222 -0.2123 -0.2166
  537TMC3    C6 7971   2.290   0.882  17.273 -0.0430  0.2165 -0.2721
  537TMC3     C 7972   2.190   0.882  16.876  0.9907  0.7350 -0.3173
  537TMC3     O 7973   2.117   0.792  16.845 -0.1277 -0.1266 -0.1759
  537TMC3     H 7974   2.425   0.969  16.974 -0.7448  1.0662 -1.2968
  537TMC3    H1 7975   2.049   0.789  17.075 -0.2736  1.6103  0.9753
  537TMC3    H2 7976   2.323   0.913  17.371 -2.6691  0.5067  0.5167
  537TMC3    C7 7977   2.102   0.757  17.336 -0.0429  0.2283 -0.0256
  537TMC3    C8 7978   2.499   1.013  17.228 -0.1871  0.2828 -0.4954
  537TMC3    O1 7979   2.141   0.775  17.450 -0.5919 -0.2336  0.0400
  537TMC3    O2 7980   2.539   0.983  17.341 -0.3999  0.1192  0.3319
  538TMC3    C1 7981   2.940   3.940  11.248 -0.2218  0.2752 -0.2460
  538TMC3    C2 7982   3.070   3.950  11.218  0.0499 -0.8373 -0.5270
  538TMC3    C3 7983   3.112   3.942  11.088 -0.5924 -0.1808  0.3137
  538TMC3    C4 7984   2.854   3.923  11.145  0.1533 -0.0719  0.2387
  538TMC3    C5 7985   2.892   3.927  11.013 -0.0352 -0.3543 -0.2763
  538TMC3    C6 7986   3.025   3.933  10.980  0.2740  0.4579  0.1905
  538TMC3     C 7987   2.888   3.930  11.382  0.4350 -1.0360  0.1016
  538TMC3     O 7988   2.777   3.878  11.379 -0.1884  0.0968 -1.0225
  538TMC3     H 7989   3.145   3.952  11.297  0.2846 -1.1775 -0.7448
  538TMC3    H1 7990   2.747   3.910  11.160  0.3419 -0.7822  0.9462
  538TMC3    H2 7991   3.056   3.927  10.877  0.6651 -0.7317  0.3687
  538TMC3    C7 7992   2.810   4.022  10.943  0.4934  0.2730  0.3749
  538TMC3    C8 7993   3.258   3.939  11.073 -0.4049 -0.0822 -0.8419
  538TMC3    O1 7994   2.730   4.082  11.017 -0.1396 -0.3814 -0.0769
  538TMC3    O2 7995   3.329   3.944  11.173 -0.0165 -0.2652  0.0207
  539MPD2     C 7996   2.769   3.393  12.069  0.8436  0.0296 -0.2368
  539MPD2    C1 7997   2.744   3.361  11.936 -0.3541 -0.2148 -0.8831
  539MPD2    C2 7998   2.675   3.464  11.865  0.3186  0.0468 -0.1397
  539MPD2    C3 7999   2.651   3.591  11.920  0.1425 -0.1531 -0.6396
  539MPD2    C4 8000   2.685   3.616  12.048  0.0136  0.3547  0.5395
  539MPD2    C5 8001   2.737   3.515  12.122 -0.2291 -0.2342  0.7931
  539MPD2     H 8002   2.644   3.443  11.764 -0.2148  0.2153 -0.0079
  539MPD2    H1 8003   2.661   3.713  12.090 -0.9552  0.4021 -0.1265
  539MPD2    H2 8004   2.811   3.322  12.140 -1.8179  0.0973  1.3940
  539MPD2    H3 8005   2.737   3.518  12.231  1.2789  0.1517  0.7778
  539MPD2     N 8006   2.589   3.696  11.848  0.0908 -0.1379 -0.2399
  539MPD2    H5 8007   2.554   3.780  11.893  1.1217 -0.5164  1.2519
  539MPD2    N1 8008   2.754   3.230  11.876  0.3981 -0.2616  0.2964
  539MPD2    H7 8009   2.726   3.231  11.778  0.5350  0.4788  0.2606
  540TMC3    C1 8010   2.472   3.792  11.661 -0.5983 -0.2605  0.0188
  540TMC3    C2 8011   2.492   3.823  11.528 -0.5577  0.1458  0.4057
  540TMC3    C3 8012   2.432   3.930  11.470  0.3366  0.0990 -0.2518
  540TMC3    C4 8013   2.396   3.875  11.734 -0.0963 -0.9197 -0.9677
  540TMC3    C5 8014   2.337   3.986  11.677  1.1055  0.6244  0.1801
  540TMC3    C6 8015   2.355   4.012  11.547  0.0084  0.1521 -0.4124
  540TMC3     C 8016   2.565   3.689  11.710 -0.0467  0.0635  0.0147
  540TMC3     O 8017   2.616   3.617  11.628  0.6117 -0.1565 -0.4739
  540TMC3     H 8018   2.575   3.769  11.484 -0.9033  1.0857 -1.3741
  540TMC3    H1 8019   2.383   3.851  11.839 -2.4048 -0.8701 -1.2452
  540TMC3    H2 8020   2.297   4.086  11.492 -1.5415  0.5484  1.7427
  540TMC3    C7 8021   2.222   4.034  11.748 -0.2654 -0.0598  0.1331
  540TMC3    C8 8022   2.443   3.957  11.322 -0.0908  0.3805  0.6764
  540TMC3    O1 8023   2.167   3.960  11.822 -0.0559  0.1217 -0.1852
  540TMC3    O2 8024   2.437   4.074  11.285  0.4397  0.3942 -0.2336
  541MPD2     C 8025   1.544   0.164  13.593  0.1121  0.3386 -0.6648
  541MPD2    C1 8026   1.483   0.088  13.497 -0.2877  0.5103  0.1667
  541MPD2    C2 8027   1.475   0.141  13.369  0.4447  0.0609  0.3047
  541MPD2    C3 8028   1.531   0.259  13.331 -0.0507 -0.1040  0.1875
  541MPD2    C4 8029   1.605   0.330  13.420  0.0982 -0.3644 -0.5635
  541MPD2    C5 8030   1.607   0.282  13.550 -0.2691  0.0631 -0.3915
  541MPD2     H 8031   1.423   0.088  13.290 -0.3841  1.5158 -0.1369
  541MPD2    H1 8032   1.662   0.419  13.400 -0.4383  0.3752  1.1914
  541MPD2    H2 8033   1.564   0.126  13.692 -0.5930  0.7312 -0.3708
  541MPD2    H3 8034   1.679   0.330  13.616  0.7409 -0.5092 -1.0701
  541MPD2     N 8035   1.530   0.298  13.196 -0.6088 -0.4196 -0.4286
  541MPD2    H5 8036   1.551   0.397  13.189 -0.1881 -0.3740  1.4110
  541MPD2    N1 8037   1.419   4.695  13.534  0.5400  0.1248  0.2414
  541MPD2    H7 8038   1.450   4.665  13.626 -0.9865  1.3105  1.1499
  542TMC3    C1 8039   1.469   0.294  12.957 -0.1431  0.9916 -0.2920
  542TMC3    C2 8040   1.488   0.237  12.831 -0.4277  0.5589  0.7352
  542TMC3    C3 8041   1.431   0.300  12.721  0.4930 -0.9149  0.1378
  542TMC3    C4 8042   1.416   0.422  12.973  0.5082 -0.2620 -0.8896
  542TMC3    C5 8043   1.370   0.480  12.857 -0.2423  0.1757 -0.2047
  542TMC3    C6 8044   1.383   0.426  12.730  0.3685 -0.0742 -0.1850
  542TMC3     C 8045   1.494   0.219  13.086 -0.7338  0.4608  0.7915
  542TMC3     O 8046   1.501   0.097  13.082 -0.9676  0.3535 -0.2102
  542TMC3     H 8047   1.539   0.141  12.827  0.2527  1.1046 -3.1337
  542TMC3    H1 8048   1.369   0.442  13.068  2.5203 -0.6356  0.1841
  542TMC3    H2 8049   1.364   0.488  12.644  0.5266  2.0857  1.3333
  542TMC3    C7 8050   1.304   0.609  12.863  0.6487  0.4996 -0.2769
  542TMC3    C8 8051   1.423   0.221  12.599 -0.0043 -0.4456 -0.7787
  542TMC3    O1 8052   1.227   0.642  12.774 -0.1007 -0.9688  0.2220
  542TMC3    O2 8053   1.327   0.244  12.529 -1.0156  0.2951 -0.3163
  543TMC3    C1 8054   0.425   1.738  17.005 -0.5408 -0.5952 -0.2908
  543TMC3    C2 8055   0.335   1.634  16.971  0.0778  0.2629 -0.3235
  543TMC3    C3 8056   0.266   1.588  17.075 -0.3150  0.1462  0.5573
  543TMC3    C4 8057   0.444   1.788  17.131  0.0423 -0.3555  0.5843
  543TMC3    C5 8058   0.373   1.733  17.236 -0.4339  0.7685 -0.1084
  543TMC3    C6 8059   0.279   1.636  17.208 -0.5907  0.2232  0.4346
  543TMC3     C 8060   0.528   1.766  16.900  0.2777 -0.4232 -0.4671
  543TMC3     O 8061   0.642   1.778  16.940 -0.0864 -0.0606 -0.4595
  543TMC3     H 8062   0.314   1.587  16.875 -0.4684 -0.6398  0.2421
  543TMC3    H1 8063   0.532   1.849  17.150 -0.4413  0.5779 -0.2261
  543TMC3    H2 8064   0.233   1.587  17.293  0.9014 -0.1775  1.0076
  543TMC3    C7 8065   0.390   1.784  17.372  0.0774  1.0537 -0.2665
  543TMC3    C8 8066   0.273   1.448  17.068  0.4700  1.1399  0.0111
  543TMC3    O1 8067   0.472   1.874  17.388  0.2483 -0.3699 -0.3982
  543TMC3    O2 8068   0.350   1.400  16.988 -1.0516  0.2935  0.1339
  544MPD2     C 8069   0.151   1.004  17.290 -0.0745 -0.5371  0.1399
  544MPD2    C1 8070   0.258   1.036  17.206  0.1904 -0.1017  0.6596
  544MPD2    C2 8071   0.278   1.163  17.163 -0.3790  0.5359 -0.2647
  544MPD2    C3 8072   0.173   1.260  17.182  0.2978 -0.1328 -0.1210
  544MPD2    C4 8073   0.056   1.220  17.248 -0.0509 -0.8875  0.2150
  544MPD2    C5 8074   0.046   1.092  17.299 -0.0044 -1.4491 -0.4339
  544MPD2     H 8075   0.366   1.195  17.109 -0.0513  2.6229  1.4891
  544MPD2    H1 8076   4.694   1.282  17.254 -0.2729 -1.0051 -1.6602
  544MPD2    H2 8077   0.138   0.906  17.335 -0.5137 -0.7717 -0.4954
  544MPD2    H3 8078   4.681   1.060  17.349 -0.6854  1.9619  0.4893
  544MPD2     N 8079   0.177   1.397  17.144  0.6274 -0.8715 -0.4652
  544MPD2    H5 8080   0.103   1.462  17.170  1.0695 -0.2570 -0.7618
  544MPD2    N1 8081   0.346   0.926  17.173 -0.0807  0.2466  0.5536
  544MPD2    H7 8082   0.321   0.831  17.199 -1.4816 -0.4403 -3.3449
  545TMC3    C1 8083   0.557   0.820  17.149  0.2360 -0.2377 -0.0020
  545TMC3    C2 8084   0.670   0.804  17.082  0.5083  0.0741  0.2017
  545TMC3    C3 8085   0.760   0.710  17.123  0.1441  0.0462 -0.7177
  545TMC3    C4 8086   0.514   0.732  17.244  0.3355 -0.1868  0.7033
  545TMC3    C5 8087   0.607   0.641  17.286  0.3263 -0.0417  0.0419
  545TMC3    C6 8088   0.729   0.626  17.228 -0.7086 -0.4843 -0.0961
  545TMC3     C 8089   0.473   0.936  17.117 -0.9010  0.4309  0.4486
  545TMC3     O 8090   0.532   1.032  17.069 -0.3710 -0.2065 -0.1811
  545TMC3     H 8091   0.682   0.855  16.988 -0.0309  0.0992  0.1443
  545TMC3    H1 8092   0.421   0.748  17.298 -0.4687 -0.2942 -0.6269
  545TMC3    H2 8093   0.809   0.557  17.254 -1.6837 -1.5462  0.0770
  545TMC3    C7 8094   0.566   0.551  17.386  0.8705  0.0321 -0.5911
  545TMC3    C8 8095   0.901   0.702  17.069 -0.6764  0.0799 -0.5099
  545TMC3    O1 8096   0.456   0.561  17.438  0.2151  0.9483  0.3279
  545TMC3    O2 8097   0.957   0.591  17.077 -0.5667 -0.4214 -0.7084
  546MPD2     C 8098   2.160   1.318  17.692 -0.4829 -0.4271 -0.2244
  546MPD2    C1 8099   2.125   1.331  17.560  0.3046  0.3639  0.1242
  546MPD2    C2 8100   2.200   1.424  17.487  0.5633 -0.7036  0.2586
  546MPD2    C3 8101   2.276   1.525  17.551  0.2487 -1.0143 -0.2042
  546MPD2    C4 8102   2.303   1.520  17.687 -0.1673  0.5585  0.2605
  546MPD2    C5 8103   2.251   1.407   0.048 -0.1144 -0.1169  0.3194
  546MPD2     H 8104   2.173   1.439  17.383 -2.2569 -1.5769  0.8599
  546MPD2    H1 8105   2.351   1.601   0.033 -0.2992  1.2581 -0.6856
  546MPD2    H2 8106   2.113   1.253   0.059  2.0487 -0.6997  1.1504
  546MPD2    H3 8107   2.274   1.401   0.154  1.0912  0.1086  0.0702
  546MPD2     N 8108   2.319   1.640  17.481 -0.4931 -0.1753 -0.2225
  546MPD2    H5 8109   2.337   1.721  17.540 -1.6648 -1.2367  1.6128
  546MPD2    N1 8110   2.019   1.254  17.506  0.0605 -0.0725  0.8346
  546MPD2    H7 8111   1.963   1.198  17.569 -0.9178  0.2885  0.2919
  547TMC3    C1 8112   1.864   1.167  17.357 -0.1285 -0.3738  0.2071
  547TMC3    C2 8113   1.779   1.209  17.260 -0.0624 -1.4409  0.4613
  547TMC3    C3 8114   1.662   1.135  17.239 -0.7319 -0.3344 -0.3229
  547TMC3    C4 8115   1.839   1.059  17.434  0.1842 -0.2447 -0.0729
  547TMC3    C5 8116   1.734   0.980  17.409  0.5554  0.3860  0.2066
  547TMC3    C6 8117   1.641   1.020  17.313  0.2640 -0.5082 -0.2016
  547TMC3     C 8118   1.988   1.245  17.374  0.3797  0.0356  0.2160
  547TMC3     O 8119   2.030   1.313  17.277 -0.3684 -0.2029 -0.8792
  547TMC3     H 8120   1.810   1.295  17.202 -2.4075 -0.7226  0.2556
  547TMC3    H1 8121   1.914   1.019  17.501  0.1350 -2.6825 -1.4863
  547TMC3    H2 8122   1.540   0.978  17.309 -0.5066  1.1635  1.6835
  547TMC3    C7 8123   1.701   0.892  17.519  0.5278 -0.2685  0.3239
  547TMC3    C8 8124   1.558   1.196  17.162 -0.2682  0.3511  0.2817
  547TMC3    O1 8125   1.744   0.930  17.629  1.3172  0.1622 -0.4468
  547TMC3    O2 8126   1.598   1.274  17.079  0.6665 -0.4798  0.3732
  548MPD2     C 8127   1.504   1.616  11.983 -0.0769 -0.6586 -0.2679
  548MPD2    C1 8128   1.485   1.561  12.109  0.1604  0.0819  0.0523
  548MPD2    C2 8129   1.576   1.475  12.168  0.3791  0.5187 -0.7640
  548MPD2    C3 8130   1.685   1.442  12.097  0.1269 -0.0771 -0.0153
  548MPD2    C4 8131   1.699   1.491  11.967 -0.7079  1.1481 -0.3764
  548MPD2    C5 8132   1.618   1.581  11.911 -0.3280 -0.3983 -0.1196
  548MPD2     H 8133   1.559   1.430  12.266  0.8513 -1.3897 -1.5614
  548MPD2    H1 8134   1.789   1.464  11.913 -0.0667  1.8724  0.3094
  548MPD2    H2 8135   1.437   1.690  11.939  0.2337 -1.1947 -1.6437
  548MPD2    H3 8136   1.641   1.624  11.814  0.4602  0.1834  0.3216
  548MPD2     N 8137   1.773   1.353  12.161  0.1160 -0.2421  0.5309
  548MPD2    H5 8138   1.758   1.329  12.258 -1.8508 -0.0551  0.2639
  548MPD2    N1 8139   1.372   1.602  12.188  0.7397 -0.3535 -0.2477
  548MPD2    H7 8140   1.316   1.672  12.140 -0.9210 -1.8608 -0.5063
  549TMC3    C1 8141   1.236   1.649  12.368  0.0426 -0.8409  0.4006
  549TMC3    C2 8142   1.167   1.754  12.316 -0.0197  0.4118 -0.3860
  549TMC3    C3 8143   1.066   1.811  12.387 -1.0444 -0.7616  0.0795
  549TMC3    C4 8144   1.199   1.603  12.491 -0.0819 -0.1665  0.4296
  549TMC3    C5 8145   1.094   1.659  12.557  0.1563 -0.2990  0.1076
  549TMC3    C6 8146   1.031   1.769  12.513  0.8075 -0.4930  0.2453
  549TMC3     C 8147   1.353   1.576  12.319 -0.6242 -0.4715  0.0403
  549TMC3     O 8148   1.401   1.494  12.397 -0.1354 -0.1373  0.4652
  549TMC3     H 8149   1.183   1.784  12.213 -1.2212  1.0003 -0.3997
  549TMC3    H1 8150   1.265   1.530  12.534 -1.7516 -2.4079 -0.7545
  549TMC3    H2 8151   0.950   1.820  12.563 -0.7488 -1.4411 -1.2873
  549TMC3    C7 8152   1.048   1.592  12.676  0.1476 -0.0210  0.0120
  549TMC3    C8 8153   1.034   1.949  12.342  0.2802 -0.2203 -0.0879
  549TMC3    O1 8154   0.986   1.653  12.763 -0.0715 -0.3224 -0.6331
  549TMC3    O2 8155   0.921   1.989  12.321  0.4986  0.1387  0.5384
  550TMC3    C1 8156   0.647   0.693  12.787 -0.2216 -0.2082 -0.2747
  550TMC3    C2 8157   0.575   0.681  12.906 -0.1359  0.0727  0.1504
  550TMC3    C3 8158   0.454   0.747  12.899 -0.2308  0.4540 -0.1734
  550TMC3    C4 8159   0.601   0.748  12.673 -0.0324 -0.6304  0.3124
  550TMC3    C5 8160   0.484   0.814  12.677  0.1056  0.2372 -0.2015
  550TMC3    C6 8161   0.415   0.818  12.791  0.0939  0.5622 -0.8749
  550TMC3     C 8162   0.748   0.598  12.765 -0.0839 -0.0769 -0.3053
  550TMC3     O 8163   0.854   0.602  12.824  0.0067 -0.2709 -0.4395
  550TMC3     H 8164   0.621   0.624  12.986 -0.7312  0.1586  0.5472
  550TMC3    H1 8165   0.649   0.737  12.577 -2.0978  1.1822 -0.9256
  550TMC3    H2 8166   0.311   0.849  12.790 -0.0192  0.1732 -0.9472
  550TMC3    C7 8167   0.410   0.834  12.549  0.3774 -0.5812  0.3364
  550TMC3    C8 8168   0.361   0.725  13.008  0.1198 -0.3119 -0.6337
  550TMC3    O1 8169   0.466   0.783  12.455  0.4754 -0.0079 -0.2308
  550TMC3    O2 8170   0.244   0.756  12.987  0.2624  0.6677  0.0823
  551TMC3    C1 8171   2.995   2.869  13.478 -0.1862  0.8953  0.3778
  551TMC3    C2 8172   3.086   2.927  13.393 -0.4780  0.2720 -0.3973
  551TMC3    C3 8173   3.183   3.007  13.454 -0.6836  0.6507  0.9550
  551TMC3    C4 8174   2.997   2.895  13.613 -0.1298  0.2685 -0.7132
  551TMC3    C5 8175   3.096   2.979  13.661 -0.1691 -0.7475  0.5085
  551TMC3    C6 8176   3.193   3.036  13.584 -0.3208  0.3891 -0.7970
  551TMC3     C 8177   2.911   2.763  13.421  0.2135 -0.0871  0.3978
  551TMC3     O 8178   2.939   2.740  13.305  0.2294 -0.0642  0.5992
  551TMC3     H 8179   3.070   2.921  13.286  1.6797 -0.4306 -0.6705
  551TMC3    H1 8180   2.932   2.842  13.682 -0.7766  1.5674 -0.3235
  551TMC3    H2 8181   3.271   3.091  13.636 -2.4429  1.1042  1.6680
  551TMC3    C7 8182   3.079   3.013  13.799  0.6049  0.0758 -0.7050
  551TMC3    C8 8183   3.289   3.049  13.369 -0.2230  0.2417  0.6695
  551TMC3    O1 8184   2.978   2.963  13.846 -0.4972 -0.3371 -0.2016
  551TMC3    O2 8185   3.298   3.003  13.254 -0.0493  0.3712  0.5588
  552MPD2     C 8186   4.659   4.337  14.023 -0.2980  0.4991 -0.5672
  552MPD2    C1 8187   0.069   4.327  14.018 -0.1731  0.8860 -0.2006
  552MPD2    C2 8188   0.146   4.338  14.132 -0.2410 -0.1725  0.3056
  552MPD2    C3 8189   0.091   4.378  14.255 -1.0323 -0.1002 -0.2566
  552MPD2    C4 8190   4.680   4.401  14.258  0.1630  0.1224  0.3362
  552MPD2    C5 8191   4.602   4.372  14.146 -0.3130 -1.0167 -0.1651
  552MPD2     H 8192   0.252   4.322  14.119 -0.4556 -0.1279 -1.4483
  552MPD2    H1 8193   4.629   4.427  14.350  1.7912 -1.0938  1.5904
  552MPD2    H2 8194   4.596   4.312  13.938 -0.0407 -0.0804 -0.5915
  552MPD2    H3 8195   4.494   4.380  14.146 -0.1891  0.8913 -1.5574
  552MPD2     N 8196   0.164   4.396  14.378  0.0467  0.1383 -0.0966
  552MPD2    H5 8197   0.117   4.434  14.460 -0.2341 -0.5153  0.0498
  552MPD2    N1 8198   0.134   4.304  13.893 -0.9389  0.7314 -0.3174
  552MPD2    H7 8199   0.231   4.274  13.894 -1.0271  0.5083  0.7327
  553TMC3    C1 8200   0.149   4.237  13.674 -0.7722  0.3182  0.0483
  553TMC3    C2 8201   0.156   4.293  13.555 -0.2101  0.1755  0.1832
  553TMC3    C3 8202   0.218   4.232  13.454 -0.6636  0.3682  0.7028
  553TMC3    C4 8203   0.202   4.115  13.701 -0.4111  0.3102 -0.1515
  553TMC3    C5 8204   0.263   4.052  13.595  0.0660 -0.6610  0.3486
  553TMC3    C6 8205   0.273   4.107  13.469 -0.4487 -1.0014  0.2755
  553TMC3     C 8206   0.078   4.314  13.770 -0.6615 -0.0608  0.1806
  553TMC3     O 8207   4.713   4.379  13.729  0.6944  0.9839  0.1331
  553TMC3     H 8208   0.107   4.386  13.531 -0.8363  0.6901  3.5006
  553TMC3    H1 8209   0.207   4.070  13.800 -0.1259  2.7373  0.9457
  553TMC3    H2 8210   0.347   4.064  13.402 -0.2843 -0.5098  0.1476
  553TMC3    C7 8211   0.352   3.939  13.633 -0.6070  0.2378  0.0847
  553TMC3    C8 8212   0.286   4.321  13.364 -0.2524  0.2949  0.6453
  553TMC3    O1 8213   0.387   3.858  13.548  0.6627  0.2523  0.0006
  553TMC3    O2 8214   0.344   4.419  13.415  0.8096  0.5137  0.3506
  554TMC3    C1 8215   1.869   3.313  11.585 -0.4568 -0.3451  0.5304
  554TMC3    C2 8216   1.822   3.274  11.464 -0.0444  0.0757  0.8371
  554TMC3    C3 8217   1.832   3.363  11.358 -0.1621 -0.1516  0.3706
  554TMC3    C4 8218   1.922   3.441  11.612  0.3654 -0.7168 -0.1442
  554TMC3    C5 8219   1.939   3.522  11.497 -0.8597  0.8389  0.1778
  554TMC3    C6 8220   1.890   3.491  11.368  0.2647  0.7716  0.0998
  554TMC3     C 8221   1.848   3.214  11.691  0.1099 -0.2949  0.1504
  554TMC3     O 8222   1.770   3.128  11.662 -0.0218 -0.2018  0.4136
  554TMC3     H 8223   1.807   3.169  11.442  1.6521  0.4779 -2.2660
  554TMC3    H1 8224   1.965   3.472  11.706 -2.4927  0.2585  0.8471
  554TMC3    H2 8225   1.890   3.553  11.279 -2.2427 -0.9918 -1.1388
  554TMC3    C7 8226   1.964   3.665  11.511 -0.2112  0.3252 -0.4920
  554TMC3    C8 8227   1.742   3.336  11.251  0.0782  0.0964  0.4872
  554TMC3    O1 8228   1.949   3.708  11.626 -0.1803  0.0987 -0.4093
  554TMC3    O2 8229   1.769   3.390  11.142 -0.2009 -0.4847  0.0921
  555TMC3    C1 8230   1.080   2.744  14.888 -0.1190 -0.6577 -0.0498
  555TMC3    C2 8231   1.122   2.825  14.990 -0.7372 -0.0978  0.1929
  555TMC3    C3 8232   1.084   2.797  15.121  0.2391  0.6604 -0.0942
  555TMC3    C4 8233   1.012   2.622  14.915  0.1745 -1.0639  0.9507
  555TMC3    C5 8234   0.968   2.596  15.042  0.7146  0.5484  0.0188
  555TMC3    C6 8235   1.001   2.684  15.143 -0.2744  1.0749  0.1967
  555TMC3     C 8236   1.129   2.770  14.756 -0.1121 -0.0021  0.4869
  555TMC3     O 8237   1.144   2.670  14.684 -0.4848  0.5449  0.0115
  555TMC3     H 8238   1.182   2.915  14.979  0.0167 -0.5120  0.9219
  555TMC3    H1 8239   0.987   2.555  14.834 -1.0941 -0.3630  0.7654
  555TMC3    H2 8240   0.964   2.670  15.245  1.5484  1.5157  0.9153
  555TMC3    C7 8241   0.836   2.532  15.045  0.3175 -0.0828 -0.6339
  555TMC3    C8 8242   1.125   2.890  15.226  0.4877 -0.4897 -0.0833
  555TMC3    O1 8243   0.774   2.549  14.941 -0.2698  0.4027  0.0079
  555TMC3    O2 8244   1.179   2.993  15.184  0.4031  0.4073  0.0409
  556MPD2     C 8245   4.258   4.558  10.576 -0.2542 -0.7845 -0.1856
  556MPD2    C1 8246   4.143   4.533  10.656 -0.2862  0.8603  0.4051
  556MPD2    C2 8247   4.041   4.459  10.606 -0.1987 -0.2029  0.5159
  556MPD2    C3 8248   4.043   4.407  10.479 -0.4848  0.2444  0.3581
  556MPD2    C4 8249   4.148   4.442  10.394 -0.7084 -0.0026 -0.4386
  556MPD2    C5 8250   4.253   4.512  10.448  0.3125 -0.1023  0.0774
  556MPD2     H 8251   3.957   4.436  10.670 -2.6360  2.0371 -1.9086
  556MPD2    H1 8252   4.157   4.407  10.292  2.9931 -0.3829  0.0195
  556MPD2    H2 8253   4.347   4.612  10.606 -0.2090 -0.6191 -0.6154
  556MPD2    H3 8254   4.344   4.519  10.391  1.2482 -2.7419  1.2541
  556MPD2     N 8255   3.936   4.330  10.436 -0.0764 -0.3662 -0.1031
  556MPD2    H5 8256   3.862   4.320  10.505  0.0854 -0.4902  0.0520
  556MPD2    N1 8257   4.133   4.571  10.791 -0.1062 -0.2916 -0.4739
  556MPD2    H7 8258   4.043   4.555  10.835  0.1308 -2.4809 -0.7717
  557TMC3    C1 8259   3.801   4.198  10.290 -0.1970 -0.7256 -0.2016
  557TMC3    C2 8260   3.740   4.190  10.166 -0.0103 -0.5612 -0.8762
  557TMC3    C3 8261   3.638   4.100  10.152  0.7838 -0.2016  0.4362
  557TMC3    C4 8262   3.769   4.109  10.390  0.7694  0.3157  0.3651
  557TMC3    C5 8263   3.666   4.022  10.370  0.6832  0.4719 -0.6959
  557TMC3    C6 8264   3.600   4.017  10.248 -0.3794  0.2498 -0.2786
  557TMC3     C 8265   3.911   4.294  10.305  0.3648  0.4004  0.4673
  557TMC3     O 8266   3.969   4.327  10.202 -0.1541  0.5213 -0.3559
  557TMC3     H 8267   3.757   4.262  10.086  0.1346  0.8907  0.4628
  557TMC3    H1 8268   3.811   4.116  10.490 -0.6812  0.4072  0.9721
  557TMC3    H2 8269   3.513   3.954  10.237  0.9267 -1.3899 -1.3757
  557TMC3    C7 8270   3.581   3.989  10.483  1.0449  0.1519 -0.0156
  557TMC3    C8 8271   3.533   4.157  10.073  0.6775  0.3634  0.6000
  557TMC3    O1 8272   3.463   3.962  10.466  0.2504  0.0561  0.0877
  557TMC3    O2 8273   3.537   4.275  10.045  0.2268  0.3978 -0.4101
  558TMC3    C1 8274   1.677   2.169  10.167 -0.3293  0.8885 -0.7244
  558TMC3    C2 8275   1.582   2.109  10.243  0.0609 -0.0999  0.4698
  558TMC3    C3 8276   1.451   2.124  10.204  0.3517 -0.4640 -0.1972
  558TMC3    C4 8277   1.648   2.231  10.056  0.0825  0.4114  1.2597
  558TMC3    C5 8278   1.517   2.237  10.013 -0.2836 -0.5791  0.3182
  558TMC3    C6 8279   1.414   2.187  10.084 -0.0919 -0.6342 -0.2775
  558TMC3     C 8280   1.815   2.138  10.209 -0.4541 -0.1527 -0.5350
  558TMC3     O 8281   1.911   2.214  10.189 -0.3741  0.3014 -0.3461
  558TMC3     H 8282   1.614   2.043  10.323 -1.4904 -0.4209  0.8253
  558TMC3    H1 8283   1.728   2.268   9.993 -1.7884 -0.0111 -1.4021
  558TMC3    H2 8284   1.309   2.203  10.062 -0.5398 -1.7594  0.9641
  558TMC3    C7 8285   1.493   2.285   9.885  0.8065  0.1096 -0.4264
  558TMC3    C8 8286   1.342   2.073  10.291 -0.7397  0.4857  0.5612
  558TMC3    O1 8287   1.563   2.382   9.851  0.1105  0.0948 -0.4310
  558TMC3    O2 8288   1.247   2.020  10.236 -0.6741 -0.0678  0.4943
  559MPD2     C 8289   1.531   2.975  10.634  0.3014  0.1517 -0.2564
  559MPD2    C1 8290   1.507   2.860  10.698 -0.0114  0.4955  0.6953
  559MPD2    C2 8291   1.611   2.790  10.764  0.0392  0.3670  0.5893
  559MPD2    C3 8292   1.737   2.841  10.764  0.2471 -0.0093  0.8034
  559MPD2    C4 8293   1.761   2.956  10.688 -0.2355 -0.0374  0.1492
  559MPD2    C5 8294   1.659   3.017  10.624  0.9573 -0.9793 -0.7341
  559MPD2     H 8295   1.595   2.703  10.827  0.3770  0.1290  0.3457
  559MPD2    H1 8296   1.858   3.000  10.671 -0.9144  1.3801 -0.0932
  559MPD2    H2 8297   1.451   3.026  10.581 -0.9000  1.1488  2.5078
  559MPD2    H3 8298   1.682   3.096  10.553  2.2367 -2.4790 -1.9934
  559MPD2     N 8299   1.837   2.763  10.828 -0.9919  0.2718 -0.5120
  559MPD2    H5 8300   1.829   2.668  10.864  0.0630  0.9401  1.4867
  559MPD2    N1 8301   1.368   2.823  10.688  0.0115  0.1877  0.2642
  559MPD2    H7 8302   1.310   2.877  10.625 -0.3891  0.2027  0.6479
  560TMC3    C1 8303   2.053   2.732  10.921 -0.0927 -0.2341  0.5174
  560TMC3    C2 8304   2.058   2.600  10.882  0.6124  0.3893  0.3413
  560TMC3    C3 8305   2.163   2.531  10.928 -0.4360  0.1022  0.1120
  560TMC3    C4 8306   2.151   2.788  10.996 -0.9446  0.2839  0.2230
  560TMC3    C5 8307   2.253   2.712  11.038 -0.4336  0.1828 -0.3306
  560TMC3    C6 8308   2.254   2.583  11.006  0.1219 -0.0282  0.5317
  560TMC3     C 8309   1.955   2.825  10.862 -0.6314  0.6159 -1.0473
  560TMC3     O 8310   1.989   2.942  10.845  0.3204 -0.8435  0.2661
  560TMC3     H 8311   1.981   2.559  10.818 -0.5067  2.7253  0.2049
  560TMC3    H1 8312   2.133   2.890  11.028  0.7774  1.5028 -2.6763
  560TMC3    H2 8313   2.346   2.538  11.041  0.1138  0.9874  1.8503
  560TMC3    C7 8314   2.303   2.734  11.173 -0.4259  0.7884  0.0689
  560TMC3    C8 8315   2.171   2.388  10.897 -0.3413  0.5973  1.0315
  560TMC3    O1 8316   2.299   2.637  11.241  0.3541 -0.1210 -0.7995
  560TMC3    O2 8317   2.089   2.338  10.820 -0.0805 -0.3712  0.3680
  561TMC3    C1 8318   4.224   1.608  11.170  0.3772 -0.0684  0.2265
  561TMC3    C2 8319   4.169   1.543  11.273  0.8346 -0.0951  0.5677
  561TMC3    C3 8320   4.071   1.612  11.325  0.3675  0.3202 -0.1119
  561TMC3    C4 8321   4.185   1.733  11.124  0.0480 -0.0892  0.7290
  561TMC3    C5 8322   4.085   1.798  11.189 -0.0905  0.4095 -0.5081
  561TMC3    C6 8323   4.021   1.732  11.285 -0.4028 -0.0923  0.1809
  561TMC3     C 8324   4.322   1.536  11.091 -0.0824  0.1605  0.5364
  561TMC3     O 8325   4.303   1.423  11.056  0.4546 -0.0603  0.8557
  561TMC3     H 8326   4.216   1.453  11.308  1.9201 -0.2625 -1.3419
  561TMC3    H1 8327   4.230   1.766  11.031  1.0746 -1.2125  0.8222
  561TMC3    H2 8328   3.933   1.766  11.340 -1.3986 -1.2971 -0.6667
  561TMC3    C7 8329   4.026   1.920  11.125 -0.6283 -0.3455  0.5131
  561TMC3    C8 8330   4.010   1.554  11.440 -0.5119  0.6080 -0.3096
  561TMC3    O1 8331   3.918   1.948  11.166  0.0689  0.6123 -0.3086
  561TMC3    O2 8332   4.016   1.428  11.443  0.1159 -0.3382 -0.6965
  562TMC3    C1 8333   0.763   3.163  16.241  0.4290  0.2374 -0.4279
  562TMC3    C2 8334   0.657   3.248  16.255  0.1375  1.0046  0.4991
  562TMC3    C3 8335   0.573   3.275  16.148  0.1473  0.3771 -0.1282
  562TMC3    C4 8336   0.774   3.079  16.138  0.7339 -0.4508  0.1909
  562TMC3    C5 8337   0.677   3.094  16.036 -0.0369  0.1199 -0.2470
  562TMC3    C6 8338   0.581   3.197  16.034 -0.1551 -0.6199 -0.1575
  562TMC3     C 8339   0.882   3.164  16.320  0.7391  0.4355  0.5105
  562TMC3     O 8340   0.985   3.132  16.263  0.0288  0.2139 -0.2215
  562TMC3     H 8341   0.659   3.322  16.334  1.7349 -0.8317  2.1536
  562TMC3    H1 8342   0.841   2.994  16.128  1.3021  0.0227  0.0130
  562TMC3    H2 8343   0.510   3.203  15.953  0.3983  1.2039 -0.4985
  562TMC3    C7 8344   0.698   3.019  15.911  0.5037 -0.0852  0.1378
  562TMC3    C8 8345   0.447   3.341  16.178  0.0048  0.1931 -0.3193
  562TMC3    O1 8346   0.680   3.076  15.805 -0.0553  0.3320 -0.3717
  562TMC3    O2 8347   0.422   3.356  16.298 -0.5055  0.0175 -1.1408
  563MPD2     C 8348   2.717   4.194  15.799 -0.3687  0.2667  0.2999
  563MPD2    C1 8349   2.714   4.329  15.827  0.4796 -0.0198  0.4053
  563MPD2    C2 8350   2.814   4.388  15.904 -0.2785  0.2457  0.3946
  563MPD2    C3 8351   2.922   4.307  15.945  0.0692  0.1363  0.5059
  563MPD2    C4 8352   2.919   4.170  15.924  0.2085 -0.4088 -0.3228
  563MPD2    C5 8353   2.814   4.114  15.855 -0.0408 -0.0590 -0.0485
  563MPD2     H 8354   2.809   4.493  15.933  2.0570  0.8620 -1.3912
  563MPD2    H1 8355   2.979   4.099  15.979  0.5204  0.1157  0.0139
  563MPD2    H2 8356   2.633   4.152  15.746 -1.6829  0.7321  1.9895
  563MPD2    H3 8357   2.810   4.006  15.846  1.0013 -0.0089 -1.0659
  563MPD2     N 8358   3.018   4.364  16.028 -0.0603 -0.4116 -0.0071
  563MPD2    H5 8359   2.993   4.461  16.043  1.4582  0.3303 -2.2070
  563MPD2    N1 8360   2.596   4.413  15.779  0.5682  0.1928  0.3382
  563MPD2    H7 8361   2.511   4.359  15.778  0.4203  0.4060  0.9360
  564TMC3    C1 8362   2.491   4.589  15.870 -0.0966 -0.3939  1.0909
  564TMC3    C2 8363   2.375   4.527  15.839 -0.2044 -0.4263 -0.4530
  564TMC3    C3 8364   2.296   4.480  15.942 -1.0825  0.1155 -1.0117
  564TMC3    C4 8365   2.525   4.604  16.003  0.2929 -0.9216 -0.3912
  564TMC3    C5 8366   2.458   4.545  16.105 -0.0976  0.0698 -0.4195
  564TMC3    C6 8367   2.341   4.488  16.075  0.8024  0.5579 -0.0891
  564TMC3     C 8368   2.599   4.550  15.789 -0.1869  0.5157 -0.3533
  564TMC3     O 8369   2.703   4.618  15.787  0.1780  0.3677 -0.4893
  564TMC3     H 8370   2.349   4.534  15.734 -1.8244  2.5937  0.1515
  564TMC3    H1 8371   2.617   4.656  16.027  0.3701 -0.3510 -1.9132
  564TMC3    H2 8372   2.287   4.445  16.158  0.3200  1.1620 -0.0868
  564TMC3    C7 8373   2.546   4.464  16.186 -0.2341 -0.0347  0.0628
  564TMC3    C8 8374   2.229   4.353  15.919  0.2403  0.8139 -0.5093
  564TMC3    O1 8375   2.641   4.513  16.249  0.3291 -0.7724  0.1373
  564TMC3    O2 8376   2.196   4.291  16.016 -0.6961  0.1308 -0.0452
  565TMC3    C1 8377   2.915   1.539   9.790  0.5655  0.0765 -0.1621
  565TMC3    C2 8378   2.976   1.497   9.906  0.0827  0.0201 -0.6165
  565TMC3    C3 8379   2.939   1.380   9.968  0.1766  0.2894 -0.5598
  565TMC3    C4 8380   2.803   1.473   9.744 -0.1573  0.5332  0.3848
  565TMC3    C5 8381   2.760   1.361   9.815  0.7309  0.6549 -0.1814
  565TMC3    C6 8382   2.835   1.309   9.920 -0.1522 -0.0432  0.0103
  565TMC3     C 8383   2.963   1.654   9.718  0.5726  0.4796  0.4859
  565TMC3     O 8384   3.058   1.715   9.763 -0.0036  0.1598 -0.2066
  565TMC3     H 8385   3.077   1.534   9.922  0.3424 -1.2015  0.5660
  565TMC3    H1 8386   2.761   1.488   9.645  0.8149  1.0050  0.0491
  565TMC3    H2 8387   2.793   1.237   9.988  2.8251 -0.9531  0.8949
  565TMC3    C7 8388   2.655   1.280   9.747  0.9487  0.0853  0.0164
  565TMC3    C8 8389   3.007   1.316  10.089 -0.1934  0.3277 -0.2331
  565TMC3    O1 8390   2.616   1.332   9.642 -0.0746 -0.2043 -0.3598
  565TMC3    O2 8391   2.963   1.208  10.123 -0.0197 -0.0612 -0.6113
  566MPD2     C 8392   0.408   3.284  14.280  0.5204 -0.0329  0.3837
  566MPD2    C1 8393   0.473   3.242  14.167  0.3672  0.4634  0.6856
  566MPD2    C2 8394   0.423   3.132  14.089  0.8603  0.1356 -0.1591
  566MPD2    C3 8395   0.302   3.076  14.122  0.1003 -1.0318 -0.4807
  566MPD2    C4 8396   0.233   3.127  14.228  0.6411 -0.3448 -0.0302
  566MPD2    C5 8397   0.287   3.223  14.309  0.2168 -0.3547 -0.1385
  566MPD2     H 8398   0.485   3.101  14.007 -0.3018 -1.2548 -0.5039
  566MPD2    H1 8399   0.137   3.090  14.262  0.1239 -0.1792 -1.3352
  566MPD2    H2 8400   0.448   3.361  14.346  1.1670 -1.7779  2.0281
  566MPD2    H3 8401   0.234   3.268  14.393  0.6289 -0.0834 -0.0240
  566MPD2     N 8402   0.250   2.973  14.039 -0.3394  0.2169  0.0317
  566MPD2    H5 8403   0.293   2.953  13.949 -2.0140 -0.2014 -0.6635
  566MPD2    N1 8404   0.593   3.309  14.138 -0.0798 -0.5189 -0.0614
  566MPD2    H7 8405   0.633   3.372  14.206  0.0950 -1.0230  0.3040
  567TMC3    C1 8406   0.784   3.307  14.009 -0.1479 -0.3031  0.5814
  567TMC3    C2 8407   0.825   3.320  13.879 -0.2505 -0.6132  0.0088
  567TMC3    C3 8408   0.917   3.234  13.824  0.5034 -0.6597  0.4383
  567TMC3    C4 8409   0.830   3.209  14.092  0.3754 -0.2602  0.0079
  567TMC3    C5 8410   0.929   3.119  14.037 -0.5335 -0.3502  0.2904
  567TMC3    C6 8411   0.967   3.131  13.902 -0.3221  1.1527 -0.2583
  567TMC3     C 8412   0.642   3.312  14.009 -0.1897  0.0407  0.6098
  567TMC3     O 8413   0.588   3.286  13.901  0.9958  0.4148  0.2641
  567TMC3     H 8414   0.782   3.392  13.810  0.6385  0.6787  0.7999
  567TMC3    H1 8415   0.803   3.207  14.197  1.3614 -2.5324  0.2250
  567TMC3    H2 8416   1.018   3.044  13.863 -2.4856  0.1020 -0.6777
  567TMC3    C7 8417   0.964   3.000  14.107  0.1001 -0.1104 -0.1110
  567TMC3    C8 8418   0.919   3.212  13.681 -0.1184 -0.5445 -0.3837
  567TMC3    O1 8419   1.031   2.921  14.045 -0.4014  0.3179 -0.7020
  567TMC3    O2 8420   0.831   3.271  13.618  0.0779 -0.7730  0.6093
  568MPD2     C 8421   3.045   3.186  16.426  0.8640 -0.7351  0.6014
  568MPD2    C1 8422   2.927   3.195  16.506  0.3576  0.4677  0.4389
  568MPD2    C2 8423   2.825   3.291  16.474  0.2829 -0.2221 -0.0617
  568MPD2    C3 8424   2.837   3.364  16.355 -0.0440  0.2393 -0.4428
  568MPD2    C4 8425   2.950   3.356  16.280  0.2445  0.7879  0.5978
  568MPD2    C5 8426   3.058   3.270  16.317  0.2456 -0.0726  0.0435
  568MPD2     H 8427   2.737   3.311  16.533  0.8523 -1.7029  1.2893
  568MPD2    H1 8428   2.951   3.421  16.193  1.3983 -1.2507 -0.9154
  568MPD2    H2 8429   3.120   3.114  16.457 -0.0094 -1.6817  0.5219
  568MPD2    H3 8430   3.149   3.272  16.259 -0.0522  0.0478 -0.4144
  568MPD2     N 8431   2.722   3.445  16.319  0.1118  0.2993  0.6469
  568MPD2    H5 8432   2.659   3.464  16.396 -1.4735 -2.4368  0.0053
  568MPD2    N1 8433   2.912   3.105  16.611  0.2725 -0.3753 -0.2957
  568MPD2    H7 8434   2.965   3.019  16.608 -2.6993 -2.1739 -0.8027
  569TMC3    C1 8435   2.577   3.572  16.185  0.7503 -0.4884 -0.4004
  569TMC3    C2 8436   2.530   3.645  16.290 -0.4139  0.1442  0.9027
  569TMC3    C3 8437   2.412   3.714  16.268  0.3782 -0.7930 -0.1095
  569TMC3    C4 8438   2.511   3.575  16.068 -0.3261  0.6763 -0.1369
  569TMC3    C5 8439   2.399   3.652  16.051  0.6840  0.3081  0.2965
  569TMC3    C6 8440   2.335   3.710  16.153 -0.3594 -0.6421  0.0522
  569TMC3     C 8441   2.697   3.491  16.193 -0.3732 -0.3062  0.4647
  569TMC3     O 8442   2.748   3.449  16.088 -0.2221 -0.0427  0.4609
  569TMC3     H 8443   2.585   3.650  16.384  0.8296 -0.7690  0.2333
  569TMC3    H1 8444   2.559   3.540  15.978 -0.3063 -1.0947  0.5643
  569TMC3    H2 8445   2.241   3.764  16.146  0.7351  1.4609  1.6814
  569TMC3    C7 8446   2.373   3.715  15.921 -0.2812  0.4702  0.3971
  569TMC3    C8 8447   2.408   3.849  16.330 -0.4090 -0.1608 -0.1027
  569TMC3    O1 8448   2.414   3.652  15.825 -0.6099  0.3136  0.2918
  569TMC3    O2 8449   2.339   3.923  16.264  0.0344 -0.0540 -0.1487
  570TMC3    C1 8450   1.835   2.087  16.119  0.1215  0.6259 -0.3086
  570TMC3    C2 8451   1.929   2.065  16.019  0.9031  0.0798 -0.8232
  570TMC3    C3 8452   1.985   2.179  15.968 -0.0499 -0.3519 -0.1930
  570TMC3    C4 8453   1.792   2.207  16.155 -0.6591  0.2973 -0.4193
  570TMC3    C5 8454   1.835   2.313  16.085  0.6253  1.0180 -0.2241
  570TMC3    C6 8455   1.940   2.308  15.999  0.1866  0.5508  0.0119
  570TMC3     C 8456   1.751   1.981  16.173 -0.0399 -0.4300  0.0864
  570TMC3     O 8457   1.750   1.881  16.101  0.4308 -0.4550  0.4568
  570TMC3     H 8458   1.963   1.967  15.991 -1.2670 -0.2962 -2.1575
  570TMC3    H1 8459   1.697   2.212  16.207 -0.3905 -1.0200  0.1837
  570TMC3    H2 8460   1.985   2.395  15.952  1.8439 -0.0257  0.5309
  570TMC3    C7 8461   1.786   2.447  16.116  0.0945 -0.0784 -0.5941
  570TMC3    C8 8462   2.107   2.174  15.884 -0.5234 -0.5529 -0.2223
  570TMC3    O1 8463   1.750   2.465  16.232  0.3370  0.1021 -0.5317
  570TMC3    O2 8464   2.131   2.278  15.821  0.4996 -0.1060 -0.2894
  571MPD2     C 8465   4.721   3.581   0.175 -0.0962  0.1380 -0.2607
  571MPD2    C1 8466   4.644   3.495   0.251  0.7999  0.5222 -0.5877
  571MPD2    C2 8467   4.527   3.537   0.309 -0.2195 -0.4081 -0.6670
  571MPD2    C3 8468   4.486   3.667   0.288  0.0600  0.0382  0.4398
  571MPD2    C4 8469   4.566   3.755   0.219 -0.1884  0.1444 -0.4798
  571MPD2    C5 8470   4.690   3.713   0.172  0.5820 -0.0945 -0.1220
  571MPD2     H 8471   4.471   3.464   0.366  0.2054  0.8901  1.4491
  571MPD2    H1 8472   4.526   3.847   0.177 -2.5777 -0.9499 -0.5898
  571MPD2    H2 8473   0.090   3.543   0.142 -0.0842 -1.7190  1.8807
  571MPD2    H3 8474   0.027   3.776   0.110  1.0672 -0.2771  0.1895
  571MPD2     N 8475   4.366   3.726   0.336  0.3844 -0.2453  0.1539
  571MPD2    H5 8476   4.358   3.825   0.315 -1.0502 -0.5717 -0.7599
  571MPD2    N1 8477   4.686   3.363   0.256 -0.1371 -0.3148  0.3816
  571MPD2    H7 8478   0.024   3.346   0.179  0.1064  1.3141  0.2293
  572TMC3    C1 8479   4.180   3.758   0.484 -0.1435 -0.0091  0.1813
  572TMC3    C2 8480   4.136   3.722   0.612  0.0895  0.8378  0.1580
  572TMC3    C3 8481   4.037   3.796   0.679  0.0826  0.2542 -0.9706
  572TMC3    C4 8482   4.150   3.884   0.442 -0.1195 -0.0815 -0.2822
  572TMC3    C5 8483   4.069   3.958   0.524 -0.0210 -0.6145 -0.2504
  572TMC3    C6 8484   4.007   3.921   0.636  0.0302 -0.9732  0.3519
  572TMC3     C 8485   4.281   3.667   0.425  0.0509 -0.7371  0.3363
  572TMC3     O 8486   4.280   3.549   0.463  0.5176 -0.8763  0.0921
  572TMC3     H 8487   4.153   3.621   0.646  0.1695  0.6843 -0.3409
  572TMC3    H1 8488   4.197   3.928   0.355 -0.7211  0.3247 -0.4023
  572TMC3    H2 8489   3.925   3.980   0.675  0.6407 -0.2645  0.5592
  572TMC3    C7 8490   4.072   4.099   0.490 -0.3660  0.2805  0.2566
  572TMC3    C8 8491   4.006   3.767   0.820 -0.1337 -0.4290 -1.1315
  572TMC3    O1 8492   4.125   4.126   0.382  0.4787  0.1451  0.5007
  572TMC3    O2 8493   3.942   3.861   0.873  0.8600  0.5262  0.4719
  573MPD2     C 8494   1.531   4.202   0.556 -0.8946  0.3612  0.1135
  573MPD2    C1 8495   1.476   4.335   0.581 -0.4202 -0.1239  0.1173
  573MPD2    C2 8496   1.408   4.387   0.472  0.5989  0.0356 -0.4699
  573MPD2    C3 8497   1.401   4.324   0.345  0.1236  0.1737 -0.4908
  573MPD2    C4 8498   1.455   4.196   0.329  0.2264  0.4117  0.1852
  573MPD2    C5 8499   1.512   4.133   0.435  0.0541 -0.9321 -0.6523
  573MPD2     H 8500   1.366   4.486   0.488  0.2419 -0.1124 -0.4885
  573MPD2    H1 8501   1.445   4.149   0.232 -1.7560  0.4009  0.4086
  573MPD2    H2 8502   1.585   4.147   0.633 -1.1776  1.3041  0.9853
  573MPD2    H3 8503   1.543   4.029   0.431 -0.0533 -1.0159  0.7106
  573MPD2     N 8504   1.346   4.385   0.230 -0.0487 -0.2300  0.2396
  573MPD2    H5 8505   1.349   4.333   0.143 -0.0130 -0.0054  0.1087
  573MPD2    N1 8506   1.511   4.398   0.697  0.1639  0.0425  0.3679
  573MPD2    H7 8507   1.536   4.337   0.774 -1.5591 -1.1904 -0.0559
  574TMC3    C1 8508   1.182   4.515   0.105  0.8615  0.9762 -0.5062
  574TMC3    C2 8509   1.072   4.588   0.115 -0.3582 -0.1645  0.5387
  574TMC3    C3 8510   1.015   4.646   0.006  0.2182  0.5693 -0.3543
  574TMC3    C4 8511   1.242   4.489  17.692 -0.2211 -0.1002  0.5532
  574TMC3    C5 8512   1.188   4.559  17.583  0.0915 -0.2782  0.0618
  574TMC3    C6 8513   1.068   4.628  17.590  0.5192  0.3004 -0.2462
  574TMC3     C 8514   1.249   4.485   0.233  0.3316  0.2448 -0.1139
  574TMC3     O 8515   1.212   4.554   0.329 -0.2085 -0.1165  1.0574
  574TMC3     H 8516   1.040   4.622   0.212  0.4998  0.0722  0.7364
  574TMC3    H1 8517   1.337   4.441  17.669  0.5108  1.7257 -0.2072
  574TMC3    H2 8518   1.033   4.683  17.503 -1.1581  0.8596  0.7915
  574TMC3    C7 8519   1.270   4.571  17.465  0.1741  0.4420 -0.5070
  574TMC3    C8 8520   0.898   4.723   0.022  0.5533  0.7041 -0.3218
  574TMC3    O1 8521   1.349   4.477  17.443 -0.9118 -0.0668 -0.4235
  574TMC3    O2 8522   0.837   4.721   0.127 -0.0405  0.4302  0.0101
  575TMC3    C1 8523   3.410   0.577  10.231 -0.0475  0.4004  0.0673
  575TMC3    C2 8524   3.476   0.559  10.346  0.0856 -0.2798  0.5969
  575TMC3    C3 8525   3.460   0.654  10.447  0.0361  0.1649  0.2229
  575TMC3    C4 8526   3.334   0.689  10.206 -0.1502 -0.2917 -0.1370
  575TMC3    C5 8527   3.307   0.766  10.324  0.1795  0.1749 -0.4044
  575TMC3    C6 8528   3.370   0.761  10.438  0.4880 -0.2938  0.2494
  575TMC3     C 8529   3.448   0.493  10.117 -0.7562  0.2530 -0.0599
  575TMC3     O 8530   3.500   0.388  10.135 -0.2316 -0.0542  0.1336
  575TMC3     H 8531   3.544   0.475  10.357  2.3152  1.2931 -1.1707
  575TMC3    H1 8532   3.271   0.688  10.118 -0.8876  0.0115  0.3931
  575TMC3    H2 8533   3.332   0.810  10.527 -0.6170  0.4695 -0.6574
  575TMC3    C7 8534   3.251   0.890  10.286 -0.2286  0.2255  0.4816
  575TMC3    C8 8535   3.509   0.605  10.575  0.5869 -0.0110  0.6015
  575TMC3    O1 8536   3.187   0.894  10.183  0.7603  0.4476  0.2059
  575TMC3    O2 8537   3.525   0.481  10.590 -0.1924 -0.3912  0.4861
  576MPD2     C 8538   3.675   2.212  12.563 -0.1843  0.4435  0.1717
  576MPD2    C1 8539   3.679   2.296  12.458  0.1195 -0.0101  0.0435
  576MPD2    C2 8540   3.745   2.416  12.462 -0.1920  0.0314 -0.1440
  576MPD2    C3 8541   3.808   2.451  12.581  0.5865  0.3433 -0.1525
  576MPD2    C4 8542   3.813   2.359  12.687  1.0160  0.2105 -0.0307
  576MPD2    C5 8543   3.742   2.246  12.676 -0.1028 -0.2727 -0.0228
  576MPD2     H 8544   3.736   2.488  12.381  0.8264 -0.8906 -1.0665
  576MPD2    H1 8545   3.853   2.379  12.786  1.2976 -3.4325  0.5834
  576MPD2    H2 8546   3.617   2.120  12.557  0.0598  0.1647  1.9684
  576MPD2    H3 8547   3.747   2.166  12.749 -0.1616 -0.6889 -0.4826
  576MPD2     N 8548   3.861   2.582  12.596  0.1861  1.1551 -0.1105
  576MPD2    H5 8549   3.828   2.645  12.523 -0.8083 -0.2416 -0.8683
  576MPD2    N1 8550   3.605   2.282  12.338 -0.6290  0.6025 -0.2887
  576MPD2    H7 8551   3.634   2.343  12.262 -1.6058 -0.0564 -1.1792
  577TMC3    C1 8552   3.517   2.140  12.168  0.3131  0.2066  0.3425
  577TMC3    C2 8553   3.529   2.004  12.132 -0.3980  0.5387 -0.0625
  577TMC3    C3 8554   3.569   1.979  12.004 -0.7589 -0.0500  0.3612
  577TMC3    C4 8555   3.517   2.241  12.072 -0.1795  0.0421 -0.0402
  577TMC3    C5 8556   3.537   2.205  11.941  0.2924  0.3339  0.1986
  577TMC3    C6 8557   3.578   2.076  11.904 -0.1278 -0.2885  0.3225
  577TMC3     C 8558   3.521   2.178  12.311 -0.4121 -0.6118  0.4813
  577TMC3     O 8559   3.470   2.092  12.384 -0.3813  0.2329  0.1172
  577TMC3     H 8560   3.530   1.926  12.207 -3.2751 -0.7158 -1.3077
  577TMC3    H1 8561   3.500   2.345  12.098  1.5168  0.0136  1.1529
  577TMC3    H2 8562   3.586   2.043  11.801 -1.4218  0.8791 -0.1525
  577TMC3    C7 8563   3.522   2.299  11.829 -0.2971 -0.4148 -0.1842
  577TMC3    C8 8564   3.636   1.849  11.990  0.4184 -0.5638  0.0319
  577TMC3    O1 8565   3.588   2.287  11.726  0.6625  0.0494  0.4709
  577TMC3    O2 8566   3.606   1.764  12.072  0.1789 -0.9463  0.6035
  578MPD2     C 8567   0.806   2.382   1.128 -0.8199  0.1154  0.7163
  578MPD2    C1 8568   0.914   2.357   1.046  0.2381 -0.1148 -0.1693
  578MPD2    C2 8569   1.002   2.249   1.075  0.6198  0.0914 -0.1741
  578MPD2    C3 8570   0.985   2.186   1.201 -0.5514 -0.2133  0.4158
  578MPD2    C4 8571   0.882   2.215   1.282  0.3764 -0.6186 -0.0527
  578MPD2    C5 8572   0.791   2.312   1.247 -0.2040  0.7517 -0.4578
  578MPD2     H 8573   1.089   2.227   1.015  2.2259  0.5272  1.9781
  578MPD2    H1 8574   0.861   2.151   1.368 -1.5849  0.3251  0.1679
  578MPD2    H2 8575   0.731   2.457   1.107 -0.8638 -0.6397 -1.7913
  578MPD2    H3 8576   0.697   2.326   1.298 -0.8383 -0.3634 -1.3138
  578MPD2     N 8577   1.065   2.073   1.235  0.4058  0.7784 -0.0139
  578MPD2    H5 8578   1.140   2.045   1.173 -0.6714 -1.5161 -0.3182
  578MPD2    N1 8579   0.939   2.438   0.933  0.3074 -0.6256  0.5120
  578MPD2    H7 8580   0.869   2.512   0.923  0.8813 -0.2519 -0.7176
  579TMC3    C1 8581   1.194   1.935   1.367 -0.0150  0.3103  0.8364
  579TMC3    C2 8582   1.290   1.966   1.461 -0.0926  0.5937  0.4778
  579TMC3    C3 8583   1.424   1.944   1.435  0.1145 -1.2020  0.1200
  579TMC3    C4 8584   1.228   1.860   1.261 -0.6533 -0.3926 -0.3712
  579TMC3    C5 8585   1.364   1.819   1.255 -0.1688  0.6197  0.2494
  579TMC3    C6 8586   1.470   1.875   1.325 -0.1120  0.2864 -0.5098
  579TMC3     C 8587   1.076   2.019   1.361 -0.1436  0.0462  0.4313
  579TMC3     O 8588   1.039   2.074   1.466  0.1426  0.4889  0.1848
  579TMC3     H 8589   1.251   2.013   1.551  0.4104 -0.3338  1.1918
  579TMC3    H1 8590   1.148   1.822   1.199 -0.8855  0.7546 -0.7721
  579TMC3    H2 8591   1.574   1.872   1.294 -0.1750 -3.4957 -0.3110
  579TMC3    C7 8592   1.400   1.780   1.123  0.4720  0.5366  0.1343
  579TMC3    C8 8593   1.511   2.003   1.533 -0.0791  0.4506  0.3032
  579TMC3    O1 8594   1.505   1.809   1.069  0.4235  0.5211  0.1705
  579TMC3    O2 8595   1.461   2.058   1.627  0.9918  0.3961  0.0451
  580TMC3    C1 8596   1.169   1.432  11.790  0.5124  0.2333  0.2363
  580TMC3    C2 8597   1.214   1.431  11.661 -0.0127 -0.2031 -0.6226
  580TMC3    C3 8598   1.334   1.376  11.632  0.0197  0.1223  0.3016
  580TMC3    C4 8599   1.234   1.352  11.879  0.6612 -1.2010  0.6008
  580TMC3    C5 8600   1.347   1.282  11.845  0.7896  0.1033 -0.5635
  580TMC3    C6 8601   1.399   1.285  11.717  0.2123  0.4677  0.2322
  580TMC3     C 8602   1.149   1.572  11.839  0.1915  0.1192  0.0278
  580TMC3     O 8603   1.133   1.579  11.959 -0.0977  0.2229 -0.3897
  580TMC3     H 8604   1.160   1.481  11.581  0.5078  0.0522 -0.8202
  580TMC3    H1 8605   1.205   1.346  11.983  0.0900 -0.1027  0.5031
  580TMC3    H2 8606   1.491   1.232  11.694 -0.2047 -0.7262  1.3010
  580TMC3    C7 8607   1.415   1.221  11.961  0.4169  0.1366 -0.4857
  580TMC3    C8 8608   1.420   1.439  11.530  0.6638 -0.8988  0.0023
  580TMC3    O1 8609   1.362   1.232  12.074  0.3496  0.0488 -0.5155
  580TMC3    O2 8610   1.354   1.526  11.475  0.4246  0.7180 -0.2172
  581MPD2     C 8611   3.472   1.272  14.429 -0.0074 -0.3147 -0.7341
  581MPD2    C1 8612   3.413   1.280  14.549 -0.0771  0.6197  0.1780
  581MPD2    C2 8613   3.304   1.367  14.574 -0.1373 -0.2718 -0.2881
  581MPD2    C3 8614   3.264   1.454  14.478 -0.4113  0.0683 -0.6239
  581MPD2    C4 8615   3.326   1.453  14.352 -0.7107 -0.2646 -0.0728
  581MPD2    C5 8616   3.425   1.361  14.328  0.0964  0.1815 -0.4041
  581MPD2     H 8617   3.245   1.373  14.665 -0.9298 -1.2922 -0.7424
  581MPD2    H1 8618   3.309   1.523  14.272  1.1851 -1.5426 -1.5763
  581MPD2    H2 8619   3.571   1.228  14.417  0.5138  1.4782 -3.0817
  581MPD2    H3 8620   3.478   1.376  14.235 -2.0079  0.9385 -1.4723
  581MPD2     N 8621   3.165   1.546  14.513  0.9925  0.5395 -0.4721
  581MPD2    H5 8622   3.113   1.534  14.599  2.1684  0.3709  0.2113
  581MPD2    N1 8623   3.466   1.184  14.636  0.2288 -0.1003 -0.4564
  581MPD2    H7 8624   3.554   1.143  14.606  0.0898 -1.4929  1.0084
  582TMC3    C1 8625   3.509   1.073  14.845  0.4140  0.6129 -0.6512
  582TMC3    C2 8626   3.641   1.057  14.822  0.7565  0.1217 -0.1155
  582TMC3    C3 8627   3.720   0.970  14.893  0.6258 -0.0082 -0.0183
  582TMC3    C4 8628   3.439   1.001  14.943 -0.5195 -0.5529 -0.0830
  582TMC3    C5 8629   3.512   0.905  15.010 -0.2607  0.2767 -0.2389
  582TMC3    C6 8630   3.650   0.888  14.984 -0.1761  0.7823  0.6059
  582TMC3     C 8631   3.418   1.154  14.758  0.3088 -1.0589  0.6479
  582TMC3     O 8632   3.314   1.185  14.808 -0.4266 -0.3048  0.5180
  582TMC3     H 8633   3.689   1.121  14.749  2.0361 -0.3111  0.3462
  582TMC3    H1 8634   3.335   1.020  14.966 -0.1992  1.4720 -0.2917
  582TMC3    H2 8635   3.704   0.805  15.027  3.0493  3.1368  1.0823
  582TMC3    C7 8636   3.492   0.890  15.152  0.3078  0.2997 -0.2551
  582TMC3    C8 8637   3.825   1.042  14.963 -0.6801  0.4894  0.6902
  582TMC3    O1 8638   3.544   0.798  15.213  0.1653  0.0347 -0.6314
  582TMC3    O2 8639   3.867   1.140  14.904  0.3880 -0.3352 -0.6771
  583MPD2     C 8640   3.867   2.880  16.763  0.2124 -0.2468  0.3437
  583MPD2    C1 8641   3.828   2.986  16.678  0.0560  0.4294 -0.4277
  583MPD2    C2 8642   3.762   3.095  16.733 -0.1344 -0.0055  0.0190
  583MPD2    C3 8643   3.720   3.099  16.869  0.3234  0.3969 -0.1525
  583MPD2    C4 8644   3.756   2.991  16.945  0.4247 -0.3244 -0.2813
  583MPD2    C5 8645   3.830   2.892  16.901  0.4765  0.0730  0.8327
  583MPD2     H 8646   3.723   3.175  16.672 -0.7736 -1.4915 -1.5030
  583MPD2    H1 8647   3.740   2.983  17.052 -1.7862  1.0820 -0.5017
  583MPD2    H2 8648   3.923   2.795  16.726  0.9792  0.3025  0.2212
  583MPD2    H3 8649   3.864   2.826  16.980 -1.2544  0.9883  2.3384
  583MPD2     N 8650   3.641   3.206  16.920  0.0469 -0.0060  0.0735
  583MPD2    H5 8651   3.622   3.283  16.856  0.0348  2.6847  3.3254
  583MPD2    N1 8652   3.859   2.983  16.539 -0.0010  0.6340 -0.3520
  583MPD2    H7 8653   3.825   3.064  16.488 -0.5844  1.2619  1.0474
  584TMC3    C1 8654   3.512   3.327  17.087 -0.1270  0.2676 -1.0885
  584TMC3    C2 8655   3.568   3.444  17.057  0.3448 -0.4304 -0.0783
  584TMC3    C3 8656   3.540   3.555  17.126 -0.1915  0.6201  0.0218
  584TMC3    C4 8657   3.428   3.314  17.203 -0.2024 -0.1001 -0.1642
  584TMC3    C5 8658   3.410   3.431  17.279 -0.1253 -1.5460 -0.1813
  584TMC3    C6 8659   3.465   3.551  17.237  0.5212  0.1106  0.1451
  584TMC3     C 8660   3.575   3.206  17.043 -0.7885 -0.6150 -0.2714
  584TMC3     O 8661   3.555   3.109  17.112  0.7111  0.3392 -0.2274
  584TMC3     H 8662   3.646   3.440  16.983  0.0460 -0.5274 -0.3879
  584TMC3    H1 8663   3.365   3.230  17.231  0.4827 -0.2586  0.8881
  584TMC3    H2 8664   3.442   3.645  17.286 -1.0566 -0.0043 -0.3755
  584TMC3    C7 8665   3.352   3.415  17.409 -0.6949  0.4421 -0.4221
  584TMC3    C8 8666   3.598   3.682  17.072  0.5441 -0.5241 -0.2190
  584TMC3    O1 8667   3.314   3.306  17.455 -0.0764  0.2462  0.1776
  584TMC3    O2 8668   3.599   3.688  16.949  0.2640 -0.0318 -0.2728
  585MPD2     C 8669   3.005   1.849   0.712  0.2050  0.1558  0.4052
  585MPD2    C1 8670   3.090   1.934   0.648  0.0105 -0.3175 -0.2565
  585MPD2    C2 8671   3.117   1.917   0.515  0.3840  0.2714  0.2679
  585MPD2    C3 8672   3.066   1.813   0.441  0.2404  0.6211  0.6978
  585MPD2    C4 8673   2.990   1.719   0.509  0.7778 -0.2904 -0.3818
  585MPD2    C5 8674   2.966   1.740   0.643  1.0427 -0.2001  0.1913
  585MPD2     H 8675   3.172   1.994   0.463 -2.0436 -0.7979 -3.8385
  585MPD2    H1 8676   2.960   1.629   0.457  1.2489 -0.7158  0.0784
  585MPD2    H2 8677   2.971   1.880   0.810 -2.8982 -0.3990 -0.4784
  585MPD2    H3 8678   2.913   1.663   0.697  2.4343 -1.4597 -0.2585
  585MPD2     N 8679   3.084   1.797   0.297 -0.2762 -0.8218  0.2999
  585MPD2    H5 8680   3.011   1.736   0.260 -1.3672 -0.0302  1.1493
  585MPD2    N1 8681   3.132   2.052   0.729  0.2692  0.9074  0.3872
  585MPD2    H7 8682   3.079   2.061   0.815  0.1265  1.0849  0.2812
  586TMC3    C1 8683   3.151   1.847   0.077  0.8316 -0.0929 -0.0701
  586TMC3    C2 8684   3.127   1.723   0.030 -0.2915 -0.5404 -0.4209
  586TMC3    C3 8685   3.114   1.711  17.597 -0.3605  0.4896  0.0927
  586TMC3    C4 8686   3.173   1.960   0.002 -0.3798 -0.9427  0.5651
  586TMC3    C5 8687   3.158   1.948  17.572 -0.2038  0.5021 -0.5248
  586TMC3    C6 8688   3.130   1.822  17.524  0.2021  0.5476 -1.0187
  586TMC3     C 8689   3.175   1.865   0.215  0.7018 -0.2525  0.0467
  586TMC3     O 8690   3.272   1.934   0.245 -0.6838 -0.3660  0.2006
  586TMC3     H 8691   3.112   1.635   0.091 -0.0594  0.9488  1.8013
  586TMC3    H1 8692   3.186   2.060   0.042 -1.6422  0.5555 -2.7532
  586TMC3    H2 8693   3.109   1.816  17.418  1.0743  0.3373 -1.1837
  586TMC3    C7 8694   3.114   2.065  17.498 -0.0751 -0.4471  0.2343
  586TMC3    C8 8695   3.067   1.587  17.545  0.2142  0.8121  0.4382
  586TMC3    O1 8696   3.156   2.070  17.380 -0.6396  0.2588 -0.0544
  586TMC3    O2 8697   3.034   1.503  17.627 -0.1677 -0.0036 -0.7374
  587TMC3    C1 8698   0.770   0.172  16.710  0.2507 -0.4951  0.2517
  587TMC3    C2 8699   0.759   0.308  16.722 -0.0845 -0.4559 -0.3283
  587TMC3    C3 8700   0.870   0.381  16.701  0.0104  0.8845  0.1517
  587TMC3    C4 8701   0.891   0.113  16.673  0.0073 -0.9191  0.2885
  587TMC3    C5 8702   1.001   0.196  16.652  0.0248 -0.0985  0.0249
  587TMC3    C6 8703   0.988   0.328  16.668  0.0542  0.3979  0.1096
  587TMC3     C 8704   0.659   0.082  16.723  0.1065 -0.3191 -0.0462
  587TMC3     O 8705   0.689   4.690  16.727 -0.2263  0.1313  0.2895
  587TMC3     H 8706   0.668   0.361  16.749 -0.8449 -2.4401  1.0040
  587TMC3    H1 8707   0.904   0.006  16.661  0.2227 -0.7370 -1.0757
  587TMC3    H2 8708   1.064   0.398  16.635 -1.0006  0.9275 -1.1477
  587TMC3    C7 8709   1.132   0.142  16.644 -0.5624 -0.6411  0.2442
  587TMC3    C8 8710   0.869   0.534  16.715 -0.0220 -0.3249 -0.1016
  587TMC3    O1 8711   1.138   0.023  16.621 -0.2897  0.0834 -0.3521
  587TMC3    O2 8712   0.970   0.596  16.746 -0.0203 -0.1095  0.0717
  588TMC3    C1 8713   2.737   2.955  10.075 -0.2776  0.5187 -0.1756
  588TMC3    C2 8714   2.731   2.824  10.041 -0.6438 -1.1219  0.1444
  588TMC3    C3 8715   2.826   2.741  10.097  0.6950  1.1866  0.1610
  588TMC3    C4 8716   2.835   3.001  10.162  0.2192  0.3596  0.2094
  588TMC3    C5 8717   2.933   2.916  10.211  0.2210 -0.1936 -0.2166
  588TMC3    C6 8718   2.927   2.782  10.187  0.0193 -0.0345  0.1971
  588TMC3     C 8719   2.681   3.052   9.987  0.3785  0.3149  0.1490
  588TMC3     O 8720   2.558   3.048   9.984  0.1020 -0.6561 -0.2037
  588TMC3     H 8721   2.655   2.796   9.969 -0.8013 -1.6922  0.5276
  588TMC3    H1 8722   2.828   3.106  10.191  1.1216  0.6990 -0.8101
  588TMC3    H2 8723   2.996   2.725  10.247  0.7359  0.3020 -0.3096
  588TMC3    C7 8724   3.026   2.970  10.305  0.4430 -0.4346 -0.3258
  588TMC3    C8 8725   2.798   2.604  10.076  0.0784  0.9274 -0.1667
  588TMC3    O1 8726   3.050   2.906  10.405 -0.0324  0.5128  0.0754
  588TMC3    O2 8727   2.690   2.573  10.039  0.0727 -0.1111 -0.0137
  589TMC3    C1 8728   1.742   0.606   1.202  0.0636  0.5289  0.9539
  589TMC3    C2 8729   1.787   0.629   1.329 -0.3552 -0.1832 -0.2353
  589TMC3    C3 8730   1.913   0.583   1.361  0.1226 -0.1868 -0.1899
  589TMC3    C4 8731   1.827   0.547   1.109  0.0978  0.4543  0.0589
  589TMC3    C5 8732   1.955   0.507   1.145  0.1919 -0.5559 -0.6410
  589TMC3    C6 8733   1.999   0.527   1.270 -0.3151 -0.7797 -0.5824
  589TMC3     C 8734   1.627   0.683   1.155  0.2457  0.2809 -0.0358
  589TMC3     O 8735   1.627   0.691   1.035 -0.2799  0.3913  0.3933
  589TMC3     H 8736   1.735   0.691   1.402  1.0083  1.6769 -0.8493
  589TMC3    H1 8737   1.795   0.526   1.008  1.7607 -0.5709 -0.2586
  589TMC3    H2 8738   2.100   0.497   1.298  1.1262  2.4968 -2.2701
  589TMC3    C7 8739   2.056   0.445   1.064 -0.4176  0.3844  0.6056
  589TMC3    C8 8740   1.942   0.583   1.506  0.3437  0.7279 -0.6668
  589TMC3    O1 8741   2.174   0.460   1.093 -0.1947  0.2907 -0.2459
  589TMC3    O2 8742   1.862   0.629   1.588 -0.2413 -0.0022  0.0676
  590MPD2     C 8743   1.598   3.442  16.558 -0.0348  0.2935  0.1381
  590MPD2    C1 8744   1.514   3.521  16.476  0.0262 -0.6401 -0.7173
  590MPD2    C2 8745   1.570   3.608  16.380  0.0803 -0.6145  0.0508
  590MPD2    C3 8746   1.710   3.598  16.359  0.0677 -0.1356 -0.0666
  590MPD2    C4 8747   1.786   3.519  16.444  0.0644 -0.3471  0.1949
  590MPD2    C5 8748   1.729   3.440  16.536  0.1471 -0.3210 -0.2849
  590MPD2     H 8749   1.506   3.667  16.315  0.8578  0.3107  0.1365
  590MPD2    H1 8750   1.895   3.513  16.441  0.2294  2.6002 -0.4589
  590MPD2    H2 8751   1.564   3.367  16.628  0.6280  0.7806  0.9804
  590MPD2    H3 8752   1.795   3.379  16.598 -0.9259  0.9535  2.1211
  590MPD2     N 8753   1.778   3.681  16.268  0.1457 -0.1301 -0.1051
  590MPD2    H5 8754   1.721   3.747  16.216  2.7959  2.0635 -0.2329
  590MPD2    N1 8755   1.372   3.522  16.498 -0.5638  0.2129 -0.3453
  590MPD2    H7 8756   1.339   3.446  16.556  1.9440 -1.0324 -0.5448
  591TMC3    C1 8757   1.943   3.779  16.132  0.1822 -0.0440 -0.4738
  591TMC3    C2 8758   2.014   3.738  16.023 -0.1063 -0.6773 -0.2112
  591TMC3    C3 8759   2.014   3.821  15.923 -0.3673 -0.4562  0.1722
  591TMC3    C4 8760   1.879   3.898  16.138 -0.0550  0.6750 -0.3965
  591TMC3    C5 8761   1.900   3.982  16.036  0.3577  0.1399  0.1169
  591TMC3    C6 8762   1.968   3.947  15.924 -0.3734  0.0537  0.4286
  591TMC3     C 8763   1.915   3.675  16.235  0.0379 -0.4767  0.9408
  591TMC3     O 8764   1.999   3.588  16.255  0.2078 -0.2466 -0.2206
  591TMC3     H 8765   2.065   3.644  16.009  0.5878 -0.1298 -1.3266
  591TMC3    H1 8766   1.827   3.923  16.230 -1.3462 -0.1963 -0.9062
  591TMC3    H2 8767   1.992   4.016  15.843 -2.5987 -1.4978 -1.5588
  591TMC3    C7 8768   1.815   4.100  16.035  0.1081 -0.2701 -0.3972
  591TMC3    C8 8769   2.047   3.762  15.789 -1.3650 -0.5618 -0.7312
  591TMC3    O1 8770   1.717   4.096  16.108  0.0517 -0.1246 -0.0188
  591TMC3    O2 8771   2.052   3.638  15.792  0.3556  0.1445 -0.2333
  592MPD2     C 8772   2.412   0.557  11.383 -0.0567 -0.0081 -0.0157
  592MPD2    C1 8773   2.375   0.610  11.507 -0.5743 -0.0771 -0.1085
  592MPD2    C2 8774   2.295   0.527  11.587 -0.2781 -0.5610  0.1372
  592MPD2    C3 8775   2.244   0.403  11.549  0.8825  0.2036  0.2561
  592MPD2    C4 8776   2.288   0.357  11.431 -0.3775  0.6077 -0.5300
  592MPD2    C5 8777   2.367   0.433  11.346 -0.1304 -0.2387 -0.2636
  592MPD2     H 8778   2.249   0.569  11.676  0.1587  2.2835 -0.9902
  592MPD2    H1 8779   2.262   0.256  11.400 -3.6952  1.5585 -0.8437
  592MPD2    H2 8780   2.463   0.618  11.309  0.9311 -0.6122  0.1633
  592MPD2    H3 8781   2.398   0.396  11.249  0.6145 -1.5680  0.4778
  592MPD2     N 8782   2.187   0.303  11.639  0.8953  0.3655 -0.0841
  592MPD2    H5 8783   2.200   0.205  11.615 -1.8068  0.7598 -3.0904
  592MPD2    N1 8784   2.416   0.739  11.537  0.5312 -0.3251  0.2156
  592MPD2    H7 8785   2.459   0.793  11.462 -0.6632  1.2963  0.7088
  593TMC3    C1 8786   2.497   0.909  11.676 -0.0827  0.0134 -0.6716
  593TMC3    C2 8787   2.461   0.990  11.779  0.2587  0.2414  0.3737
  593TMC3    C3 8788   2.502   1.116  11.790 -0.5085 -0.1045  0.2961
  593TMC3    C4 8789   2.579   0.957  11.571 -0.2861 -0.1294  0.4116
  593TMC3    C5 8790   2.631   1.082  11.593 -0.2716 -0.5104  0.0034
  593TMC3    C6 8791   2.595   1.162  11.696  0.2289  0.0969  0.4649
  593TMC3     C 8792   2.417   0.789  11.663 -0.1152 -0.1986  0.9204
  593TMC3     O 8793   2.384   0.736  11.765  0.0062  1.1185  0.4163
  593TMC3     H 8794   2.386   0.956  11.848  2.3657 -1.5513  1.7925
  593TMC3    H1 8795   2.612   0.892  11.491 -0.7273  0.0994  0.0416
  593TMC3    H2 8796   2.623   1.266  11.695 -0.2579  0.2134 -1.5783
  593TMC3    C7 8797   2.700   1.151  11.491 -0.3382 -0.2042  0.0469
  593TMC3    C8 8798   2.412   1.215  11.845 -0.5435  0.3628  1.1801
  593TMC3    O1 8799   2.776   1.237  11.531  0.0078 -0.2536 -0.1086
  593TMC3    O2 8800   2.295   1.183  11.854  0.1794  0.2683 -0.1975
  594MPD2     C 8801   0.864   4.396  14.311  0.0029  0.2420 -0.0493
  594MPD2    C1 8802   0.830   4.474  14.417  0.3451  0.7139  0.1923
  594MPD2    C2 8803   0.903   4.595  14.437  0.5865  0.4085 -0.3030
  594MPD2    C3 8804   1.007   4.632  14.356 -0.2063 -1.0628  0.2020
  594MPD2    C4 8805   1.051   4.548  14.258  0.1966  0.1313 -0.1878
  594MPD2    C5 8806   0.969   4.435  14.235  0.0421  0.2118  0.0869
  594MPD2     H 8807   0.887   4.664  14.518 -3.4060  0.3818 -1.1057
  594MPD2    H1 8808   1.129   4.574  14.188 -0.9958  1.8743 -0.8702
  594MPD2    H2 8809   0.825   4.296  14.295 -0.0528  0.4961 -1.4656
  594MPD2    H3 8810   0.988   4.374  14.147 -0.2432  0.1142  0.0936
  594MPD2     N 8811   1.065   0.031  14.382  0.2013  0.4713  1.0795
  594MPD2    H5 8812   1.020   0.082  14.457  0.7580  0.1637  1.6222
  594MPD2    N1 8813   0.723   4.435  14.497 -0.9939 -0.5848 -0.5860
  594MPD2    H7 8814   0.663   4.361  14.462  1.9049 -2.5479 -1.4008
  595TMC3    C1 8815   1.356   0.366  14.443 -0.0856 -0.3467  0.3707
  595TMC3    C2 8816   1.324   0.259  14.362 -0.0205  0.7159  0.1431
  595TMC3    C3 8817   1.199   0.217  14.363  0.3460  0.1964  0.1824
  595TMC3    C4 8818   1.267   0.429  14.520  0.1201  0.3596 -0.3134
  595TMC3    C5 8819   1.140   0.384  14.521  0.1132  0.1438 -0.0460
  595TMC3    C6 8820   1.100   0.275  14.443  0.2585  1.5490  0.5143
  595TMC3     C 8821   1.481   0.437  14.427 -0.2087 -0.7474  0.6676
  595TMC3     O 8822   1.501   0.539  14.492 -0.0759 -0.1925 -0.6854
  595TMC3     H 8823   1.397   0.203  14.304  0.1312  1.1822 -0.1150
  595TMC3    H1 8824   1.295   0.522  14.568  0.5777 -0.1513  0.4154
  595TMC3    H2 8825   0.994   0.255  14.441  0.7916 -0.7580 -3.3355
  595TMC3    C7 8826   1.043   0.438  14.618  0.4008  0.1415  0.3613
  595TMC3    C8 8827   1.175   0.079  14.323 -0.0983 -1.1321  1.7376
  595TMC3    O1 8828   0.926   0.409  14.593  0.5546 -0.3393 -0.2784
  595TMC3    O2 8829   1.260   0.023  14.257 -0.3804 -0.8711 -0.1550
  596MPD2     C 8830   4.622   2.779  16.641 -0.6548  0.5108 -0.0304
  596MPD2    C1 8831   4.601   2.888  16.560  0.0902  0.0177  0.3162
  596MPD2    C2 8832   4.599   2.865  16.420  0.4370  0.5843  1.3647
  596MPD2    C3 8833   4.620   2.740  16.359  0.6694  0.4179  0.2055
  596MPD2    C4 8834   4.639   2.632  16.449  0.7463 -0.5699 -0.3711
  596MPD2    C5 8835   4.650   2.653  16.582 -0.2921 -0.0428 -1.0444
  596MPD2     H 8836   4.562   2.946  16.357  0.2607 -0.3296  0.3074
  596MPD2    H1 8837   4.659   2.530  16.418  2.0809 -0.8423  1.4162
  596MPD2    H2 8838   4.634   2.783  16.748  0.1733  2.5732 -0.2057
  596MPD2    H3 8839   4.677   2.575  16.653  2.0676  1.6810 -0.0705
  596MPD2     N 8840   4.609   2.723  16.223  0.2146  0.3104 -0.0900
  596MPD2    H5 8841   4.621   2.626  16.198  1.1430  0.4267 -0.1029
  596MPD2    N1 8842   4.569   3.016  16.600  0.2789  0.2097  0.1066
  596MPD2    H7 8843   4.571   3.081  16.522  2.0517 -0.4286 -0.3864
  597TMC3    C1 8844   4.522   3.201  16.744 -0.4711 -0.4774 -0.2334
  597TMC3    C2 8845   4.532   3.282  16.633  0.4323 -0.4476  1.0153
  597TMC3    C3 8846   4.483   3.409  16.648 -0.6706  0.3075  0.3961
  597TMC3    C4 8847   4.453   3.228  16.857  0.0943 -0.5355 -0.0631
  597TMC3    C5 8848   4.399   3.355  16.858 -0.2535  0.4763 -0.9562
  597TMC3    C6 8849   4.416   3.450  16.761 -0.4752 -0.1843 -0.4857
  597TMC3     C 8850   4.543   3.052  16.732 -0.7647  0.2664  0.4977
  597TMC3     O 8851   4.566   2.992  16.840  0.0192 -0.1409  0.5182
  597TMC3     H 8852   4.593   3.255  16.547 -3.4432 -1.6637 -1.3660
  597TMC3    H1 8853   4.440   3.155  16.936  4.0053 -2.3505 -1.1057
  597TMC3    H2 8854   4.404   3.554  16.789 -0.5099 -0.6170  1.1008
  597TMC3    C7 8855   4.295   3.375  16.959 -0.0779  0.1040  0.9034
  597TMC3    C8 8856   4.539   3.516  16.565 -0.6684  0.3379  0.3805
  597TMC3    O1 8857   4.274   3.292  17.042 -0.3864 -0.0788  0.1576
  597TMC3    O2 8858   4.632   3.490  16.490 -0.1261 -0.1500 -0.1216
  598TMC3    C1 8859   2.609   4.289  15.319 -0.0109  0.1209  0.6185
  598TMC3    C2 8860   2.489   4.237  15.285  0.4547  0.4841  0.3622
  598TMC3    C3 8861   2.428   4.271  15.167  0.4188  0.1185  0.0536
  598TMC3    C4 8862   2.666   4.381  15.240  0.5225 -0.2723 -0.3094
  598TMC3    C5 8863   2.601   4.420  15.126  0.2165 -0.2187  0.7215
  598TMC3    C6 8864   2.475   4.369  15.086  0.1695  0.5994 -0.7316
  598TMC3     C 8865   2.699   4.219  15.412 -0.4985 -0.1303 -0.2738
  598TMC3     O 8866   2.802   4.277  15.434  0.6678 -1.1364 -0.1489
  598TMC3     H 8867   2.445   4.159  15.345 -0.5184  0.9433  0.2423
  598TMC3    H1 8868   2.771   4.406  15.252  0.2476  0.1865  1.2383
  598TMC3    H2 8869   2.410   4.416  15.013  0.6389 -0.2888 -1.7280
  598TMC3    C7 8870   2.671   4.492  15.024  0.4362 -0.8377 -0.0877
  598TMC3    C8 8871   2.293   4.220  15.153 -0.5746 -0.0851  0.0879
  598TMC3    O1 8872   2.628   4.495  14.908  0.2671  0.3724  0.0557
  598TMC3    O2 8873   2.226   4.212  15.255  0.5867  0.3192 -0.6373
  599MPD2     C 8874   2.991   2.010  16.004  0.0110 -0.4199  0.3158
  599MPD2    C1 8875   2.923   1.894  15.962 -0.0785 -0.3162 -0.3867
  599MPD2    C2 8876   2.786   1.889  15.982  0.3423  1.0080 -0.1566
  599MPD2    C3 8877   2.721   1.994  16.056 -0.5465 -0.0543 -0.8875
  599MPD2    C4 8878   2.791   2.101  16.099 -0.5392 -0.1478 -0.2628
  599MPD2    C5 8879   2.923   2.111  16.066 -0.3868  0.2631  0.1579
  599MPD2     H 8880   2.731   1.802  15.951  1.3530  0.0817  0.6620
  599MPD2    H1 8881   2.750   2.183  16.158  1.9115 -0.6135  2.0391
  599MPD2    H2 8882   3.094   2.034  15.978  0.4673  0.4933  2.9950
  599MPD2    H3 8883   2.980   2.198  16.098 -2.1030  0.8407  1.6277
  599MPD2     N 8884   2.589   1.985  16.108 -0.3067 -0.0702 -0.5005
  599MPD2    H5 8885   2.552   2.064  16.160 -0.1487  0.5450 -1.3124
  599MPD2    N1 8886   2.998   1.797  15.906  0.0636  0.0129 -0.6020
  599MPD2    H7 8887   3.095   1.818  15.884 -0.0989  0.1296 -1.2120
  600TMC3    C1 8888   2.385   1.901  16.174  0.2092 -0.0671 -0.6264
  600TMC3    C2 8889   2.323   1.799  16.233  0.4564  0.5382  0.4642
  600TMC3    C3 8890   2.209   1.826  16.303  1.1113 -0.5241  0.0260
  600TMC3    C4 8891   2.333   2.021  16.186  0.8453 -0.8175 -0.3236
  600TMC3    C5 8892   2.205   2.042  16.231  0.4713 -0.8487  0.0141
  600TMC3    C6 8893   2.139   1.943  16.295 -0.4234 -0.4911  0.2916
  600TMC3     C 8894   2.510   1.874  16.114  0.6383  0.8131  0.9199
  600TMC3     O 8895   2.538   1.758  16.086 -0.2774  0.2257 -0.2662
  600TMC3     H 8896   2.369   1.701  16.227  0.2844  0.4028  1.3343
  600TMC3    H1 8897   2.391   2.101  16.141 -1.3112  1.3986  0.8565
  600TMC3    H2 8898   2.035   1.952  16.324  0.7185  1.6008  3.6647
  600TMC3    C7 8899   2.161   2.174  16.269 -0.3122  0.5498  0.4528
  600TMC3    C8 8900   2.140   1.704  16.324  1.4056 -0.6179  0.0376
  600TMC3    O1 8901   2.052   2.177  16.331 -0.0630  0.1081  0.0037
  600TMC3    O2 8902   2.214   1.612  16.366 -0.4190 -0.7405  0.3675
  601MPD2     C 8903   4.112   4.594   0.602 -0.4740 -0.3811  0.5642
  601MPD2    C1 8904   4.096   4.530   0.480 -0.3367  0.1369 -0.5590
  601MPD2    C2 8905   4.073   4.396   0.486  0.5222  0.3682  0.2412
  601MPD2    C3 8906   4.067   4.326   0.605  0.0563  0.6981 -0.2234
  601MPD2    C4 8907   4.080   4.394   0.724 -0.1861 -0.2303  0.0646
  601MPD2    C5 8908   4.104   4.527   0.721 -0.6192 -0.1636 -0.6613
  601MPD2     H 8909   4.076   4.341   0.392 -1.6893  1.7295 -0.6071
  601MPD2    H1 8910   4.074   4.350   0.823 -0.1787 -1.0412 -0.2950
  601MPD2    H2 8911   4.136   4.700   0.611 -0.0937 -0.5576  1.6113
  601MPD2    H3 8912   4.127   4.569   0.819 -1.7505 -0.2271 -0.3756
  601MPD2     N 8913   4.062   4.180   0.603 -0.1598  0.2214 -0.3520
  601MPD2    H5 8914   4.056   4.132   0.692  1.0268  1.9234  0.6531
  601MPD2    N1 8915   4.111   4.590   0.355 -0.1279  0.2463 -0.1374
  601MPD2    H7 8916   4.078   4.533   0.277  0.7007 -0.5822  0.1138
  602TMC3    C1 8917   4.198   4.725   0.197 -0.2599 -0.0860  0.0226
  602TMC3    C2 8918   4.314   0.071   0.161  0.6401 -0.1439  0.4911
  602TMC3    C3 8919   4.315   0.139   0.045 -0.2792 -0.1960 -0.2059
  602TMC3    C4 8920   4.085   4.723   0.126  0.7683  0.4781 -0.6432
  602TMC3    C5 8921   4.089   0.080   0.014  0.0644 -0.3521  0.4586
  602TMC3    C6 8922   4.199   0.149  17.678 -0.0680  0.3975  0.0638
  602TMC3     C 8923   4.193   4.695   0.337  0.5184  0.1206  0.4463
  602TMC3     O 8924   4.279   0.009   0.414 -0.6220 -0.0450 -0.4736
  602TMC3     H 8925   4.412   0.054   0.205  0.8867 -0.3689 -0.1540
  602TMC3    H1 8926   3.990   4.704   0.174  1.4195 -1.6437 -0.1956
  602TMC3    H2 8927   4.204   0.177  17.573 -0.0409  1.0504  0.2366
  602TMC3    C7 8928   3.959   0.120  17.660  0.0811  0.5972  0.3276
  602TMC3    C8 8929   4.443   0.178  17.686  0.8229  0.5107 -0.0508
  602TMC3    O1 8930   3.858   0.049  17.670  0.1227 -0.4466 -0.2140
  602TMC3    O2 8931   4.557   0.132   0.005  0.2341 -0.1085 -0.6600
  603TMC3    C1 8932   3.383   0.291  10.809  0.1611  0.3307  0.9258
  603TMC3    C2 8933   3.388   0.289  10.944  0.2260  0.0573 -0.4329
  603TMC3    C3 8934   3.313   0.377  11.021  0.2872  0.2310 -0.0438
  603TMC3    C4 8935   3.309   0.387  10.745 -0.2770 -0.4581 -0.4183
  603TMC3    C5 8936   3.232   0.473  10.821 -1.0471  0.4950  0.4000
  603TMC3    C6 8937   3.229   0.467  10.961  0.3046  0.0199  0.0178
  603TMC3     C 8938   3.444   0.177  10.736  0.0427  0.5207  0.2280
  603TMC3     O 8939   3.474   0.081  10.807  0.3707 -0.0528  0.0440
  603TMC3     H 8940   3.447   0.212  10.994 -0.2993 -0.7888 -1.1256
  603TMC3    H1 8941   3.299   0.399  10.638  0.4319  0.2580 -0.4022
  603TMC3    H2 8942   3.153   0.519  11.017  0.7088  0.0312  0.5519
  603TMC3    C7 8943   3.170   0.585  10.753 -0.1400 -0.0592  0.0939
  603TMC3    C8 8944   3.347   0.382  11.167 -0.4661 -0.0209  0.5967
  603TMC3    O1 8945   3.173   0.689  10.821 -0.3763  0.1330 -0.6924
  603TMC3    O2 8946   3.428   0.297  11.203  0.3131 -0.7110 -0.0586
  604MPD2     C 8947   3.722   4.208  16.266  0.1925  0.1727  0.0469
  604MPD2    C1 8948   3.622   4.110  16.246  0.6163 -0.2558 -0.4843
  604MPD2    C2 8949   3.633   4.023  16.144 -0.1052  0.1806 -0.4088
  604MPD2    C3 8950   3.744   4.030  16.060 -0.2032 -0.0284  0.3472
  604MPD2    C4 8951   3.842   4.129  16.086 -0.3284 -0.3974 -0.4423
  604MPD2    C5 8952   3.829   4.223  16.191 -0.7264  0.1437  0.7936
  604MPD2     H 8953   3.563   3.942  16.128 -1.7546  0.8596  3.2938
  604MPD2    H1 8954   3.933   4.134  16.028 -0.2612 -1.4147 -0.4257
  604MPD2    H2 8955   3.717   4.272  16.354  0.7216  1.6395 -0.9771
  604MPD2    H3 8956   3.910   4.291  16.216  0.5391 -0.9639 -0.2802
  604MPD2     N 8957   3.759   3.936  15.953 -0.0867  0.2340 -0.1059
  604MPD2    H5 8958   3.684   3.868  15.953 -0.8878  1.0984  1.1260
  604MPD2    N1 8959   3.522   4.106  16.340 -0.1335 -0.1231  0.3541
  604MPD2    H7 8960   3.520   4.187  16.402 -2.0285 -2.0628  2.8206
  605TMC3    C1 8961   3.313   4.090  16.434  0.2834 -0.3880  0.3175
  605TMC3    C2 8962   3.357   4.179  16.527 -0.0619 -0.1870 -0.4971
  605TMC3    C3 8963   3.265   4.258  16.593  0.4512  0.5727 -0.5746
  605TMC3    C4 8964   3.184   4.072  16.411  0.1930 -0.1559  0.1620
  605TMC3    C5 8965   3.100   4.163  16.470 -0.3026 -0.2544  0.0478
  605TMC3    C6 8966   3.133   4.259  16.556 -0.7048 -0.6222  0.4713
  605TMC3     C 8967   3.404   4.035  16.338 -0.8538 -0.2984 -0.7084
  605TMC3     O 8968   3.371   3.946  16.265 -0.5373 -0.1659  0.5702
  605TMC3     H 8969   3.460   4.187  16.560  0.1637 -0.0072 -1.2426
  605TMC3    H1 8970   3.163   4.008  16.326 -3.0091  0.8759  0.1534
  605TMC3    H2 8971   3.059   4.318  16.607 -0.8262 -0.7299  0.4188
  605TMC3    C7 8972   2.976   4.194  16.401 -0.3850  0.1982  0.6578
  605TMC3    C8 8973   3.298   4.375  16.670  0.3391 -0.2436  0.3378
  605TMC3    O1 8974   2.942   4.313  16.413 -0.4284  0.3272  0.5461
  605TMC3    O2 8975   3.215   4.464  16.680 -0.4400 -0.2873 -0.0464
  606TMC3    C1 8976   0.513   2.672  16.832 -0.6909 -0.3550  0.0616
  606TMC3    C2 8977   0.554   2.655  16.963 -0.0807  0.1433  0.0776
  606TMC3    C3 8978   0.489   2.567  17.033 -0.1966  0.1214  0.2623
  606TMC3    C4 8979   0.419   2.598  16.770 -0.2659  0.0435 -0.1447
  606TMC3    C5 8980   0.341   2.525  16.857 -0.0445  0.6861  1.0867
  606TMC3    C6 8981   0.381   2.502  16.987 -0.4914 -0.1524  0.1901
  606TMC3     C 8982   0.525   2.807  16.785  0.0084 -0.7572  0.7775
  606TMC3     O 8983   0.475   2.838  16.682  0.4960  0.4678  0.0692
  606TMC3     H 8984   0.647   2.698  16.999 -0.7026  0.5893  1.1112
  606TMC3    H1 8985   0.389   2.628  16.670 -0.3736  1.4442  0.3113
  606TMC3    H2 8986   0.334   2.421  17.042  1.0616 -1.3393 -0.2601
  606TMC3    C7 8987   0.231   2.459  16.797 -0.5226  0.3562  0.8192
  606TMC3    C8 8988   0.516   2.560  17.176  0.3394 -0.3805  0.7187
  606TMC3    O1 8989   0.214   2.472  16.678 -0.2334  0.3517 -0.1319
  606TMC3    O2 8990   0.623   2.602  17.217 -0.1111  0.0626  0.2025
  607MPD2     C 8991   2.494   0.104  11.648 -0.4648 -0.0117 -1.3026
  607MPD2    C1 8992   2.493   0.189  11.752  0.8160 -0.5802  0.7719
  607MPD2    C2 8993   2.441   0.148  11.875 -0.4177 -0.4998 -0.8499
  607MPD2    C3 8994   2.403   0.023  11.900  0.8055 -0.7577  0.4653
  607MPD2    C4 8995   2.406   4.657  11.794 -0.2331 -0.5242 -0.9111
  607MPD2    C5 8996   2.453   4.700  11.672  0.1688 -0.0270  0.5171
  607MPD2     H 8997   2.441   0.209  11.965 -0.5113  0.4923 -1.5243
  607MPD2    H1 8998   2.381   4.553  11.810 -0.5052 -0.0725  1.7368
  607MPD2    H2 8999   2.524   0.134  11.549  0.1932  1.2572 -0.7113
  607MPD2    H3 9000   2.448   4.629  11.589  0.3487  0.0964  0.4022
  607MPD2     N 9001   2.369   4.709  12.028 -0.4764 -0.3681  0.4348
  607MPD2    H5 9002   2.362   0.061  12.091  0.2872  1.7383 -2.0784
  607MPD2    N1 9003   2.540   0.320  11.750  0.0553  0.1518 -0.0585
  607MPD2    H7 9004   2.507   0.384  11.822  1.5677  0.9462 -0.0796
  608TMC3    C1 9005   2.664   0.511  11.703 -0.4029  0.4939  0.7811
  608TMC3    C2 9006   2.675   0.537  11.836  1.2589 -0.4496  0.0455
  608TMC3    C3 9007   2.720   0.663  11.882  0.2921  0.1785 -0.0911
  608TMC3    C4 9008   2.726   0.597  11.612  0.4715 -0.0644  0.4468
  608TMC3    C5 9009   2.781   0.713  11.664 -0.2317 -0.4527  0.3100
  608TMC3    C6 9010   2.782   0.752  11.798 -0.6833 -0.6170 -0.0020
  608TMC3     C 9011   2.611   0.383  11.654  0.8014 -0.3497 -0.4183
  608TMC3     O 9012   2.639   0.348  11.541 -0.4859  0.4068 -0.1476
  608TMC3     H 9013   2.652   0.458  11.907  1.1364  2.2059  3.0049
  608TMC3    H1 9014   2.733   0.577  11.506 -2.6646 -0.8468  0.3770
  608TMC3    H2 9015   2.815   0.849  11.832  0.0081 -0.7973 -0.1553
  608TMC3    C7 9016   2.859   0.785  11.570 -0.2174  0.0809 -0.3523
  608TMC3    C8 9017   2.711   0.687  12.021 -0.3408 -0.2347 -1.1379
  608TMC3    O1 9018   2.841   0.755  11.454 -0.0176  0.2434  0.1373
  608TMC3    O2 9019   2.804   0.757  12.064  0.1226  0.4193  0.3473
  609TMC3    C1 9020   0.998   4.113   9.332 -0.0971 -0.1810  0.3510
  609TMC3    C2 9021   0.875   4.057   9.320 -0.5305  0.4447  0.2914
  609TMC3    C3 9022   0.879   3.920   9.332 -0.3271 -0.7817 -0.4555
  609TMC3    C4 9023   1.113   4.041   9.358  1.0732 -1.1281  0.5468
  609TMC3    C5 9024   1.117   3.904   9.367  0.5618 -0.1346  0.7851
  609TMC3    C6 9025   0.993   3.846   9.364 -0.3388  0.4294  0.2898
  609TMC3     C 9026   0.990   4.248   9.387  0.8309  1.0463 -0.3206
  609TMC3     O 9027   0.905   4.315   9.334 -0.0621 -0.6690 -0.0712
  609TMC3     H 9028   0.792   4.125   9.304  0.7285  0.8783 -4.3241
  609TMC3    H1 9029   1.209   4.090   9.355  0.2538  0.4151 -0.2938
  609TMC3    H2 9030   0.985   3.739   9.378 -0.3066  0.2756 -0.8580
  609TMC3    C7 9031   1.222   3.847   9.446 -0.0759 -0.0863 -0.3745
  609TMC3    C8 9032   0.758   3.846   9.318 -0.0600  0.4022  0.1402
  609TMC3    O1 9033   1.312   3.921   9.476 -0.8782  0.2362 -0.1230
  609TMC3    O2 9034   0.758   3.727   9.328  0.3410  0.2160 -0.6103
  610TMC3    C1 9035   3.185   0.735  12.456 -0.4514 -0.7946 -0.7008
  610TMC3    C2 9036   3.144   0.671  12.340 -0.5057 -0.1270 -0.3528
  610TMC3    C3 9037   3.060   0.567  12.350  0.9874  1.0082 -0.2961
  610TMC3    C4 9038   3.164   0.690  12.584 -0.0873 -0.4228 -0.6766
  610TMC3    C5 9039   3.090   0.571  12.582 -0.3972  0.2588  0.1451
  610TMC3    C6 9040   3.031   0.508  12.469 -0.4204 -0.2384 -0.8617
  610TMC3     C 9041   3.263   0.857  12.449  0.1964  0.9441  0.3434
  610TMC3     O 9042   3.325   0.890  12.549  0.2664  0.3040 -0.0903
  610TMC3     H 9043   3.169   0.710  12.242 -0.0854  0.8017  0.1207
  610TMC3    H1 9044   3.185   0.746  12.674  0.2658 -1.8399  0.1347
  610TMC3    H2 9045   2.984   0.411  12.476 -2.7457  0.8894 -0.6553
  610TMC3    C7 9046   3.069   0.509  12.711  0.3815 -0.8830  0.3172
  610TMC3    C8 9047   3.046   0.494  12.227  0.0976  0.3463  0.0674
  610TMC3    O1 9048   2.971   0.438  12.728  0.2255 -0.2702 -0.6628
  610TMC3    O2 9049   3.135   0.513  12.144  0.4218 -0.3622 -0.1876
  611MPD2     C 9050   2.006   0.643  10.849 -0.2310  0.2381 -1.0628
  611MPD2    C1 9051   1.942   0.621  10.726  0.8444  0.6727  0.0131
  611MPD2    C2 9052   2.020   0.603  10.617 -0.4088 -0.4756 -0.0309
  611MPD2    C3 9053   2.160   0.587  10.633 -0.4490  0.7419  0.7726
  611MPD2    C4 9054   2.225   0.621  10.746 -0.9659 -0.2044  0.0178
  611MPD2    C5 9055   2.148   0.653  10.855 -0.0901 -0.0275 -0.1418
  611MPD2     H 9056   1.972   0.594  10.521  0.0722 -2.7940 -0.0628
  611MPD2    H1 9057   2.333   0.627  10.754 -1.0940 -0.3842  1.9093
  611MPD2    H2 9058   1.955   0.666  10.941 -0.0426  3.5978 -1.8079
  611MPD2    H3 9059   2.199   0.682  10.946  2.4624 -2.8232 -0.6857
  611MPD2     N 9060   2.245   0.577  10.522 -0.0081 -0.4588 -0.1819
  611MPD2    H5 9061   2.342   0.598  10.540 -0.1265  0.6083 -0.8282
  611MPD2    N1 9062   1.799   0.613  10.723  0.2005 -0.1139  0.1636
  611MPD2    H7 9063   1.757   0.624  10.814  1.1533  0.3642  0.5506
  612TMC3    C1 9064   2.310   0.556  10.297  0.6143 -0.6832 -0.0822
  612TMC3    C2 9065   2.422   0.628  10.317 -0.7580 -0.1985  0.4578
  612TMC3    C3 9066   2.519   0.633  10.224 -0.4375  0.4432  0.3085
  612TMC3    C4 9067   2.292   0.485  10.178  0.4774  0.1502 -0.1620
  612TMC3    C5 9068   2.390   0.502  10.084 -0.0758 -0.1278  0.1153
  612TMC3    C6 9069   2.503   0.579  10.103  0.6973 -0.6764  0.9963
  612TMC3     C 9070   2.204   0.555  10.392 -0.3478  0.2976  0.1488
  612TMC3     O 9071   2.091   0.522  10.354 -0.5457 -0.0351  0.3741
  612TMC3     H 9072   2.434   0.689  10.406  0.5075 -0.9025  0.7762
  612TMC3    H1 9073   2.225   0.399  10.174  0.1344  0.3203  1.9108
  612TMC3    H2 9074   2.579   0.603  10.029  0.0369 -0.2264  0.4622
  612TMC3    C7 9075   2.377   0.423   9.963 -0.5706 -0.7381  0.3879
  612TMC3    C8 9076   2.642   0.701  10.258  0.5346  0.4392 -1.2328
  612TMC3    O1 9077   2.265   0.385   9.938  0.5344 -0.0765 -0.6256
  612TMC3    O2 9078   2.677   0.787  10.182 -0.2427  0.0385 -0.0560
  613MPD2     C 9079   1.140   2.385  16.553  0.2058  0.2030 -0.2049
  613MPD2    C1 9080   1.075   2.457  16.452  0.0047  0.7695  1.0690
  613MPD2    C2 9081   0.981   2.400  16.370 -0.4858 -0.5958 -0.6595
  613MPD2    C3 9082   0.966   2.264  16.381 -0.4296  0.6146 -0.1196
  613MPD2    C4 9083   1.037   2.192  16.475  0.5073  0.5037  0.1896
  613MPD2    C5 9084   1.116   2.253  16.565 -0.0374  0.3630 -0.1872
  613MPD2     H 9085   0.935   2.459  16.291 -0.7536  0.3923  0.2331
  613MPD2    H1 9086   1.048   2.085  16.463  1.5284  0.5933  0.2738
  613MPD2    H2 9087   1.214   2.423  16.623  0.4434  0.4092 -0.5708
  613MPD2    H3 9088   1.159   2.193  16.644  0.7181 -0.2130 -1.0403
  613MPD2     N 9089   0.878   2.194  16.292  0.4425 -0.2451 -0.0885
  613MPD2    H5 9090   0.882   2.092  16.294 -3.0096 -0.3675  0.9197
  613MPD2    N1 9091   1.116   2.595  16.430  0.6991  0.2007  0.0224
  613MPD2    H7 9092   1.190   2.634  16.487 -0.1008  2.3087 -0.3852
  614TMC3    C1 9093   1.202   2.754  16.280 -0.1546  0.5066 -0.5524
  614TMC3    C2 9094   1.299   2.666  16.235  0.8867 -0.2388  0.3822
  614TMC3    C3 9095   1.351   2.664  16.106 -0.9134  0.3921 -0.0131
  614TMC3    C4 9096   1.164   2.854  16.187  0.7766 -0.1613  0.4754
  614TMC3    C5 9097   1.221   2.848  16.062  0.3903  0.0863  0.0614
  614TMC3    C6 9098   1.311   2.760  16.012 -0.8384 -0.2177  0.3297
  614TMC3     C 9099   1.090   2.667  16.315  0.0393 -0.3315  0.3483
  614TMC3     O 9100   0.993   2.665  16.240 -0.8757  0.2332  0.0235
  614TMC3     H 9101   1.326   2.579  16.295 -0.2655 -1.3016 -0.6376
  614TMC3    H1 9102   1.086   2.927  16.198  0.7676  0.0885 -1.1914
  614TMC3    H2 9103   1.349   2.759  15.910  2.4179  0.4075  1.5102
  614TMC3    C7 9104   1.151   2.939  15.966  0.4352  0.0649 -0.5740
  614TMC3    C8 9105   1.388   2.536  16.043 -0.1126 -0.2326  0.3504
  614TMC3    O1 9106   1.137   3.057  15.997 -0.1835 -0.4868 -0.0671
  614TMC3    O2 9107   1.385   2.441  16.121 -0.1106  0.8965  0.5253
  615MPD2     C 9108   0.671   4.245  16.232 -0.2187  0.6312  0.4776
  615MPD2    C1 9109   0.565   4.329  16.201 -0.5213  0.3024  0.4860
  615MPD2    C2 9110   0.467   4.294  16.105 -0.4968  0.5505 -1.0433
  615MPD2    C3 9111   0.469   4.175  16.038  0.4476 -0.1163  0.7409
  615MPD2    C4 9112   0.587   4.100  16.058  0.7059 -0.1692 -0.2191
  615MPD2    C5 9113   0.685   4.133  16.155  0.2874  0.1833 -0.2685
  615MPD2     H 9114   0.390   4.364  16.075 -1.1281 -0.0907 -0.9201
  615MPD2    H1 9115   0.617   4.021  15.990  0.6843 -1.1894  0.9570
  615MPD2    H2 9116   0.748   4.269  16.304  0.6022  3.5820 -1.3939
  615MPD2    H3 9117   0.766   4.064  16.169  0.7250  0.2121 -2.5586
  615MPD2     N 9118   0.372   4.134  15.942 -0.5688  0.1136  0.0695
  615MPD2    H5 9119   0.393   4.052  15.886 -2.5004 -0.0995 -0.3515
  615MPD2    N1 9120   0.561   4.459  16.263  0.4348  0.3137 -0.8533
  615MPD2    H7 9121   0.475   4.511  16.247  0.0323  0.1677  0.7807
  616TMC3    C1 9122   0.628   4.670  16.360 -0.6091  0.3611  0.7164
  616TMC3    C2 9123   0.724   0.030  16.322 -0.0768 -0.9371 -0.2852
  616TMC3    C3 9124   0.708   0.167  16.327 -0.0264  0.3911  0.0881
  616TMC3    C4 9125   0.504   4.720  16.378 -0.3845  0.0580  0.2145
  616TMC3    C5 9126   0.481   0.132  16.375  0.4203 -0.1823  0.3377
  616TMC3    C6 9127   0.585   0.216  16.363  0.0706  0.0848  0.9648
  616TMC3     C 9128   0.661   4.528  16.333 -0.0756  0.1086  0.4803
  616TMC3     O 9129   0.779   4.497  16.359  0.0583 -0.5103 -0.0201
  616TMC3     H 9130   0.821   4.710  16.307  0.1844 -0.3436 -0.4243
  616TMC3    H1 9131   0.432   4.656  16.426 -1.0951  0.4363 -0.3344
  616TMC3    H2 9132   0.563   0.321  16.375  2.0194  0.8916 -2.6084
  616TMC3    C7 9133   0.351   0.186  16.396 -0.0259  0.1531 -0.8848
  616TMC3    C8 9134   0.811   0.265  16.331  0.7562 -0.1083  0.6996
  616TMC3    O1 9135   0.338   0.298  16.440 -0.1504 -0.4161  0.6316
  616TMC3    O2 9136   0.786   0.376  16.381 -0.0135  0.7695  0.3388
  617MPD2     C 9137   3.522   2.768  13.357 -0.2427 -0.4814  0.1858
  617MPD2    C1 9138   3.477   2.803  13.481 -0.8731 -0.2944 -0.3334
  617MPD2    C2 9139   3.365   2.744  13.533  0.2312 -0.1202  0.4076
  617MPD2    C3 9140   3.297   2.648  13.453 -0.2492  0.0329  0.0308
  617MPD2    C4 9141   3.331   2.622  13.326  0.2271  0.3518 -0.1280
  617MPD2    C5 9142   3.445   2.685  13.277  0.1506 -0.3712  0.3061
  617MPD2     H 9143   3.339   2.776  13.633  0.3471 -0.2560  0.4798
  617MPD2    H1 9144   3.282   2.559  13.253 -0.3953 -2.4164  2.6624
  617MPD2    H2 9145   3.611   2.809  13.310  1.1631 -0.9828  2.3964
  617MPD2    H3 9146   3.483   2.651  13.182 -0.1788 -0.8668  0.3546
  617MPD2     N 9147   3.188   2.580  13.503 -0.2825  0.3066 -0.1457
  617MPD2    H5 9148   3.133   2.535  13.430 -1.4495  1.5744 -0.0546
  617MPD2    N1 9149   3.547   2.902  13.541 -0.1449 -0.5196 -1.0858
  617MPD2    H7 9150   3.615   2.955  13.489  1.2207 -0.5134  0.6817
  618TMC3    C1 9151   3.639   3.055  13.692 -0.0235 -0.2780  0.1902
  618TMC3    C2 9152   3.712   3.033  13.807  0.3403 -0.1341 -0.4595
  618TMC3    C3 9153   3.840   3.005  13.792 -0.4493  0.3172  0.2433
  618TMC3    C4 9154   3.695   3.092  13.575  0.1278 -0.0232  0.1494
  618TMC3    C5 9155   3.832   3.073  13.568 -0.2023 -0.3383 -0.4998
  618TMC3    C6 9156   3.904   3.014  13.669 -0.4882 -0.0523 -0.3640
  618TMC3     C 9157   3.533   2.955  13.666 -0.5009  0.7389  0.3525
  618TMC3     O 9158   3.442   2.942  13.747 -0.1043 -0.0098  0.1661
  618TMC3     H 9159   3.666   2.989  13.894  2.3359 -0.1581  0.5675
  618TMC3    H1 9160   3.634   3.124  13.491  3.6115  2.6763 -1.3560
  618TMC3    H2 9161   4.012   3.006  13.662 -0.5237 -1.0204  0.1140
  618TMC3    C7 9162   3.864   3.012  13.442  0.1641  0.2829  1.0156
  618TMC3    C8 9163   3.921   2.976  13.922 -0.8270 -0.0939  0.0162
  618TMC3    O1 9164   3.762   2.986  13.382  0.6465 -0.4984  0.2948
  618TMC3    O2 9165   3.883   3.022  14.030 -0.1866  0.5760 -0.4435
  619MPD2     C 9166   0.911   3.809  13.504  0.2931  0.2625 -0.0528
  619MPD2    C1 9167   0.840   3.905  13.439 -0.4529  0.1114  0.6845
  619MPD2    C2 9168   0.723   3.870  13.376  0.1637 -0.6990  0.9337
  619MPD2    C3 9169   0.674   3.741  13.372  0.1989  0.1403  0.1135
  619MPD2    C4 9170   0.738   3.651  13.452  0.2664 -0.0515  1.1130
  619MPD2    C5 9171   0.853   3.688  13.516 -0.2086  0.3945  0.5174
  619MPD2     H 9172   0.659   3.948  13.338  0.3468 -1.6315 -1.2977
  619MPD2    H1 9173   0.704   3.549  13.468 -0.0722  0.0325  0.9190
  619MPD2    H2 9174   1.005   3.828  13.555 -0.0155  0.3812  0.4665
  619MPD2    H3 9175   0.895   3.607  13.575 -2.2577 -0.7538  0.3864
  619MPD2     N 9176   0.550   3.704  13.318  1.0705  0.5737  0.8305
  619MPD2    H5 9177   0.502   3.615  13.332  1.2726  0.2606 -0.4266
  619MPD2    N1 9178   0.868   4.044  13.453 -0.1371 -0.1492  0.3843
  619MPD2    H7 9179   0.805   4.109  13.408  1.8733  2.2937  1.1183
  620TMC3    C1 9180   0.976   4.241  13.499 -0.4199  0.6074 -0.0350
  620TMC3    C2 9181   0.961   4.279  13.366 -0.5881  0.2606  0.2595
  620TMC3    C3 9182   0.936   4.407  13.346  0.1046  0.4441  0.2679
  620TMC3    C4 9183   0.985   4.327  13.607 -1.0302 -0.2198  0.2503
  620TMC3    C5 9184   0.959   4.458  13.581 -0.4974 -0.4153 -0.2044
  620TMC3    C6 9185   0.946   4.502  13.448 -0.9179 -0.5237 -0.0003
  620TMC3     C 9186   0.966   4.097  13.527  0.0810  0.1259 -0.5261
  620TMC3     O 9187   1.047   4.047  13.604 -0.2550 -0.1306 -0.0377
  620TMC3     H 9188   0.945   4.205  13.289  3.7184 -0.5180  0.0862
  620TMC3    H1 9189   0.989   4.281  13.705 -1.6875 -2.5689 -0.8257
  620TMC3    H2 9190   0.928   4.608  13.440 -0.5651 -0.5864 -1.5066
  620TMC3    C7 9191   0.867   4.504  13.678 -0.0040 -0.1377  0.4322
  620TMC3    C8 9192   0.813   4.439  13.284 -0.5239 -0.3182 -0.2897
  620TMC3    O1 9193   0.874   4.463  13.794 -0.2987 -0.6587  0.1713
  620TMC3    O2 9194   0.736   4.519  13.332 -0.2361  0.2538  0.4310
  621MPD2     C 9195   0.465   3.830  10.117  0.4120  0.8506 -0.2394
  621MPD2    C1 9196   0.472   3.926  10.223 -0.1353  0.6048 -0.0589
  621MPD2    C2 9197   0.492   4.058  10.185  0.7099 -0.0926 -0.1273
  621MPD2    C3 9198   0.493   4.094  10.054 -0.6197  0.0588  0.0132
  621MPD2    C4 9199   0.482   4.004   9.953 -0.7890 -0.7365 -0.7984
  621MPD2    C5 9200   0.463   3.872   9.990 -0.4918  0.0713  0.0825
  621MPD2     H 9201   0.495   4.133  10.264 -0.1988 -0.5162  0.3051
  621MPD2    H1 9202   0.498   4.027   9.849 -0.3762  1.0291 -0.3387
  621MPD2    H2 9203   0.439   3.726  10.130  0.7533  0.8455  0.3960
  621MPD2    H3 9204   0.446   3.803   9.908 -2.1853  1.9659 -1.1617
  621MPD2     N 9205   0.538   4.229  10.034 -0.3369 -0.4341  0.6687
  621MPD2    H5 9206   0.589   4.264  10.115 -0.1876 -2.6637  1.5629
  621MPD2    N1 9207   0.476   3.894  10.365  0.3830 -0.2603 -0.4542
  621MPD2    H7 9208   0.487   3.976  10.423 -2.1363  0.5298 -1.1186
  622TMC3    C1 9209   0.499   3.788  10.571  0.3946 -0.0005  0.4402
  622TMC3    C2 9210   0.425   3.881  10.638  0.0158  0.1023 -0.6707
  622TMC3    C3 9211   0.441   3.888  10.775 -0.9202  0.2386  0.3185
  622TMC3    C4 9212   0.571   3.690  10.640 -0.2556  0.7353  0.2546
  622TMC3    C5 9213   0.576   3.702  10.773  0.5032  0.2985  0.2369
  622TMC3    C6 9214   0.521   3.799  10.840  1.0126  0.3683 -0.0746
  622TMC3     C 9215   0.483   3.773  10.421  0.1835  0.5342 -0.0714
  622TMC3     O 9216   0.489   3.661  10.370 -0.5018  0.9403 -0.6116
  622TMC3     H 9217   0.344   3.930  10.585  0.0218 -0.5975 -1.3242
  622TMC3    H1 9218   0.634   3.621  10.584 -0.4595 -0.4265  1.4505
  622TMC3    H2 9219   0.519   3.793  10.949 -0.1677  1.5000 -0.0372
  622TMC3    C7 9220   0.622   3.597  10.854  0.0750  0.1619  0.0032
  622TMC3    C8 9221   0.338   3.949  10.857 -0.8814  0.6812 -0.0136
  622TMC3    O1 9222   0.693   3.623  10.944 -0.3202 -0.1393 -0.2540
  622TMC3    O2 9223   0.329   3.922  10.977  0.9225  0.5367 -0.5387
  623MPD2     C 9224   3.800   4.579  16.139  0.1879 -0.2089  0.1771
  623MPD2    C1 9225   3.735   4.547  16.260  0.1070  0.1744  0.1295
  623MPD2    C2 9226   3.801   4.558  16.380 -0.2388  0.5649  0.4670
  623MPD2    C3 9227   3.933   4.605  16.377 -0.4765  0.2050 -0.3649
  623MPD2    C4 9228   3.995   4.653  16.259 -0.7190 -0.7809 -0.4209
  623MPD2    C5 9229   3.926   4.639  16.143 -0.6668 -0.4556 -0.1938
  623MPD2     H 9230   3.744   4.531  16.469  0.5136  0.6352  0.9669
  623MPD2    H1 9231   4.095   4.694  16.261 -0.8176 -0.5300 -0.7127
  623MPD2    H2 9232   3.752   4.564  16.044  1.6302 -2.2325 -0.2338
  623MPD2    H3 9233   3.975   4.695  16.063 -2.0082 -2.1735 -2.2176
  623MPD2     N 9234   3.998   4.605  16.505  0.3888 -0.1650 -0.3507
  623MPD2    H5 9235   3.954   4.555  16.582 -0.3850  4.1335  2.0011
  623MPD2    N1 9236   3.609   4.499  16.239 -0.0948  0.2308  0.6493
  623MPD2    H7 9237   3.570   4.514  16.146 -0.2763 -1.7320  0.4023
  624TMC3    C1 9238   4.244   4.399  16.754 -0.3407  0.3560  0.1685
  624TMC3    C2 9239   4.141   4.391  16.835 -0.4768  0.4683  0.3425
  624TMC3    C3 9240   4.049   4.487  16.835 -0.1566 -0.6821 -0.3825
  624TMC3    C4 9241   4.261   4.496  16.658 -0.5385  0.4204  0.3344
  624TMC3    C5 9242   4.167   4.597  16.660 -0.3076 -0.1468 -0.0347
  624TMC3    C6 9243   4.065   4.594  16.753 -0.0528 -0.4077 -0.1092
  624TMC3     C 9244   4.341   4.304  16.776  0.1101 -0.5468  0.0338
  624TMC3     O 9245   4.324   4.235  16.878  0.0964  0.1936 -0.5875
  624TMC3     H 9246   4.114   4.309  16.900  3.3765 -2.2965 -1.5345
  624TMC3    H1 9247   4.324   4.492  16.569 -4.4291  2.6019 -2.5564
  624TMC3    H2 9248   3.999   4.681  16.758 -0.1692 -0.5267  0.3884
  624TMC3    C7 9249   4.127   4.642  16.532 -0.1608 -0.5909  0.4599
  624TMC3    C8 9250   3.919   4.446  16.862  0.2856 -0.2052 -0.2017
  624TMC3    O1 9251   4.206   4.694  16.459  0.0507  0.2337 -0.1107
  624TMC3    O2 9252   3.887   4.338  16.819  0.8927 -0.3699  1.0837
  625MPD2     C 9253   4.353   0.523   0.749  0.3918  0.2389  0.5834
  625MPD2    C1 9254   4.381   0.660   0.757  0.1201 -0.0449  0.2078
  625MPD2    C2 9255   4.507   0.699   0.782  0.2090  0.0515 -0.2138
  625MPD2    C3 9256   4.610   0.609   0.803  0.1432 -1.2955 -0.2846
  625MPD2    C4 9257   4.585   0.472   0.785 -0.4203 -0.4304  0.1414
  625MPD2    C5 9258   4.450   0.436   0.783  0.0445 -0.0092 -0.1820
  625MPD2     H 9259   4.531   0.805   0.786 -1.7522  0.4067  2.4301
  625MPD2    H1 9260   4.669   0.407   0.805 -0.9096 -0.7957  0.9942
  625MPD2    H2 9261   4.252   0.483   0.746 -0.1464  1.5553  1.0274
  625MPD2    H3 9262   4.435   0.330   0.800 -0.5283 -0.1220 -1.4042
  625MPD2     N 9263   0.009   0.665   0.833 -0.2270 -0.2273 -0.0814
  625MPD2    H5 9264   0.022   0.764   0.817  0.1897 -0.3066 -0.2399
  625MPD2    N1 9265   4.281   0.759   0.723  0.1895  0.1930  0.3168
  625MPD2    H7 9266   4.316   0.854   0.731 -1.8001  0.9190  0.4513
  626TMC3    C1 9267   4.081   0.867   0.680  0.7724 -0.0052  0.1561
  626TMC3    C2 9268   4.036   0.916   0.558  0.1702 -0.4508  0.3644
  626TMC3    C3 9269   4.037   1.050   0.539  0.4369 -0.0826  0.2719
  626TMC3    C4 9270   4.106   0.956   0.779 -0.5796 -0.3509 -0.5357
  626TMC3    C5 9271   4.097   1.087   0.758 -0.4124  0.3698 -0.1428
  626TMC3    C6 9272   4.065   1.142   0.631 -0.4673  0.6491  0.1626
  626TMC3     C 9273   4.148   0.738   0.677 -0.0308  0.6913  0.0867
  626TMC3     O 9274   4.101   0.646   0.610  0.1430  0.7605  0.2529
  626TMC3     H 9275   4.000   0.849   0.481 -1.1548 -0.9680  1.4319
  626TMC3    H1 9276   4.120   0.919   0.881 -0.0298  0.4711 -0.3129
  626TMC3    H2 9277   4.067   1.249   0.617 -0.7156  0.3402 -2.2848
  626TMC3    C7 9278   4.078   1.178   0.872  0.4236 -0.4986  0.3043
  626TMC3    C8 9279   4.002   1.102   0.405  0.5372  0.5112 -0.1252
  626TMC3    O1 9280   4.132   1.148   0.978 -0.0327 -0.1609 -0.1784
  626TMC3    O2 9281   4.022   1.037   0.305 -0.0159 -0.0011 -0.8190
  627MPD2     C 9282   2.477   1.459  14.266 -0.3576  0.0756  0.0085
  627MPD2    C1 9283   2.579   1.427  14.352  0.8115  0.4048 -0.3385
  627MPD2    C2 9284   2.591   1.297  14.394  0.5406  0.9634  0.3778
  627MPD2    C3 9285   2.504   1.199  14.349 -0.3639  0.3095 -0.3970
  627MPD2    C4 9286   2.411   1.234  14.258  0.0588 -0.1906  0.4375
  627MPD2    C5 9287   2.393   1.363  14.220 -0.0526 -0.1251 -0.1698
  627MPD2     H 9288   2.654   1.270  14.478  0.2605 -0.8796  0.0026
  627MPD2    H1 9289   2.340   1.164  14.214 -1.9531 -0.2226  3.7508
  627MPD2    H2 9290   2.451   1.557  14.227 -0.7889  0.1880  0.5726
  627MPD2    H3 9291   2.320   1.383  14.142  1.2951 -0.2029 -1.4648
  627MPD2     N 9292   2.521   1.072  14.405 -0.0119 -0.4011  0.1597
  627MPD2    H5 9293   2.576   1.072  14.490 -0.2829  0.2140  0.3404
  627MPD2    N1 9294   2.664   1.524  14.418 -0.0206 -0.4315 -0.0287
  627MPD2    H7 9295   2.735   1.490  14.482  0.9748  0.0144 -0.8756
  628TMC3    C1 9296   2.795   1.714  14.417 -0.6590  0.5570 -0.3371
  628TMC3    C2 9297   2.899   1.639  14.461 -0.3227 -0.8135  0.5374
  628TMC3    C3 9298   3.009   1.708  14.512  0.2985 -0.0958 -0.0532
  628TMC3    C4 9299   2.797   1.851  14.423  0.6219 -0.3751 -0.1638
  628TMC3    C5 9300   2.905   1.910  14.489  0.0815 -0.4533 -0.1218
  628TMC3    C6 9301   3.009   1.844  14.541 -0.1046  0.2845  0.4702
  628TMC3     C 9302   2.671   1.653  14.375 -0.0415 -0.0675  0.0318
  628TMC3     O 9303   2.598   1.719  14.301 -0.5806  0.2832  0.4273
  628TMC3     H 9304   2.907   1.535  14.431 -2.8779 -0.4671 -1.3816
  628TMC3    H1 9305   2.717   1.914  14.386 -1.2147 -1.7991  1.3789
  628TMC3    H2 9306   3.104   1.894  14.552  0.3579 -0.1823 -1.4114
  628TMC3    C7 9307   2.924   2.057  14.476  0.5213  0.0665  0.2152
  628TMC3    C8 9308   3.133   1.663  14.453 -0.3200  0.1432 -0.2826
  628TMC3    O1 9309   2.992   2.114  14.561  0.7884  0.0348 -0.0457
  628TMC3    O2 9310   3.181   1.716  14.352  0.6669  0.2243 -0.3795
  629MPD2     C 9311   1.303   0.363  16.353  0.6944  0.7150 -1.0300
  629MPD2    C1 9312   1.296   0.239  16.300  0.4690 -0.1445  0.8549
  629MPD2    C2 9313   1.171   0.197  16.283  0.2019  0.0090 -0.1350
  629MPD2    C3 9314   1.053   0.274  16.305  0.6002 -0.1559 -0.2037
  629MPD2    C4 9315   1.071   0.398  16.355 -0.6509  0.1859  0.0910
  629MPD2    C5 9316   1.197   0.437  16.383 -0.4022  0.5322 -0.7632
  629MPD2     H 9317   1.153   0.106  16.227 -0.0185 -0.0537  0.0371
  629MPD2    H1 9318   0.986   0.463  16.366 -1.4110 -0.4845 -1.8823
  629MPD2    H2 9319   1.401   0.409  16.369  0.7076  0.6725 -0.9898
  629MPD2    H3 9320   1.205   0.534  16.431 -1.9823  0.0647  0.4467
  629MPD2     N 9321   0.926   0.218  16.283 -0.1346  0.5100 -0.9375
  629MPD2    H5 9322   0.928   0.120  16.255 -0.9171 -0.1580  1.4304
  629MPD2    N1 9323   1.412   0.167  16.264  0.0001 -0.1283 -0.2491
  629MPD2    H7 9324   1.504   0.206  16.284 -0.8112  2.5165 -1.6478
  630TMC3    C1 9325   1.547   0.002  16.181  0.1736 -0.2062 -0.1514
  630TMC3    C2 9326   1.637   0.098  16.134 -0.8819 -0.1528 -0.5487
  630TMC3    C3 9327   1.768   0.069  16.159  0.0601  0.5531 -0.3981
  630TMC3    C4 9328   1.579   4.615  16.239  0.2548 -0.3260  0.1366
  630TMC3    C5 9329   1.715   4.606  16.283 -0.6019  0.6706  0.4732
  630TMC3    C6 9330   1.809   4.693  16.241 -0.3725 -1.1595 -0.0275
  630TMC3     C 9331   1.415   0.042  16.212 -0.5401  0.5682  0.7043
  630TMC3     O 9332   1.329   4.684  16.221 -0.7958 -0.0252  1.0013
  630TMC3     H 9333   1.604   0.183  16.076 -0.4156 -0.7336 -1.6557
  630TMC3    H1 9334   1.501   4.573  16.301 -0.7842 -0.5467 -1.3352
  630TMC3    H2 9335   1.909   4.668  16.275 -1.8283 -0.8322  4.5280
  630TMC3    C7 9336   1.743   4.549  16.417  0.1687 -0.4766  0.2082
  630TMC3    C8 9337   1.847   0.185  16.154  0.0359 -0.8663  0.0874
  630TMC3    O1 9338   1.834   4.610  16.476 -0.3519  0.2525 -0.2887
  630TMC3    O2 9339   1.921   0.211  16.251  0.2556 -0.7593  0.1455
  631MPD2     C 9340   4.208   4.625  15.642 -0.0247 -0.7942  0.4366
  631MPD2    C1 9341   4.314   4.648  15.561  0.2355  0.9017  0.3927
  631MPD2    C2 9342   4.424   4.564  15.561 -0.8052  0.3172  0.3433
  631MPD2    C3 9343   4.427   4.453  15.636 -0.8188  0.0828 -0.5226
  631MPD2    C4 9344   4.318   4.427  15.718  0.1596 -1.1622  0.2007
  631MPD2    C5 9345   4.208   4.509  15.716  0.5617  0.8244 -0.1671
  631MPD2     H 9346   4.512   4.581  15.501 -2.9719 -0.7379 -3.1263
  631MPD2    H1 9347   4.315   4.332  15.770 -1.8269 -0.5261  1.2324
  631MPD2    H2 9348   4.123   4.692  15.638  1.8259  1.4892 -0.7315
  631MPD2    H3 9349   4.123   4.484  15.780 -2.1749  0.8355 -3.7752
  631MPD2     N 9350   4.532   4.360  15.634  0.1999  0.2026 -0.0232
  631MPD2    H5 9351   4.595   4.365  15.555 -1.2144  0.8439 -1.1144
  631MPD2    N1 9352   4.307   0.044  15.485  0.7932  0.3921 -0.0875
  631MPD2    H7 9353   4.229   0.104  15.510 -0.0493 -1.2408  1.2652
  632TMC3    C1 9354   4.351   0.199  15.338 -0.3830  0.6318  0.1124
  632TMC3    C2 9355   4.251   0.267  15.403  0.6681  0.4193 -0.2847
  632TMC3    C3 9356   4.140   0.297  15.330  0.6354  0.0669  0.0831
  632TMC3    C4 9357   4.351   0.189  15.201 -0.5357 -0.3727  0.1559
  632TMC3    C5 9358   4.235   0.214  15.142  0.2920  0.0643 -0.2524
  632TMC3    C6 9359   4.130   0.276  15.196 -0.5624  0.4385  0.1776
  632TMC3     C 9360   4.395   0.068  15.386 -0.0683  1.1023 -0.0127
  632TMC3     O 9361   4.472   4.724  15.323 -0.9175  0.5442  0.1411
  632TMC3     H 9362   4.253   0.293  15.508 -0.8191  0.1792 -0.2049
  632TMC3    H1 9363   4.444   0.159  15.155 -0.9437  0.4069 -1.1453
  632TMC3    H2 9364   4.039   0.296  15.141 -1.8561 -1.4552  1.6262
  632TMC3    C7 9365   4.218   0.155  15.006  0.0307 -0.2607 -0.1156
  632TMC3    C8 9366   4.021   0.326  15.420 -0.1492 -0.2508 -0.1151
  632TMC3    O1 9367   4.110   0.182  14.946 -0.1390  0.5071 -0.1149
  632TMC3    O2 9368   4.026   0.302  15.539 -0.2240 -0.0946  0.1245
  633MPD2     C 9369   4.265   2.851  17.334  0.4156  0.1710 -0.2019
  633MPD2    C1 9370   4.252   2.763  17.226  0.4560  0.0229 -0.4497
  633MPD2    C2 9371   4.253   2.631  17.254 -0.4907 -1.0493  0.0836
  633MPD2    C3 9372   4.253   2.578  17.386 -0.1324  0.0321 -1.1137
  633MPD2    C4 9373   4.250   2.663  17.496 -0.0196  0.5901  0.5348
  633MPD2    C5 9374   4.260   2.799  17.463  0.5689  0.2099 -0.0484
  633MPD2     H 9375   4.243   2.557  17.176 -3.0720 -0.5600 -0.0782
  633MPD2    H1 9376   4.238   2.621  17.596 -0.5123 -1.4247 -0.3629
  633MPD2    H2 9377   4.280   2.957  17.322 -1.2859  0.6346  1.7056
  633MPD2    H3 9378   4.267   2.872  17.542  2.2812 -1.0211  0.9446
  633MPD2     N 9379   4.240   2.441  17.405 -0.3407  0.5621  1.1610
  633MPD2    H5 9380   4.244   2.409  17.501 -0.2894  0.7947  1.2350
  633MPD2    N1 9381   4.250   2.800  17.092 -0.0352  0.1041 -0.6554
  633MPD2    H7 9382   4.257   2.721  17.029  3.1541  0.6948 -1.0307
  634TMC3    C1 9383   4.215   2.931  16.904  0.3641 -0.5766  0.2531
  634TMC3    C2 9384   4.233   2.817  16.822 -0.2978  0.2767  0.7781
  634TMC3    C3 9385   4.230   2.828  16.686  1.2460  0.0715  0.2542
  634TMC3    C4 9386   4.168   3.046  16.845 -0.5225 -0.0271 -0.4730
  634TMC3    C5 9387   4.176   3.057  16.704  0.0078  0.0265 -0.5034
  634TMC3    C6 9388   4.204   2.949  16.623 -0.1065  0.2410  0.2184
  634TMC3     C 9389   4.219   2.927  17.049  0.4990 -0.1280 -0.6554
  634TMC3     O 9390   4.173   3.021  17.111  0.3040  0.1365  0.2907
  634TMC3     H 9391   4.270   2.721  16.858 -0.6787 -0.0975  0.1813
  634TMC3    H1 9392   4.148   3.133  16.906 -2.8029  0.0053 -1.2405
  634TMC3    H2 9393   4.184   2.957  16.517 -2.3464 -0.3642  0.5969
  634TMC3    C7 9394   4.142   3.183  16.639 -0.3321 -0.0758 -0.4854
  634TMC3    C8 9395   4.264   2.710  16.605  0.3041 -0.6156 -0.3050
  634TMC3    O1 9396   4.178   3.201  16.525  0.0192  0.7995 -0.0086
  634TMC3    O2 9397   4.281   2.609  16.673  0.2732 -0.0198 -0.2120
  635TMC3    C1 9398   4.683   3.139   0.316 -0.0799  0.4165  0.1932
  635TMC3    C2 9399   0.086   3.129   0.276  0.7660  0.0636  0.1239
  635TMC3    C3 9400   0.148   3.011   0.310 -0.1599 -0.0045 -0.1244
  635TMC3    C4 9401   4.610   3.041   0.384  0.8947 -0.0388 -0.3994
  635TMC3    C5 9402   4.676   2.925   0.410  0.0303 -0.5891 -0.9965
  635TMC3    C6 9403   0.078   2.905   0.359 -0.3536 -0.7339  0.3291
  635TMC3     C 9404   4.630   3.263   0.340 -0.6957  0.4355  0.2520
  635TMC3     O 9405   4.544   3.274   0.428 -0.1383 -0.3444 -0.5534
  635TMC3     H 9406   0.136   3.219   0.241 -1.7006  1.5079  0.3176
  635TMC3    H1 9407   4.504   3.060   0.394  1.1007 -0.1589  2.0211
  635TMC3    H2 9408   0.116   2.805   0.343  1.2803 -0.1093  0.3523
  635TMC3    C7 9409   4.602   2.806   0.436 -0.3936 -0.3552 -0.5901
  635TMC3    C8 9410   0.271   2.971   0.242  0.6669  0.3713 -0.0100
  635TMC3    O1 9411   4.660   2.703   0.401 -0.2840  1.1094  0.4345
  635TMC3    O2 9412   0.305   2.854   0.228  0.1904  0.4437 -0.1559
  636MPD2     C 9413   0.778   2.816  15.712 -0.2955  0.4751  0.2104
  636MPD2    C1 9414   0.738   2.782  15.843  0.3359  0.6018  0.0118
  636MPD2    C2 9415   0.717   2.655  15.876 -0.5657  1.1781  0.0902
  636MPD2    C3 9416   0.762   2.551  15.785 -0.5698 -0.5293 -0.0559
  636MPD2    C4 9417   0.803   2.585  15.654  0.4438  0.5381 -0.2238
  636MPD2    C5 9418   0.811   2.715  15.621 -0.3405 -0.2396  0.3721
  636MPD2     H 9419   0.696   2.639  15.981 -0.9147 -2.0579 -0.4567
  636MPD2    H1 9420   0.837   2.508  15.585 -1.0312 -0.4953  0.2132
  636MPD2    H2 9421   0.795   2.917  15.676 -1.4682  1.4813  2.4281
  636MPD2    H3 9422   0.849   2.736  15.521  0.2409 -2.9508  0.0341
  636MPD2     N 9423   0.746   2.420  15.837 -0.0589 -0.6920 -0.0780
  636MPD2    H5 9424   0.717   2.411  15.934  2.8887 -1.0942  0.7608
  636MPD2    N1 9425   0.706   2.885  15.935 -0.7236  0.4526 -0.1133
  636MPD2    H7 9426   0.673   2.862  16.029 -0.3480 -0.6897 -0.2614
  637TMC3    C1 9427   0.780   2.185  15.858 -0.2503 -0.3634 -0.0768
  637TMC3    C2 9428   0.730   2.196  15.982 -0.3635  0.8103  0.3418
  637TMC3    C3 9429   0.789   2.141  16.089  0.3919 -0.6463 -0.0477
  637TMC3    C4 9430   0.886   2.101  15.835 -0.7092  0.7918  0.0313
  637TMC3    C5 9431   0.957   2.049  15.940  0.2082 -0.4119 -0.4493
  637TMC3    C6 9432   0.901   2.062  16.066 -0.1063 -0.1697 -0.1649
  637TMC3     C 9433   0.784   2.305  15.773  0.9604 -0.2972 -0.6959
  637TMC3     O 9434   0.826   2.298  15.659 -0.1483 -0.0229  0.9505
  637TMC3     H 9435   0.644   2.257  16.007  0.8061  2.3009  0.6797
  637TMC3    H1 9436   0.922   2.079  15.735  0.5689 -1.3526  0.9577
  637TMC3    H2 9437   0.948   2.017  16.152 -0.1283  1.1595  0.5385
  637TMC3    C7 9438   1.082   2.108  15.943 -0.7334  0.6084 -0.1790
  637TMC3    C8 9439   0.804   2.247  16.184  0.3906  0.4057 -0.8700
  637TMC3    O1 9440   1.115   2.150  16.051  0.0027 -0.4881 -0.6322
  637TMC3    O2 9441   0.779   2.362  16.155 -0.5467  0.3472  0.4108
  638MPD2     C 9442   0.630   1.697  15.318 -0.4246  0.1741 -0.0125
  638MPD2    C1 9443   0.531   1.642  15.241  0.1717  0.2152  0.3704
  638MPD2    C2 9444   0.462   1.533  15.291 -0.1652  0.3856  0.3073
  638MPD2    C3 9445   0.498   1.471  15.408 -0.7163  0.2197 -0.8413
  638MPD2    C4 9446   0.606   1.525  15.482  0.1231  0.2465  0.0989
  638MPD2    C5 9447   0.672   1.640  15.437  0.0028  0.3214 -0.0925
  638MPD2     H 9448   0.382   1.489  15.233  0.7812  1.3241 -1.7053
  638MPD2    H1 9449   0.654   1.470  15.562 -1.0950 -2.5024 -1.0672
  638MPD2    H2 9450   0.695   1.773  15.275 -0.7570  1.8071  2.4159
  638MPD2    H3 9451   0.759   1.676  15.491  1.0516 -1.1038 -0.8552
  638MPD2     N 9452   0.436   1.350  15.453  0.1095  0.2995  0.6420
  638MPD2    H5 9453   0.484   1.281  15.510  1.5982  0.9172  0.1581
  638MPD2    N1 9454   0.508   1.692  15.112 -0.2752  0.3713  0.2724
  638MPD2    H7 9455   0.557   1.777  15.086 -0.5527  1.0427  1.9131
  639TMC3    C1 9456   0.336   1.154  15.405 -1.0947 -0.1503  0.0727
  639TMC3    C2 9457   0.224   1.079  15.377  0.6104 -0.0507 -0.0488
  639TMC3    C3 9458   0.241   0.950  15.333 -0.1652 -0.2579 -0.9653
  639TMC3    C4 9459   0.466   1.109  15.379 -0.4620 -0.3397  0.4900
  639TMC3    C5 9460   0.471   0.983  15.320 -1.0111 -0.1558 -0.2831
  639TMC3    C6 9461   0.362   0.900  15.306 -0.6784 -1.0298 -0.5777
  639TMC3     C 9462   0.315   1.296  15.408 -0.3950  0.3392 -0.0041
  639TMC3     O 9463   0.223   1.340  15.339  0.1567  0.3494 -0.3961
  639TMC3     H 9464   0.122   1.116  15.382 -0.4461 -3.2830  2.6287
  639TMC3    H1 9465   0.549   1.178  15.370 -0.6849 -0.1075  0.2073
  639TMC3    H2 9466   0.364   0.800  15.263 -0.5770 -1.2426 -0.0740
  639TMC3    C7 9467   0.591   0.945  15.246  0.0290 -0.1711  0.0949
  639TMC3    C8 9468   0.146   0.894  15.240 -0.6372 -0.7013  0.2773
  639TMC3    O1 9469   0.575   0.858  15.163 -0.3020 -0.3604 -0.3668
  639TMC3    O2 9470   0.192   0.851  15.136 -0.1729 -0.3331  0.2647
  640MPD2     C 9471   1.227   0.235   9.486  0.5338 -0.0353 -0.0898
  640MPD2    C1 9472   1.125   0.177   9.412  0.1325 -0.2973 -0.4361
  640MPD2    C2 9473   1.003   0.240   9.402  0.0359 -0.1370 -0.5043
  640MPD2    C3 9474   0.976   0.353   9.478  0.0610  0.0048  0.3704
  640MPD2    C4 9475   1.079   0.409   9.552 -0.0381  0.4236 -0.4758
  640MPD2    C5 9476   1.205   0.353   9.553  0.7150 -0.2600  0.0872
  640MPD2     H 9477   0.927   0.195   9.338  0.1455 -0.6431 -0.2808
  640MPD2    H1 9478   1.055   0.498   9.609 -1.2933  0.0054 -0.3424
  640MPD2    H2 9479   1.323   0.186   9.484  1.5381  1.9885 -1.5045
  640MPD2    H3 9480   1.286   0.395   9.612  0.0917  1.0761 -0.0091
  640MPD2     N 9481   0.850   0.423   9.480 -0.6402  0.3677  0.1236
  640MPD2    H5 9482   0.853   0.512   9.529 -1.6991  0.6738 -0.3912
  640MPD2    N1 9483   1.161   0.057   9.349  0.1291  0.9710  0.4496
  640MPD2    H7 9484   1.251   0.021   9.379 -1.4495 -2.9261  0.4887
  641TMC3    C1 9485   1.177   4.580   9.241  0.2223  0.1312  0.1494
  641TMC3    C2 9486   1.305   4.560   9.294  0.7256 -0.6297 -0.4821
  641TMC3    C3 9487   1.362   4.438   9.274  0.6049  0.1989 -0.2163
  641TMC3    C4 9488   1.116   4.490   9.156 -0.3937  0.4479  0.0424
  641TMC3    C5 9489   1.181   4.375   9.130 -0.0037  0.6984  0.5026
  641TMC3    C6 9490   1.300   4.345   9.196 -0.5961 -0.3205  0.0098
  641TMC3     C 9491   1.091   4.697   9.274  0.1108 -0.5593  0.3800
  641TMC3     O 9492   0.990   4.718   9.205  0.2640  0.1511 -0.5065
  641TMC3     H 9493   1.355   4.628   9.361  1.7269  1.7832 -3.7365
  641TMC3    H1 9494   1.029   4.519   9.098 -0.6525  2.3829  1.3801
  641TMC3    H2 9495   1.341   4.249   9.167  0.1582 -0.3370  1.1428
  641TMC3    C7 9496   1.114   4.264   9.054  0.3215  0.5606  0.0977
  641TMC3    C8 9497   1.488   4.388   9.341 -0.0038 -0.4802  0.0433
  641TMC3    O1 9498   1.170   4.156   9.053 -0.9034  0.1073 -0.4447
  641TMC3    O2 9499   1.513   4.269   9.335  0.4455 -0.8881  0.5788
  642TMC3    C1 9500   1.951   1.211  12.205  0.2945 -0.1290 -0.3953
  642TMC3    C2 9501   1.961   1.268  12.331 -0.2636  0.0923 -0.0759
  642TMC3    C3 9502   2.009   1.194  12.429 -0.1268 -0.0844  0.2154
  642TMC3    C4 9503   1.978   1.087  12.177  0.3742 -0.8620  0.4886
  642TMC3    C5 9504   2.026   1.015  12.286  1.4666  1.0082  0.2309
  642TMC3    C6 9505   2.041   1.066  12.415 -0.1591  0.0822  0.7293
  642TMC3     C 9506   1.886   1.292  12.102 -0.2215 -0.7602 -0.0604
  642TMC3     O 9507   1.913   1.266  11.982  0.1373 -0.1937 -0.8129
  642TMC3     H 9508   1.938   1.373  12.341 -0.5972  0.1688 -1.6679
  642TMC3    H1 9509   1.963   1.050  12.077 -0.6797  0.5415  0.1299
  642TMC3    H2 9510   2.105   1.017  12.488 -0.9085 -1.8012  0.1089
  642TMC3    C7 9511   2.055   0.881  12.260 -0.5295 -0.3702  0.3258
  642TMC3    C8 9512   2.090   1.262  12.533  0.0795  0.2596 -0.2421
  642TMC3    O1 9513   2.058   0.843  12.144  0.5020 -0.4808  0.1277
  642TMC3    O2 9514   2.184   1.201  12.582  0.1772 -0.4246  0.0693
  643TMC3    C1 9515   1.335   0.920   0.520 -0.0779  0.2813 -0.0988
  643TMC3    C2 9516   1.219   0.932   0.453 -0.1647  0.5757  0.2542
  643TMC3    C3 9517   1.182   0.833   0.368  0.0064 -0.6581  0.1436
  643TMC3    C4 9518   1.424   0.826   0.485  0.2345  0.7534 -0.4520
  643TMC3    C5 9519   1.390   0.731   0.392 -0.1426 -0.6307  0.4715
  643TMC3    C6 9520   1.264   0.738   0.338  0.6516  0.2756  0.3428
  643TMC3     C 9521   1.372   1.028   0.609 -0.1070 -1.0161  1.1964
  643TMC3     O 9522   1.319   1.137   0.589  0.2526  0.2521 -0.3998
  643TMC3     H 9523   1.151   1.007   0.492 -0.0253 -0.1119  1.8219
  643TMC3    H1 9524   1.528   0.819   0.515  0.6931  0.5710 -2.0623
  643TMC3    H2 9525   1.237   0.675   0.254  2.7761  0.4627 -0.4827
  643TMC3    C7 9526   1.476   0.720   0.282 -0.9951 -0.4727  0.1191
  643TMC3    C8 9527   1.119   0.889   0.247 -0.0795 -0.1226 -0.1506
  643TMC3    O1 9528   1.546   0.817   0.261 -0.5356 -0.2848 -0.6106
  643TMC3    O2 9529   1.057   0.813   0.178 -0.3759 -0.4313 -0.7066
  644MPD2     C 9530   1.351   0.956   8.925  0.0835  0.2711 -0.5616
  644MPD2    C1 9531   1.318   0.821   8.905 -0.0867 -0.6331 -0.1095
  644MPD2    C2 9532   1.193   0.797   8.844 -0.7012  0.0719  0.5256
  644MPD2    C3 9533   1.099   0.897   8.817  0.4211  0.8176  0.2210
  644MPD2    C4 9534   1.138   1.031   8.848 -0.3756  0.3598  0.3020
  644MPD2    C5 9535   1.258   1.057   8.898  0.3159 -0.4344 -0.9399
  644MPD2     H 9536   1.169   0.701   8.802 -1.9349  0.6154 -0.0086
  644MPD2    H1 9537   1.075   1.117   8.829 -0.1173  0.1479 -1.5085
  644MPD2    H2 9538   1.452   0.980   8.955 -0.3549  1.5829 -0.1359
  644MPD2    H3 9539   1.286   1.160   8.912  1.3516 -0.6204 -1.6054
  644MPD2     N 9540   0.975   0.857   8.763  0.0590 -0.1633 -0.6309
  644MPD2    H5 9541   0.954   0.759   8.747  1.6192 -0.8322  1.2592
  644MPD2    N1 9542   1.412   0.716   8.935  0.3110 -0.0731  0.3578
  644MPD2    H7 9543   1.500   0.747   8.975  0.8420 -1.0178 -0.0539
  645TMC3    C1 9544   0.738   0.877   8.710  0.2288 -0.6407 -0.6824
  645TMC3    C2 9545   0.742   0.752   8.656  0.4504  0.3698 -0.0046
  645TMC3    C3 9546   0.612   0.700   8.627 -0.4024 -0.1973 -0.5163
  645TMC3    C4 9547   0.624   0.947   8.747  0.0969  0.8901 -0.5303
  645TMC3    C5 9548   0.508   0.885   8.736 -0.3426 -0.0258 -0.6163
  645TMC3    C6 9549   0.498   0.766   8.670 -0.1224 -0.1533  0.1926
  645TMC3     C 9550   0.869   0.944   8.742 -0.6964  0.2286  0.3021
  645TMC3     O 9551   0.859   1.060   8.773 -0.1140 -0.3450  0.0498
  645TMC3     H 9552   0.833   0.717   8.609  0.3432  0.1919 -0.0800
  645TMC3    H1 9553   0.621   1.052   8.771  1.8924  0.9896 -0.7404
  645TMC3    H2 9554   0.400   0.718   8.670 -0.9582  1.5689  1.8057
  645TMC3    C7 9555   0.383   0.967   8.748  0.7746 -0.4797  0.0624
  645TMC3    C8 9556   0.597   0.576   8.549  0.2743 -0.1887  0.4229
  645TMC3    O1 9557   0.296   0.932   8.667  0.1043 -0.3108 -0.6547
  645TMC3    O2 9558   0.488   0.568   8.499 -0.3840  0.5457 -0.0996
  646MPD2     C 9559   0.357   0.163  14.646 -0.1133 -0.1045 -1.1137
  646MPD2    C1 9560   0.311   0.233  14.757  0.1891  0.3453 -0.2978
  646MPD2    C2 9561   0.211   0.329  14.751  0.0807 -0.1172  0.3208
  646MPD2    C3 9562   0.159   0.361  14.623  0.1983 -0.2943 -0.3842
  646MPD2    C4 9563   0.219   0.302  14.515  0.2049  0.0968 -0.3140
  646MPD2    C5 9564   0.308   0.196  14.525  0.0148 -0.1938 -0.1435
  646MPD2     H 9565   0.164   0.372  14.838 -1.5572  2.5330 -1.8743
  646MPD2    H1 9566   0.189   0.325  14.413  1.0255  1.0765 -0.3328
  646MPD2    H2 9567   0.429   0.083  14.657 -2.0111 -1.9356 -1.9370
  646MPD2    H3 9568   0.337   0.132  14.443  1.0560 -0.1489  0.1929
  646MPD2     N 9569   0.056   0.460  14.620  0.2029  0.2218  0.0904
  646MPD2    H5 9570   0.001   0.471  14.705  0.2741  0.8604  0.0536
  646MPD2    N1 9571   0.387   0.206  14.872  0.4163 -0.7580 -0.3993
  646MPD2    H7 9572   0.476   0.161  14.854  1.1997  1.8372 -3.0626
  647TMC3    C1 9573   0.438   0.196  15.105 -0.9557 -0.1984 -0.3957
  647TMC3    C2 9574   0.378   0.144  15.219 -0.4755  0.4991 -0.4163
  647TMC3    C3 9575   0.458   0.137  15.325  0.2015 -0.2212  0.6328
  647TMC3    C4 9576   0.568   0.231  15.095 -0.0884  0.7728  0.2883
  647TMC3    C5 9577   0.648   0.233  15.206 -0.0866 -0.3956  0.1932
  647TMC3    C6 9578   0.596   0.185  15.325  0.7510  0.2679  0.0987
  647TMC3     C 9579   0.342   0.223  15.002 -0.4164 -0.2130  0.2902
  647TMC3     O 9580   0.227   0.253  15.035  0.5052  0.4650  0.3331
  647TMC3     H 9581   0.276   0.106  15.217 -1.3012  2.6940 -0.2100
  647TMC3    H1 9582   0.595   0.258  14.994  2.3644 -2.7227  0.0232
  647TMC3    H2 9583   0.658   0.168  15.412  0.0323 -1.0349  0.3613
  647TMC3    C7 9584   0.794   0.203  15.183 -0.0375  0.2042  0.0840
  647TMC3    C8 9585   0.465   4.723  15.375  0.5971  0.1146 -0.1987
  647TMC3    O1 9586   0.863   0.192  15.287 -0.0636  0.2757  0.3422
  647TMC3    O2 9587   0.453   4.631  15.292  0.3511 -0.3469  0.3007
  648TMC3    C1 9588   4.577   2.774  15.993  0.2432  0.3476  0.3906
  648TMC3    C2 9589   4.558   2.635  15.977  0.2720  0.7559 -0.7296
  648TMC3    C3 9590   4.489   2.600  15.863  0.5174 -0.5685 -0.1623
  648TMC3    C4 9591   4.541   2.865  15.896  0.0749 -0.4760 -0.0042
  648TMC3    C5 9592   4.488   2.816  15.781  0.3273 -0.5719  0.5165
  648TMC3    C6 9593   4.452   2.683  15.757  0.2371 -0.1084  0.3795
  648TMC3     C 9594   4.601   2.821  16.125  0.2033  0.4613 -0.4872
  648TMC3     O 9595   4.600   2.942  16.141  0.2333 -0.2016 -0.1361
  648TMC3     H 9596   4.585   2.570  16.059  0.0138  0.3157 -0.9961
  648TMC3    H1 9597   4.575   2.968  15.901  0.6495 -0.7589  1.8507
  648TMC3    H2 9598   4.402   2.646  15.668  0.0769  1.9929 -0.3986
  648TMC3    C7 9599   4.424   2.917  15.699  0.3861  0.3670 -0.2331
  648TMC3    C8 9600   4.478   2.453  15.846 -0.0075  0.5669  0.3683
  648TMC3    O1 9601   4.419   2.892  15.575 -0.6031 -0.2907  0.1061
  648TMC3    O2 9602   4.377   2.408  15.790 -0.1202  0.3707 -0.5751
  649TMC3    C1 9603   4.034   4.329  13.201 -0.0868 -0.3673 -0.1386
  649TMC3    C2 9604   4.139   4.399  13.142 -0.0265 -0.0702 -0.0780
  649TMC3    C3 9605   4.254   4.329  13.117  0.0600 -0.2785 -1.0507
  649TMC3    C4 9606   4.045   4.197  13.232  0.3484 -1.0080 -0.1102
  649TMC3    C5 9607   4.162   4.129  13.191 -0.7659 -0.0743 -0.2526
  649TMC3    C6 9608   4.271   4.190  13.134 -0.1103  0.4133  0.2400
  649TMC3     C 9609   3.920   4.406  13.249  0.5602  0.3088  0.7980
  649TMC3     O 9610   3.866   4.364  13.349 -0.5557 -0.2790  0.0200
  649TMC3     H 9611   4.126   4.504  13.117  1.5842  0.5647  1.7241
  649TMC3    H1 9612   3.965   4.150  13.289 -1.0616  2.0338  0.4608
  649TMC3    H2 9613   4.363   4.140  13.107 -0.4994  0.1598 -0.5986
  649TMC3    C7 9614   4.169   3.994  13.247 -0.5080  1.1769  0.3478
  649TMC3    C8 9615   4.363   4.396  13.050 -0.2665  0.0825 -0.0560
  649TMC3    O1 9616   4.078   3.965  13.327 -0.3678 -0.2696  0.1954
  649TMC3    O2 9617   4.419   4.327  12.965  0.1500 -0.5842  0.2985
  650TMC3    C1 9618   1.636   0.795  12.799 -0.3020  0.2339 -0.1512
  650TMC3    C2 9619   1.531   0.882  12.829  0.3111  0.1264  0.3042
  650TMC3    C3 9620   1.462   0.921  12.718 -0.2578 -0.1406 -0.8668
  650TMC3    C4 9621   1.687   0.775  12.670 -0.0239  0.8945 -0.1523
  650TMC3    C5 9622   1.620   0.833  12.570 -0.1255 -0.1055  0.1382
  650TMC3    C6 9623   1.504   0.907  12.590 -0.6459 -0.5744  0.2789
  650TMC3     C 9624   1.695   0.718  12.910  0.6633  0.0601  0.3048
  650TMC3     O 9625   1.677   0.745  13.027  0.2033  0.5823 -0.0830
  650TMC3     H 9626   1.505   0.902  12.933  0.5250 -0.7854  0.5308
  650TMC3    H1 9627   1.780   0.721  12.658  0.1758  0.7994  1.7844
  650TMC3    H2 9628   1.451   0.966  12.517  0.1539 -1.2050 -0.8054
  650TMC3    C7 9629   1.684   0.831  12.438 -0.1196 -0.0204 -0.2930
  650TMC3    C8 9630   1.335   0.996  12.724  0.9204  0.3040 -0.0185
  650TMC3    O1 9631   1.770   0.746  12.414  0.0456  0.1771  0.5143
  650TMC3    O2 9632   1.255   0.988  12.630 -0.4247 -0.1083 -0.0431
  651MPD2     C 9633   0.435   2.266  10.604 -0.1843  0.2383  0.5480
  651MPD2    C1 9634   0.412   2.392  10.667 -0.3287  0.4859 -0.3113
  651MPD2    C2 9635   0.518   2.471  10.703 -0.0111 -0.0646 -0.6016
  651MPD2    C3 9636   0.648   2.434  10.679 -0.0203  0.0826 -0.3197
  651MPD2    C4 9637   0.673   2.302  10.623 -0.2098 -0.2132 -0.8778
  651MPD2    C5 9638   0.564   2.220  10.585 -0.3464  0.0980  0.1768
  651MPD2     H 9639   0.500   2.569  10.745  0.8033 -0.9145  1.7550
  651MPD2    H1 9640   0.772   2.268  10.595  0.1645  1.3807 -1.4583
  651MPD2    H2 9641   0.356   2.198  10.572  0.0022 -0.0098  0.6089
  651MPD2    H3 9642   0.585   2.125  10.537  4.6031  1.5695 -0.6224
  651MPD2     N 9643   0.742   2.522  10.736  0.1592 -0.2425  0.0163
  651MPD2    H5 9644   0.704   2.614  10.755  0.1952  0.1240 -1.7214
  651MPD2    N1 9645   0.290   2.450  10.695  0.1407  0.3761  0.0032
  651MPD2    H7 9646   0.302   2.534  10.751 -0.1303  0.5054 -0.1309
  652TMC3    C1 9647   1.163   2.746  10.775 -0.5867  0.9115  0.0117
  652TMC3    C2 9648   1.090   2.629  10.767  0.9761 -0.2782 -0.4241
  652TMC3    C3 9649   0.953   2.633  10.743 -0.2739 -0.4121  0.2638
  652TMC3    C4 9650   1.100   2.866  10.737  0.5473  0.3611  0.0669
  652TMC3    C5 9651   0.963   2.866  10.703 -0.3006  0.6271 -0.2135
  652TMC3    C6 9652   0.895   2.746  10.703 -0.2853 -0.2764 -0.1109
  652TMC3     C 9653   1.309   2.737  10.778  0.0245  0.5072  0.4889
  652TMC3     O 9654   1.350   2.658  10.864  0.2341 -0.0325  0.4211
  652TMC3     H 9655   1.138   2.534  10.789  1.0611 -0.7235 -2.5765
  652TMC3    H1 9656   1.150   2.958  10.764  0.4819 -0.7122  3.9180
  652TMC3    H2 9657   0.792   2.743  10.669 -1.5337 -1.1067  3.7625
  652TMC3    C7 9658   0.910   2.971  10.612  0.5257 -0.0260  0.0059
  652TMC3    C8 9659   0.881   2.508  10.730 -0.2808  0.4201 -0.3156
  652TMC3    O1 9660   0.841   2.924  10.524  0.1427  0.4160  0.2129
  652TMC3    O2 9661   0.941   2.401  10.732 -0.2488 -0.5077 -0.5285
  653MPD2     C 9662   3.831   2.818  17.373 -0.0073  0.0537 -0.0932
  653MPD2    C1 9663   3.714   2.862  17.312  0.6618 -0.2371  0.1370
  653MPD2    C2 9664   3.648   2.775  17.225 -0.0636  0.4984 -0.0192
  653MPD2    C3 9665   3.704   2.661  17.185  0.1074 -0.4939 -0.0165
  653MPD2    C4 9666   3.825   2.619  17.232  0.5227  0.3391  0.5555
  653MPD2    C5 9667   3.885   2.699  17.324 -0.2660  0.1194 -0.1081
  653MPD2     H 9668   3.557   2.806  17.175  1.0855  1.6023 -1.4083
  653MPD2    H1 9669   3.878   2.527  17.211  1.1104  0.0295  3.4854
  653MPD2    H2 9670   3.889   2.877  17.443  0.1166  0.0077 -0.1579
  653MPD2    H3 9671   3.980   2.667  17.365  0.2006 -1.0923 -2.1581
  653MPD2     N 9672   3.633   2.576  17.093 -0.1853  0.2686  0.4754
  653MPD2    H5 9673   3.549   2.608  17.046  0.0425  1.8691  1.1293
  653MPD2    N1 9674   3.664   2.988  17.350 -0.1912  0.1274 -0.3298
  653MPD2    H7 9675   3.593   3.022  17.286  0.4680  0.5198 -0.8512
  654TMC3    C1 9676   3.589   2.381  16.952 -0.0079 -0.1965  0.3577
  654TMC3    C2 9677   3.507   2.458  16.876  0.1900 -0.4705 -0.5939
  654TMC3    C3 9678   3.441   2.394  16.770 -0.0221  1.0906  0.5441
  654TMC3    C4 9679   3.598   2.245  16.943 -0.3970 -0.4030  0.1691
  654TMC3    C5 9680   3.521   2.186  16.843  0.5140 -0.6709  0.2568
  654TMC3    C6 9681   3.443   2.260  16.758 -0.1172 -0.6680  0.2786
  654TMC3     C 9682   3.667   2.444  17.065 -0.9496 -0.1964  0.0942
  654TMC3     O 9683   3.755   2.372  17.114 -0.3853 -0.2305 -0.0770
  654TMC3     H 9684   3.493   2.565  16.887  0.6126 -0.4391 -0.3261
  654TMC3    H1 9685   3.681   2.187  16.983 -0.0424 -0.5463 -0.7605
  654TMC3    H2 9686   3.370   2.215  16.692  1.6267 -0.4871 -1.7856
  654TMC3    C7 9687   3.526   2.047  16.814  0.6496 -0.2812  0.4923
  654TMC3    C8 9688   3.375   2.477  16.662  0.4307  0.6846  0.7213
  654TMC3    O1 9689   3.486   2.024  16.701 -0.0750  0.4252  0.2405
  654TMC3    O2 9690   3.377   2.600  16.671  0.3525  0.6513 -0.4838
  655MPD2     C 9691   0.597   3.219  15.536 -0.2429  0.4285 -0.7522
  655MPD2    C1 9692   0.477   3.203  15.459 -0.2316 -0.4532 -0.5120
  655MPD2    C2 9693   0.495   3.147  15.337  0.4692  0.0500  0.2281
  655MPD2    C3 9694   0.617   3.105  15.292 -0.9743  0.7140  0.1541
  655MPD2    C4 9695   0.724   3.135  15.364 -0.3405  0.5833 -0.7392
  655MPD2    C5 9696   0.711   3.189  15.484 -0.3258  0.2358  0.7885
  655MPD2     H 9697   0.406   3.135  15.277 -0.0252  2.5339  0.4800
  655MPD2    H1 9698   0.826   3.107  15.340 -0.3286 -1.3393  1.5422
  655MPD2    H2 9699   0.592   3.260  15.636 -3.8596  1.4258 -1.3018
  655MPD2    H3 9700   0.804   3.207  15.536 -0.3669  0.8658  0.6506
  655MPD2     N 9701   0.628   3.031  15.174  0.1164 -0.5001 -0.4615
  655MPD2    H5 9702   0.721   3.015  15.138  0.1900 -0.5001 -0.2733
  655MPD2    N1 9703   0.345   3.231  15.508 -0.4883 -0.1432  0.1249
  655MPD2    H7 9704   0.273   3.233  15.437 -1.0421 -2.6984  0.6166
  656TMC3    C1 9705   0.165   3.296  15.643 -0.0137 -1.3958  0.6747
  656TMC3    C2 9706   0.103   3.292  15.762 -0.5840 -0.3774 -1.0486
  656TMC3    C3 9707   4.717   3.356  15.788  0.6089 -0.7954  0.4839
  656TMC3    C4 9708   0.110   3.364  15.537  0.3298  0.1622  0.3989
  656TMC3    C5 9709   4.709   3.412  15.567 -0.5259 -0.2473 -0.2482
  656TMC3    C6 9710   4.654   3.419  15.689 -0.4243 -0.2243  0.3760
  656TMC3     C 9711   0.307   3.261  15.637 -0.3328  0.3741  0.4643
  656TMC3     O 9712   0.360   3.223  15.739  1.0113 -0.4540 -0.7930
  656TMC3     H 9713   0.151   3.227  15.836 -0.5042  0.6731 -0.1820
  656TMC3    H1 9714   0.154   3.388  15.441  1.8800 -0.0592  1.0521
  656TMC3    H2 9715   4.551   3.447  15.706 -0.6974 -0.6743 -0.5643
  656TMC3    C7 9716   4.640   3.465  15.449 -0.8603 -0.1363 -1.4004
  656TMC3    C8 9717   4.643   3.326  15.906  0.2596  0.3574 -0.4024
  656TMC3    O1 9718   4.666   3.417  15.339  0.2306 -0.5610  0.2396
  656TMC3    O2 9719   4.667   3.220  15.956  0.0332  0.0360 -0.2333
  657TMC3    C1 9720   3.765   1.799  14.988 -0.0256 -0.0728 -0.1485
  657TMC3    C2 9721   3.736   1.929  15.007  0.1643  0.4808  0.1698
  657TMC3    C3 9722   3.745   2.012  14.894 -0.0898 -0.4753  0.7106
  657TMC3    C4 9723   3.817   1.752  14.871 -0.1749  0.1200  0.2929
  657TMC3    C5 9724   3.834   1.841  14.764  0.3047  0.1184 -0.5582
  657TMC3    C6 9725   3.797   1.973  14.774  0.2477  0.3422 -0.6294
  657TMC3     C 9726   3.774   1.709  15.106 -0.4194 -0.3925  0.0118
  657TMC3     O 9727   3.668   1.645  15.130 -0.2519  0.0910  0.0862
  657TMC3     H 9728   3.709   1.968  15.105 -3.2132  1.2681 -1.0755
  657TMC3    H1 9729   3.836   1.646  14.861 -2.0437 -0.0862 -1.1057
  657TMC3    H2 9730   3.785   2.024  14.679 -0.9476 -0.2300 -0.7815
  657TMC3    C7 9731   3.892   1.799  14.635  0.4345  0.4287  0.3880
  657TMC3    C8 9732   3.647   2.126  14.899  0.0640  0.8212  0.2086
  657TMC3    O1 9733   3.888   1.875  14.539  0.1603  0.2477 -0.0104
  657TMC3    O2 9734   3.610   2.171  15.008  0.0472 -0.1424 -0.8692
  658MPD2     C 9735   0.876   2.619  14.454  0.2730 -0.0273 -0.0983
  658MPD2    C1 9736   0.843   2.738  14.516 -0.4163  0.1062 -0.0007
  658MPD2    C2 9737   0.855   2.855  14.451 -0.3875 -0.1198  0.2219
  658MPD2    C3 9738   0.901   2.862  14.319  0.0807  0.2556  0.1428
  658MPD2    C4 9739   0.953   2.750  14.263  0.0107 -0.4931  0.2055
  658MPD2    C5 9740   0.938   2.630  14.324 -0.3600 -0.1668  0.4072
  658MPD2     H 9741   0.819   2.947  14.495  1.8527  0.7570  0.2575
  658MPD2    H1 9742   0.981   2.738  14.159 -1.1510 -1.1283 -0.0421
  658MPD2    H2 9743   0.873   2.528  14.512 -1.8041  1.4716  2.1572
  658MPD2    H3 9744   0.980   2.547  14.268  0.0561  1.2322 -1.3748
  658MPD2     N 9745   0.899   2.979  14.236 -0.0846 -0.6730 -0.2014
  658MPD2    H5 9746   0.867   3.065  14.277 -0.2671 -0.5113 -0.6852
  658MPD2    N1 9747   0.772   2.734  14.642 -0.5219  0.4817  0.7272
  658MPD2    H7 9748   0.730   2.645  14.666  1.8430 -0.4366  1.4807
  659TMC3    C1 9749   0.639   2.828  14.804  0.1664  0.1676  0.5019
  659TMC3    C2 9750   0.649   2.886  14.927  0.0660  0.4661  0.0059
  659TMC3    C3 9751   0.549   2.859  15.016  0.1556  0.0956  0.1471
  659TMC3    C4 9752   0.536   2.757  14.757 -0.1973  0.5079 -0.5249
  659TMC3    C5 9753   0.430   2.740  14.850  0.2685 -0.1327 -0.2688
  659TMC3    C6 9754   0.435   2.790  14.980 -0.5471 -0.4747  0.3708
  659TMC3     C 9755   0.751   2.848  14.718 -0.3760 -0.1344  0.7123
  659TMC3     O 9756   0.810   2.956  14.721  0.3205 -0.1473 -0.1029
  659TMC3     H 9757   0.740   2.939  14.953  0.4895 -0.6361  0.7206
  659TMC3    H1 9758   0.525   2.732  14.652  0.0909 -1.5054 -0.0854
  659TMC3    H2 9759   0.361   2.752  15.050 -0.8861  0.0144  0.2785
  659TMC3    C7 9760   0.329   2.639  14.825  0.0715 -0.1951  0.0426
  659TMC3    C8 9761   0.527   2.943  15.134  0.2901 -0.3559 -0.8977
  659TMC3    O1 9762   0.225   2.652  14.892 -0.4356 -0.7737 -0.4582
  659TMC3    O2 9763   0.417   2.926  15.191 -0.4474  0.2391  0.2831
  660MPD2     C 9764   2.996   1.618  12.644  0.3597  0.5090 -0.6411
  660MPD2    C1 9765   2.859   1.626  12.630 -1.1880 -0.3838  0.8416
  660MPD2    C2 9766   2.774   1.526  12.690  0.1436 -0.6661 -0.3204
  660MPD2    C3 9767   2.833   1.431  12.773 -0.0909 -0.0521  0.5292
  660MPD2    C4 9768   2.966   1.435  12.797 -0.0096  0.4850  0.3678
  660MPD2    C5 9769   3.044   1.528  12.734 -0.5075  0.2957 -0.2131
  660MPD2     H 9770   2.671   1.527  12.657 -0.3061 -0.1890  1.0886
  660MPD2    H1 9771   3.015   1.361  12.860 -1.0604 -0.9327 -0.4752
  660MPD2    H2 9772   3.060   1.688  12.592  3.1076 -0.4712  1.4189
  660MPD2    H3 9773   3.151   1.524  12.750 -0.5512 -2.5830 -0.5677
  660MPD2     N 9774   2.764   1.318  12.831  0.0555 -0.0410  0.3305
  660MPD2    H5 9775   2.819   1.260  12.893 -1.5146 -3.1767 -1.1954
  660MPD2    N1 9776   2.809   1.720  12.532 -0.1275 -0.3136 -0.6463
  660MPD2    H7 9777   2.885   1.776  12.495  0.2990  0.0943  0.8786
  661TMC3    C1 9778   2.673   1.848  12.407 -0.7260  0.8682 -0.3245
  661TMC3    C2 9779   2.777   1.922  12.361  0.4446  0.0085 -0.4633
  661TMC3    C3 9780   2.757   2.011  12.258 -0.4720  0.3598  0.6348
  661TMC3    C4 9781   2.553   1.867  12.350 -0.5187  0.0550 -0.4468
  661TMC3    C5 9782   2.530   1.941  12.242 -0.0321  0.0001  0.5457
  661TMC3    C6 9783   2.629   2.015  12.189  0.2984  0.4696  0.1275
  661TMC3     C 9784   2.680   1.740  12.492 -0.4436  0.1864 -0.1865
  661TMC3     O 9785   2.578   1.692  12.535  0.6813 -0.6476  0.4487
  661TMC3     H 9786   2.880   1.925  12.395  0.4306 -3.3401 -0.1546
  661TMC3    H1 9787   2.464   1.814  12.382 -0.1130  0.3012  1.0924
  661TMC3    H2 9788   2.614   2.066  12.094  1.2013  1.7225  0.6495
  661TMC3    C7 9789   2.424   1.890  12.156 -0.0356 -0.0125 -0.0670
  661TMC3    C8 9790   2.868   2.020  12.164  0.4402  0.2854  0.0519
  661TMC3    O1 9791   2.309   1.916  12.191  0.3051  0.1427 -0.0389
  661TMC3    O2 9792   2.932   1.915  12.163  0.0753  1.2094  0.1067
  662MPD2     C 9793   2.970   1.256  17.168 -1.2744 -0.7625 -0.0965
  662MPD2    C1 9794   2.936   1.252  17.303 -0.3979  0.0615  0.8744
  662MPD2    C2 9795   2.954   1.367  17.384 -0.1239  0.6416 -0.6056
  662MPD2    C3 9796   3.025   1.475  17.328 -0.3631  0.5509 -0.0861
  662MPD2    C4 9797   3.057   1.480  17.192  0.0310 -0.6706 -0.0902
  662MPD2    C5 9798   3.030   1.370  17.113  0.4275 -0.3811 -0.2999
  662MPD2     H 9799   2.912   1.361  17.484 -1.1638 -3.1804 -1.2802
  662MPD2    H1 9800   3.106   1.568  17.152  1.4727  0.2133  3.5920
  662MPD2    H2 9801   2.965   1.174  17.098 -2.3353  1.9800 -3.2547
  662MPD2    H3 9802   3.051   1.357  17.008  0.7155  1.0551 -0.4161
  662MPD2     N 9803   3.071   1.582  17.406 -0.1841  0.1510 -0.1653
  662MPD2    H5 9804   3.113   1.665  17.366  0.0445  0.7007  1.2011
  662MPD2    N1 9805   2.884   1.144  17.371 -0.7818 -0.4618 -0.0259
  662MPD2    H7 9806   2.862   1.164  17.468  1.4184  0.7393  0.2315
  663TMC3    C1 9807   2.853   0.917  17.431 -0.1083  0.0126  0.5716
  663TMC3    C2 9808   2.805   0.979  17.540 -0.8451  0.3145  0.3542
  663TMC3    C3 9809   2.854   0.954  17.668 -0.0020 -0.2996  0.0809
  663TMC3    C4 9810   2.943   0.813  17.435  0.3232  0.2819 -0.4449
  663TMC3    C5 9811   2.998   0.795  17.561 -0.4554 -0.1630  0.1869
  663TMC3    C6 9812   2.960   0.872  17.670  0.3155 -0.3063  0.5722
  663TMC3     C 9813   2.882   1.013  17.325  0.7385  0.2845 -0.1974
  663TMC3     O 9814   2.920   0.967  17.215 -1.2421  0.2935  0.0512
  663TMC3     H 9815   2.714   1.036  17.526  1.2457  3.7687  0.6796
  663TMC3    H1 9816   2.988   0.772  17.345  1.7814  1.2052 -0.1286
  663TMC3    H2 9817   2.997   0.847   0.062 -0.2351  2.0156  1.3477
  663TMC3    C7 9818   3.108   0.707  17.577 -0.2057 -0.5015  0.2454
  663TMC3    C8 9819   2.888   1.077   0.025 -0.5469  0.1382 -0.8112
  663TMC3    O1 9820   3.202   0.741  17.652 -0.5507 -0.4628  0.2202
  663TMC3    O2 9821   2.885   1.171  17.653  0.1365 -0.0370 -0.5055
  664MPD2     C 9822   1.656   4.318  17.658  0.0437  0.4905 -0.0352
  664MPD2    C1 9823   1.733   4.432  17.657 -0.4483  0.0886  0.2769
  664MPD2    C2 9824   1.804   4.468   0.064 -0.1331  1.0347 -0.1685
  664MPD2    C3 9825   1.812   4.390   0.176  0.0313  0.2418  0.2011
  664MPD2    C4 9826   1.741   4.271   0.168  0.1498  0.0483 -0.0650
  664MPD2    C5 9827   1.661   4.241   0.064 -0.8050 -0.3512  0.1522
  664MPD2     H 9828   1.850   4.566   0.058 -0.0173  0.9171 -1.3659
  664MPD2    H1 9829   1.730   4.210   0.257  1.2332 -0.7572 -0.4771
  664MPD2    H2 9830   1.583   4.288  17.584  1.9530 -1.1335 -1.2877
  664MPD2    H3 9831   1.592   4.158   0.068 -0.2919 -0.8120 -0.4967
  664MPD2     N 9832   1.885   4.432   0.290  0.1324 -0.0174 -0.0307
  664MPD2    H5 9833   1.926   4.524   0.298 -2.6992  1.1472  0.9209
  664MPD2    N1 9834   1.742   4.518  17.545 -0.0158 -0.0948 -0.4802
  664MPD2    H7 9835   1.805   4.598  17.545 -0.1552  0.0205  0.6410
  665TMC3    C1 9836   1.951   4.450   0.504 -0.6648 -0.1792 -0.7670
  665TMC3    C2 9837   2.032   4.384   0.594  0.3155  0.7227  0.0875
  665TMC3    C3 9838   2.050   4.446   0.713  0.8265  0.3465  0.3163
  665TMC3    C4 9839   1.866   4.553   0.537  0.3863 -0.2349 -0.0108
  665TMC3    C5 9840   1.878   4.601   0.664  0.1433  0.5104  0.1479
  665TMC3    C6 9841   1.968   4.553   0.751 -0.6346 -0.5215  0.4791
  665TMC3     C 9842   1.902   4.356   0.402  0.3715 -0.0510 -0.7466
  665TMC3     O 9843   1.919   4.239   0.416  0.3562  1.2159  0.2939
  665TMC3     H 9844   2.083   4.292   0.568  2.2204  1.6241  0.6349
  665TMC3    H1 9845   1.801   4.601   0.464  0.4654 -0.3193 -0.1372
  665TMC3    H2 9846   1.993   4.601   0.845 -3.5663  1.0788  0.4125
  665TMC3    C7 9847   1.796   4.708   0.705  0.1293 -0.2448 -0.5419
  665TMC3    C8 9848   2.054   4.356   0.825 -0.4243  0.2242 -0.6781
  665TMC3    O1 9849   1.725   0.032   0.620  0.1703 -0.3490  0.2769
  665TMC3    O2 9850   2.125   4.379   0.923 -0.1395 -0.4654 -0.6422
  666TMC3    C1 9851   0.639   4.394   9.919 -0.8608 -0.5762 -0.1866
  666TMC3    C2 9852   0.757   4.339   9.938  1.1218 -0.0457 -0.2720
  666TMC3    C3 9853   0.847   4.399  10.010  0.1204  0.4353  0.5558
  666TMC3    C4 9854   0.606   4.522   9.956  0.3276  0.6746 -0.8939
  666TMC3    C5 9855   0.700   4.585  10.032 -0.0107 -0.4461  0.2491
  666TMC3    C6 9856   0.818   4.523  10.066 -0.0247  0.1898  0.6011
  666TMC3     C 9857   0.531   4.297   9.917  0.2948  0.3014  0.6353
  666TMC3     O 9858   0.459   4.269   9.822 -0.2279 -0.1281  0.1877
  666TMC3     H 9859   0.789   4.247   9.890  0.6414 -0.1316 -0.4302
  666TMC3    H1 9860   0.503   4.554   9.947 -0.1538 -0.8310 -0.7417
  666TMC3    H2 9861   0.885   4.574  10.135  2.1733 -0.0986 -1.2857
  666TMC3    C7 9862   0.665   4.715  10.082 -0.5172 -0.2706  0.5846
  666TMC3    C8 9863   0.958   4.314  10.061 -0.4378 -0.5156  0.3394
  666TMC3    O1 9864   0.548   0.026  10.091 -0.2925  0.1844  0.8614
  666TMC3    O2 9865   0.960   4.193  10.050  0.5606 -0.2284  0.0635
  667MPD2     C 9866   1.612   4.543  15.002  0.1442 -0.2995 -0.0079
  667MPD2    C1 9867   1.601   4.426  15.063 -0.5673  0.4749 -0.2796
  667MPD2    C2 9868   1.500   4.333  15.033 -0.1335  0.2586 -0.3317
  667MPD2    C3 9869   1.417   4.357  14.927  0.1767  0.2125 -0.5501
  667MPD2    C4 9870   1.418   4.485  14.870  0.6233  0.1606 -0.0660
  667MPD2    C5 9871   1.519   4.573  14.906 -0.2524 -0.3870 -0.7070
  667MPD2     H 9872   1.490   4.236  15.079  0.6074 -0.4607 -1.7028
  667MPD2    H1 9873   1.351   4.525  14.794 -1.1810 -0.1858  1.3369
  667MPD2    H2 9874   1.689   4.618  15.015  1.2842 -1.0974 -2.2293
  667MPD2    H3 9875   1.539   4.663  14.850 -0.1187 -0.0082 -0.0407
  667MPD2     N 9876   1.338   4.256  14.865 -0.0877 -0.1346 -0.3228
  667MPD2    H5 9877   1.289   4.291  14.783 -1.7217 -1.3528  0.1419
  667MPD2    N1 9878   1.701   4.383  15.151  0.2368  0.2524  0.4556
  667MPD2    H7 9879   1.679   4.302  15.209 -1.7076 -1.0678 -2.1292
  668TMC3    C1 9880   1.903   4.389  15.264  1.0061 -0.8416 -0.2708
  668TMC3    C2 9881   2.023   4.454  15.276 -0.0585  0.3083 -0.1809
  668TMC3    C3 9882   2.071   4.441  15.407  0.2521  0.3225 -0.0096
  668TMC3    C4 9883   1.841   4.314  15.361 -0.7001 -1.0264  0.4198
  668TMC3    C5 9884   1.910   4.288  15.478  0.4524  0.0518 -0.7629
  668TMC3    C6 9885   2.018   4.362  15.508  0.2179  0.0241  0.5114
  668TMC3     C 9886   1.822   4.442  15.163  0.5737 -0.0094  0.0327
  668TMC3     O 9887   1.872   4.529  15.094 -0.9215  0.3180 -0.0513
  668TMC3     H 9888   2.075   4.502  15.194  1.6720 -0.3870  0.5244
  668TMC3    H1 9889   1.751   4.258  15.337 -0.6014 -0.9133 -0.2061
  668TMC3    H2 9890   2.065   4.334  15.601 -0.2887 -0.6183  0.5707
  668TMC3    C7 9891   1.860   4.194  15.576 -0.8281 -0.4910 -0.1415
  668TMC3    C8 9892   2.202   4.496  15.434 -1.0860 -1.0401  0.5080
  668TMC3    O1 9893   1.948   4.138  15.644  0.0819 -0.1108  0.0472
  668TMC3    O2 9894   2.241   4.478  15.548  0.3464 -0.0010  0.4072
  669TMC3    C1 9895   0.391   4.337  14.734 -0.2103  0.2664  0.1704
  669TMC3    C2 9896   0.310   4.340  14.620  0.3932 -0.5067  0.6621
  669TMC3    C3 9897   0.368   4.401  14.514  1.0547 -0.1499  0.0762
  669TMC3    C4 9898   0.516   4.390  14.740 -0.2585 -0.3918 -0.8135
  669TMC3    C5 9899   0.549   4.464  14.631  0.5193  0.8871  0.0334
  669TMC3    C6 9900   0.488   4.465  14.515  0.0893 -0.4502 -0.2480
  669TMC3     C 9901   0.377   4.228  14.834 -0.0833  1.3578  0.4059
  669TMC3     O 9902   0.261   4.192  14.863 -0.3540  0.3677  0.1019
  669TMC3     H 9903   0.219   4.281  14.614  1.0868 -1.4425 -0.4715
  669TMC3    H1 9904   0.581   4.387  14.827 -0.9859  0.8697 -0.2319
  669TMC3    H2 9905   0.507   4.535  14.435 -0.2915 -1.0544 -0.8590
  669TMC3    C7 9906   0.681   4.501  14.617  0.2062  0.9388 -0.0853
  669TMC3    C8 9907   0.301   4.389  14.388  0.2526  0.2970 -0.9824
  669TMC3    O1 9908   0.744   4.573  14.691  0.9492 -0.1452 -0.6761
  669TMC3    O2 9909   0.385   4.369  14.298  0.1279 -0.3740  0.3456
  670MPD2     C 9910   3.344   1.970  13.234  0.1280 -0.0782 -0.2096
  670MPD2    C1 9911   3.390   2.081  13.280  0.0674  0.6434 -0.9241
  670MPD2    C2 9912   3.363   2.134  13.406  0.6436  0.3825 -0.2351
  670MPD2    C3 9913   3.272   2.062  13.484  0.0311  0.6019 -0.2961
  670MPD2    C4 9914   3.225   1.933  13.436  0.3619 -0.2821  0.1228
  670MPD2    C5 9915   3.257   1.900  13.309 -0.0736 -0.7826  0.0620
  670MPD2     H 9916   3.391   2.232  13.443  0.2444 -0.1115  1.4000
  670MPD2    H1 9917   3.161   1.867  13.494  0.4242 -0.1929  0.2935
  670MPD2    H2 9918   3.364   1.944  13.131 -1.2237  0.7239 -0.6617
  670MPD2    H3 9919   3.227   1.807  13.261 -0.3132 -1.1694  0.9714
  670MPD2     N 9920   3.251   2.109  13.614 -0.1641 -0.0276  0.7190
  670MPD2    H5 9921   3.305   2.190  13.644  0.8168  0.2591 -1.8347
  670MPD2    N1 9922   3.462   2.161  13.188  0.0373  0.2114  0.1077
  670MPD2    H7 9923   3.456   2.132  13.091  2.4538 -0.4554  0.1442
  671TMC3    C1 9924   3.148   2.138  13.827  0.4869 -0.7888  0.7072
  671TMC3    C2 9925   3.262   2.147  13.902  0.7025  0.1075  0.6023
  671TMC3    C3 9926   3.253   2.094  14.026  0.3653 -0.3265  1.4530
  671TMC3    C4 9927   3.026   2.096  13.878  0.5257 -0.0600 -0.3636
  671TMC3    C5 9928   3.025   2.050  14.005  0.3734  0.0413 -0.1855
  671TMC3    C6 9929   3.132   2.052  14.086 -0.0238 -0.0975 -0.2343
  671TMC3     C 9930   3.148   2.065  13.705 -0.1543  0.0642 -0.3429
  671TMC3     O 9931   3.079   1.961  13.711  0.1251  0.0194  0.3088
  671TMC3     H 9932   3.359   2.141  13.854  0.2254 -1.0559 -0.2048
  671TMC3    H1 9933   2.936   2.085  13.818  0.1687 -1.6177  0.4811
  671TMC3    H2 9934   3.131   2.002  14.182  0.2008  0.5103  0.0845
  671TMC3    C7 9935   2.936   1.933  14.034 -0.0050 -0.6241  0.5181
  671TMC3    C8 9936   3.378   2.042  14.091  0.6443 -0.3502  0.1414
  671TMC3    O1 9937   2.891   1.914  14.147 -0.6654 -0.1678  0.6914
  671TMC3    O2 9938   3.469   2.020  14.015 -0.1643  0.0832 -0.0473
  672MPD2     C 9939   4.521   2.430   0.030 -0.7266  0.0235  0.3582
  672MPD2    C1 9940   4.479   2.368   0.146 -0.1284 -0.6326  0.1091
  672MPD2    C2 9941   4.561   2.364   0.258 -0.0884 -0.7877  0.4212
  672MPD2    C3 9942   4.692   2.419   0.254  0.6610  0.3191  0.9863
  672MPD2    C4 9943   4.725   2.493   0.140  0.1065  0.2667 -0.4083
  672MPD2    C5 9944   4.646   2.496   0.026 -0.4951 -1.0275  0.6927
  672MPD2     H 9945   4.525   2.309   0.344 -2.1237 -1.0917 -0.6087
  672MPD2    H1 9946   0.092   2.549   0.146  1.1483 -1.6564  1.3261
  672MPD2    H2 9947   4.454   2.450  17.654  1.8256  2.5089 -1.1099
  672MPD2    H3 9948   4.682   2.549  17.646  1.0331 -0.1065  1.8893
  672MPD2     N 9949   0.045   2.423   0.366  0.2435 -0.3631  0.4863
  672MPD2    H5 9950   0.120   2.491   0.370 -1.3673  1.5163 -1.2384
  672MPD2    N1 9951   4.343   2.322   0.161 -0.1900  0.2691  0.2384
  672MPD2    H7 9952   4.317   2.286   0.252 -2.0916  0.0323 -0.3953
  673TMC3    C1 9953   4.139   2.239   0.111  0.0724  0.5742  0.2674
  673TMC3    C2 9954   4.105   2.119   0.061  0.5039  1.1598 -0.8817
  673TMC3    C3 9955   4.030   2.049   0.150  0.3014 -1.0957  0.4517
  673TMC3    C4 9956   4.094   2.299   0.220  0.4651 -0.7185  0.1695
  673TMC3    C5 9957   3.999   2.237   0.287 -0.0433 -0.3435  0.0556
  673TMC3    C6 9958   3.976   2.105   0.264 -0.1695  0.3417 -0.6145
  673TMC3     C 9959   4.262   2.297   0.056  0.1217 -0.0727 -0.4183
  673TMC3     O 9960   4.285   2.291  17.639  0.3876 -0.4228 -0.3450
  673TMC3     H 9961   4.170   2.069  17.696 -0.1577 -1.3247  0.2533
  673TMC3    H1 9962   4.134   2.396   0.248  1.0982 -1.5614  2.2160
  673TMC3    H2 9963   3.895   2.059   0.319 -0.0445  0.7037 -0.1284
  673TMC3    C7 9964   3.921   2.296   0.393  0.3254  0.4416 -0.1463
  673TMC3    C8 9965   4.048   1.910   0.157  0.3100 -0.4103  0.8203
  673TMC3    O1 9966   3.859   2.220   0.466  0.6466 -1.0888  0.7082
  673TMC3    O2 9967   4.058   1.859   0.044  0.2738  0.2977 -0.4464
  674MPD2     C 9968   3.637   2.400   0.106  0.3134  0.4726 -0.9277
  674MPD2    C1 9969   3.600   2.282   0.168  0.4924 -0.1686  0.0970
  674MPD2    C2 9970   3.537   2.289   0.285  0.9388  0.1969  0.0988
  674MPD2    C3 9971   3.486   2.406   0.338  0.3019  1.1792  0.2154
  674MPD2    C4 9972   3.533   2.521   0.277  0.0818 -0.5716  0.4679
  674MPD2    C5 9973   3.595   2.516   0.160  0.0743  0.2287 -0.1884
  674MPD2     H 9974   3.528   2.194   0.337 -2.2659  0.2301 -0.3499
  674MPD2    H1 9975   3.526   2.621   0.318 -1.6915 -1.0259  1.3142
  674MPD2    H2 9976   3.688   2.393   0.010 -1.9892  1.5180 -2.2335
  674MPD2    H3 9977   3.615   2.605   0.101  2.7620  1.7405  3.0301
  674MPD2     N 9978   3.425   2.402   0.466 -0.2115 -0.0968 -0.2091
  674MPD2    H5 9979   3.404   2.308   0.499 -2.0696  1.6441  3.5171
  674MPD2    N1 9980   3.634   2.155   0.123 -0.2147 -0.2793  0.5405
  674MPD2    H7 9981   3.605   2.071   0.173 -1.0166  0.1945  0.8594
  675TMC3    C1 9982   3.714   1.988  17.696 -0.1278  0.4613 -0.4762
  675TMC3    C2 9983   3.592   1.923   0.011 -0.1339  0.7250 -0.0145
  675TMC3    C3 9984   3.555   1.820  17.636 -0.0656  0.6493 -1.0081
  675TMC3    C4 9985   3.799   1.941  17.601  0.2158  0.0687  0.6357
  675TMC3    C5 9986   3.759   1.837  17.522  0.0362 -0.0963 -0.1738
  675TMC3    C6 9987   3.633   1.782  17.533  0.0141 -1.0066  0.1822
  675TMC3     C 9988   3.722   2.131   0.021 -0.0281  0.3608  0.0474
  675TMC3     O 9989   3.803   2.203  17.669  0.0588  0.5777  0.0357
  675TMC3     H 9990   3.509   1.966   0.066 -1.1013  0.2212 -1.0907
  675TMC3    H1 9991   3.893   1.992  17.586 -0.6035  1.7461  1.1098
  675TMC3    H2 9992   3.616   1.685  17.487 -0.8235 -1.0646  0.6086
  675TMC3    C7 9993   3.847   1.768  17.423 -0.0417  0.2369 -0.7821
  675TMC3    C8 9994   3.469   1.709  17.676 -0.3413  0.1767 -1.1644
  675TMC3    O1 9995   3.794   1.714  17.327  0.1623  0.5793  0.0237
  675TMC3    O2 9996   3.423   1.644  17.585  0.4079  0.1239  0.1078
  676MPD2     C 9997   1.718   0.283  10.795 -0.0039 -0.0882 -0.4502
  676MPD2    C1 9998   1.652   0.230  10.904  0.5175  0.1443 -0.0235
  676MPD2    C2 9999   1.595   0.105  10.898 -0.1457 -0.4939 -0.2662
  676MPD2    C310000   1.593   0.032  10.779 -0.5993  0.4223 -0.2855
  676MPD2    C410001   1.645   0.089  10.666 -0.2546 -0.5859  0.0180
  676MPD2    C510002   1.703   0.211  10.681  0.5525  0.1866  0.5473
  676MPD2     H10003   1.558   0.065  10.992 -1.3015 -1.1579 -1.0165
  676MPD2    H110004   1.663   0.044  10.569 -0.2074 -0.5967  0.0318
  676MPD2    H210005   1.768   0.380  10.798  0.3405 -0.3542  2.3306
  676MPD2    H310006   1.742   0.237  10.583  2.3857 -0.4907  1.0902
  676MPD2     N10007   1.540   4.629  10.770 -0.5815  0.3424  0.6566
  676MPD2    H510008   1.547   4.574  10.685 -2.2084  0.4163  0.4685
  676MPD2    N110009   1.645   0.299  11.029  0.6275 -0.1905 -0.9062
  676MPD2    H710010   1.603   0.258  11.112  2.5438  0.1051  0.2117
  677TMC3    C110011   1.674   0.463  11.190  0.6252 -0.3327 -0.2896
  677TMC3    C210012   1.604   0.397  11.283  0.5807 -0.1506  0.3925
  677TMC3    C310013   1.589   0.450  11.405 -0.0165 -0.6702 -0.2189
  677TMC3    C410014   1.721   0.587  11.215  0.5360  0.0975 -0.5014
  677TMC3    C510015   1.699   0.637  11.339  0.7528 -0.2729  0.5095
  677TMC3    C610016   1.631   0.575  11.439  0.1616  0.2032  0.0435
  677TMC3     C10017   1.689   0.426  11.052 -1.0179  0.0558  0.7452
  677TMC3     O10018   1.733   0.510  10.974 -0.2018 -0.5103  0.2847
  677TMC3     H10019   1.573   0.294  11.274 -0.3945  0.1660  0.0927
  677TMC3    H110020   1.785   0.643  11.147  0.3765  0.4962 -0.3209
  677TMC3    H210021   1.609   0.620  11.535 -0.5461  0.1341 -0.0831
  677TMC3    C710022   1.799   0.736  11.374 -0.2176 -0.3114  0.1544
  677TMC3    C810023   1.548   0.364  11.512  0.8269 -0.5197 -0.3381
  677TMC3    O110024   1.826   0.821  11.292 -0.4408  0.4625  1.0625
  677TMC3    O210025   1.592   0.248  11.500  0.0595 -0.0637  0.2234
  678MPD2     C10026   2.272   0.492   1.892  0.1413 -0.5152 -0.0660
  678MPD2    C110027   2.333   0.465   1.774  0.2716  0.2368  0.6798
  678MPD2    C210028   2.255   0.467   1.659 -0.3744 -0.9413  0.8787
  678MPD2    C310029   2.124   0.512   1.660  0.0566  0.6565 -0.1205
  678MPD2    C410030   2.067   0.540   1.783  0.2364 -0.7572  0.5656
  678MPD2    C510031   2.137   0.519   1.900 -1.0971 -0.3776 -0.0737
  678MPD2     H10032   2.303   0.465   1.562 -1.4373 -0.9146  0.3512
  678MPD2    H110033   1.964   0.570   1.790  0.3604 -0.0955 -0.4484
  678MPD2    H210034   2.328   0.507   1.984 -1.2083  2.3696  0.2903
  678MPD2    H310035   2.081   0.532   1.992 -2.6414 -1.5129 -0.8573
  678MPD2     N10036   2.062   0.523   1.538  0.0818 -0.2737 -0.4749
  678MPD2    H510037   2.121   0.491   1.462  1.1873 -1.4612  0.8813
  678MPD2    N110038   2.471   0.442   1.762 -0.1417  0.0708 -0.0301
  678MPD2    H710039   2.512   0.441   1.669  0.3051  0.5279  0.1621
  679TMC3    C110040   2.869   0.223   1.773 -0.3559  1.1192  0.2736
  679TMC3    C210041   2.754   0.263   1.838 -0.0219 -0.2656 -0.8022
  679TMC3    C310042   2.691   0.381   1.809 -0.4356  0.5373 -0.0882
  679TMC3    C410043   2.914   0.285   1.653 -0.3390  0.0694 -0.0251
  679TMC3    C510044   2.841   0.398   1.621 -0.0969  0.4367 -0.7855
  679TMC3    C610045   2.728   0.441   1.691  0.0914  0.2297  0.0989
  679TMC3     C10046   2.940   0.102   1.821 -0.7970  0.8777  0.0740
  679TMC3     O10047   2.881   0.024   1.890 -0.2606 -0.1635 -0.6687
  679TMC3     H10048   2.725   0.214   1.931  0.6918  2.3418  0.7980
  679TMC3    H110049   2.986   0.233   1.592  0.7361  0.2576  1.0856
  679TMC3    H210050   2.685   0.535   1.658 -1.6809 -0.8105 -0.5785
  679TMC3    C710051   2.882   0.477   1.506 -0.1524 -0.2941  0.5810
  679TMC3    C810052   2.557   0.395   1.862 -0.5379  0.0597 -0.2474
  679TMC3    O110053   2.798   0.558   1.468  0.4240 -0.0341  0.0192
  679TMC3    O210054   2.523   0.340   1.964  0.4146 -0.3500 -0.6097
  680MPD2     C10055   4.359   4.266  13.854 -0.7952  0.5583  0.0863
  680MPD2    C110056   4.280   4.198  13.950  0.1268  0.9335  0.6647
  680MPD2    C210057   4.202   4.278  14.037  1.3467  0.1866  0.2211
  680MPD2    C310058   4.181   4.412  14.009  0.0457 -0.4278  0.4178
  680MPD2    C410059   4.264   4.468  13.914 -0.7430  0.5192  0.7412
  680MPD2    C510060   4.351   4.400  13.841 -0.3838  0.4277 -0.6594
  680MPD2     H10061   4.141   4.218  14.104  0.1645 -0.0922 -1.1006
  680MPD2    H110062   4.273   4.576  13.913  0.7111  0.3985  0.8845
  680MPD2    H210063   4.417   4.205  13.785  2.4123  3.2944  0.3771
  680MPD2    H310064   4.413   4.457  13.773  0.5497  1.3150  0.9354
  680MPD2     N10065   4.084   4.492  14.077 -0.3219 -0.6448  0.3700
  680MPD2    H510066   4.063   4.586  14.045  0.6441 -1.3965 -2.4654
  680MPD2    N110067   4.268   4.053  13.967  0.4097  0.3489  0.1142
  680MPD2    H710068   4.210   4.026  14.046  0.4827 -0.2346 -0.0343
  681TMC3    C110069   4.308   3.827  13.922 -0.2257 -0.5393 -0.0316
  681TMC3    C210070   4.185   3.803  13.984 -0.2460 -0.0132 -0.0051
  681TMC3    C310071   4.127   3.680  13.963 -0.9077 -0.2018 -0.5314
  681TMC3    C410072   4.368   3.735  13.848 -0.4422  0.1348 -0.1575
  681TMC3    C510073   4.303   3.616  13.817 -0.1580 -0.0133 -0.2431
  681TMC3    C610074   4.179   3.591  13.870  0.0363  0.0096 -0.4739
  681TMC3     C10075   4.339   3.966  13.888  0.4928  0.6055 -0.3784
  681TMC3     O10076   4.392   3.985  13.779  0.0985  0.0441 -0.0843
  681TMC3     H10077   4.147   3.870  14.060 -0.2241  0.5738 -0.5157
  681TMC3    H110078   4.455   3.762  13.790 -0.3542 -0.3285 -0.2353
  681TMC3    H210079   4.112   3.512  13.840 -0.1212  0.5778 -1.6144
  681TMC3    C710080   4.342   3.571  13.685 -0.0566 -0.2004 -0.3154
  681TMC3    C810081   3.982   3.657  14.004  0.5050  0.0184  0.2206
  681TMC3    O110082   4.436   3.497  13.684  0.7340 -0.5605  0.1267
  681TMC3    O210083   3.919   3.562  13.955 -0.1500  0.2176 -0.7347
  682MPD2     C10084   0.583   1.127  10.876  0.4356  0.3539 -0.5688
  682MPD2    C110085   0.467   1.054  10.889 -0.0598 -0.8298 -0.7031
  682MPD2    C210086   0.385   1.069  11.007  0.2334  0.4209  0.5839
  682MPD2    C310087   0.411   1.158  11.106 -0.8890 -0.0560  0.1005
  682MPD2    C410088   0.526   1.232  11.087 -0.6261  0.1856 -0.2287
  682MPD2    C510089   0.613   1.221  10.981  0.4475 -0.1007  0.4155
  682MPD2     H10090   0.310   0.992  11.021  0.9653 -0.4887 -0.4325
  682MPD2    H110091   0.556   1.296  11.169 -3.3319  2.0428 -0.6716
  682MPD2    H210092   0.660   1.124  10.799  0.9436  3.6950 -0.1747
  682MPD2    H310093   0.704   1.280  10.975  1.3390 -1.4588  0.5286
  682MPD2     N10094   0.341   1.166  11.228 -0.1772 -0.3004  0.4330
  682MPD2    H510095   0.378   1.226  11.300  0.8552  0.9543 -1.1382
  682MPD2    N110096   0.442   0.938  10.811 -0.1252 -0.0006  0.5418
  682MPD2    H710097   0.370   0.873  10.841 -0.2626 -0.4130 -0.7289
  683TMC3    C110098   0.222   1.080  11.608 -0.2652  0.2432  0.0393
  683TMC3    C210099   0.142   0.976  11.626  0.1508 -0.5358  0.7556
  683TMC3    C310100   0.090   0.920  11.511  0.2244  0.3332 -0.5474
  683TMC3    C410101   0.257   1.132  11.486 -0.3696 -0.0230  0.2534
  683TMC3    C510102   0.182   1.089  11.381 -0.2297 -0.4727 -0.1827
  683TMC3    C610103   0.092   0.986  11.395 -0.5770  0.4667 -0.0809
  683TMC3     C10104   0.313   1.117  11.715 -0.8977  0.2385  0.4675
  683TMC3     O10105   0.366   1.226  11.704  0.1405  0.1984  0.2996
  683TMC3     H10106   0.113   0.939  11.724 -1.4415  0.1737  0.5635
  683TMC3    H110107   0.324   1.214  11.462 -1.9946  1.0680 -0.5082
  683TMC3    H210108   0.037   0.945  11.310 -1.1884 -1.4406  1.2393
  683TMC3    C710109   0.216   1.117  11.248 -0.1759  0.4050 -0.0620
  683TMC3    C810110   0.063   0.778  11.499  0.9197 -0.0594  1.5046
  683TMC3    O110111   0.132   1.087  11.163 -0.4512 -0.2102  0.3309
  683TMC3    O210112   0.035   0.733  11.387 -0.0296 -0.3002  0.1559
  684MPD2     C10113   3.162   0.120  16.713  0.4203  0.4796 -0.4142
  684MPD2    C110114   3.149   0.098  16.579 -0.4561  0.0799 -0.5054
  684MPD2    C210115   3.146   0.216  16.500 -0.6088 -0.2062 -0.4039
  684MPD2    C310116   3.169   0.342  16.563  0.5015 -0.4062 -0.4010
  684MPD2    C410117   3.204   0.353  16.694 -1.0771  0.3192 -0.3028
  684MPD2    C510118   3.194   0.240  16.768 -0.2077  0.3234 -0.2135
  684MPD2     H10119   3.146   0.217  16.392  2.1158 -1.0903 -0.4149
  684MPD2    H110120   3.240   0.442  16.743 -1.6275  1.4652 -1.9985
  684MPD2    H210121   3.153   0.035  16.780 -0.8898  0.7255 -0.2816
  684MPD2    H310122   3.194   0.231  16.876  0.3515  1.3668 -0.1341
  684MPD2     N10123   3.191   0.461  16.490 -0.0152 -0.2951  0.2036
  684MPD2    H510124   3.226   0.542  16.541 -1.4045 -0.5007  1.4679
  684MPD2    N110125   3.155   4.696  16.521 -1.1440 -0.3895  0.1763
  684MPD2    H710126   3.182   4.617  16.580  0.3085 -2.4814 -3.2545
  685TMC3    C110127   3.181   4.532  16.358 -0.1566  0.4248 -0.3150
  685TMC3    C210128   3.117   4.470  16.251  0.4419 -0.3410 -0.0476
  685TMC3    C310129   3.200   4.397  16.168  0.7794 -0.3272 -0.4175
  685TMC3    C410130   3.313   4.520  16.377 -0.2974  0.5561  0.0787
  685TMC3    C510131   3.383   4.446  16.288 -0.3666  0.6064 -0.3597
  685TMC3    C610132   3.335   4.378  16.187  0.1051 -0.5576 -0.3436
  685TMC3     C10133   3.130   4.661  16.393  0.2749  0.0003  0.0932
  685TMC3     O10134   3.087   0.001  16.300 -0.2629  0.3390  0.0539
  685TMC3     H10135   3.009   4.462  16.253  0.6462 -2.8320  1.2429
  685TMC3    H110136   3.365   4.576  16.454  0.9613 -1.7776  0.9340
  685TMC3    H210137   3.389   4.309  16.124 -0.3581 -1.1040 -0.1460
  685TMC3    C710138   3.522   4.434  16.332  0.2959 -0.1563 -0.4291
  685TMC3    C810139   3.129   4.304  16.082  0.2838  0.5385 -0.2335
  685TMC3    O110140   3.541   4.406  16.447 -0.2971 -0.3376  0.0804
  685TMC3    O210141   3.163   4.186  16.087 -0.0243  0.3066 -0.5568
  686MPD2     C10142   0.044   4.695  15.368  0.7121 -0.1607  0.3285
  686MPD2    C110143   0.069   4.638  15.490 -0.5639 -0.3103 -0.3565
  686MPD2    C210144   0.139   4.521  15.499 -0.0530 -0.2892 -0.5995
  686MPD2    C310145   0.181   4.454  15.388  0.1244  0.0986  0.1533
  686MPD2    C410146   0.150   4.504  15.265 -0.0567  0.0962  0.4870
  686MPD2    C510147   0.081   4.623  15.261  0.4718 -0.6221 -0.2449
  686MPD2     H10148   0.170   4.480  15.595 -0.1731  0.1756 -0.3636
  686MPD2    H110149   0.167   4.447  15.175 -1.4310  0.6735 -0.1378
  686MPD2    H210150   4.708   0.056  15.353  0.1553 -0.3901  1.2682
  686MPD2    H310151   0.052   4.661  15.164 -2.7736 -0.9014  0.6149
  686MPD2     N10152   0.238   4.324  15.382 -0.0651 -0.0443 -0.2347
  686MPD2    H510153   0.287   4.302  15.296 -2.5860  0.9880 -1.9339
  686MPD2    N110154   0.022   4.702  15.606 -0.7621  0.4106  0.6432
  686MPD2    H710155   4.699   0.063  15.589  0.5563  0.7990 -1.2203
  687TMC3    C110156   0.178   4.240  15.604 -0.1729 -0.2253  0.0665
  687TMC3    C210157   0.044   4.250  15.604  1.0853 -0.3561 -0.6586
  687TMC3    C310158   4.700   4.224  15.720 -0.0696  0.2466 -0.4512
  687TMC3    C410159   0.248   4.185  15.712  0.2754 -0.2829  0.5961
  687TMC3    C510160   0.169   4.148  15.823  0.2461 -0.4597 -0.7403
  687TMC3    C610161   0.038   4.177  15.835 -0.4837 -0.1387  0.0372
  687TMC3     C10162   0.253   4.225  15.477 -0.4969  0.4884  0.5926
  687TMC3     O10163   0.325   4.125  15.469 -0.4218  0.3504 -0.6533
  687TMC3     H10164   4.724   4.270  15.508 -0.6167 -0.8711  0.0543
  687TMC3    H110165   0.355   4.174  15.708  0.2188 -2.5782  6.0694
  687TMC3    H210166   4.715   4.165  15.931  1.4398 -1.0411  0.9244
  687TMC3    C710167   0.236   4.174  15.944 -0.0813 -0.8732  0.2132
  687TMC3    C810168   4.565   4.283  15.738 -0.2232 -0.9716 -0.1576
  687TMC3    O110169   0.175   4.247  16.024  0.4751  0.6004  0.2422
  687TMC3    O210170   4.517   4.278  15.847  0.6145 -0.3096  0.1163
  688MPD2     C10171   3.933   3.666  17.170 -0.8068  0.1079  0.2578
  688MPD2    C110172   3.945   3.530  17.175  1.1853  1.1067  0.0270
  688MPD2    C210173   4.038   3.460  17.098  0.0362  0.5561 -0.4128
  688MPD2    C310174   4.115   3.543  17.015 -0.0925  0.7975  0.1082
  688MPD2    C410175   4.080   3.676  16.991  0.1156 -0.3312 -0.6242
  688MPD2    C510176   3.994   3.742  17.071  0.0113 -0.1159 -0.0099
  688MPD2     H10177   4.055   3.354  17.111 -1.4513  0.3939  0.2869
  688MPD2    H110178   4.142   3.739  16.928 -1.2019  1.9103  0.3307
  688MPD2    H210179   3.872   3.730  17.234 -0.5141 -0.2288  0.8680
  688MPD2    H310180   3.970   3.846  17.053 -1.3806 -1.0300 -3.5354
  688MPD2     N10181   4.223   3.491  16.930  0.2346 -0.3132 -0.2818
  688MPD2    H510182   4.261   3.548  16.856 -1.9687  0.5883 -0.7263
  688MPD2    N110183   3.878   3.455  17.278 -0.5075  0.0692 -0.3906
  688MPD2    H710184   3.907   3.360  17.297  4.5489  1.6706 -0.1173
  689TMC3    C110185   3.741   3.385  17.458  0.0097  0.0417 -0.1367
  689TMC3    C210186   3.699   3.416  17.581  0.3892  1.3110  0.1041
  689TMC3    C310187   3.644   3.327  17.658  0.7897  0.3039  0.6224
  689TMC3    C410188   3.712   3.260  17.411 -0.2752  0.2427  0.4352
  689TMC3    C510189   3.634   3.176  17.482  0.0059 -0.1594 -0.0414
  689TMC3    C610190   3.612   3.201  17.613 -0.3018 -0.3298  0.8020
  689TMC3     C10191   3.782   3.494  17.369 -0.4987  0.7128  0.6444
  689TMC3     O10192   3.730   3.602  17.389 -0.1838  0.0191 -0.3021
  689TMC3     H10193   3.718   3.515  17.623 -2.1919  1.8733 -0.0729
  689TMC3    H110194   3.732   3.238  17.306 -2.3153  1.9060 -0.3018
  689TMC3    H210195   3.566   3.124  17.673 -1.7270  0.5663  0.8465
  689TMC3    C710196   3.684   3.044  17.465 -0.4463  0.4691  0.0190
  689TMC3    C810197   3.696   3.321   0.090  0.3384 -0.0666  0.0087
  689TMC3    O110198   3.747   3.000  17.561 -0.1385 -0.9614  0.0167
  689TMC3    O210199   3.733   3.211   0.128 -0.2750  0.3583 -0.0339
  690MPD2     C10200   1.208   0.703  15.398 -0.0026  0.8952 -0.1854
  690MPD2    C110201   1.293   0.600  15.434 -0.7458  0.4738  0.7478
  690MPD2    C210202   1.430   0.623  15.419  0.4776 -0.3548  0.0689
  690MPD2    C310203   1.479   0.743  15.372 -0.7308  1.1009  0.0705
  690MPD2    C410204   1.388   0.838  15.329  0.3005  0.2331 -0.2473
  690MPD2    C510205   1.254   0.816  15.345 -0.2821 -0.5661 -0.0930
  690MPD2     H10206   1.504   0.545  15.435  1.1255 -0.1528 -1.8874
  690MPD2    H110207   1.412   0.933  15.284  0.9676  0.6998  1.0795
  690MPD2    H210208   1.100   0.697  15.392  0.0351  0.5644 -0.5796
  690MPD2    H310209   1.181   0.894  15.331 -0.7734 -1.5316 -2.9231
  690MPD2     N10210   1.621   0.762  15.363  0.1248 -0.4833 -0.6769
  690MPD2    H510211   1.670   0.692  15.417 -1.2447 -1.0622 -0.1818
  690MPD2    N110212   1.252   0.472  15.488 -0.4293 -0.4455 -0.3965
  690MPD2    H710213   1.319   0.398  15.506  0.4927  0.4891 -0.0031
  691TMC3    C110214   1.092   0.318  15.574  0.6000  0.7372  0.0290
  691TMC3    C210215   0.993   0.315  15.664 -0.5493  0.0813  0.0570
  691TMC3    C310216   0.917   0.199  15.680 -0.2286 -0.2609  0.4396
  691TMC3    C410217   1.118   0.215  15.493  0.2666 -0.4608  0.1518
  691TMC3    C510218   1.039   0.102  15.501 -0.4895  0.0124 -0.5138
  691TMC3    C610219   0.939   0.093  15.596 -0.0597 -0.7370  0.5125
  691TMC3     C10220   1.114   0.450  15.513 -0.5767 -0.6226  0.1062
  691TMC3     O10221   1.015   0.521  15.497 -0.2912  0.3621 -0.0016
  691TMC3     H10222   0.973   0.403  15.725  1.3711  0.0627  0.7079
  691TMC3    H110223   1.189   0.223  15.411  0.0203 -1.1351 -0.1329
  691TMC3    H210224   0.881   0.005  15.621 -1.6036 -0.0920 -0.8541
  691TMC3    C710225   1.079   4.711  15.426  0.5688  0.0407  0.2751
  691TMC3    C810226   0.829   0.176  15.793 -0.1595  0.1319 -0.2927
  691TMC3    O110227   1.182   4.719  15.361 -0.0620  0.0424  0.1966
  691TMC3    O210228   0.815   0.056  15.830 -0.2749  0.5728 -0.6922
  692TMC3    C110229   3.060   1.597  15.812 -0.3821 -0.6447 -0.6981
  692TMC3    C210230   3.186   1.610  15.865  0.4294  0.0886 -0.2854
  692TMC3    C310231   3.282   1.521  15.836 -0.5498  0.4242  0.7948
  692TMC3    C410232   3.031   1.496  15.731 -0.0575  0.0291  0.6125
  692TMC3    C510233   3.125   1.406  15.705 -0.2088 -0.3025  0.3993
  692TMC3    C610234   3.246   1.410  15.764 -0.1652 -0.0800  0.2722
  692TMC3     C10235   2.953   1.671  15.863 -0.8450  0.7617 -0.0472
  692TMC3     O10236   2.847   1.614  15.880  0.2330 -0.1379  0.2017
  692TMC3     H10237   3.189   1.669  15.956 -0.7637 -0.2880  0.0041
  692TMC3    H110238   2.932   1.497  15.685  0.1352 -0.6677  0.1885
  692TMC3    H210239   3.326   1.345  15.730 -0.5170 -0.3269 -0.0987
  692TMC3    C710240   3.093   1.275  15.666  0.3705  0.1310  0.1715
  692TMC3    C810241   3.371   1.489  15.937 -0.1759  0.0858  0.2476
  692TMC3    O110242   3.022   1.263  15.567  0.4471  0.2970 -0.0092
  692TMC3    O210243   3.351   1.373  15.974  0.1318 -0.0003  0.0797
  693MPD2     C10244   2.592   4.221  10.511 -0.2486  0.5082  0.0838
  693MPD2    C110245   2.544   4.208  10.643 -0.7365  0.4512  0.3038
  693MPD2    C210246   2.623   4.153  10.744 -0.5314  0.4016 -0.2012
  693MPD2    C310247   2.754   4.114  10.715  0.0572 -0.2818  0.1033
  693MPD2    C410248   2.809   4.144  10.590  0.0622 -0.5096 -0.1714
  693MPD2    C510249   2.730   4.207  10.496 -0.1054 -0.9833 -0.0115
  693MPD2     H10250   2.581   4.136  10.842 -0.6352  0.0071 -0.3154
  693MPD2    H110251   2.914   4.131  10.563  0.0441 -1.3655  0.1448
  693MPD2    H210252   2.533   4.273  10.435  1.3714  2.9285  0.4827
  693MPD2    H310253   2.771   4.233  10.399 -4.3050  1.9654 -1.0047
  693MPD2     N10254   2.833   4.041  10.808  0.4721  0.0281 -0.2357
  693MPD2    H510255   2.919   4.006  10.768 -0.5462 -0.0349 -2.3806
  693MPD2    N110256   2.409   4.244  10.672  0.0502 -0.1937 -0.7076
  693MPD2    H710257   2.379   4.256  10.768  0.5665 -1.5585 -0.3815
  694TMC3    C110258   2.190   4.229  10.663 -0.5624 -0.4973 -0.1016
  694TMC3    C210259   2.107   4.140  10.602  0.6055 -0.1455 -0.1182
  694TMC3    C310260   2.021   4.063  10.677  0.8017 -0.7614 -0.9456
  694TMC3    C410261   2.206   4.248  10.797 -0.0515  0.0128 -0.1033
  694TMC3    C510262   2.118   4.168  10.871 -0.0368 -0.3244  0.4479
  694TMC3    C610263   2.035   4.073  10.814  0.3679 -1.0005  0.4269
  694TMC3     C10264   2.305   4.229  10.589 -0.3685 -0.1685  0.5580
  694TMC3     O10265   2.293   4.189  10.475  0.2561 -0.0806  0.1677
  694TMC3     H10266   2.095   4.129  10.495  0.7942  1.5414 -0.3177
  694TMC3    H110267   2.264   4.325  10.846 -1.0986  0.6080  0.1880
  694TMC3    H210268   1.968   4.019  10.880 -0.3927  0.2919  0.7163
  694TMC3    C710269   2.123   4.167  11.019 -0.2058 -0.0883 -0.0546
  694TMC3    C810270   1.919   3.969  10.627 -0.3815 -0.1398  0.2258
  694TMC3    O110271   2.129   4.280  11.068 -0.0335  0.3694  0.6264
  694TMC3    O210272   1.869   3.890  10.709 -0.5191  0.5384  0.6022
  695MPD2     C10273   3.424   1.028  13.635 -0.2163  0.1636  0.3190
  695MPD2    C110274   3.380   1.134  13.707 -0.1885 -0.3293  0.1008
  695MPD2    C210275   3.266   1.195  13.658  0.1135 -0.7544  0.4994
  695MPD2    C310276   3.210   1.157  13.537  1.0733 -0.9333  0.3824
  695MPD2    C410277   3.266   1.060  13.463 -0.5709 -0.4608 -0.2644
  695MPD2    C510278   3.380   0.998  13.507  0.6337 -0.3523 -0.3840
  695MPD2     H10279   3.236   1.287  13.706 -0.0596 -0.9806  0.8251
  695MPD2    H110280   3.229   1.049  13.362 -1.1589 -1.0644  0.0168
  695MPD2    H210281   3.519   0.985  13.661  0.8606  4.0905  2.8261
  695MPD2    H310282   3.438   0.937  13.438  0.2370 -3.1698  1.7839
  695MPD2     N10283   3.105   1.248  13.490 -0.6646 -0.2087  0.9091
  695MPD2    H510284   3.063   1.309  13.559  0.0379  1.8759 -0.5116
  695MPD2    N110285   3.454   1.197  13.816 -0.7175  0.1548 -0.2988
  695MPD2    H710286   3.416   1.288  13.842  0.3200  0.4275  0.2585
  696TMC3    C110287   2.948   1.350  13.337 -0.2308 -0.6299  1.0093
  696TMC3    C210288   2.846   1.370  13.432  0.5173 -0.1175  0.2344
  696TMC3    C310289   2.750   1.466  13.409 -0.0461  0.7549 -0.5663
  696TMC3    C410290   2.953   1.425  13.222  0.2727  0.7519  0.2386
  696TMC3    C510291   2.861   1.519  13.206  0.4794 -0.3211 -0.8382
  696TMC3    C610292   2.768   1.544  13.299 -0.1630 -0.1348 -1.2401
  696TMC3     C10293   3.052   1.251  13.355  1.0261 -0.1904 -0.0829
  696TMC3     O10294   3.096   1.195  13.255  0.8669  0.0878 -0.2837
  696TMC3     H10295   2.850   1.317  13.527 -2.6032  1.5276  1.2500
  696TMC3    H110296   3.035   1.410  13.153 -0.0782  2.2739 -0.5158
  696TMC3    H210297   2.699   1.625  13.280  1.8103  2.0519  0.7160
  696TMC3    C710298   2.914   1.634  13.135 -0.1125  0.4320  0.9193
  696TMC3    C810299   2.739   1.561  13.522  0.0202  0.2692  0.2179
  696TMC3    O110300   2.999   1.620  13.050  0.0400  0.0661 -0.0635
  696TMC3    O210301   2.742   1.683  13.494 -0.0719  0.6223  0.1406
  697MPD2     C10302   2.523   3.160  15.701 -0.7568  0.6616 -0.2823
  697MPD2    C110303   2.562   3.105  15.585 -0.0981  0.4575  0.0828
  697MPD2    C210304   2.585   3.181  15.469  0.5899 -1.1792  0.5099
  697MPD2    C310305   2.543   3.310  15.470  0.5594 -0.8364 -0.2934
  697MPD2    C410306   2.496   3.367  15.590 -0.3798 -0.0518 -0.3627
  697MPD2    C510307   2.493   3.296  15.706  0.0650 -0.3301  0.7465
  697MPD2     H10308   2.614   3.141  15.373  1.8586  0.8278  0.0654
  697MPD2    H110309   2.464   3.470  15.595 -0.5834 -0.1642  0.5499
  697MPD2    H210310   2.525   3.105  15.794 -0.4587 -0.0613 -0.7218
  697MPD2    H310311   2.455   3.330  15.802  0.9346 -1.2017  1.4001
  697MPD2     N10312   2.535   3.387  15.351  0.5759 -0.6926  0.0613
  697MPD2    H510313   2.572   3.339  15.269  0.3865 -0.0707 -0.3882
  697MPD2    N110314   2.602   2.966  15.574  0.6411 -0.0613 -0.1931
  697MPD2    H710315   2.633   2.929  15.484  2.3927 -1.6282  1.0439
  698TMC3    C110316   2.556   3.583  15.219 -0.5048 -0.0331  0.3375
  698TMC3    C210317   2.548   3.717  15.213 -0.0235  0.0072 -0.6464
  698TMC3    C310318   2.564   3.783  15.094 -0.4019 -0.0868 -0.6572
  698TMC3    C410319   2.591   3.515  15.110 -0.0750 -0.5203  0.2383
  698TMC3    C510320   2.611   3.583  14.990 -0.7575 -0.1979 -0.2120
  698TMC3    C610321   2.603   3.719  14.981 -0.6626 -0.2413  0.0817
  698TMC3     C10322   2.515   3.521  15.345  0.4980  0.1175  0.1750
  698TMC3     O10323   2.485   3.602  15.434 -0.3040  0.4044 -0.3164
  698TMC3     H10324   2.507   3.776  15.295 -0.7385 -1.4501  0.0494
  698TMC3    H110325   2.624   3.412  15.114  1.1414 -0.0533  1.9725
  698TMC3    H210326   2.630   3.768  14.888 -0.4904  0.2079  0.3677
  698TMC3    C710327   2.702   3.524  14.897 -0.1250  0.3498  0.4876
  698TMC3    C810328   2.585   3.924  15.092 -0.0698 -0.3542  0.5466
  698TMC3    O110329   2.704   3.403  14.894 -0.2592 -0.7371 -0.1068
  698TMC3    O210330   2.489   3.993  15.067 -0.4498 -0.4694 -0.4613
  699TMC3    C110331   2.580   1.176  12.881  0.0876 -0.2791 -0.0513
  699TMC3    C210332   2.654   1.125  12.980 -0.1329 -0.1510  0.0699
  699TMC3    C310333   2.587   1.049  13.075 -0.1925 -0.5757  0.2594
  699TMC3    C410334   2.449   1.146  12.863 -0.0224 -0.8103 -0.3455
  699TMC3    C510335   2.382   1.076  12.964 -0.1399  0.0561 -0.4581
  699TMC3    C610336   2.456   1.022  13.069 -0.0546  0.5494  0.0335
  699TMC3     C10337   2.632   1.282  12.802  0.2727 -0.4559  0.1058
  699TMC3     O10338   2.555   1.346  12.729 -1.2654  0.6313  0.2190
  699TMC3     H10339   2.761   1.143  12.987 -0.0953  0.5878 -2.6397
  699TMC3    H110340   2.388   1.189  12.785 -2.2890 -1.3292  1.1255
  699TMC3    H210341   2.401   0.969  13.146  0.0664  0.1458 -0.1579
  699TMC3    C710342   2.249   1.114  13.003  0.2390  0.6741  0.2078
  699TMC3    C810343   2.647   1.005  13.200 -0.1442  0.0510  0.5728
  699TMC3    O110344   2.238   1.183  13.104 -0.0187 -0.0046 -0.1489
  699TMC3    O210345   2.572   0.967  13.286 -0.0782 -0.3806 -0.0671
  700TMC3    C110346   1.872   3.613  17.027  0.1870 -0.3693 -0.1630
  700TMC3    C210347   1.926   3.487  17.021  0.0293 -0.4660  0.5412
  700TMC3    C310348   1.999   3.439  17.128 -0.4783  0.2820 -0.8903
  700TMC3    C410349   1.889   3.690  17.134  0.5799 -0.3655  0.9409
  700TMC3    C510350   1.954   3.639  17.244 -0.0525  0.1073 -0.0028
  700TMC3    C610351   2.015   3.510  17.238 -0.5448 -0.2178  0.3051
  700TMC3     C10352   1.822   3.662  16.897  0.3378 -0.4653 -0.5466
  700TMC3     O10353   1.796   3.578  16.810  0.3545 -0.1399  0.1322
  700TMC3     H10354   1.934   3.438  16.925  0.7650  0.5928  0.0604
  700TMC3    H110355   1.846   3.789  17.136  0.5980 -0.3238 -0.6062
  700TMC3    H210356   2.063   3.466  17.324 -2.1983 -1.2906  0.6751
  700TMC3    C710357   1.977   3.720  17.355 -0.0575  0.1122  0.0369
  700TMC3    C810358   2.104   3.339  17.104  0.2704  0.0421 -0.0311
  700TMC3    O110359   1.918   3.826  17.347  0.3697 -0.0053 -0.3723
  700TMC3    O210360   2.163   3.350  16.997 -0.0452 -0.4714 -0.2976
  701TMC3    C110361   2.180   2.083  15.437  0.2766 -1.0411 -0.4076
  701TMC3    C210362   2.216   2.060  15.313 -0.3065  0.1225  0.1950
  701TMC3    C310363   2.301   2.149  15.257 -0.1309 -0.0655 -0.0493
  701TMC3    C410364   2.215   2.196  15.507 -0.3365  0.4820  0.2560
  701TMC3    C510365   2.306   2.280  15.453 -0.1559  0.8492  0.2544
  701TMC3    C610366   2.344   2.255  15.330 -0.8241  0.4824  0.2240
  701TMC3     C10367   2.064   2.004  15.478  0.3879 -0.4530 -0.0777
  701TMC3     O10368   2.051   1.893  15.433  0.1409  0.3141 -0.3243
  701TMC3     H10369   2.175   1.972  15.263 -1.8709  0.6310  0.6024
  701TMC3    H110370   2.199   2.203  15.613 -0.0284 -1.0123  0.4020
  701TMC3    H210371   2.420   2.318  15.285 -0.5785 -0.9898 -1.4456
  701TMC3    C710372   2.317   2.420  15.487  0.2894 -0.5180  0.2349
  701TMC3    C810373   2.272   2.196  15.122 -0.6224 -0.0938 -0.3681
  701TMC3    O110374   2.385   2.491  15.409  0.2770 -0.2517 -0.0134
  701TMC3    O210375   2.319   2.298  15.075 -0.0660  0.5852 -0.1631
  702MPD2     C10376   1.149   4.681  10.367 -0.8421 -0.0680 -0.0559
  702MPD2    C110377   1.219   4.687  10.485  0.1820 -0.8062  0.1209
  702MPD2    C210378   1.263   0.083  10.527 -0.1460 -0.8903  0.5367
  702MPD2    C310379   1.240   0.198  10.451 -0.5588  0.5036 -0.1341
  702MPD2    C410380   1.170   0.187  10.331 -0.3922 -0.2895 -0.0093
  702MPD2    C510381   1.126   0.062  10.286  0.4439  0.1528 -0.3645
  702MPD2     H10382   1.325   0.089  10.616  0.3475 -0.6036  0.1750
  702MPD2    H110383   1.156   0.280  10.276  0.4335  1.5472  2.8560
  702MPD2    H210384   1.101   4.588  10.339 -0.3868 -0.2028 -0.3875
  702MPD2    H310385   1.069   0.055  10.194 -2.8024  0.0900  1.6679
  702MPD2     N10386   1.285   0.318  10.504  0.2255 -0.1537  0.2271
  702MPD2    H510387   1.290   0.399  10.444 -2.6078  0.7378  1.2366
  702MPD2    N110388   1.238   4.583  10.569  0.1613 -0.3231  0.5817
  702MPD2    H710389   1.296   4.608  10.648 -2.2581  1.5543  1.7753
  703TMC3    C110390   1.386   0.464  10.667 -0.0813  0.6732 -0.7686
  703TMC3    C210391   1.343   0.533  10.782  0.1737 -0.4190  0.1992
  703TMC3    C310392   1.425   0.638  10.817 -0.1872  0.5316  0.4557
  703TMC3    C410393   1.503   0.490  10.602 -0.4303 -0.2320  0.2036
  703TMC3    C510394   1.579   0.584  10.660  0.3099 -0.1660  0.0160
  703TMC3    C610395   1.541   0.663  10.764 -0.3824  0.0182  0.0342
  703TMC3     C10396   1.304   0.345  10.638  0.0173  0.4121  1.0489
  703TMC3     O10397   1.252   0.288  10.731  0.3646 -0.5961 -0.3162
  703TMC3     H10398   1.241   0.516  10.815 -0.5711 -1.0047 -2.3942
  703TMC3    H110399   1.538   0.423  10.523 -1.0721  1.6974 -1.7095
  703TMC3    H210400   1.598   0.753  10.785 -0.7538  0.3275 -0.3008
  703TMC3    C710401   1.721   0.586  10.620 -0.2237 -0.5823 -0.3312
  703TMC3    C810402   1.356   0.758  10.856 -0.7049 -0.2505 -0.1021
  703TMC3    O110403   1.743   0.546  10.506 -0.1241 -0.7359 -0.0987
  703TMC3    O210404   1.399   0.872  10.834 -0.7151 -0.2249  0.0047
  704TMC3    C110405   4.249   3.612  12.351 -0.6120 -0.0769  0.2690
  704TMC3    C210406   4.332   3.591  12.245  0.1325 -0.5850  1.0753
  704TMC3    C310407   4.453   3.545  12.274 -0.3674 -0.1472  0.5553
  704TMC3    C410408   4.282   3.592  12.484  0.1761  0.1982  0.8731
  704TMC3    C510409   4.414   3.547  12.506 -1.6137  0.6979  0.7203
  704TMC3    C610410   4.492   3.542  12.400 -0.2176  0.5257 -0.3718
  704TMC3     C10411   4.127   3.699  12.342  0.3454  0.5710 -0.0292
  704TMC3     O10412   4.045   3.697  12.435  0.4483 -0.3397 -0.4811
  704TMC3     H10413   4.292   3.585  12.145  0.7392 -0.4868  0.8299
  704TMC3    H110414   4.208   3.612  12.561 -2.2459  1.1247 -1.7068
  704TMC3    H210415   4.595   3.527  12.428 -0.9215 -1.5253  1.1269
  704TMC3    C710416   4.424   3.436  12.602 -0.2393 -0.1015 -0.4284
  704TMC3    C810417   4.512   3.471  12.166  0.2172  0.0145  0.1191
  704TMC3    O110418   4.529   3.369  12.604  0.3793  0.2982 -0.7394
  704TMC3    O210419   4.460   3.476  12.057 -0.1512 -0.2349  0.1133
  705MPD2     C10420   3.488   0.956  16.255 -0.8712  0.0380  0.0866
  705MPD2    C110421   3.424   1.052  16.184 -0.2470 -0.8813  0.3495
  705MPD2    C210422   3.303   1.106  16.235  0.2332 -0.3796 -0.1194
  705MPD2    C310423   3.264   1.068  16.360  0.3388 -0.1767  0.1130
  705MPD2    C410424   3.339   0.982  16.436  0.1388 -0.1408  1.0510
  705MPD2    C510425   3.452   0.923  16.380  0.2140  0.4617  0.3750
  705MPD2     H10426   3.230   1.170  16.189 -1.1620 -0.2999  2.2263
  705MPD2    H110427   3.304   0.946  16.532  0.4987  0.5740  1.4503
  705MPD2    H210428   3.584   0.917  16.225  0.6279  3.0253  1.0132
  705MPD2    H310429   3.517   0.862  16.442 -0.3441 -1.2816 -0.7512
  705MPD2     N10430   3.140   1.110  16.403  0.0038 -0.2364  0.4155
  705MPD2    H510431   3.082   1.160  16.336 -0.0670  0.5240  1.0332
  705MPD2    N110432   3.480   1.109  16.073 -0.1075 -0.5483  0.5394
  705MPD2    H710433   3.451   1.203  16.047 -2.2557 -1.7242 -1.2176
  706TMC3    C110434   3.842   1.196  15.802 -0.1322 -0.0279  0.1454
  706TMC3    C210435   3.869   1.310  15.874 -0.2538  0.7902 -0.4166
  706TMC3    C310436   3.783   1.347  15.977  0.7165 -0.4556  0.0408
  706TMC3    C410437   3.744   1.118  15.841  0.0282  0.2141 -0.3881
  706TMC3    C510438   3.660   1.159  15.938 -0.3441  0.0451  0.1390
  706TMC3    C610439   3.674   1.280  16.002 -0.3789 -0.4419 -0.1881
  706TMC3     C10440   3.924   1.185  15.680  0.2669  0.1852  0.2960
  706TMC3     O10441   4.036   1.232  15.696 -0.3373 -0.0743 -0.5195
  706TMC3     H10442   3.959   1.369  15.865  0.3061  0.0148  0.1931
  706TMC3    H110443   3.732   1.024  15.789 -0.2352  0.2614 -0.4102
  706TMC3    H210444   3.612   1.316  16.084  0.5378 -0.1168  0.3592
  706TMC3    C710445   3.590   1.059  16.007  0.3293 -0.3989  0.7065
  706TMC3    C810446   3.809   1.474  16.033  0.9884  0.0138 -0.0297
  706TMC3    O110447   3.641   0.945  16.012  0.1776  0.4454  0.2375
  706TMC3    O210448   3.878   1.549  15.960  0.2623 -0.1847  0.7350
  707TMC3    C110449   1.045   0.134   1.697  0.1928  0.7938 -0.0723
  707TMC3    C210450   1.135   0.078   1.781  0.5523 -0.2021 -0.5179
  707TMC3    C310451   1.085   0.042   1.904 -0.1600 -0.3971  0.7001
  707TMC3    C410452   0.908   0.138   1.723 -0.1270  0.3900  0.1214
  707TMC3    C510453   0.865   0.094   1.844  0.0911  0.6208 -0.4419
  707TMC3    C610454   0.952   0.052   1.943 -0.5791 -0.5443  0.1038
  707TMC3     C10455   1.098   0.164   1.563  0.1464 -0.0222  0.2156
  707TMC3     O10456   1.218   0.176   1.552 -0.1051  0.1296  0.4066
  707TMC3     H10457   1.238   0.102   1.759  0.7727 -0.5143  0.1843
  707TMC3    H110458   0.836   0.178   1.652  0.8444  1.8647 -0.0202
  707TMC3    H210459   0.931   0.028   2.047 -0.4119 -1.1639 -0.0091
  707TMC3    C710460   0.739   0.146   1.893  0.3489 -0.5282 -0.3395
  707TMC3    C810461   1.186   4.712   1.992 -0.6617  0.0074 -0.5497
  707TMC3    O110462   0.727   0.156   2.016 -0.6015 -0.4180 -0.3537
  707TMC3    O210463   1.149   4.696   2.108 -0.7937  0.1909 -0.3086
  708MPD2     C10464   2.289   4.052  14.204  0.7209  0.5431  0.0095
  708MPD2    C110465   2.267   4.186  14.244 -0.6550  0.2836  0.0624
  708MPD2    C210466   2.212   4.214  14.366  0.1428 -0.5209 -0.2097
  708MPD2    C310467   2.179   4.111  14.460 -0.1774 -0.2555  0.2313
  708MPD2    C410468   2.200   3.985  14.423  0.1400  0.2289  0.6429
  708MPD2    C510469   2.273   3.958  14.306 -0.3300 -0.7607  0.8528
  708MPD2     H10470   2.201   4.319  14.391 -1.8798 -1.1427  1.5029
  708MPD2    H110471   2.175   3.912  14.499 -0.8256  2.1886  2.2073
  708MPD2    H210472   2.319   4.016  14.106 -0.7290 -0.5950 -0.0279
  708MPD2    H310473   2.299   3.855  14.283  0.0207 -0.8722  1.7203
  708MPD2     N10474   2.084   4.129  14.567  0.5373 -0.0184  0.8664
  708MPD2    H510475   2.037   4.046  14.601 -0.9501  0.1087 -0.9334
  708MPD2    N110476   2.297   4.293  14.169 -0.5812 -0.6023 -0.3743
  708MPD2    H710477   2.265   4.385  14.197  0.4949 -0.3198 -0.0966
  709TMC3    C110478   2.335   4.414  13.970  0.3449  0.4650  0.1556
  709TMC3    C210479   2.326   4.410  13.835  0.9529  0.0538 -0.0586
  709TMC3    C310480   2.226   4.477  13.771  0.0455 -0.2587  0.0519
  709TMC3    C410481   2.262   4.510  14.034 -0.1318 -0.2629  0.4731
  709TMC3    C510482   2.163   4.582  13.972  0.6831 -0.1821 -0.3167
  709TMC3    C610483   2.144   4.565  13.838 -0.6413 -0.0169 -0.5903
  709TMC3     C10484   2.348   4.291  14.041 -0.1823 -0.1077 -0.1097
  709TMC3     O10485   2.372   4.200  13.966  0.0727 -0.3479  0.4512
  709TMC3     H10486   2.378   4.331  13.782 -1.5487 -2.3930  1.0909
  709TMC3    H110487   2.282   4.533  14.138 -1.3929  0.3859  0.5771
  709TMC3    H210488   2.073   4.627  13.784 -1.3812  0.8463  1.3685
  709TMC3    C710489   2.041   4.550  14.049 -0.3515 -0.0392  0.4861
  709TMC3    C810490   2.231   4.492  13.632 -0.3202 -0.3584  1.0654
  709TMC3    O110491   2.057   4.573  14.169 -0.1640  0.0155  0.0148
  709TMC3    O210492   2.142   4.550  13.576  0.5556  0.2764 -0.1712
  710TMC3    C110493   2.736   1.100   0.979  0.3371 -0.0520 -0.5634
  710TMC3    C210494   2.798   1.120   0.856  0.2214 -0.3731 -0.2078
  710TMC3    C310495   2.907   1.047   0.816 -0.2804 -0.4697  0.5373
  710TMC3    C410496   2.782   0.993   1.053 -0.5355 -0.3732  0.3159
  710TMC3    C510497   2.886   0.919   1.008  0.2679 -0.2740  0.6407
  710TMC3    C610498   2.955   0.941   0.896  0.1000 -0.2241 -0.5532
  710TMC3     C10499   2.591   1.124   0.987 -0.0556 -0.0018  0.0041
  710TMC3     O10500   2.533   1.147   0.880  0.2467 -0.1866  0.0771
  710TMC3     H10501   2.738   1.170   0.782  0.6080  0.7631  0.2463
  710TMC3    H110502   2.732   0.974   1.147  2.1090 -2.4254  1.2940
  710TMC3    H210503   3.046   0.887   0.871  1.0957  1.1906 -0.0145
  710TMC3    C710504   2.935   0.824   1.105  0.6714  0.2396 -0.5822
  710TMC3    C810505   2.968   1.059   0.681 -0.5335  0.4197 -0.2876
  710TMC3    O110506   2.879   0.827   1.213  0.5201 -0.8407 -0.9155
  710TMC3    O210507   3.021   0.962   0.627  0.3514 -0.4203  0.1428
  711TMC3    C110508   2.714   2.093  15.126 -0.3963  0.1057 -0.1915
  711TMC3    C210509   2.701   2.097  15.260 -0.1301 -0.4115  0.3433
  711TMC3    C310510   2.789   2.174  15.331 -0.1844 -0.4155 -0.2144
  711TMC3    C410511   2.834   2.128  15.063  0.1300 -0.6009  0.1854
  711TMC3    C510512   2.924   2.199  15.135  0.2588 -0.1803  0.2972
  711TMC3    C610513   2.886   2.242  15.262  0.4665  0.2800  0.7785
  711TMC3     C10514   2.600   2.047  15.039  0.0854 -0.4078 -0.1517
  711TMC3     O10515   2.516   1.972  15.079 -0.1431 -0.5105 -0.2259
  711TMC3     H10516   2.611   2.059  15.307  0.0611  0.7534  1.6653
  711TMC3    H110517   2.861   2.094  14.964  2.3219 -2.4018  1.3896
  711TMC3    H210518   2.959   2.306  15.311 -1.6444  3.4869 -0.3089
  711TMC3    C710519   3.066   2.157  15.132  0.0726 -0.1397  0.8595
  711TMC3    C810520   2.858   2.118  15.441  0.7035  0.2151  0.6548
  711TMC3    O110521   3.133   2.181  15.232 -0.8512 -0.3807 -0.8002
  711TMC3    O210522   2.841   2.171  15.549 -0.0770  0.0907 -0.2764
  712MPD2     C10523   0.140   3.354  13.886 -0.0480 -0.0024  0.1372
  712MPD2    C110524   0.033   3.370  13.802  1.4143  0.1283 -0.2090
  712MPD2    C210525   0.063   3.414  13.679 -0.0656  0.2956  0.7662
  712MPD2    C310526   0.191   3.447  13.633  0.1900 -0.0988 -0.1091
  712MPD2    C410527   0.303   3.423  13.713 -0.1037 -0.3862 -0.0956
  712MPD2    C510528   0.270   3.375  13.842  0.4137 -0.1570  0.0909
  712MPD2     H10529   4.700   3.428  13.619  0.7882 -0.2005 -0.6140
  712MPD2    H110530   0.405   3.457  13.698 -0.8408  1.3678 -1.2687
  712MPD2    H210531   0.127   3.327  13.990  1.0011 -0.6852  0.0865
  712MPD2    H310532   0.352   3.367  13.912 -0.2884  0.9362  1.0469
  712MPD2     N10533   0.215   3.506  13.502 -0.6107 -0.5682  0.1088
  712MPD2    H510534   0.310   3.508  13.468 -0.0781 -1.4572  1.5616
  712MPD2    N110535   4.628   3.324  13.825 -0.6791 -0.4485 -0.1013
  712MPD2    H710536   4.555   3.343  13.757 -0.3986  2.3606  0.3776
  713TMC3    C110537   0.156   3.635  13.301 -0.2914 -0.1057 -0.2725
  713TMC3    C210538   0.296   3.635  13.283 -0.0294  0.9316  0.1489
  713TMC3    C310539   0.344   3.754  13.226 -0.0722 -1.3640  0.8804
  713TMC3    C410540   0.072   3.741  13.266  0.2550 -0.0735  0.2011
  713TMC3    C510541   0.130   3.860  13.239  0.0460 -0.3090 -0.0714
  713TMC3    C610542   0.268   3.865  13.204  0.0433 -0.5145 -0.1658
  713TMC3     C10543   0.111   3.567  13.424  0.9076  0.0026  0.6442
  713TMC3     O10544   4.722   3.584  13.450  0.4626 -0.4626  0.1326
  713TMC3     H10545   0.347   3.540  13.293 -0.3099  0.7869  0.1761
  713TMC3    H110546   4.691   3.747  13.275  0.2241  1.6598 -1.1775
  713TMC3    H210547   0.321   3.957  13.181 -2.9302  0.4856 -3.0726
  713TMC3    C710548   0.046   3.979  13.236  0.3596  0.6547  0.2156
  713TMC3    C810549   0.486   3.775  13.217 -0.5495  0.6792 -0.0355
  713TMC3    O110550   0.093   4.079  13.176 -0.3347 -0.0587  0.0438
  713TMC3    O210551   0.534   3.858  13.143  0.1231  0.1824  0.0250
  714MPD2     C10552   0.885   1.812   1.815  0.2231  0.1594 -0.0861
  714MPD2    C110553   0.970   1.753   1.718  0.1728  0.2780 -0.0133
  714MPD2    C210554   0.911   1.739   1.593 -0.0162 -0.5367 -0.1447
  714MPD2    C310555   0.790   1.796   1.563  0.2243 -0.3866 -0.7958
  714MPD2    C410556   0.712   1.851   1.665  0.2642 -0.0411 -0.3007
  714MPD2    C510557   0.757   1.855   1.792 -0.0833 -0.1056  0.8418
  714MPD2     H10558   0.969   1.704   1.508 -0.3370  1.0805 -1.0174
  714MPD2    H110559   0.611   1.882   1.639  0.2366 -0.5266 -0.7847
  714MPD2    H210560   0.923   1.825   1.915  1.5645 -0.2071 -0.5370
  714MPD2    H310561   0.697   1.891   1.874  2.1132 -2.1483  3.3327
  714MPD2     N10562   0.749   1.800   1.429  0.4468 -0.3623 -0.3473
  714MPD2    H510563   0.804   1.738   1.370  1.7970 -0.8121  1.4036
  714MPD2    N110564   1.106   1.723   1.750  0.1610 -0.1120 -0.1233
  714MPD2    H710565   1.145   1.744   1.842  0.7733  0.4530 -0.5054
  715TMC3    C110566   1.331   1.658   1.716 -0.5448  0.1361 -0.2646
  715TMC3    C210567   1.412   1.562   1.661 -0.0652 -0.3824 -0.1712
  715TMC3    C310568   1.541   1.544   1.708  0.2849  0.0889  0.4659
  715TMC3    C410569   1.372   1.743   1.813  0.3225 -0.6712 -0.0311
  715TMC3    C510570   1.498   1.722   1.863 -0.0810 -0.0429  1.1987
  715TMC3    C610571   1.582   1.628   1.817 -0.3771  0.5355  0.1462
  715TMC3     C10572   1.196   1.669   1.659  1.0504 -0.2430 -0.6272
  715TMC3     O10573   1.175   1.622   1.552 -0.3927  0.0797 -0.0419
  715TMC3     H10574   1.367   1.486   1.599  1.7295 -0.7483 -1.0393
  715TMC3    H110575   1.304   1.814   1.858  2.3654  2.1029 -1.2870
  715TMC3    H210576   1.685   1.612   1.847  0.1030 -2.0702 -2.9687
  715TMC3    C710577   1.548   1.815   1.963  0.2880 -0.3157  0.1088
  715TMC3    C810578   1.625   1.437   1.653 -0.2750 -0.1800  0.5055
  715TMC3    O110579   1.638   1.773   2.042 -0.3777 -0.0715 -0.4993
  715TMC3    O210580   1.600   1.399   1.540  0.3141 -0.4014  0.2506
  716MPD2     C10581   1.703   4.565   9.567  0.3476 -0.2476  0.6664
  716MPD2    C110582   1.641   4.454   9.525 -0.3675 -0.0251  0.5440
  716MPD2    C210583   1.655   4.336   9.591  0.1829  0.0226 -0.1789
  716MPD2    C310584   1.748   4.323   9.687 -0.0027  0.1965  0.0066
  716MPD2    C410585   1.810   4.435   9.731  0.0996 -0.1302  1.1475
  716MPD2    C510586   1.784   4.554   9.674 -0.1858 -0.0435  0.8374
  716MPD2     H10587   1.595   4.249   9.565 -0.4905  0.4313  0.0200
  716MPD2    H110588   1.866   4.437   9.823  0.6296  1.9704  0.7855
  716MPD2    H210589   1.691   4.659   9.515  0.1265  0.5169  2.0833
  716MPD2    H310590   1.832   4.642   9.714 -0.0332 -0.1688  0.9307
  716MPD2     N10591   1.764   4.188   9.740 -0.0910  0.2886  0.2751
  716MPD2    H510592   1.695   4.128   9.697  0.8110 -1.9430  1.9225
  716MPD2    N110593   1.556   4.482   9.415  0.0910 -0.2142 -0.4172
  716MPD2    H710594   1.544   4.581   9.397 -2.3652  0.0139  2.6470
  717TMC3    C110595   1.821   4.017   9.885  0.3016  0.9945 -0.3499
  717TMC3    C210596   1.708   3.951   9.843 -0.0790  0.0879 -0.0961
  717TMC3    C310597   1.673   3.835   9.902 -0.0125  0.8843 -0.1868
  717TMC3    C410598   1.904   3.963   9.979  0.4462 -0.4852  0.2824
  717TMC3    C510599   1.858   3.849  10.044  0.2462  0.3814  0.1620
  717TMC3    C610600   1.751   3.772   9.992  0.0050  0.5423 -0.6159
  717TMC3     C10601   1.859   4.148   9.827 -0.1259  0.2733 -0.2642
  717TMC3     O10602   1.955   4.209   9.873 -0.4500  0.6914 -0.6064
  717TMC3     H10603   1.647   3.990   9.762 -1.6318  1.5419  1.7671
  717TMC3    H110604   1.986   4.025  10.014  0.3147  1.1721 -2.4052
  717TMC3    H210605   1.720   3.686  10.049  1.2818  0.8800  0.6024
  717TMC3    C710606   1.921   3.792  10.158  1.1642 -0.3158  0.3060
  717TMC3    C810607   1.547   3.785   9.863  0.3958 -0.6009 -0.1653
  717TMC3    O110608   1.869   3.699  10.219  0.7159 -0.0748 -0.4861
  717TMC3    O210609   1.458   3.866   9.854 -0.9175 -0.9293 -0.4189
  718MPD2     C10610   1.157   3.341  12.575 -0.1403 -0.0648  0.2094
  718MPD2    C110611   1.028   3.344  12.623  0.2691  0.3328  0.4876
  718MPD2    C210612   0.942   3.236  12.589  0.0616  0.3216  0.0059
  718MPD2    C310613   0.994   3.128  12.514  0.7427  0.0244 -0.0390
  718MPD2    C410614   1.128   3.119  12.478 -0.3317  0.6281  0.0621
  718MPD2    C510615   1.209   3.229  12.511 -0.1675  0.2305  0.1743
  718MPD2     H10616   0.836   3.241  12.612 -0.1406 -0.1774 -0.8390
  718MPD2    H110617   1.170   3.034  12.425 -0.2130  0.3747  0.5675
  718MPD2    H210618   1.229   3.417  12.605  0.8942 -1.5743  1.5247
  718MPD2    H310619   1.312   3.230  12.477  0.4509  1.2929  2.0663
  718MPD2     N10620   0.900   3.039  12.463  0.3879  0.1835 -0.0097
  718MPD2    H510621   0.808   3.045  12.504  1.0181  0.7663  1.3285
  718MPD2    N110622   0.977   3.455  12.684 -0.0650  0.3620  1.1766
  718MPD2    H710623   1.032   3.541  12.676  0.8563 -0.3783 -0.4423
  719TMC3    C110624   0.809   3.594  12.764 -0.1306 -0.4676 -0.2233
  719TMC3    C210625   0.672   3.598  12.757 -0.3735  0.2031 -0.1548
  719TMC3    C310626   0.614   3.683  12.665  0.2106 -0.3891  0.0472
  719TMC3    C410627   0.883   3.686  12.692  0.1826  0.1867 -0.0142
  719TMC3    C510628   0.819   3.781  12.621  0.2492 -0.1107  0.0665
  719TMC3    C610629   0.683   3.788  12.602 -0.1006  0.1125 -0.6792
  719TMC3     C10630   0.865   3.458  12.765  0.4259  0.4398 -0.1245
  719TMC3     O10631   0.795   3.367  12.808 -0.0738  0.2681  0.1645
  719TMC3     H10632   0.616   3.515  12.797  0.7080  0.2059  1.3864
  719TMC3    H110633   0.988   3.705  12.713  0.0177  1.7857 -0.5905
  719TMC3    H210634   0.636   3.859  12.535 -1.6774 -0.6249 -0.3584
  719TMC3    C710635   0.904   3.885  12.566 -0.3286  0.5553  0.6062
  719TMC3    C810636   0.528   3.610  12.579  0.4081 -0.4099 -0.1008
  719TMC3    O110637   1.016   3.849  12.546  0.4128 -0.4259 -0.1311
  719TMC3    O210638   0.464   3.516  12.622  0.3174 -0.7409 -0.7093
  720MPD2     C10639   3.738   0.520  14.024 -0.2163  0.4033  0.2544
  720MPD2    C110640   3.833   0.502  13.924 -0.4732 -0.5959 -0.0011
  720MPD2    C210641   3.935   0.417  13.953 -0.0035  0.7913  0.3630
  720MPD2    C310642   3.964   0.365  14.077  0.4850  0.0546  0.4944
  720MPD2    C410643   3.873   0.403  14.177  0.6810 -0.6625  0.2576
  720MPD2    C510644   3.763   0.472  14.154  0.0006  0.4303 -0.1498
  720MPD2     H10645   4.005   0.389  13.875 -1.0410 -1.6251  0.3039
  720MPD2    H110646   3.885   0.382  14.282  2.2111  0.4027  0.3056
  720MPD2    H210647   3.651   0.585  14.012 -0.3702  0.8352  3.8872
  720MPD2    H310648   3.688   0.473  14.232 -2.3764 -0.7390 -2.4324
  720MPD2     N10649   4.078   0.292  14.101 -0.4382 -0.4513  0.0357
  720MPD2    H510650   4.143   0.280  14.024 -3.5000 -1.8673 -2.2801
  720MPD2    N110651   3.820   0.552  13.792  0.0583 -0.8712  0.6711
  720MPD2    H710652   3.891   0.527  13.724  0.4993  0.1530  0.7441
  721TMC3    C110653   4.234   0.165  14.218 -0.1134  0.4689 -0.5662
  721TMC3    C210654   4.228   0.060  14.295  0.3970  0.9654 -0.4068
  721TMC3    C310655   4.330   4.703  14.279 -0.0062 -0.0577 -0.1689
  721TMC3    C410656   4.336   0.203  14.129  0.7638 -0.2808  0.3713
  721TMC3    C510657   4.445   0.121  14.121  0.1401  0.2894  0.1598
  721TMC3    C610658   4.438   0.007  14.197  0.2381 -0.1404 -0.5439
  721TMC3     C10659   4.115   0.245  14.224  0.6312 -0.2058  0.1758
  721TMC3     O10660   4.059   0.251  14.335  0.1725 -0.2776 -0.1763
  721TMC3     H10661   4.149   0.047  14.369  1.3932 -1.2971  0.2343
  721TMC3    H110662   4.332   0.297  14.076 -1.2534 -1.2815 -1.2325
  721TMC3    H210663   4.523   4.668  14.214  1.4479  0.9864 -2.2832
  721TMC3    C710664   4.578   0.174  14.083  0.0239  0.3838  0.5034
  721TMC3    C810665   4.345   4.628  14.398  0.0475 -0.7505  0.0998
  721TMC3    O110666   4.588   0.296  14.071  0.0312  0.2649  0.0224
  721TMC3    O210667   4.411   4.526  14.388 -0.0449 -0.4690  0.5418
  722MPD2     C10668   3.780   3.551  13.623 -0.0550 -0.2123  0.1490
  722MPD2    C110669   3.723   3.667  13.665 -0.2607  0.4955 -0.4296
  722MPD2    C210670   3.583   3.667  13.681  0.1601 -0.0840 -0.3771
  722MPD2    C310671   3.515   3.552  13.681 -0.2022  0.4740 -0.9248
  722MPD2    C410672   3.575   3.438  13.646  0.5032 -0.2754 -0.9524
  722MPD2    C510673   3.703   3.436  13.608 -0.2965 -0.3847 -0.2060
  722MPD2     H10674   3.530   3.757  13.711 -0.6689 -0.2817 -1.2397
  722MPD2    H110675   3.520   3.345  13.634  0.7528 -1.1183  4.2427
  722MPD2    H210676   3.882   3.556  13.585  0.1014  1.7312  0.7947
  722MPD2    H310677   3.741   3.340  13.575 -0.8390 -1.4679  2.3673
  722MPD2     N10678   3.381   3.560  13.713 -0.5180  0.3647  0.2230
  722MPD2    H510679   3.343   3.651  13.739  1.3507  1.3578 -0.5301
  722MPD2    N110680   3.792   3.783  13.694  0.4902  0.6048  0.3979
  722MPD2    H710681   3.736   3.863  13.720 -0.7766 -0.0897 -0.1752
  723TMC3    C110682   3.150   3.512  13.675  0.2280 -0.8385 -0.3962
  723TMC3    C210683   3.058   3.418  13.659 -0.2718 -0.0690 -0.6156
  723TMC3    C310684   2.933   3.449  13.605  0.9775 -0.1964  1.1602
  723TMC3    C410685   3.128   3.637  13.618  0.1859  0.4778  0.0579
  723TMC3    C510686   3.003   3.668  13.573 -0.0614  0.1415  0.2917
  723TMC3    C610687   2.904   3.576  13.561 -0.3393  0.4519  0.7482
  723TMC3     C10688   3.290   3.463  13.679 -0.8765 -0.9332  0.3863
  723TMC3     O10689   3.304   3.342  13.656  0.2471 -0.6342  0.3933
  723TMC3     H10690   3.072   3.320  13.703  0.7822  0.6593  0.6770
  723TMC3    H110691   3.208   3.710  13.604  0.6093  0.0493  0.2646
  723TMC3    H210692   2.801   3.600  13.538 -0.5301 -0.3431  0.7610
  723TMC3    C710693   2.968   3.800  13.527  0.0969 -0.3191 -0.0019
  723TMC3    C810694   2.848   3.335  13.574  0.2836 -0.5062 -0.0264
  723TMC3    O110695   2.850   3.821  13.495  0.4744 -0.0476 -0.2356
  723TMC3    O210696   2.885   3.234  13.637  0.3191  0.0646  0.3665
  724TMC3    C110697   2.300   2.152   9.513 -0.3891 -0.2929  0.5939
  724TMC3    C210698   2.409   2.099   9.570 -0.1093  0.7102 -0.2303
  724TMC3    C310699   2.527   2.176   9.589 -0.0386  0.3614 -0.9301
  724TMC3    C410700   2.294   2.282   9.475 -0.1091  0.1268 -0.5226
  724TMC3    C510701   2.414   2.350   9.478 -0.4329 -0.2915 -0.2829
  724TMC3    C610702   2.524   2.301   9.533 -1.2188  0.8687  0.1612
  724TMC3     C10703   2.182   2.069   9.495 -0.2410  0.3978 -0.5914
  724TMC3     O10704   2.089   2.123   9.438  0.5557 -0.4431 -0.1254
  724TMC3     H10705   2.418   1.998   9.609  3.0887  1.3918  0.7868
  724TMC3    H110706   2.213   2.317   9.411 -1.0477  0.8455  1.0475
  724TMC3    H210707   2.615   2.357   9.516 -1.1748  0.7836  0.1184
  724TMC3    C710708   2.427   2.476   9.416  0.1730  0.0366  0.0630
  724TMC3    C810709   2.655   2.124   9.640 -0.0708  0.1868  0.1852
  724TMC3    O110710   2.537   2.525   9.410 -0.2687 -0.5048  0.6230
  724TMC3    O210711   2.663   2.007   9.667  0.9060  0.2074 -0.0285
  725TMC3    C110712   4.465   0.799  13.329 -0.4354  0.1404 -0.3419
  725TMC3    C210713   4.420   0.821  13.202 -0.4199 -0.1110  0.0449
  725TMC3    C310714   4.411   0.711  13.126 -0.5665 -0.1382 -0.6719
  725TMC3    C410715   4.526   0.680  13.371  0.3296 -0.0340 -0.9487
  725TMC3    C510716   4.528   0.579  13.286 -0.0686  0.2858  0.8344
  725TMC3    C610717   4.461   0.589  13.169 -0.6651 -0.2076  1.1723
  725TMC3     C10718   4.505   0.928  13.394  0.1458  0.1892  0.1580
  725TMC3     O10719   4.480   1.030  13.334  0.5739  0.0627  0.4788
  725TMC3     H10720   4.370   0.915  13.182  0.7761  0.7150  0.8892
  725TMC3    H110721   4.565   0.670  13.472 -1.2899 -1.5110 -0.4664
  725TMC3    H210722   4.476   0.510  13.097  1.1407  0.3048  0.9763
  725TMC3    C710723   4.670   0.549  13.265  1.2310  0.6288  0.7473
  725TMC3    C810724   4.394   0.717  12.984  0.1362  0.2802 -0.3323
  725TMC3    O110725   4.694   0.514  13.151 -0.2167  0.6230 -0.0262
  725TMC3    O210726   4.387   0.617  12.915  0.4342  0.0532  0.0165
  726MPD2     C10727   2.964   2.334  10.519  0.5912 -0.0166  0.7467
  726MPD2    C110728   2.832   2.322  10.475 -0.5892  0.7339  0.4146
  726MPD2    C210729   2.785   2.193  10.450  0.2477 -0.1563  0.0857
  726MPD2    C310730   2.865   2.083  10.482 -0.0185 -0.0469 -0.0605
  726MPD2    C410731   2.987   2.097  10.546  0.3848  0.6291 -0.2349
  726MPD2    C510732   3.038   2.221  10.553 -0.0668 -0.1801  0.0719
  726MPD2     H10733   2.679   2.177  10.432  0.0603  0.0743  0.9697
  726MPD2    H110734   3.048   2.010  10.569  0.0196  0.5818  0.5634
  726MPD2    H210735   3.013   2.428  10.544 -0.6469  0.3572  1.7777
  726MPD2    H310736   3.134   2.230  10.603  0.2062 -1.0850 -0.2923
  726MPD2     N10737   2.820   1.949  10.468 -0.5650  0.5978 -0.6341
  726MPD2    H510738   2.880   1.881  10.514  1.8644  2.4498 -1.0655
  726MPD2    N110739   2.759   2.439  10.451  0.3467  0.3855 -0.4383
  726MPD2    H710740   2.805   2.527  10.474 -0.2701 -0.3290  3.5219
  727TMC3    C110741   2.585   2.586  10.410 -0.4573 -0.0731 -0.4772
  727TMC3    C210742   2.635   2.671  10.504 -0.1430  0.6655  0.1971
  727TMC3    C310743   2.592   2.800  10.494 -0.2483 -0.9064 -0.3886
  727TMC3    C410744   2.495   2.627  10.311 -0.4386  0.7413 -0.5013
  727TMC3    C510745   2.466   2.758  10.309  0.1160  0.1166 -0.3423
  727TMC3    C610746   2.511   2.851  10.398  0.8762  0.4209 -0.2890
  727TMC3     C10747   2.635   2.446  10.395  0.1445  0.3964 -0.6576
  727TMC3     O10748   2.554   2.365  10.356  0.7729 -0.0352 -0.1457
  727TMC3     H10749   2.714   2.642  10.571  1.4677 -1.6557 -2.7331
  727TMC3    H110750   2.452   2.555  10.242 -0.7271  2.0493 -1.6977
  727TMC3    H210751   2.484   2.956  10.403  2.0227  0.6394  1.4032
  727TMC3    C710752   2.362   2.796  10.211  0.4851  1.0964  0.4977
  727TMC3    C810753   2.672   2.889  10.573 -0.5963 -0.1356 -0.6823
  727TMC3    O110754   2.307   2.705  10.148 -0.4121 -0.2115  0.0484
  727TMC3    O210755   2.714   2.835  10.670  0.2882  0.1950  0.3539
  728TMC3    C110756   1.830   0.857  15.320 -0.0600 -0.0013 -0.2380
  728TMC3    C210757   1.887   0.798  15.432  0.6679  0.1215  0.9801
  728TMC3    C310758   2.016   0.821  15.459  0.5051 -0.2504  0.9719
  728TMC3    C410759   1.905   0.939  15.233  0.1386  0.5574  0.2061
  728TMC3    C510760   2.041   0.947  15.264 -1.1833  0.4400  0.7936
  728TMC3    C610761   2.091   0.899  15.381  0.0914  0.0571  0.7839
  728TMC3     C10762   1.685   0.861  15.297  0.0343  0.4299  0.0388
  728TMC3     O10763   1.629   0.946  15.226  0.0430 -1.0906  0.4346
  728TMC3     H10764   1.838   0.737  15.507  0.3842 -1.3846 -0.4359
  728TMC3    H110765   1.856   0.974  15.143 -3.4297 -2.5026  0.9308
  728TMC3    H210766   2.196   0.919  15.395 -0.1383  0.4896  1.9302
  728TMC3    C710767   2.135   1.005  15.168 -0.2512 -0.3002  0.3949
  728TMC3    C810768   2.087   0.731  15.547 -0.4268 -0.7319  0.3745
  728TMC3    O110769   2.255   0.995  15.188 -0.2455 -0.7406 -0.5262
  728TMC3    O210770   2.045   0.622  15.572 -0.3724 -0.4454 -0.2815
  729MPD2     C10771   4.002   1.884  16.696  1.6471 -0.0284  0.1950
  729MPD2    C110772   4.134   1.900  16.734 -0.0240  0.1097  0.3482
  729MPD2    C210773   4.155   1.909  16.865  0.1098  0.2174  0.6902
  729MPD2    C310774   4.064   1.905  16.958  0.0972  0.8063 -0.7601
  729MPD2    C410775   3.934   1.894  16.924  0.0528 -0.0767  0.0226
  729MPD2    C510776   3.901   1.891  16.787  0.2579 -0.1142  0.4919
  729MPD2     H10777   4.257   1.934  16.893  0.4263 -0.5865  0.2315
  729MPD2    H110778   3.856   1.877  16.999 -0.0368  0.7454  0.1120
  729MPD2    H210779   3.962   1.880  16.595  1.0706  1.1336  0.3734
  729MPD2    H310780   3.797   1.874  16.761  1.3227 -2.7635 -1.9200
  729MPD2     N10781   4.113   1.933  17.086 -0.1473 -0.3255 -0.3078
  729MPD2    H510782   4.213   1.943  17.099  0.0127 -0.6586 -1.3327
  729MPD2    N110783   4.239   1.905  16.635 -0.3618  0.0071 -0.1606
  729MPD2    H710784   4.206   1.926  16.541 -1.8674  1.4842  0.6771
  730TMC3    C110785   4.148   2.006  17.293 -0.2895  0.4664  0.0674
  730TMC3    C210786   4.272   1.966  17.270  0.2317 -0.1567 -0.1850
  730TMC3    C310787   4.378   2.055  17.280  0.8878  0.1973  0.1511
  730TMC3    C410788   4.120   2.129  17.343 -0.1136  0.0328 -0.2145
  730TMC3    C510789   4.220   2.219  17.365 -0.7557  0.2857 -0.0254
  730TMC3    C610790   4.352   2.180  17.337  0.0850  0.1294  0.0314
  730TMC3     C10791   4.045   1.970  17.196  0.3385 -0.3678  0.0974
  730TMC3     O10792   3.932   2.014  17.194  0.1562  0.0907  0.2853
  730TMC3     H10793   4.298   1.872  17.222 -1.4602 -0.5641 -0.2939
  730TMC3    H110794   4.018   2.162  17.353  0.2377  1.7723 -2.2438
  730TMC3    H210795   4.439   2.238  17.363  0.6677 -0.9379  0.4680
  730TMC3    C710796   4.196   2.347  17.318 -0.2922  0.5585 -0.8526
  730TMC3    C810797   4.442   2.070  17.152 -0.4368  0.3051  0.3211
  730TMC3    O110798   4.144   2.358  17.209  0.0847  0.3143  0.2642
  730TMC3    O210799   4.411   1.983  17.066  0.4188 -0.4026  0.5405
  731MPD2     C10800   0.112   4.616  11.995  0.0736  0.1775  0.2088
  731MPD2    C110801   0.145   0.006  12.061  0.2784 -0.8376  0.9827
  731MPD2    C210802   0.251   4.723  12.148 -0.5552  0.1395  0.3087
  731MPD2    C310803   0.319   4.605  12.173  0.2999 -0.5861  0.2128
  731MPD2    C410804   0.291   4.500  12.092  0.1068 -0.2029 -0.4812
  731MPD2    C510805   0.188   4.503  12.002  0.1902  0.2809  0.5015
  731MPD2     H10806   0.274   0.083  12.209  0.9181  0.4227 -0.6439
  731MPD2    H110807   0.351   4.411  12.099  2.2974  1.1722 -1.6516
  731MPD2    H210808   0.025   4.614  11.929  0.0072  1.0797  0.2686
  731MPD2    H310809   0.163   4.410  11.953 -0.5237  0.7505 -0.0203
  731MPD2     N10810   0.412   4.596  12.279 -0.6858 -0.3738  0.4019
  731MPD2    H510811   0.416   4.672  12.346  2.3604 -0.6082  0.5219
  731MPD2    N110812   0.071   0.123  12.025 -0.1572 -0.3327 -0.6575
  731MPD2    H710813   4.724   0.119  11.955 -1.0334  1.8694  0.1327
  732TMC3    C110814   0.009   0.353  12.037 -0.3097  0.0200 -0.1302
  732TMC3    C210815   4.636   0.330  11.946 -0.0900  0.3497  0.1176
  732TMC3    C310816   4.599   0.434  11.869 -0.2131  0.3158 -0.0292
  732TMC3    C410817   0.055   0.484  12.061  0.2378  0.1649  0.4130
  732TMC3    C510818   0.009   0.587  11.981 -0.1918 -0.4858 -0.3057
  732TMC3    C610819   4.640   0.564  11.890  0.8323  0.7340 -0.7988
  732TMC3     C10820   0.081   0.242  12.095  0.3396 -0.0946  0.4350
  732TMC3     O10821   0.161   0.273  12.183 -0.0783 -0.2661  0.2344
  732TMC3     H10822   4.590   0.232  11.930  0.8599 -0.0383 -0.2370
  732TMC3    H110823   0.132   0.508  12.133 -0.6344 -1.7246  1.9724
  732TMC3    H210824   4.599   0.643  11.829 -2.2130  1.2085  1.9054
  732TMC3    C710825   0.007   0.721  12.037 -0.0174 -0.0670 -0.2651
  732TMC3    C810826   4.477   0.429  11.792 -0.4053 -0.8033 -0.5999
  732TMC3    O110827   4.632   0.789  12.009  0.8126 -0.1468 -0.1203
  732TMC3    O210828   4.463   0.501  11.697 -0.6060 -0.2868 -0.2289
  733TMC3    C110829   0.565   2.874  12.412 -0.2364  0.2211  0.3415
  733TMC3    C210830   0.700   2.871  12.427 -0.0752 -0.0498 -0.1242
  733TMC3    C310831   0.784   2.895  12.322 -0.7111 -0.0280  0.4641
  733TMC3    C410832   0.508   2.932  12.303 -0.9301 -0.5277 -0.1498
  733TMC3    C510833   0.597   2.977  12.207 -0.3016  0.3310 -0.0312
  733TMC3    C610834   0.731   2.944  12.209 -0.1658 -0.6148 -0.0883
  733TMC3     C10835   0.468   2.837  12.522  0.3238  0.2089 -0.1642
  733TMC3     O10836   0.349   2.841  12.498  0.0158  0.3883  0.0193
  733TMC3     H10837   0.740   2.835  12.521 -2.4038  0.6448  1.1418
  733TMC3    H110838   0.404   2.961  12.297 -0.5218  0.4399 -2.4559
  733TMC3    H210839   0.806   2.992  12.146 -0.3155 -0.9805 -0.5462
  733TMC3    C710840   0.570   3.105  12.151 -0.9383 -0.1276 -0.5574
  733TMC3    C810841   0.910   2.961  12.346 -0.1297 -0.9063  0.1682
  733TMC3    O110842   0.582   3.122  12.027  0.0723  0.1824  0.2885
  733TMC3    O210843   0.999   2.956  12.260  0.8230  0.3559 -0.3180
  734MPD2     C10844   2.579   0.476  12.473 -0.2934  0.3595  0.0517
  734MPD2    C110845   2.507   0.416  12.375  0.6107  0.6085 -0.1064
  734MPD2    C210846   2.515   0.468  12.247  1.0208 -0.1358 -0.7425
  734MPD2    C310847   2.603   0.574  12.218 -0.1382  0.4933 -0.3304
  734MPD2    C410848   2.686   0.621  12.319  0.0229 -0.3486  0.3661
  734MPD2    C510849   2.665   0.576  12.445  0.0877 -0.4532  0.6474
  734MPD2     H10850   2.466   0.423  12.162 -1.7702  2.2854 -0.4453
  734MPD2    H110851   2.745   0.709  12.294  1.3000 -1.5508 -0.8727
  734MPD2    H210852   2.563   0.438  12.573  1.7804 -4.7333 -1.5515
  734MPD2    H310853   2.722   0.622  12.525  1.0381 -1.2079  0.4167
  734MPD2     N10854   2.604   0.620  12.084  0.0822  0.3317  0.0821
  734MPD2    H510855   2.532   0.582  12.023  2.3342 -1.1544 -1.6356
  734MPD2    N110856   2.459   0.285  12.402 -0.4865  0.2954  0.2513
  734MPD2    H710857   2.473   0.250  12.496  0.0400  0.8302  0.3730
  735TMC3    C110858   2.398   0.057  12.353  0.2859  0.7912  0.3236
  735TMC3    C210859   2.317   4.704  12.277 -0.2966  0.3800 -0.0865
  735TMC3    C310860   2.375   4.589  12.217  0.0537 -0.2241  0.1946
  735TMC3    C410861   2.513   4.725  12.396  0.2493 -0.0252  0.4353
  735TMC3    C510862   2.562   4.611  12.344 -1.4129  0.0343  0.5057
  735TMC3    C610863   2.487   4.532  12.264  0.3256 -0.6333 -0.6565
  735TMC3     C10864   2.410   0.189  12.305 -0.5737 -0.2006 -0.1846
  735TMC3     O10865   2.387   0.205  12.183 -0.8000 -0.1239  0.1977
  735TMC3     H10866   2.228   0.016  12.228 -1.5631 -0.2268  1.7690
  735TMC3    H110867   2.567   0.064  12.465 -0.3090  0.1309  0.7235
  735TMC3    H210868   2.532   4.450  12.208  0.9216  0.1084 -1.2666
  735TMC3    C710869   2.707   4.608  12.321  0.1528 -0.4529  0.0349
  735TMC3    C810870   2.378   4.579  12.072  0.1251 -0.2055  0.5715
  735TMC3    O110871   2.742   4.584  12.206 -0.2383  0.0840  0.0032
  735TMC3    O210872   2.413   4.472  12.027  0.3079 -0.0666  0.0914
  736MPD2     C10873   2.930   0.077  12.543  0.2853 -0.2000  0.5045
  736MPD2    C110874   2.901   0.003  12.431  0.3401  0.2120  0.2751
  736MPD2    C210875   2.983   0.015  12.316 -1.0479 -0.0461  0.0277
  736MPD2    C310876   3.098   0.090  12.320  1.3385  0.1753  0.3063
  736MPD2    C410877   3.127   0.157  12.434 -0.3035  0.1007 -0.9872
  736MPD2    C510878   3.051   0.150  12.550  0.0247  0.5856 -0.4059
  736MPD2     H10879   2.952   4.705  12.219 -1.8599 -1.1569  0.6932
  736MPD2    H110880   3.222   0.210  12.434 -0.2331 -0.0304 -1.8389
  736MPD2    H210881   2.863   0.083  12.628 -0.8693 -0.3405 -0.3881
  736MPD2    H310882   3.078   0.206  12.639  1.0088 -1.1748  0.3935
  736MPD2     N10883   3.184   0.114  12.213 -0.6091  0.0611 -0.1928
  736MPD2    H510884   3.257   0.184  12.219  0.7964 -1.5657  1.7584
  736MPD2    N110885   2.771   4.679  12.423  0.4416 -0.0370  0.5307
  736MPD2    H710886   2.718   4.698  12.507 -1.1278  1.0729 -0.7108
  737TMC3    C110887   3.277   0.097  11.983 -0.2583 -0.0072  0.1678
  737TMC3    C210888   3.308   0.228  11.966  0.0676  0.4596  0.2702
  737TMC3    C310889   3.413   0.259  11.875  0.0235 -0.1676  0.2297
  737TMC3    C410890   3.347   4.720  11.929 -0.3325  0.2224  0.0278
  737TMC3    C510891   3.437   0.030  11.828 -0.1187 -0.3764  0.0702
  737TMC3    C610892   3.470   0.160  11.806  0.3931  0.0722 -0.6262
  737TMC3     C10893   3.181   0.057  12.088  0.6372  0.0508 -0.2609
  737TMC3     O10894   3.102   4.696  12.053 -0.5362  0.6168 -0.0863
  737TMC3     H10895   3.247   0.308  12.007  0.8291  1.5548 -0.7132
  737TMC3    H110896   3.314   4.618  11.944 -2.4968  0.8602 -0.2520
  737TMC3    H210897   3.543   0.195  11.734 -0.5859  0.3556 -1.4779
  737TMC3    C710898   3.509   4.642  11.776  0.2227  0.1915 -0.0472
  737TMC3    C810899   3.393   0.388  11.816 -0.0412  0.4031 -0.8743
  737TMC3    O110900   3.500   4.535  11.836 -0.0750  0.0752  0.3401
  737TMC3    O210901   3.360   0.476  11.893  0.3107  0.3697  0.1562
  738MPD2     C10902   2.728   4.149  14.976 -0.2531 -0.0918  0.0675
  738MPD2    C110903   2.783   4.074  15.081  0.4637 -0.2004  0.1506
  738MPD2    C210904   2.907   4.108  15.130  0.1618  0.3198  0.2294
  738MPD2    C310905   2.982   4.209  15.071  0.1638 -0.0550  0.0510
  738MPD2    C410906   2.933   4.275  14.960 -0.1340  0.5012 -0.5394
  738MPD2    C510907   2.805   4.247  14.914 -0.0465 -0.6615  0.0759
  738MPD2     H10908   2.948   4.054  15.215  2.4061 -1.3647 -1.9228
  738MPD2    H110909   2.994   4.353  14.916  2.4654 -1.9971 -1.3646
  738MPD2    H210910   2.636   4.122  14.925  0.3278 -1.7268 -0.1239
  738MPD2    H310911   2.775   4.303  14.827  0.6607 -1.6708 -0.8223
  738MPD2     N10912   3.113   4.239  15.113  0.0987  0.2165  0.4833
  738MPD2    H510913   3.152   4.328  15.083  1.5440 -0.5343  0.1716
  738MPD2    N110914   2.712   3.960  15.122 -0.1641  0.8891  0.5694
  738MPD2    H710915   2.773   3.894  15.170 -3.0291 -2.2879 -0.1539
  739TMC3    C110916   3.305   4.265  15.241  0.5859  0.1910  0.2798
  739TMC3    C210917   3.377   4.317  15.132  0.9504 -0.1500  0.8050
  739TMC3    C310918   3.482   4.399  15.164 -0.8615  0.2244 -0.0666
  739TMC3    C410919   3.313   4.312  15.369  0.2338 -0.2762  0.0627
  739TMC3    C510920   3.417   4.402  15.389 -0.6054  0.0557 -0.3753
  739TMC3    C610921   3.508   4.445  15.294  0.0761 -0.3583 -0.2438
  739TMC3     C10922   3.186   4.177  15.211 -0.0896  0.1694 -0.0577
  739TMC3     O10923   3.162   4.087  15.286  0.4570 -0.3360  0.7275
  739TMC3     H10924   3.360   4.281  15.031  2.6975 -2.6806  1.4128
  739TMC3    H110925   3.264   4.251  15.444 -0.0310 -0.0471  0.0748
  739TMC3    H210926   3.584   4.516  15.324  1.4586 -2.5496  1.4081
  739TMC3    C710927   3.431   4.446  15.522  0.1811  0.6257 -0.7273
  739TMC3    C810928   3.574   4.432  15.061  0.5675 -0.2807 -0.1399
  739TMC3    O110929   3.543   4.482  15.548  0.3024 -0.1591  0.0340
  739TMC3    O210930   3.536   4.411  14.946  0.2051 -0.5294 -0.1612
  740TMC3    C110931   3.972   0.684  14.346  0.5143 -0.0554  0.1674
  740TMC3    C210932   4.050   0.627  14.444  0.0095  0.8212 -0.6625
  740TMC3    C310933   4.164   0.562  14.407 -0.3289 -0.1404  0.3341
  740TMC3    C410934   4.023   0.707  14.219 -0.0136  0.7300  0.4026
  740TMC3    C510935   4.140   0.647  14.184 -0.2206  0.1908  0.0466
  740TMC3    C610936   4.203   0.567  14.273 -0.0749 -0.0177 -0.1022
  740TMC3     C10937   3.851   0.753  14.388  0.6352  0.2232  0.2238
  740TMC3     O10938   3.817   0.838  14.310  0.1210 -0.1240 -0.5209
  740TMC3     H10939   4.014   0.643  14.545  0.0477 -1.5373 -0.2736
  740TMC3    H110940   3.974   0.767  14.143 -1.3264  0.9910  1.4625
  740TMC3    H210941   4.295   0.516  14.247  0.2390  0.1089  0.7424
  740TMC3    C710942   4.185   0.631  14.045  0.5692  0.4529 -0.5930
  740TMC3    C810943   4.234   0.484  14.508  0.3556 -0.1668  0.9696
  740TMC3    O110944   4.269   0.542  14.021  0.4958  0.1333 -0.3390
  740TMC3    O210945   4.353   0.466  14.475 -0.7585 -0.1719 -0.5124
  741TMC3    C110946   3.513   0.178  14.648  0.3904  0.3183 -0.4257
  741TMC3    C210947   3.430   0.080  14.607  0.7156 -0.2404  0.3077
  741TMC3    C310948   3.402   4.704  14.701 -1.0717  0.1730  0.2984
  741TMC3    C410949   3.575   0.171  14.768  0.1631  0.2339  0.1492
  741TMC3    C510950   3.548   0.068  14.856  0.1028 -1.2926  0.0041
  741TMC3    C610951   3.452   4.701  14.827 -0.4988 -0.9524 -0.3802
  741TMC3     C10952   3.526   0.292  14.558 -0.0398 -0.1165 -0.6128
  741TMC3     O10953   3.630   0.357  14.568 -0.1606 -0.6438 -0.1490
  741TMC3     H10954   3.386   0.071  14.508  0.7671 -1.8775  0.4340
  741TMC3    H110955   3.640   0.252  14.797  0.6455  0.1472 -0.6667
  741TMC3    H210956   3.423   4.619  14.892  2.0492 -1.0199  0.6566
  741TMC3    C710957   3.601   0.087  14.989  0.4774  0.4847 -0.2915
  741TMC3    C810958   3.318   4.590  14.662  0.8648  0.1371  0.0362
  741TMC3    O110959   3.710   0.149  14.990  0.2010  0.4571 -0.2956
  741TMC3    O210960   3.230   4.623  14.587 -0.3421  0.1453  0.2655
  742TMC3    C110961   3.811   3.295  15.258  0.6752 -0.4020 -0.4773
  742TMC3    C210962   3.703   3.318  15.184  0.8225 -0.6212 -0.3212
  742TMC3    C310963   3.696   3.246  15.067  0.9576  0.0756 -0.0306
  742TMC3    C410964   3.925   3.237  15.211  0.2021  0.0087 -0.2732
  742TMC3    C510965   3.918   3.164  15.097  0.6002 -0.4829  0.2096
  742TMC3    C610966   3.802   3.166  15.027 -0.2229 -0.6198  0.8805
  742TMC3     C10967   3.787   3.313  15.401  0.1423 -0.4264 -0.1977
  742TMC3     O10968   3.722   3.410  15.445  0.5227 -0.0807  0.2589
  742TMC3     H10969   3.612   3.349  15.234 -0.3214 -2.1582 -1.4357
  742TMC3    H110970   4.017   3.234  15.269 -1.8840 -2.8749  2.9172
  742TMC3    H210971   3.795   3.098  14.943  1.0771  2.1293 -1.4887
  742TMC3    C710972   4.030   3.090  15.042  0.1576 -0.2500  0.1894
  742TMC3    C810973   3.570   3.225  14.995 -0.1390  0.5156 -0.1647
  742TMC3    O110974   4.013   2.990  14.977 -0.0358 -0.5866  0.1544
  742TMC3    O210975   3.565   3.140  14.904 -0.0052 -0.2510 -0.4754
  743MPD2     C10976   2.189   4.391   2.033  0.1288 -0.0070  0.0863
  743MPD2    C110977   2.221   4.328   1.913 -1.1366 -0.0901 -0.4644
  743MPD2    C210978   2.351   4.313   1.876  0.7834 -0.0400 -0.3038
  743MPD2    C310979   2.452   4.357   1.962 -0.4296 -0.6346  0.1706
  743MPD2    C410980   2.429   4.416   2.083 -0.2505 -0.3407 -0.6238
  743MPD2    C510981   2.296   4.427   2.118  0.1549  0.2322 -0.8306
  743MPD2     H10982   2.381   4.261   1.786 -2.2758 -2.6036  0.1848
  743MPD2    H110983   2.505   4.450   2.152 -0.9120  0.9879 -0.5564
  743MPD2    H210984   2.085   4.400   2.060  0.0922  0.9200 -0.3629
  743MPD2    H310985   2.267   4.476   2.210  0.7107 -2.7162  0.9305
  743MPD2     N10986   2.584   4.341   1.912  0.6764 -0.1017 -0.2279
  743MPD2    H510987   2.595   4.299   1.820  0.8987 -0.9557  0.1822
  743MPD2    N110988   2.114   4.290   1.835  0.1304 -0.0584 -0.3673
  743MPD2    H710989   2.025   4.317   1.876 -1.2260  0.2800 -3.5080
  744TMC3    C110990   1.984   4.229   1.647 -0.4076 -0.3340  0.0201
  744TMC3    C210991   1.875   4.241   1.731 -0.5249  0.4832  0.2512
  744TMC3    C310992   1.749   4.227   1.689  0.0449 -0.7292 -0.0743
  744TMC3    C410993   1.967   4.175   1.521 -0.4426  0.2613  0.3552
  744TMC3    C510994   1.840   4.145   1.485  0.2573  0.5756  0.5654
  744TMC3    C610995   1.728   4.184   1.559 -0.3773  0.5097 -0.9389
  744TMC3     C10996   2.116   4.241   1.705 -0.0440 -0.3036  0.0388
  744TMC3     O10997   2.214   4.205   1.640 -0.3032  0.1387  0.7724
  744TMC3     H10998   1.888   4.258   1.838 -0.9651 -0.8474  0.5181
  744TMC3    H110999   2.049   4.132   1.465 -1.2976 -0.4220 -0.3559
  744TMC3    H211000   1.624   4.172   1.533 -0.7547 -1.5988  1.4961
  744TMC3    C711001   1.797   4.096   1.352 -0.6118  0.4552 -0.0556
  744TMC3    C811002   1.642   4.321   1.741 -0.0076  0.1219  0.3586
  744TMC3    O111003   1.684   4.048   1.341 -0.1531 -0.0144  0.2920
  744TMC3    O211004   1.581   4.383   1.655 -0.7947 -0.1290 -0.5179
  745TMC3    C111005   4.459   3.215  13.924 -0.2495  0.1662  1.0516
  745TMC3    C211006   4.397   3.216  14.044  0.9151 -0.2156 -0.5574
  745TMC3    C311007   4.259   3.206  14.032 -0.2077  0.4497 -0.3033
  745TMC3    C411008   4.402   3.216  13.800  0.1297 -0.0994 -1.0383
  745TMC3    C511009   4.269   3.193  13.788  0.1163 -0.2243 -0.3496
  745TMC3    C611010   4.199   3.192  13.911 -0.9976  0.5091  0.3202
  745TMC3     C11011   4.595   3.246  13.933 -0.2678 -1.0463  0.4992
  745TMC3     O11012   4.653   3.228  14.036  0.3945  0.5766  0.1973
  745TMC3     H11013   4.450   3.220  14.139  0.1232 -0.0519 -0.1191
  745TMC3    H111014   4.471   3.219  13.716  3.6472  0.1088  1.8692
  745TMC3    H211015   4.093   3.213  13.900 -0.9505 -0.2678 -1.5562
  745TMC3    C711016   4.196   3.247  13.672 -0.2320 -0.1925  0.4840
  745TMC3    C811017   4.188   3.281  14.135 -0.4779 -0.4116 -0.0942
  745TMC3    O111018   4.089   3.292  13.695 -0.3509 -0.2282  0.0826
  745TMC3    O211019   4.063   3.269  14.139 -0.1211  0.5122  0.0210
  746TMC3    C111020   1.392   4.450  10.851 -0.2061 -0.7047 -0.8603
  746TMC3    C211021   1.360   4.428  10.714 -0.0430  0.0940  0.0741
  746TMC3    C311022   1.234   4.380  10.679  0.0472  0.4437 -0.1904
  746TMC3    C411023   1.284   4.413  10.941 -0.9058 -0.2825  0.2754
  746TMC3    C511024   1.159   4.375  10.901 -0.0477  0.0841 -0.1464
  746TMC3    C611025   1.137   4.358  10.769 -1.2086 -0.5374 -0.3934
  746TMC3     C11026   1.474   4.568  10.887 -0.7764 -0.3101 -0.6736
  746TMC3     O11027   1.470   4.605  11.004 -0.0986 -0.2671  0.0741
  746TMC3     H11028   1.443   4.443  10.646 -0.4185 -3.9641 -1.2250
  746TMC3    H111029   1.303   4.443  11.043 -0.2938 -0.7268  0.2872
  746TMC3    H211030   1.036   4.346  10.730 -1.9502 -2.5556  2.1905
  746TMC3    C711031   1.049   4.411  10.977  0.0979 -0.7051 -0.2792
  746TMC3    C811032   1.182   4.453  10.564  0.3074  0.8873  0.8083
  746TMC3    O111033   0.947   4.437  10.914  0.3029 -0.1515  0.6306
  746TMC3    O211034   1.078   4.418  10.502  0.2948 -0.0118 -0.1789
  747TMC3    C111035   4.191   4.681  10.988 -0.3227  0.1709  0.5004
  747TMC3    C211036   4.104   4.605  11.063 -0.0807  0.5316 -0.0978
  747TMC3    C311037   4.087   4.636  11.193 -0.2878  0.1625  0.4563
  747TMC3    C411038   4.272   0.051  11.044 -1.1357  0.4557  0.7127
  747TMC3    C511039   4.257   0.076  11.173 -0.7863 -0.2321  0.0754
  747TMC3    C611040   4.162   0.004  11.249 -0.1599 -0.0678 -0.1968
  747TMC3     C11041   4.229   4.643  10.855  0.6436  0.4061 -0.1853
  747TMC3     O11042   4.342   4.675  10.820  0.3451  0.3943 -0.0186
  747TMC3     H11043   4.049   4.519  11.026 -0.1483  0.3256  0.4653
  747TMC3    H111044   4.356   0.089  10.986 -0.2191 -0.0735  1.7114
  747TMC3    H211045   4.152   0.014  11.357 -0.3866  0.7245 -0.2874
  747TMC3    C711046   4.298   0.201  11.233  0.3875  0.7857 -0.2579
  747TMC3    C811047   4.004   4.542  11.272  0.6428 -0.7357 -0.2355
  747TMC3    O111048   4.269   0.216  11.351  0.1422  0.0634 -0.5586
  747TMC3    O211049   3.981   4.433  11.221  0.5987 -0.0697  0.4644
  748MPD2     C11050   0.069   0.678   1.776 -0.1297 -0.4701  0.2037
  748MPD2    C111051   0.107   0.594   1.672 -0.2038 -0.0185  0.6257
  748MPD2    C211052   0.240   0.559   1.670  0.1851  0.0434 -0.0690
  748MPD2    C311053   0.332   0.592   1.770  0.3585 -0.2601  0.3470
  748MPD2    C411054   0.283   0.673   1.876  0.6384  0.0516  0.7509
  748MPD2    C511055   0.146   0.708   1.882 -0.8400 -0.0206 -0.8799
  748MPD2     H11056   0.276   0.498   1.587  0.1875 -0.9811  0.6859
  748MPD2    H111057   0.344   0.710   1.957 -1.4935  0.1217  2.3239
  748MPD2    H211058   4.696   0.721   1.781 -0.5117 -1.3182 -0.1801
  748MPD2    H311059   0.107   0.748   1.975  0.5168 -0.9814  0.1004
  748MPD2     N11060   0.466   0.554   1.754  0.2618 -0.1970 -0.0663
  748MPD2    H511061   0.482   0.492   1.676 -2.4135  0.9012 -1.4734
  748MPD2    N111062   0.006   0.559   1.583  0.0573  0.6702  0.3172
  748MPD2    H711063   4.643   0.607   1.590 -0.6832 -0.8094  0.9304
  749TMC3    C111064   0.699   0.560   1.795  0.8264 -0.3756  0.5488
  749TMC3    C211065   0.802   0.530   1.878  0.3751  0.2030  0.1072
  749TMC3    C311066   0.926   0.496   1.829 -0.7933 -0.3045 -1.0313
  749TMC3    C411067   0.724   0.570   1.656 -0.1469  0.4282 -0.0731
  749TMC3    C511068   0.849   0.532   1.606  0.0385 -0.3862 -0.3661
  749TMC3    C611069   0.953   0.490   1.690  0.3365  0.8103  0.4160
  749TMC3     C11070   0.564   0.585   1.846 -0.1438 -0.6022 -0.0203
  749TMC3     O11071   0.554   0.625   1.964  0.6059 -0.1229 -0.1474
  749TMC3     H11072   0.787   0.530   1.986 -1.2707 -0.8416 -0.1310
  749TMC3    H111073   0.642   0.604   1.595 -1.5118 -2.2604  0.2356
  749TMC3    H211074   1.043   0.436   1.662  0.9851  1.4247  1.3255
  749TMC3    C711075   0.870   0.571   1.471  0.4997 -0.8034 -0.0082
  749TMC3    C811076   1.019   0.448   1.934  0.1927 -0.8734 -0.7498
  749TMC3    O111077   0.785   0.640   1.424  0.4224 -0.4515 -0.4477
  749TMC3    O211078   0.977   0.434   2.048 -0.0011 -0.3082 -0.2637
  750MPD2     C11079   1.966   1.873  11.218 -0.3271  0.0842  0.1807
  750MPD2    C111080   1.832   1.868  11.214  0.3556  0.4703 -0.3393
  750MPD2    C211081   1.766   1.745  11.185 -0.1932 -0.3480  0.2026
  750MPD2    C311082   1.834   1.630  11.156  0.0696  0.1371  0.7051
  750MPD2    C411083   1.972   1.641  11.148 -0.5441  0.2585 -0.1327
  750MPD2    C511084   2.031   1.759  11.182  0.3414  0.1202 -0.5778
  750MPD2     H11085   1.659   1.745  11.200  0.0128 -1.5423  1.5510
  750MPD2    H111086   2.032   1.554  11.126  1.5058  0.8999  2.9424
  750MPD2    H211087   2.018   1.965  11.243 -0.9857  0.3879  0.4506
  750MPD2    H311088   2.139   1.758  11.186  0.2915 -1.4233  0.2791
  750MPD2     N11089   1.776   1.507  11.124  0.1566  0.0902 -0.3615
  750MPD2    H511090   1.837   1.431  11.098  1.4669  0.8371  0.5355
  750MPD2    N111091   1.763   1.994  11.243  0.0511  0.3842  0.0853
  750MPD2    H711092   1.824   2.068  11.277 -3.1447  2.9699  0.2508
  751TMC3    C111093   1.592   1.355  11.075 -0.4573 -0.5456 -0.4742
  751TMC3    C211094   1.464   1.324  11.096 -1.3890 -0.7212  0.5384
  751TMC3    C311095   1.399   1.234  11.012 -0.2959 -0.6092  0.7221
  751TMC3    C411096   1.659   1.303  10.968 -0.4815 -0.8679 -0.1814
  751TMC3    C511097   1.588   1.206  10.893 -0.3638  0.5946 -0.5525
  751TMC3    C611098   1.458   1.175  10.905 -0.2725  0.5848 -0.3825
  751TMC3     C11099   1.640   1.481  11.129 -0.1712 -0.2663 -0.5268
  751TMC3     O11100   1.546   1.560  11.151 -0.4664  0.5210 -0.1958
  751TMC3     H11101   1.405   1.377  11.170  0.4851  1.2713  0.6187
  751TMC3    H111102   1.759   1.332  10.938  0.1611 -1.9319  0.9123
  751TMC3    H211103   1.398   1.109  10.843 -0.8180  2.4588 -1.8228
  751TMC3    C711104   1.656   1.147  10.776 -0.3930 -0.3816  0.1086
  751TMC3    C811105   1.260   1.214  11.048  0.1860  0.6203  0.0776
  751TMC3    O111106   1.756   1.200  10.729  0.6966  0.5666 -0.0751
  751TMC3    O211107   1.224   1.099  11.036  0.8269  0.0921 -0.6293
  752TMC3    C111108   0.308   2.157  17.290  0.3651  0.2310  0.1570
  752TMC3    C211109   0.175   2.146  17.313 -0.2723 -0.3950 -0.0309
  752TMC3    C311110   0.128   2.179  17.438 -0.4992 -0.6790  0.2304
  752TMC3    C411111   0.394   2.209  17.384  0.3529  0.9994 -0.0579
  752TMC3    C511112   0.342   2.238  17.508 -0.8633 -0.3533  0.1818
  752TMC3    C611113   0.208   2.223  17.538  0.1424 -0.6232  0.3731
  752TMC3     C11114   0.362   2.143  17.151 -0.9033 -0.4594  0.0627
  752TMC3     O11115   0.468   2.202  17.130  0.1598  0.0349 -0.3502
  752TMC3     H11116   0.103   2.109  17.241  3.1758 -1.9646 -2.6646
  752TMC3    H111117   0.497   2.235  17.364  0.3865  0.9136  0.0022
  752TMC3    H211118   0.172   2.243  17.638  0.9528  1.1876  0.2927
  752TMC3    C711119   0.431   2.222  17.622 -0.0088  0.2251 -0.5988
  752TMC3    C811120   0.011   2.107  17.484  0.7295 -0.5254 -0.1609
  752TMC3    O111121   0.392   2.260   0.024  0.6095  0.1220 -0.4685
  752TMC3    O211122   4.675   2.044  17.399 -0.1135 -0.6883 -0.0365
  753TMC3    C111123   2.343   3.010  13.358  0.4083  0.6327 -0.1447
  753TMC3    C211124   2.361   2.967  13.485 -0.3878  0.0860 -0.3241
  753TMC3    C311125   2.348   2.839  13.519 -1.0416 -0.1536  0.1924
  753TMC3    C411126   2.303   2.929  13.259  0.0107  0.3859  0.1163
  753TMC3    C511127   2.297   2.794  13.293 -0.6696  0.4054 -0.1944
  753TMC3    C611128   2.315   2.749  13.420 -0.5122  0.0128  0.3129
  753TMC3     C11129   2.304   3.146  13.339  0.7428  0.1096  0.1580
  753TMC3     O11130   2.210   3.161  13.262  0.1544 -0.2631 -0.0560
  753TMC3     H11131   2.368   3.042  13.562  2.6730 -0.1458 -0.3761
  753TMC3    H111132   2.275   2.967  13.162 -1.3551 -1.1077 -0.0829
  753TMC3    H211133   2.281   2.651  13.452 -0.5278 -1.4086 -4.0586
  753TMC3    C711134   2.314   2.695  13.184 -0.1587 -0.0545 -0.5087
  753TMC3    C811135   2.288   2.825  13.649  0.0880  0.2718 -0.7060
  753TMC3    O111136   2.359   2.747  13.081 -0.0640 -0.2577 -0.3778
  753TMC3    O211137   2.191   2.749  13.652  0.6287 -0.2632  0.7635
  754MPD2     C11138   0.714   1.463  12.799 -0.0197 -0.1544  0.1335
  754MPD2    C111139   0.668   1.360  12.877 -0.0890  0.0198  0.2328
  754MPD2    C211140   0.572   1.387  12.978 -0.1203 -0.3536 -0.1033
  754MPD2    C311141   0.537   1.516  13.012  0.1619 -0.3274  1.1529
  754MPD2    C411142   0.592   1.625  12.942 -0.2741  0.6592  0.0314
  754MPD2    C511143   0.675   1.586  12.835  0.0544  0.2423  0.1032
  754MPD2     H11144   0.520   1.301  13.018 -1.8878  0.5884 -0.4091
  754MPD2    H111145   0.569   1.724  12.979  1.2989  0.8751  0.4584
  754MPD2    H211146   0.789   1.444  12.722 -1.1743 -2.1461 -0.5083
  754MPD2    H311147   0.725   1.669  12.787 -0.2876  0.0062 -0.6519
  754MPD2     N11148   0.452   1.545  13.121  0.5593 -0.3825  0.3098
  754MPD2    H511149   0.454   1.643  13.146 -0.4631 -0.5552  1.0866
  754MPD2    N111150   0.697   1.232  12.842 -0.2562  0.4264  0.0898
  754MPD2    H711151   0.740   1.232  12.750  2.7546 -1.8552  1.5107
  755MPD2     C11152   0.224   2.268  13.422  0.4882 -0.3098 -0.0453
  755MPD2    C111153   0.200   2.198  13.534  0.2970  0.0920  0.0376
  755MPD2    C211154   0.248   2.066  13.546 -0.3464 -0.3429  0.6762
  755MPD2    C311155   0.312   2.015  13.441  0.3999 -0.7290 -0.0816
  755MPD2    C411156   0.340   2.092  13.334  0.0662 -0.1471 -0.0927
  755MPD2    C511157   0.298   2.223  13.315 -0.7086 -0.3594  0.2109
  755MPD2     H11158   0.222   2.008  13.634  1.7770 -0.2175  1.3937
  755MPD2    H111159   0.399   2.055  13.251  2.0735 -5.1887  3.5690
  755MPD2    H211160   0.191   2.369  13.401  0.0902 -0.3702  0.3147
  755MPD2    H311161   0.324   2.288  13.233 -1.1310 -0.9177 -0.3650
  755MPD2     N11162   0.351   1.877  13.438 -0.8471 -0.1445 -0.0054
  755MPD2    H511163   0.379   1.835  13.350  2.7990 -1.6205  1.8752
  755MPD2    N111164   0.137   2.258  13.647  0.8266 -0.3960  0.1108
  755MPD2    H711165   0.114   2.200  13.727  2.4833 -2.2250 -0.7521
  756MPD2     C11166   1.410   2.335   9.604  0.3503 -0.7041 -0.1457
  756MPD2    C111167   1.353   2.238   9.680 -0.1809 -0.0318  0.7283
  756MPD2    C211168   1.276   2.144   9.622 -0.6338  0.2258 -0.9092
  756MPD2    C311169   1.252   2.145   9.490  0.7809 -0.1271  0.4953
  756MPD2    C411170   1.298   2.244   9.412  0.4124 -0.8857  0.2347
  756MPD2    C511171   1.382   2.339   9.468 -0.0297 -0.2120 -0.5305
  756MPD2     H11172   1.248   2.058   9.683 -1.8750  0.7805 -0.7028
  756MPD2    H111173   1.295   2.240   9.304  3.0662  0.5501  0.1126
  756MPD2    H211174   1.482   2.406   9.645  0.9404 -1.0603 -0.5626
  756MPD2    H311175   1.427   2.404   9.395 -1.1319  0.1323 -0.9101
  756MPD2     N11176   1.193   2.027   9.433 -0.0734  0.1587  0.3557
  756MPD2    H511177   1.181   1.940   9.484  1.7092 -0.0999  0.3390
  756MPD2    N111178   1.395   2.220   9.817 -0.0534 -0.4165 -0.3398
  756MPD2    H711179   1.345   2.142   9.859  3.1919 -2.0895  0.4242
  757MPD2     C11180   1.385   1.058   9.403 -0.3604 -0.0521  0.2247
  757MPD2    C111181   1.268   1.065   9.332  0.1678  0.3122 -0.3582
  757MPD2    C211182   1.230   1.184   9.281 -0.8825 -0.3985  0.3737
  757MPD2    C311183   1.298   1.296   9.317  0.6245  0.7612  0.3932
  757MPD2    C411184   1.412   1.295   9.398  0.1497  0.4136 -0.6654
  757MPD2    C511185   1.454   1.170   9.436 -0.1258 -0.0563  0.5249
  757MPD2     H11186   1.136   1.184   9.227 -0.3176 -4.0743 -0.5738
  757MPD2    H111187   1.462   1.386   9.429  2.1027 -1.1530  0.8095
  757MPD2    H211188   1.408   0.959   9.441 -1.1397 -0.1930  0.3400
  757MPD2    H311189   1.541   1.160   9.500 -1.4007  0.7963  2.4193
  757MPD2     N11190   1.243   1.424   9.271 -0.1060  0.6847 -0.0617
  757MPD2    H511191   1.153   1.425   9.224 -0.6315  2.4003  1.0016
  757MPD2    N111192   1.207   0.940   9.311 -0.6422 -0.3273 -0.3151
  757MPD2    H711193   1.239   0.857   9.361 -0.2281 -0.1192 -0.2279
  758MPD2     C11194   1.254   0.707  16.191  0.3875 -0.0226  0.7108
  758MPD2    C111195   1.352   0.758  16.267 -0.5834  0.1815 -0.0767
  758MPD2    C211196   1.325   0.867  16.350 -0.6889  0.6552  0.3773
  758MPD2    C311197   1.204   0.929  16.360 -0.0785 -0.2944  0.3115
  758MPD2    C411198   1.100   0.876  16.289  0.1575 -0.0188  0.0216
  758MPD2    C511199   1.126   0.767  16.203  0.3912  0.1568 -0.1826
  758MPD2     H11200   1.411   0.892  16.411 -0.9290 -1.4128  1.5460
  758MPD2    H111201   1.003   0.925  16.284  0.7422  1.1164 -0.0747
  758MPD2    H211202   1.269   0.632  16.114 -0.4187 -0.8383  1.3569
  758MPD2    H311203   1.045   0.733  16.139  1.0899  0.7473 -1.3642
  758MPD2     N11204   1.174   1.047  16.429  0.0034 -0.5364  0.4516
  758MPD2    H511205   1.076   1.072  16.419 -0.0146 -0.5575  0.5746
  758MPD2    N111206   1.478   0.700  16.286 -0.8012 -0.3254 -0.3531
  758MPD2    H711207   1.542   0.760  16.337 -1.4893  1.5073 -1.6658
  759MPD2     C11208   0.013   4.397   9.758 -0.7499  0.3604 -0.0171
  759MPD2    C111209   0.037   4.446   9.887  0.0957 -0.2655 -0.1479
  759MPD2    C211210   0.149   4.530   9.892 -0.4910  0.0222 -0.1917
  759MPD2    C311211   0.215   4.574   9.772 -0.9073 -0.0408 -0.0336
  759MPD2    C411212   0.175   4.527   9.649  0.1261  0.6461  0.4043
  759MPD2    C511213   0.072   4.434   9.647  0.0587  0.9426 -0.6077
  759MPD2     H11214   0.184   4.570   9.987 -0.0145  0.1109 -0.4047
  759MPD2    H111215   0.208   4.570   9.555 -2.8277  1.1311 -0.4133
  759MPD2    H211216   4.653   4.334   9.740 -0.6432 -0.1383  1.2211
  759MPD2    H311217   0.039   4.388   9.555  0.0668  0.8082 -0.5422
  759MPD2     N11218   0.307   4.685   9.773  0.2784  1.3030 -0.6943
  759MPD2    H511219   0.312   0.023   9.852  0.4174  0.1876  0.2039
  759MPD2    N111220   4.693   4.417  10.004  0.5349 -1.2392 -0.2131
  759MPD2    H711221   4.721   4.470  10.086 -1.3385  0.9614 -1.0017
  760MPD2     C11222   4.196   1.909  11.890  1.6698 -0.3696  0.4766
  760MPD2    C111223   4.331   1.917  11.923  0.6944 -0.6844 -0.3817
  760MPD2    C211224   4.374   1.838  12.033 -0.0972 -0.5052  0.4217
  760MPD2    C311225   4.282   1.765  12.107  0.2902 -0.2270 -0.3208
  760MPD2    C411226   4.151   1.765  12.070 -0.4145  0.9395  0.4579
  760MPD2    C511227   4.107   1.840  11.965  0.0704  0.3655 -0.7654
  760MPD2     H11228   4.481   1.841  12.052 -0.1735  1.7837  0.5658
  760MPD2    H111229   4.077   1.711  12.128 -0.0913 -1.6215 -1.5147
  760MPD2    H211230   4.151   1.956  11.804 -1.3638  0.1346  2.3280
  760MPD2    H311231   4.001   1.842  11.942 -0.1343  0.6713  0.1722
  760MPD2     N11232   4.319   1.692  12.224 -0.0465 -0.2663  0.1488
  760MPD2    H511233   4.241   1.638  12.260  0.9042 -1.3789  0.5563
  760MPD2    N111234   4.423   1.989  11.841  0.1779  0.0812 -0.3815
  760MPD2    H711235   4.523   1.990  11.859  0.1374 -2.5764 -0.0169
  761MPD2     C11236   0.818   1.359  11.256  0.3688  0.5970  0.3064
  761MPD2    C111237   0.858   1.227  11.227 -0.0177  0.4071 -0.3209
  761MPD2    C211238   0.980   1.222  11.169 -0.7523  0.4996 -0.0814
  761MPD2    C311239   1.062   1.335  11.129  0.9896  0.1305 -0.1597
  761MPD2    C411240   1.017   1.459  11.151  0.3957  0.3266 -0.4147
  761MPD2    C511241   0.896   1.470  11.221  0.1888 -0.1793 -0.1915
  761MPD2     H11242   1.012   1.124  11.134 -2.0906 -0.8095  2.4017
  761MPD2    H111243   1.069   1.552  11.130 -1.8179  2.1734  2.2390
  761MPD2    H211244   0.728   1.374  11.314  0.5484 -2.7184  1.4676
  761MPD2    H311245   0.874   1.574  11.244  0.3044 -0.4627  1.1955
  761MPD2     N11246   1.192   1.329  11.079 -0.1102 -0.5278  0.6164
  761MPD2    H511247   1.225   1.417  11.041  0.5095  0.3113  3.1346
  761MPD2    N111248   0.789   1.114  11.266  0.0448  0.8084 -0.1967
  761MPD2    H711249   0.816   1.022  11.232 -2.4772 -0.1107  0.2885
  762MPD2     C11250   0.885   0.926  10.870 -0.0589 -0.4549 -0.2391
  762MPD2    C111251   0.899   0.837  10.970 -0.2199 -0.3413  1.1662
  762MPD2    C211252   1.025   0.784  11.001  0.1126 -0.1257 -0.1171
  762MPD2    C311253   1.130   0.815  10.918 -0.1945 -0.0809 -0.1247
  762MPD2    C411254   1.119   0.916  10.818  0.0862 -0.6380  0.6214
  762MPD2    C511255   0.995   0.975  10.800 -0.3288  0.2673  0.0694
  762MPD2     H11256   1.043   0.718  11.084  0.3506 -0.1424 -0.1831
  762MPD2    H111257   1.197   0.942  10.747 -0.7652  0.9977  0.2651
  762MPD2    H211258   0.793   0.974  10.840  0.0303 -0.0569  0.1306
  762MPD2    H311259   0.986   1.045  10.717 -0.8423 -2.1478 -1.9078
  762MPD2     N11260   1.244   0.732  10.925  0.5146 -0.6875  0.2639
  762MPD2    H511261   1.240   0.655  10.991 -1.7380 -1.9758 -1.3748
  762MPD2    N111262   0.786   0.813  11.055  0.2944 -0.0230  0.0528
  762MPD2    H711263   0.707   0.876  11.046 -1.6878 -2.5080  0.0864
  763MPD2     C11264   3.039   1.482  16.272  0.7094  0.4246  0.0986
  763MPD2    C111265   2.935   1.507  16.186  0.3693  0.2222  0.3799
  763MPD2    C211266   2.849   1.624  16.201  0.6509 -0.0526 -0.3072
  763MPD2    C311267   2.871   1.709  16.307 -0.3021 -0.5805  0.4354
  763MPD2    C411268   2.964   1.670  16.401  0.1733 -0.1673  0.5992
  763MPD2    C511269   3.049   1.563  16.381  0.7660  0.3006 -0.7235
  763MPD2     H11270   2.756   1.631  16.146  0.6064 -0.0607 -0.2337
  763MPD2    H111271   2.975   1.719  16.497 -0.9506  0.4922  0.4007
  763MPD2    H211272   3.115   1.407  16.255  0.5475  0.6311 -1.5646
  763MPD2    H311273   3.117   1.538  16.461  1.0278 -0.8957 -1.3266
  763MPD2     N11274   2.779   1.814  16.320 -0.1085 -0.0366 -0.2587
  763MPD2    H511275   2.698   1.803  16.260  0.4813 -3.1508 -0.4816
  763MPD2    N111276   2.888   1.414  16.086  0.0400  0.3602  0.0895
  763MPD2    H711277   2.821   1.452  16.021 -0.6365  0.6701  0.9698
  764MPD2     C11278   1.576   2.493  17.395 -0.2800 -1.0029 -0.2205
  764MPD2    C111279   1.469   2.575  17.375 -0.2672 -0.4614  0.2505
  764MPD2    C211280   1.361   2.561  17.462 -0.2490  0.1003  0.1875
  764MPD2    C311281   1.351   2.458  17.556  0.5371  0.3295 -0.7717
  764MPD2    C411282   1.460   2.374  17.580  0.1206 -0.2703  0.0128
  764MPD2    C511283   1.571   2.401  17.499 -0.3336  0.9657 -0.5038
  764MPD2     H11284   1.272   2.621  17.448  0.6783  2.1587  3.0366
  764MPD2    H111285   1.470   2.292  17.650 -1.7653  0.5356  1.2146
  764MPD2    H211286   1.669   2.495  17.338 -0.3038 -0.3181 -0.2409
  764MPD2    H311287   1.660   2.340  17.508 -1.8019 -0.9749  0.7889
  764MPD2     N11288   1.242   2.465  17.648  0.2010  0.2430  0.2469
  764MPD2    H511289   1.177   2.543  17.640 -0.9764 -0.7735 -0.1552
  764MPD2    N111290   1.457   2.666  17.269  0.1053  0.1927  0.7896
  764MPD2    H711291   1.364   2.699  17.246 -0.2385 -1.5626 -0.2782
  765MPD2     C11292   0.417   0.341  16.050  0.3946 -0.1755  0.1276
  765MPD2    C111293   0.473   0.458  16.000  0.1214 -0.3089 -0.0913
  765MPD2    C211294   0.594   0.429  15.938  0.1358  0.1863 -0.3959
  765MPD2    C311295   0.655   0.306  15.924 -0.4013 -0.3513  0.4974
  765MPD2    C411296   0.597   0.200  15.984  0.2125  0.5786 -0.0463
  765MPD2    C511297   0.479   0.216  16.042 -1.0403 -0.1018 -0.2899
  765MPD2     H11298   0.644   0.510  15.888 -0.8565  1.3511  0.5084
  765MPD2    H111299   0.633   0.098  15.981  0.3284  0.6902 -2.4660
  765MPD2    H211300   0.328   0.347  16.111 -1.3123  0.9486 -2.4906
  765MPD2    H311301   0.427   0.137  16.093  0.3320 -0.5256  0.4451
  765MPD2     N11302   0.768   0.296  15.840 -0.4472 -0.0443 -0.5856
  765MPD2    H511303   0.791   0.373  15.778  0.2120  0.5513  0.3847
  765MPD2    N111304   0.413   0.586  16.013 -0.5284 -0.3378  0.7474
  765MPD2    H711305   0.314   0.587  16.038 -0.1202 -0.9388  2.3777
  766MPD2     C11306   4.619   0.611  15.553  0.4251 -0.1516  0.6871
  766MPD2    C111307   0.020   0.634  15.552 -0.1871 -0.3121  0.6988
  766MPD2    C211308   0.100   0.598  15.443 -0.0350  0.0048 -0.5110
  766MPD2    C311309   0.044   0.544  15.332 -0.3992  0.0681  0.4807
  766MPD2    C411310   4.634   0.521  15.334  0.2825 -0.1963  0.1990
  766MPD2    C511311   4.558   0.553  15.446 -0.1323  0.4718 -0.4254
  766MPD2     H11312   0.207   0.611  15.452  0.0758 -2.1069  1.1093
  766MPD2    H111313   4.591   0.479  15.244 -1.3792  0.1781  0.8100
  766MPD2    H211314   4.576   0.629  15.651 -0.9572 -1.6945  0.3589
  766MPD2    H311315   4.454   0.523  15.447  0.2572 -0.9309 -2.0917
  766MPD2     N11316   0.111   0.529  15.207  0.0037 -0.3399  0.0878
  766MPD2    H511317   0.065   0.521  15.118  0.8104 -0.3498 -0.3325
  766MPD2    N111318   0.075   0.702  15.667 -0.5648 -0.0785  0.6464
  766MPD2    H711319   0.014   0.718  15.746  2.3839  1.5726  2.6360
  767MPD2     C11320   4.500   0.888  15.265  0.8530 -0.3346 -0.1801
  767MPD2    C111321   4.629   0.874  15.209 -0.0926 -0.0620  0.6728
  767MPD2    C211322   4.635   0.831  15.081  0.0172  0.1051 -0.1898
  767MPD2    C311323   4.521   0.797  15.012 -0.3829 -0.4692  0.6164
  767MPD2    C411324   4.400   0.804  15.064  0.5102 -0.6577  0.4282
  767MPD2    C511325   4.395   0.839  15.195 -0.5448 -0.0359 -0.2083
  767MPD2     H11326   0.002   0.834  15.028  0.8821  1.9920  1.4207
  767MPD2    H111327   4.312   0.780  15.005 -0.8458  1.7993  1.4331
  767MPD2    H211328   4.479   0.911  15.369 -0.1886 -0.9084 -0.2598
  767MPD2    H311329   4.296   0.846  15.238 -0.6073  1.7014 -0.6187
  767MPD2     N11330   4.537   0.765  14.870  0.3334 -0.2226 -0.3492
  767MPD2    H511331   4.632   0.756  14.835  0.9070  0.3007  1.1082
  767MPD2    N111332   0.018   0.906  15.279 -0.3307 -0.7990  0.5398
  767MPD2    H711333   4.726   0.954  15.367  0.1144 -0.2440  0.3248
  768MPD2     C11334   0.672   4.138  10.856 -0.0053 -0.0301 -0.7264
  768MPD2    C111335   0.665   4.160  10.996  0.1098  0.4244 -0.3437
  768MPD2    C211336   0.773   4.138  11.080  0.0254 -0.4796  0.1053
  768MPD2    C311337   0.894   4.099  11.025  0.6341 -0.8630 -0.0326
  768MPD2    C411338   0.903   4.091  10.887  0.7062 -0.0710  0.6842
  768MPD2    C511339   0.798   4.115  10.806  0.8858 -0.8361  0.0085
  768MPD2     H11340   0.757   4.143  11.187  1.9476 -0.8631  0.4237
  768MPD2    H111341   0.999   4.080  10.838 -0.1699  2.2686 -1.5598
  768MPD2    H211342   0.587   4.136  10.788 -1.1272 -0.9533  0.6893
  768MPD2    H311343   0.807   4.098  10.699 -0.3065 -2.3236  0.1518
  768MPD2     N11344   1.008   4.068  11.102  0.5950 -0.5380 -0.2395
  768MPD2    H511345   1.087   4.060  11.039  1.3891 -2.0938  0.9733
  768MPD2    N111346   0.540   4.198  11.062 -1.0041  0.1750  0.0968
  768MPD2    H711347   0.533   4.180  11.162  1.6652 -0.6995  0.1273
  769MPD2     C11348   1.974   2.180  14.713  0.2087  0.7214 -0.6517
  769MPD2    C111349   1.902   2.145  14.821 -0.4308  0.1885  0.1279
  769MPD2    C211350   1.970   2.113  14.939  0.8339  0.1637 -0.5807
  769MPD2    C311351   2.109   2.131  14.947  0.6831 -0.3212  0.3003
  769MPD2    C411352   2.179   2.179  14.840 -0.3126  0.3577 -0.5322
  769MPD2    C511353   2.109   2.202  14.723 -0.2534  0.3117 -0.2992
  769MPD2     H11354   1.916   2.073  15.023  0.3301 -0.1384 -1.0524
  769MPD2    H111355   2.285   2.197  14.848 -0.5095  0.7827  1.2612
  769MPD2    H211356   1.919   2.194  14.620  0.7252 -0.1237 -1.0835
  769MPD2    H311357   2.163   2.222  14.631 -1.1798 -0.5484 -1.0317
  769MPD2     N11358   2.167   2.121  15.075  0.2088  0.3382  0.1956
  769MPD2    H511359   2.109   2.071  15.143 -1.8298 -0.3527 -2.0560
  769MPD2    N111360   1.759   2.140  14.805 -0.3588 -0.0551  0.2655
  769MPD2    H711361   1.731   2.168  14.712  3.1651  1.1962 -0.4442
  770MPD2     C11362   1.035   1.743  15.285  0.1766 -0.2836 -0.6529
  770MPD2    C111363   1.170   1.728  15.261 -0.1556 -0.3441 -0.3691
  770MPD2    C211364   1.236   1.825  15.198  0.0246  0.5168 -0.6431
  770MPD2    C311365   1.171   1.938  15.156  0.1296 -0.4091  0.1446
  770MPD2    C411366   1.044   1.964  15.195 -0.3783 -0.1331  0.3272
  770MPD2    C511367   0.975   1.866  15.265  0.0573 -0.5406  0.4815
  770MPD2     H11368   1.339   1.809  15.167  0.6927  1.6818  0.9635
  770MPD2    H111369   0.981   2.052  15.182  0.5925  0.6811  1.1697
  770MPD2    H211370   0.983   1.660  15.333  2.2755 -1.7037 -0.8224
  770MPD2    H311371   0.872   1.887  15.292 -0.4608  0.8352 -2.5415
  770MPD2     N11372   1.247   2.026  15.084  0.2913 -0.0434 -0.4244
  770MPD2    H511373   1.340   1.994  15.057  1.1388  1.7193  0.4474
  770MPD2    N111374   1.233   1.613  15.301  0.0704 -0.0686  0.0952
  770MPD2    H711375   1.174   1.531  15.316  0.8723 -0.3544  1.6201
  771MPD2     C11376   2.600   0.240  14.070 -0.8204 -0.3205  0.0325
  771MPD2    C111377   2.643   0.305  13.961 -0.0887 -0.4501 -0.0896
  771MPD2    C211378   2.663   0.226  13.850 -0.3776 -0.0599 -0.1458
  771MPD2    C311379   2.633   0.089  13.844  0.3746  0.3175  0.5605
  771MPD2    C411380   2.588   0.026  13.960  0.0614  0.2035 -0.6305
  771MPD2    C511381   2.571   0.102  14.076 -0.2750 -0.5694 -0.9973
  771MPD2     H11382   2.709   0.271  13.763  0.8364  1.3249  1.2202
  771MPD2    H111383   2.567   4.646  13.969 -3.8345  1.0311  0.2518
  771MPD2    H211384   2.576   0.298  14.158  0.7751 -0.4391  0.5632
  771MPD2    H311385   2.539   0.056  14.168 -0.0208  2.1469  0.4659
  771MPD2     N11386   2.630   0.028  13.719 -0.0718 -0.1917  1.7980
  771MPD2    H511387   2.647   0.090  13.641 -0.3574  0.0124  1.8972
  771MPD2    N111388   2.688   0.440  13.958 -0.0954  0.6882 -0.4348
  771MPD2    H711389   2.746   0.477  13.883  1.4635 -2.1893 -0.6393
  772MPD2     C11390   2.264   1.078  13.819 -0.6689 -0.1811 -0.0020
  772MPD2    C111391   2.289   1.005  13.941  0.2226 -0.4169  0.2577
  772MPD2    C211392   2.185   0.968  14.018 -0.0552 -0.6093 -0.1202
  772MPD2    C311393   2.056   0.982  13.971 -0.2776  0.2893  0.1749
  772MPD2    C411394   2.034   1.039  13.851 -0.6264  0.6834  0.6288
  772MPD2    C511395   2.132   1.088  13.776  0.1114 -0.5669 -0.4339
  772MPD2     H11396   2.211   0.927  14.115  2.2661  1.2777  0.0571
  772MPD2    H111397   1.931   1.048  13.819  0.3796  2.7705 -1.9961
  772MPD2    H211398   2.344   1.117  13.757 -1.3464 -0.9798 -1.3811
  772MPD2    H311399   2.128   1.142  13.682  1.1799 -2.2732 -1.4482
  772MPD2     N11400   1.938   0.948  14.046 -0.6900 -0.6050  0.3275
  772MPD2    H511401   1.852   0.955  13.992  0.6169  1.5899 -1.4939
  772MPD2    N111402   2.420   0.974  13.981 -0.3909  0.3627 -0.8356
  772MPD2    H711403   2.428   0.933  14.074 -0.9140 -0.0310 -0.9659
  773MPD2     C11404   1.611   1.826   0.472  0.4349 -0.6112 -0.2382
  773MPD2    C111405   1.586   1.708   0.404  0.4330  0.7654 -0.1876
  773MPD2    C211406   1.621   1.592   0.463  0.4445 -0.0438 -0.1875
  773MPD2    C311407   1.680   1.594   0.585 -0.1708 -0.7573  0.7206
  773MPD2    C411408   1.699   1.708   0.659  0.3834  0.5825 -0.0256
  773MPD2    C511409   1.662   1.823   0.602 -0.0144  0.6744  0.2586
  773MPD2     H11410   1.607   1.497   0.412 -1.7334 -0.0910  0.4719
  773MPD2    H111411   1.740   1.704   0.760  1.9304  2.7663 -0.5777
  773MPD2    H211412   1.585   1.922   0.429 -3.1373 -1.3105  0.3473
  773MPD2    H311413   1.679   1.918   0.650  0.4244 -0.5037  2.4551
  773MPD2     N11414   1.720   1.461   0.626 -0.3885 -0.0985 -0.3943
  773MPD2    H511415   1.689   1.386   0.565 -1.0114 -0.7295  0.6848
  773MPD2    N111416   1.514   1.702   0.281 -0.5416  0.1603  0.5782
  773MPD2    H711417   1.506   1.612   0.234  0.9356  0.5068 -0.3460
  774MPD2     C11418   0.202   0.773  13.732 -0.5468 -0.4429  0.4527
  774MPD2    C111419   0.337   0.780  13.758 -0.2673  0.0308 -0.1235
  774MPD2    C211420   0.420   0.838  13.661 -0.3901  0.5493 -0.9119
  774MPD2    C311421   0.364   0.898  13.547  0.0408  0.5958 -0.0772
  774MPD2    C411422   0.230   0.887  13.529 -0.0694  0.3607  0.1684
  774MPD2    C511423   0.145   0.822  13.613 -0.8274 -0.3687 -0.2903
  774MPD2     H11424   0.526   0.852  13.678 -0.3368  1.2203 -1.7792
  774MPD2    H111425   0.179   0.936  13.447 -0.4983 -1.2726 -0.5307
  774MPD2    H211426   0.131   0.732  13.803  0.7816 -0.3381  1.8422
  774MPD2    H311427   0.040   0.832  13.589 -0.6557  2.6500  0.2800
  774MPD2     N11428   0.449   0.954  13.445 -0.7247  0.7800  0.7439
  774MPD2    H511429   0.546   0.963  13.475 -0.0660  4.3589 -2.4398
  774MPD2    N111430   0.380   0.742  13.888  0.4716 -0.6197  0.7475
  774MPD2    H711431   0.311   0.699  13.949 -1.6552  1.1535 -0.3608
  775MPD2     C11432   2.377   1.928  15.808  0.4563  0.3236 -0.3300
  775MPD2    C111433   2.315   2.053  15.823 -0.2721 -0.2846  0.7027
  775MPD2    C211434   2.395   2.162  15.799  0.9088  0.3204 -1.0281
  775MPD2    C311435   2.525   2.160  15.747 -0.4568 -0.1534  0.6619
  775MPD2    C411436   2.565   2.032  15.711 -0.7022  0.2161  0.2590
  775MPD2    C511437   2.497   1.917  15.745  0.1880 -0.5810  0.5935
  775MPD2     H11438   2.357   2.257  15.834 -0.2497 -1.1161  1.6407
  775MPD2    H111439   2.658   2.027  15.654 -2.2237 -0.4135 -2.1660
  775MPD2    H211440   2.322   1.840  15.839  0.7611  0.7987  1.5876
  775MPD2    H311441   2.545   1.824  15.719 -1.6848 -0.8068 -1.9278
  775MPD2     N11442   2.608   2.279  15.730 -0.3774  0.1986 -0.4057
  775MPD2    H511443   2.692   2.267  15.674 -0.6156 -2.6474 -0.1401
  775MPD2    N111444   2.184   2.063  15.885  1.0909  0.0759 -0.1067
  775MPD2    H711445   2.145   1.980  15.928  0.3107  0.5972  0.1784
  776MPD2     C11446   1.796   2.573  11.768  0.1929 -1.3575  0.4768
  776MPD2    C111447   1.821   2.576  11.631 -0.2434 -0.3230  0.6596
  776MPD2    C211448   1.887   2.682  11.570  0.8849 -0.0130  0.1189
  776MPD2    C311449   1.948   2.778  11.642  0.3054  0.1447 -0.8875
  776MPD2    C411450   1.924   2.774  11.777  0.6833  1.2684  0.1206
  776MPD2    C511451   1.842   2.685  11.840 -0.2046 -0.1206 -0.4947
  776MPD2     H11452   1.878   2.686  11.462 -0.9548 -0.0746  0.2817
  776MPD2    H111453   1.951   2.860  11.838 -1.7152  0.9815  1.6072
  776MPD2    H211454   1.728   2.504  11.816 -1.1294 -2.0503 -2.4391
  776MPD2    H311455   1.812   2.705  11.942 -1.0222  0.1511 -0.7934
  776MPD2     N11456   2.040   2.870  11.589  0.1755 -0.5021 -0.2480
  776MPD2    H511457   2.102   2.916  11.655  0.6430  0.0560 -1.0684
  776MPD2    N111458   1.766   2.465  11.569 -0.4517 -0.0392 -0.1718
  776MPD2    H711459   1.707   2.407  11.627  0.9616 -1.4853 -0.1717
  777MPD2     C11460   1.580   0.260   1.084  0.8855  0.3492  0.4665
  777MPD2    C111461   1.696   0.201   1.130  0.4541  0.3930 -0.6130
  777MPD2    C211462   1.760   0.111   1.046  0.3756 -0.4433  0.0717
  777MPD2    C311463   1.733   0.101   0.911 -0.2144 -0.2739 -0.2045
  777MPD2    C411464   1.632   0.188   0.863  0.4816  0.0794  0.3850
  777MPD2    C511465   1.551   0.264   0.949  0.2934  0.5084 -0.2870
  777MPD2     H11466   1.839   0.050   1.088 -0.3432  0.4254  2.6565
  777MPD2    H111467   1.622   0.187   0.755  1.6032  0.7146  0.2763
  777MPD2    H211468   1.511   0.312   1.149  0.5021  0.3857  0.0347
  777MPD2    H311469   1.464   0.318   0.914 -0.4062 -0.9369 -0.7877
  777MPD2     N11470   1.812   0.010   0.843 -0.4420 -0.0098 -0.1892
  777MPD2    H511471   1.872   4.681   0.902 -1.3762  0.5170  1.2670
  777MPD2    N111472   1.722   0.218   1.266 -0.2071  0.3441 -0.0226
  777MPD2    H711473   1.661   0.276   1.322  0.2009 -0.6551  1.4609
  778MPD2     C11474   2.476   4.604  15.426  0.5083 -0.0847 -0.0990
  778MPD2    C111475   2.382   4.637  15.329  0.6919  0.1766  0.2209
  778MPD2    C211476   2.417   4.714  15.218 -0.1107 -0.1543  0.0658
  778MPD2    C311477   2.546   0.048  15.213 -0.2627  0.1314  0.1983
  778MPD2    C411478   2.641   0.017  15.313 -0.0375  0.0572 -0.7487
  778MPD2    C511479   2.600   4.664  15.417 -0.4005 -0.4126  0.3987
  778MPD2     H11480   2.343   0.005  15.141 -0.2289  1.7055  0.6157
  778MPD2    H111481   2.739   0.062  15.324  1.3576 -3.0019 -0.6568
  778MPD2    H211482   2.448   4.541  15.509 -2.0126 -0.1358 -0.9764
  778MPD2    H311483   2.678   4.636  15.488 -0.5710 -2.4546 -0.1972
  778MPD2     N11484   2.584   0.125  15.099  0.5949  0.7223 -0.2207
  778MPD2    H511485   2.525   0.109  15.018 -0.8936 -0.6495  1.1356
  778MPD2    N111486   2.257   4.564  15.327 -0.2073 -0.0655  0.3353
  778MPD2    H711487   2.203   4.560  15.240  0.4892  3.1708 -0.2357
  779MPD2     C11488   2.385   3.645  14.645 -0.7958 -0.0660  0.3636
  779MPD2    C111489   2.441   3.697  14.526 -0.1813 -0.1401 -0.2193
  779MPD2    C211490   2.488   3.823  14.520 -0.5518 -0.4663 -0.1091
  779MPD2    C311491   2.469   3.908  14.626 -0.1614 -0.0631  0.8287
  779MPD2    C411492   2.411   3.861  14.736  0.3710 -0.2991  0.0205
  779MPD2    C511493   2.371   3.733  14.746 -0.5092 -0.0396  0.3516
  779MPD2     H11494   2.539   3.852  14.429 -0.2861 -2.5781 -0.6469
  779MPD2    H111495   2.399   3.924  14.824 -1.6938  0.3318 -0.7078
  779MPD2    H211496   2.347   3.545  14.662  0.1539 -0.6751 -1.0055
  779MPD2    H311497   2.321   3.691  14.833  2.1327 -0.2599  1.7873
  779MPD2     N11498   2.512   4.040  14.608  0.2909  0.3109 -0.2475
  779MPD2    H511499   2.537   4.068  14.514  0.7920 -0.3239 -0.3015
  779MPD2    N111500   2.469   3.614  14.419 -0.3259  0.1657 -0.5055
  779MPD2    H711501   2.537   3.652  14.354  3.4583 -2.5357  1.8544
  780MPD2     C11502   1.875   3.682   1.382  0.5425  0.1675 -0.9195
  780MPD2    C111503   1.798   3.653   1.268 -0.0858  0.9094  0.2218
  780MPD2    C211504   1.853   3.696   1.147  0.0172  0.2155 -0.0812
  780MPD2    C311505   1.972   3.761   1.135 -0.5605 -0.1775 -0.3703
  780MPD2    C411506   2.035   3.791   1.251 -0.1950  0.6093  0.0116
  780MPD2    C511507   1.983   3.764   1.371 -0.2047 -0.5608  0.1939
  780MPD2     H11508   1.800   3.664   1.057  1.6564  0.6945 -1.2165
  780MPD2    H111509   2.134   3.835   1.248 -0.2087  0.6656  0.4421
  780MPD2    H211510   1.844   3.654   1.482  1.8073 -0.2731 -0.6513
  780MPD2    H311511   2.045   3.781   1.458  0.8382  0.9199 -0.8257
  780MPD2     N11512   2.034   3.786   1.006  0.4965 -0.4227  0.6487
  780MPD2    H511513   1.995   3.736   0.927  1.0082  1.7613 -0.9880
  780MPD2    N111514   1.687   3.579   1.284 -0.1748  0.5825  0.0440
  780MPD2    H711515   1.658   3.559   1.380  0.7921 -1.2012 -0.0351
  781MPD2     C11516   3.711   0.698  11.924 -0.6048  0.7187  0.4590
  781MPD2    C111517   3.812   0.706  12.020 -1.3044  0.2530  0.2115
  781MPD2    C211518   3.945   0.705  11.977  0.0863  0.1313  0.0167
  781MPD2    C311519   3.968   0.708  11.841 -0.1944  0.1234  0.9616
  781MPD2    C411520   3.874   0.696  11.746 -0.3096 -0.4858 -0.5442
  781MPD2    C511521   3.746   0.691  11.792 -0.0142  0.5489 -0.2675
  781MPD2     H11522   4.021   0.707  12.053 -0.2261 -1.3967  0.3731
  781MPD2    H111523   3.902   0.698  11.641  0.5618  1.2178 -0.2841
  781MPD2    H211524   3.607   0.697  11.953 -0.3436 -0.5434  1.3111
  781MPD2    H311525   3.668   0.676  11.718 -2.3192 -1.4416  2.5395
  781MPD2     N11526   4.102   0.720  11.794  0.4892  0.6208  0.0044
  781MPD2    H511527   4.108   0.701  11.694  1.0184  2.1102 -0.2487
  781MPD2    N111528   3.789   0.715  12.162 -0.5184  0.4089 -0.2126
  781MPD2    H711529   3.868   0.724  12.226  0.2059  2.7637 -1.4335
  782MPD2     C11530   2.270   1.355   9.844 -0.0746 -0.7933 -0.1832
  782MPD2    C111531   2.312   1.290   9.961 -0.4097  0.2499 -0.2149
  782MPD2    C211532   2.376   1.371  10.057  0.5927 -0.1224 -0.1918
  782MPD2    C311533   2.372   1.510  10.053 -0.1838 -0.3071 -1.1699
  782MPD2    C411534   2.339   1.564   9.931  0.0633 -0.1123  0.3180
  782MPD2    C511535   2.301   1.486   9.819  0.0704 -0.4548  0.4653
  782MPD2     H11536   2.421   1.322  10.142 -1.4805 -0.7887  0.5004
  782MPD2    H111537   2.334   1.670   9.912  2.5326 -0.4292 -2.0763
  782MPD2    H211538   2.241   1.297   9.757 -1.5841 -0.6055  0.1966
  782MPD2    H311539   2.275   1.534   9.725 -0.2776  0.6097  1.0942
  782MPD2     N11540   2.402   1.582  10.171 -0.1016 -0.0569 -0.1991
  782MPD2    H511541   2.404   1.682  10.158  1.4507  0.2500  2.4843
  782MPD2    N111542   2.300   1.154   9.995  0.0680  0.5923  0.3866
  782MPD2    H711543   2.360   1.129  10.073 -2.1743  1.2432  2.3273
  783MPD2     C11544   1.519   0.895  10.541 -0.1435 -0.2412  0.0125
  783MPD2    C111545   1.620   0.975  10.592 -0.1025  1.0304 -0.2958
  783MPD2    C211546   1.731   1.007  10.513 -0.1722  0.4523 -0.3501
  783MPD2    C311547   1.745   0.944  10.389  0.2828 -0.1789  0.5917
  783MPD2    C411548   1.643   0.866  10.340 -0.4140 -0.0297  0.2523
  783MPD2    C511549   1.529   0.848  10.416  0.4192 -0.3204  0.0242
  783MPD2     H11550   1.808   1.076  10.547 -0.4459  0.9133 -0.6657
  783MPD2    H111551   1.639   0.812  10.246 -1.8135 -0.3983  0.5238
  783MPD2    H211552   1.423   0.885  10.591  0.2297 -2.3288  0.2949
  783MPD2    H311553   1.445   0.787  10.386 -0.8160  2.0526 -1.2294
  783MPD2     N11554   1.871   0.952  10.327 -0.4496  0.3653 -0.6746
  783MPD2    H511555   1.943   1.007  10.373  0.0897 -1.2415  0.4225
  783MPD2    N111556   1.590   1.040  10.719 -0.1843 -0.3318  0.2051
  783MPD2    H711557   1.511   1.001  10.769  0.3217  0.4216  1.5650
  784MPD2     C11558   4.185   1.480   0.391 -0.6989 -0.1749 -0.5997
  784MPD2    C111559   4.170   1.577   0.490  0.0687  0.1301 -0.7395
  784MPD2    C211560   4.130   1.698   0.450  0.8301 -0.0264  0.0438
  784MPD2    C311561   4.113   1.732   0.319  0.3572 -0.5157  0.6040
  784MPD2    C411562   4.134   1.639   0.221  0.4587 -0.2785  0.4514
  784MPD2    C511563   4.161   1.508   0.259  0.3182 -0.8531 -0.0518
  784MPD2     H11564   4.116   1.769   0.532  1.7586 -0.2855  0.4234
  784MPD2    H111565   4.125   1.659   0.115 -1.7921 -0.1138  0.6811
  784MPD2    H211566   4.212   1.376   0.404 -0.3327 -0.0715 -0.5289
  784MPD2    H311567   4.191   1.443   0.177 -0.6153 -0.1248 -0.9670
  784MPD2     N11568   4.080   1.862   0.283  0.3903 -0.2984 -0.9671
  784MPD2    H511569   4.082   1.928   0.361  0.0336 -1.7034  0.2424
  784MPD2    N111570   4.213   1.562   0.622 -0.4645 -0.3497  0.7018
  784MPD2    H711571   4.199   1.640   0.685  3.5545 -0.6116  1.8553
  785MPD2     C11572   4.473   0.458  10.040 -0.7677 -0.7796  0.9031
  785MPD2    C111573   4.405   0.571  10.084 -0.1304 -0.1176  0.0178
  785MPD2    C211574   4.276   0.588  10.034  0.4100  0.1628  0.2778
  785MPD2    C311575   4.223   0.514   9.931  0.0923 -0.2587  0.1178
  785MPD2    C411576   4.293   0.402   9.894 -0.3428  0.0442 -0.0636
  785MPD2    C511577   4.419   0.372   9.947 -0.1916  0.3517  0.2892
  785MPD2     H11578   4.215   0.673  10.063  0.7637  1.2291 -2.1652
  785MPD2    H111579   4.255   0.343   9.811 -0.5621  1.1278 -0.7269
  785MPD2    H211580   4.575   0.435  10.068 -0.6355 -2.1756 -0.7161
  785MPD2    H311581   4.480   0.290   9.912 -0.3649 -0.2869  1.4794
  785MPD2     N11582   4.101   0.553   9.876 -0.0829 -0.2264 -0.0650
  785MPD2    H511583   4.061   0.638   9.916 -0.9598 -0.7904  0.2427
  785MPD2    N111584   4.460   0.682  10.153  0.0194 -0.0989  0.3786
  785MPD2    H711585   4.398   0.759  10.175 -2.0113 -1.0043 -2.2363
  786MPD2     C11586   3.068   3.325  14.956 -0.3058  0.7228 -0.8334
  786MPD2    C111587   3.146   3.223  14.901 -0.1182 -0.1414  0.0271
  786MPD2    C211588   3.278   3.217  14.926  0.3357  0.0813 -0.4119
  786MPD2    C311589   3.335   3.311  15.009  0.2064  0.2379  0.5044
  786MPD2    C411590   3.259   3.408  15.066 -0.0044 -0.3673 -0.5633
  786MPD2    C511591   3.124   3.409  15.042  0.5920  0.0485  0.4285
  786MPD2     H11592   3.332   3.124  14.909 -1.2228 -0.5140 -2.1148
  786MPD2    H111593   3.306   3.471  15.140 -0.1649  0.2436 -0.9848
  786MPD2    H211594   2.960   3.323  14.957 -0.2527 -1.1386  1.3629
  786MPD2    H311595   3.068   3.493  15.082 -0.0548 -0.3393  0.3323
  786MPD2     N11596   3.470   3.309  15.044  0.2891 -0.4643  0.1090
  786MPD2    H511597   3.506   3.377  15.110 -1.0226 -1.6828  2.1069
  786MPD2    N111598   3.096   3.125  14.815  0.6656  0.3534  0.3657
  786MPD2    H711599   3.164   3.058  14.782  1.7247  1.5051  0.2066
  787MPD2     C11600   3.489   2.786  14.839 -0.0055  0.3374 -0.0259
  787MPD2    C111601   3.420   2.752  14.720 -0.1085  0.8662  0.2207
  787MPD2    C211602   3.496   2.728  14.609 -0.1372  0.0177 -0.0598
  787MPD2    C311603   3.633   2.742  14.608 -0.0627  0.7551  0.0644
  787MPD2    C411604   3.697   2.756  14.731  1.0220  0.3248 -0.8139
  787MPD2    C511605   3.626   2.789  14.841  0.5035 -0.4485 -0.0768
  787MPD2     H11606   3.444   2.719  14.514 -0.2388 -0.9430  0.0919
  787MPD2    H111607   3.805   2.754  14.732  0.9496 -1.7111  0.5565
  787MPD2    H211608   3.431   2.819  14.924 -0.8258  0.0783 -0.4835
  787MPD2    H311609   3.677   2.819  14.931 -2.1628 -1.8009  1.8741
  787MPD2     N11610   3.698   2.725  14.483 -0.4383  0.0934  0.1940
  787MPD2    H511611   3.638   2.709  14.403 -1.9103  1.0498  1.1164
  787MPD2    N111612   3.280   2.783  14.727 -0.7668 -0.3725  0.2742
  787MPD2    H711613   3.234   2.814  14.811 -1.0856  2.2735 -0.8602
  788MPD2     C11614   0.375   1.293   0.688 -0.2446  0.4623 -0.7418
  788MPD2    C111615   0.406   1.184   0.605 -0.4515  1.1582  0.0763
  788MPD2    C211616   0.442   1.186   0.476  0.1301  0.0803  0.1681
  788MPD2    C311617   0.420   1.310   0.416  0.0631  0.4403 -0.8910
  788MPD2    C411618   0.387   1.420   0.493  0.2350  0.5406 -0.5456
  788MPD2    C511619   0.376   1.417   0.631  0.1693  0.2506 -0.4526
  788MPD2     H11620   0.462   1.092   0.426 -1.7352 -1.2899  1.9689
  788MPD2    H111621   0.389   1.520   0.454 -1.3125  1.2070  1.0764
  788MPD2    H211622   0.354   1.272   0.792 -0.0777 -1.6100 -1.1328
  788MPD2    H311623   0.352   1.511   0.679  3.6667  0.6055  0.6702
  788MPD2     N11624   0.433   1.336   0.274 -0.7026 -0.1140 -0.0333
  788MPD2    H511625   0.409   1.431   0.245  0.5722  0.6019  1.2964
  788MPD2    N111626   0.393   1.047   0.651 -0.4094 -0.7017  0.4542
  788MPD2    H711627   0.436   0.970   0.601 -0.6541 -0.2035 -0.5229
  789MPD2     C11628   0.800   0.826  16.707  0.1259 -0.0551 -0.5046
  789MPD2    C111629   0.710   0.725  16.715  0.3956  0.2817 -0.3747
  789MPD2    C211630   0.573   0.753  16.727 -0.1476  0.3265 -0.2659
  789MPD2    C311631   0.525   0.881  16.737  0.1648 -0.0619  0.0241
  789MPD2    C411632   0.620   0.985  16.728  0.5037  0.5968  1.3153
  789MPD2    C511633   0.753   0.953  16.715  0.3646 -0.0518 -0.5334
  789MPD2     H11634   0.514   0.663  16.739  0.1786  0.0724 -0.6028
  789MPD2    H111635   0.597   1.091  16.735 -0.3569  0.3930  1.6147
  789MPD2    H211636   0.907   0.811  16.697  0.5158  2.6564 -0.5620
  789MPD2    H311637   0.824   1.035  16.715 -1.5861  1.6479  1.1241
  789MPD2     N11638   0.388   0.919  16.746  0.0468  0.0473 -0.0257
  789MPD2    H511639   0.373   1.018  16.761 -0.9486 -0.3121  1.3221
  789MPD2    N111640   0.745   0.585  16.713  0.5634  0.3869  0.0439
  789MPD2    H711641   0.662   0.529  16.695  0.7124  0.4069 -0.6893
  790MPD2     C11642   1.484   2.928  13.475 -0.1186  0.0538  0.2148
  790MPD2    C111643   1.594   2.846  13.466 -0.2172 -0.5566  0.6167
  790MPD2    C211644   1.646   2.819  13.344  0.0101 -0.0300  0.4962
  790MPD2    C311645   1.583   2.862  13.224 -0.5056  0.2208 -0.2512
  790MPD2    C411646   1.475   2.947  13.238  0.6303  1.2973  0.2073
  790MPD2    C511647   1.424   2.969  13.363 -0.5171 -0.4336  0.5287
  790MPD2     H11648   1.731   2.753  13.334  1.0289  1.3136  0.3066
  790MPD2    H111649   1.435   2.990  13.146 -0.2157 -1.1826 -0.5627
  790MPD2    H211650   1.438   2.958  13.568 -1.3681  1.5648 -0.8875
  790MPD2    H311651   1.333   3.027  13.372  0.2623  0.9467 -0.5879
  790MPD2     N11652   1.622   2.803  13.103  0.7164  0.0368  0.8494
  790MPD2    H511653   1.697   2.735  13.098 -0.3758 -1.1922  1.2547
  790MPD2    N111654   1.646   2.796  13.588  0.1681 -0.3704 -0.9099
  790MPD2    H711655   1.583   2.810  13.666  1.0961  1.6036 -0.5292
  791MPD2     C11656   1.199   2.692  12.414 -0.0809  0.2842 -0.0044
  791MPD2    C111657   1.238   2.600  12.514  0.3903  0.2633  0.2406
  791MPD2    C211658   1.158   2.492  12.550 -0.1866  0.2681  0.7751
  791MPD2    C311659   1.033   2.466  12.488 -0.5691 -0.3100 -0.1059
  791MPD2    C411660   0.994   2.554  12.389  1.1328 -0.5568 -0.6865
  791MPD2    C511661   1.079   2.661  12.350 -0.1106 -0.6260  0.2845
  791MPD2     H11662   1.192   2.423  12.626  0.2341 -1.4261 -0.9394
  791MPD2    H111663   0.898   2.542  12.340  0.1107 -1.2062  1.5047
  791MPD2    H211664   1.256   2.781  12.392  2.0624 -0.8797  0.8030
  791MPD2    H311665   1.046   2.730  12.274 -0.6016  1.5181  2.4503
  791MPD2     N11666   0.957   2.351  12.519  0.2391  0.2191  0.1664
  791MPD2    H511667   0.997   2.288  12.588  0.7999  0.5938  0.1788
  791MPD2    N111668   1.366   2.627  12.574  0.4173  0.3019  0.1698
  791MPD2    H711669   1.397   2.722  12.555 -0.3088  0.4635 -0.2363
  792MPD2     C11670   2.427   2.134  11.011  0.7282  0.1276  0.2431
  792MPD2    C111671   2.303   2.184  10.968 -0.3097  0.7913  0.4682
  792MPD2    C211672   2.213   2.095  10.929 -0.8997  0.0898  0.0213
  792MPD2    C311673   2.232   1.963  10.942  0.4873  0.0923 -0.0131
  792MPD2    C411674   2.349   1.913  11.002 -0.5196 -0.5714 -0.3405
  792MPD2    C511675   2.445   2.003  11.042  0.8218 -0.3837 -0.6510
  792MPD2     H11676   2.128   2.132  10.873 -0.6845 -1.6250 -1.4717
  792MPD2    H111677   2.360   1.806  11.014  0.6811 -0.4645 -0.5891
  792MPD2    H211678   2.498   2.203  11.055  1.0631 -0.4475  0.5929
  792MPD2    H311679   2.529   1.958  11.093  0.1457  1.5711  2.1759
  792MPD2     N11680   2.153   1.866  10.880  0.2491  0.5453  0.6554
  792MPD2    H511681   2.184   1.770  10.886 -0.6872  0.2552  0.8164
  792MPD2    N111682   2.278   2.321  10.951  0.3964  0.5264 -0.1855
  792MPD2    H711683   2.358   2.373  10.987  0.9628 -0.8535  0.5584
  793MPD2     C11684   1.268   1.844  10.473 -0.1538  0.1982 -0.2037
  793MPD2    C111685   1.360   1.939  10.502 -0.1950 -0.0189  0.2225
  793MPD2    C211686   1.456   1.919  10.601  0.2161  0.1453  0.3815
  793MPD2    C311687   1.464   1.801  10.670 -0.7335 -0.6604  0.0315
  793MPD2    C411688   1.363   1.706  10.649 -0.6292 -0.1768 -1.0719
  793MPD2    C511689   1.266   1.731  10.546  0.1849 -0.4475 -0.4856
  793MPD2     H11690   1.527   1.997  10.625 -1.8467  1.6020  1.7065
  793MPD2    H111691   1.359   1.613  10.704 -0.1482 -0.1485 -0.9922
  793MPD2    H211692   1.191   1.856  10.398  0.0964 -1.3128 -0.6930
  793MPD2    H311693   1.179   1.667  10.545 -0.3028  0.2001 -0.2115
  793MPD2     N11694   1.582   1.775  10.742 -0.4924 -0.3087  0.1721
  793MPD2    H511695   1.652   1.848  10.736  0.4127 -1.2631 -0.7688
  793MPD2    N111696   1.385   2.049  10.419 -0.6691  0.5355 -0.3311
  793MPD2    H711697   1.461   2.111  10.447  1.3326 -0.8786 -2.6678
  794MPD2     C11698   1.297   2.172  17.298 -0.8291 -0.0174 -0.0212
  794MPD2    C111699   1.227   2.057  17.289  0.0904 -0.4658  0.2611
  794MPD2    C211700   1.121   2.051  17.202 -0.0116  0.1052  0.4688
  794MPD2    C311701   1.099   2.149  17.109  0.1742  0.5037 -0.4622
  794MPD2    C411702   1.179   2.260  17.117  0.1176 -0.7519 -0.3307
  794MPD2    C511703   1.272   2.269  17.210  0.6851 -0.6787  1.0242
  794MPD2     H11704   1.049   1.970  17.212  2.2901 -1.5838  3.2824
  794MPD2    H111705   1.173   2.341  17.045  0.7083 -0.3282  0.0975
  794MPD2    H211706   1.370   2.199  17.373  1.5985 -2.7125 -1.4395
  794MPD2    H311707   1.318   2.366  17.224 -0.5200 -0.4749  3.6159
  794MPD2     N11708   0.989   2.147  17.016 -0.3030  0.1160 -0.1223
  794MPD2    H511709   0.968   2.233  16.967 -0.1050 -0.9479 -2.1200
  794MPD2    N111710   1.250   1.952  17.384 -0.2255 -0.2319  0.4917
  794MPD2    H711711   1.186   1.873  17.380  1.3481 -1.4840 -0.0009
  795MPD2     C11712   4.428   4.282  13.453  0.0332  0.7554  0.6083
  795MPD2    C111713   4.404   4.151  13.488 -0.1276  1.2940 -0.0416
  795MPD2    C211714   4.486   4.053  13.435  0.1055  0.6705 -0.8434
  795MPD2    C311715   4.593   4.086  13.361 -0.2706 -0.0002 -0.2099
  795MPD2    C411716   4.624   4.220  13.339 -0.6290  0.1401  0.8070
  795MPD2    C511717   4.537   4.318  13.379  1.2140  0.4060  0.0526
  795MPD2     H11718   4.450   3.954  13.464 -2.7708  2.7533  2.6837
  795MPD2    H111719   4.712   4.247  13.282  0.5211  0.0030  2.5501
  795MPD2    H211720   4.360   4.357  13.490  0.7467  0.9087  1.5965
  795MPD2    H311721   4.544   4.422  13.352 -0.6511  0.4550 -0.2322
  795MPD2     N11722   4.674   3.973  13.329  0.6736  0.1643 -0.7500
  795MPD2    H511723   4.652   3.890  13.381 -1.6453 -0.2520 -2.4038
  795MPD2    N111724   4.286   4.116  13.554 -0.3977  1.1216  0.1791
  795MPD2    H711725   4.284   4.022  13.591  1.2719  0.9905 -0.1064
  796MPD2     C11726   3.275   0.789  15.711  0.1446  0.6692 -0.1534
  796MPD2    C111727   3.279   0.850  15.837  0.7105  0.4117  0.3238
  796MPD2    C211728   3.241   0.982  15.844 -0.1753 -0.3766 -0.2322
  796MPD2    C311729   3.189   1.051  15.729  0.7619  0.3791 -1.0469
  796MPD2    C411730   3.186   0.993  15.609 -0.1406  0.2158  0.3137
  796MPD2    C511731   3.225   0.860  15.604 -0.0195 -0.3362 -0.0016
  796MPD2     H11732   3.233   1.036  15.938 -1.6519 -0.8837 -0.0585
  796MPD2    H111733   3.134   1.036  15.524  0.4263 -1.3799 -0.8425
  796MPD2    H211734   3.289   0.682  15.696  0.7050  0.3466  2.6663
  796MPD2    H311735   3.222   0.801  15.514 -2.9212  0.3665 -0.3874
  796MPD2     N11736   3.149   1.189  15.753  0.0478 -0.6428 -0.0036
  796MPD2    H511737   3.199   1.237  15.826 -1.9121  0.4141  0.6460
  796MPD2    N111738   3.306   0.787  15.957  0.5302 -0.4762  0.1626
  796MPD2    H711739   3.282   0.840  16.040  1.5583  0.3460 -0.0718
  797MPD2     C11740   3.754   0.277  17.490  0.2972 -0.0044  0.0525
  797MPD2    C111741   3.887   0.310  17.507  0.2792  0.0660  1.0393
  797MPD2    C211742   3.931   0.423  17.442 -0.5557 -0.6828  0.4455
  797MPD2    C311743   3.862   0.481  17.344 -0.0154 -0.0838  0.1595
  797MPD2    C411744   3.731   0.450  17.326  0.2605 -0.0622 -0.4251
  797MPD2    C511745   3.676   0.347  17.398 -0.2062  0.5765 -1.1457
  797MPD2     H11746   4.036   0.451  17.450 -0.8677  1.7252 -3.5782
  797MPD2    H111747   3.666   0.500  17.255 -0.7704 -0.2806  0.3644
  797MPD2    H211748   3.713   0.185  17.527 -0.7912  1.6476  2.9210
  797MPD2    H311749   3.572   0.322  17.378 -0.6370  1.8731 -0.5272
  797MPD2     N11750   3.926   0.572  17.255 -0.5742  0.4419  0.8366
  797MPD2    H511751   4.022   0.597  17.276 -1.0192  2.0070  0.9642
  797MPD2    N111752   3.970   0.245  17.601  1.2149  0.2081 -0.0082
  797MPD2    H711753   4.056   0.294  17.622  2.2805 -1.1001 -1.2987
  798MPD2     C11754   4.589   0.434  17.260  0.5874  0.5864  0.4188
  798MPD2    C111755   4.467   0.474  17.294 -0.5332  0.2979 -0.2181
  798MPD2    C211756   4.410   0.430  17.413  0.0667 -0.0496  0.2745
  798MPD2    C311757   4.470   0.340  17.495  0.6352  0.1840 -0.6917
  798MPD2    C411758   4.591   0.299  17.453  0.3015 -0.6176 -0.4798
  798MPD2    C511759   4.644   0.341  17.338 -0.2749  0.3926  0.1561
  798MPD2     H11760   4.308   0.461  17.436  0.6028  2.5997 -0.9417
  798MPD2    H111761   4.638   0.214  17.502  1.4811 -1.2240 -2.6727
  798MPD2    H211762   4.643   0.468  17.173 -0.7858  0.2240 -0.5838
  798MPD2    H311763   0.011   0.294  17.313  0.1900  0.3470  1.9354
  798MPD2     N11764   4.401   0.289  17.609  0.0260  0.1789 -0.9509
  798MPD2    H511765   4.316   0.335  17.638  1.0217  0.4215  1.5847
  798MPD2    N111766   4.401   0.565  17.201 -0.4863  0.1865  0.5160
  798MPD2    H711767   4.440   0.582  17.109 -1.6813 -0.4198 -0.1152
  799MPD2     C11768   2.949   2.349  14.397  0.2259 -0.7803 -0.1837
  799MPD2    C111769   2.891   2.243  14.322  0.2009  0.2753  0.6248
  799MPD2    C211770   2.846   2.274  14.192  0.4738 -0.0884  0.5565
  799MPD2    C311771   2.885   2.399  14.138 -0.7895 -0.1865  0.6141
  799MPD2    C411772   2.930   2.498  14.221  0.2472 -0.5895 -0.0436
  799MPD2    C511773   2.958   2.476  14.354  0.0647 -1.0936 -0.1055
  799MPD2     H11774   2.800   2.195  14.134  0.7875 -0.3386  0.6460
  799MPD2    H111775   2.942   2.599  14.185 -1.1669 -0.6322 -0.6409
  799MPD2    H211776   2.968   2.327  14.502  0.0481 -1.6173 -0.3235
  799MPD2    H311777   2.996   2.554  14.418  0.1725  0.4199 -2.0049
  799MPD2     N11778   2.877   2.431  13.999 -0.1332  0.2870 -0.3756
  799MPD2    H511779   2.925   2.515  13.969  2.1985 -0.9649 -0.1698
  799MPD2    N111780   2.874   2.108  14.363  0.4095  0.0298  0.1468
  799MPD2    H711781   2.848   2.047  14.286 -0.3936  0.0457  0.4007
  800MPD2     C11782   4.163   3.700  14.429  0.6591  0.1694  0.1439
  800MPD2    C111783   4.279   3.710  14.354  0.2225  0.2254 -0.2068
  800MPD2    C211784   4.306   3.602  14.269 -0.3303  0.5329 -0.6213
  800MPD2    C311785   4.229   3.488  14.276 -0.5192  0.1308  0.1443
  800MPD2    C411786   4.121   3.478  14.361 -0.3622  0.2469  0.3054
  800MPD2    C511787   4.085   3.582  14.439  0.0312  0.1727 -0.2615
  800MPD2     H11788   4.389   3.609  14.200 -0.1851 -0.5797 -0.5719
  800MPD2    H111789   4.059   3.390  14.371  0.9190 -0.6317  0.3753
  800MPD2    H211790   4.124   3.787  14.480 -1.9461 -0.8589 -0.0846
  800MPD2    H311791   3.986   3.576  14.482  0.5026 -3.0361  0.3862
  800MPD2     N11792   4.271   3.379  14.190  0.7350 -0.4439  0.3637
  800MPD2    H511793   4.368   3.374  14.160 -0.2321 -2.0104 -2.4904
  800MPD2    N111794   4.348   3.834  14.356 -0.0280  0.2117  0.8301
  800MPD2    H711795   4.331   3.891  14.439  2.8605  0.8622  0.9719
  801MPD2     C11796   4.417   4.215  14.899 -0.1354  0.0371  0.6039
  801MPD2    C111797   4.353   4.215  14.778  0.8005 -0.9112  0.2130
  801MPD2    C211798   4.222   4.235  14.768  0.1963 -0.4257 -0.2924
  801MPD2    C311799   4.144   4.234  14.877  0.1760 -0.3910 -0.8582
  801MPD2    C411800   4.208   4.238  15.001  0.4911  0.6772 -0.8718
  801MPD2    C511801   4.341   4.232  15.010  0.4849  0.4775  0.5080
  801MPD2     H11802   4.186   4.230  14.666 -0.1546  0.5701 -0.2155
  801MPD2    H111803   4.145   4.249  15.089 -1.5180 -2.6426 -1.8938
  801MPD2    H211804   4.522   4.199  14.919 -0.4752 -2.1349  0.7058
  801MPD2    H311805   4.391   4.234  15.106  1.6320 -0.6742 -0.0594
  801MPD2     N11806   4.004   4.219  14.877  0.2082  0.3000 -0.4236
  801MPD2    H511807   3.967   4.171  14.959 -1.5761  0.0940 -1.3366
  801MPD2    N111808   4.421   4.198  14.656  0.4037  0.1670  0.3541
  801MPD2    H711809   4.353   4.191  14.581  0.1160 -0.4748  0.6771
  802MPD2     C11810   2.249   3.798  17.094  0.2190  0.5063  0.2238
  802MPD2    C111811   2.304   3.818  17.218 -0.1041 -0.0800  0.1658
  802MPD2    C211812   2.383   3.714  17.260 -0.0295 -0.5233 -0.4757
  802MPD2    C311813   2.408   3.602  17.190 -0.2149  0.5612 -0.2825
  802MPD2    C411814   2.339   3.578  17.070  0.4830  0.6525 -0.5839
  802MPD2    C511815   2.258   3.675  17.025  0.0854  0.6227  0.0297
  802MPD2     H11816   2.425   3.728  17.359  1.3933 -2.2515 -0.8270
  802MPD2    H111817   2.356   3.497  17.001 -1.4925 -0.2242 -0.0350
  802MPD2    H211818   2.215   3.879  17.031  2.6467  0.6264 -0.9265
  802MPD2    H311819   2.212   3.655  16.929 -2.0286  2.2602  0.7064
  802MPD2     N11820   2.508   3.514  17.237  0.9149  0.2916 -0.0214
  802MPD2    H511821   2.541   3.538  17.329  0.7527  0.4161  0.0049
  802MPD2    N111822   2.321   3.941  17.285  0.2154  0.1537 -0.2567
  802MPD2    H711823   2.388   3.939  17.362 -0.1946 -0.4327  0.0781
  803MPD2     C11824   4.469   2.447  11.856 -0.1241  0.4439 -0.2856
  803MPD2    C111825   4.516   2.567  11.904 -0.3504 -0.7528  0.2626
  803MPD2    C211826   4.512   2.601  12.031  0.4132  0.3731 -0.9771
  803MPD2    C311827   4.449   2.519  12.121  0.3263  0.1899 -0.1355
  803MPD2    C411828   4.381   2.408  12.074 -0.3752  0.0600  0.2854
  803MPD2    C511829   4.401   2.365  11.946  0.1761 -0.0450  0.3894
  803MPD2     H11830   4.562   2.696  12.044  0.7740 -0.4060  3.3475
  803MPD2    H111831   4.321   2.343  12.137 -0.1164  1.1726  1.6537
  803MPD2    H211832   4.454   2.429  11.750 -2.0857  1.2541 -0.1457
  803MPD2    H311833   4.363   2.272  11.905  1.6381  0.2470 -1.6656
  803MPD2     N11834   4.451   2.542  12.261 -0.3425  0.0909 -0.2405
  803MPD2    H511835   4.400   2.485  12.327  2.3181 -0.3452  1.4302
  803MPD2    N111836   4.570   2.665  11.819  0.3119  0.2996  0.0556
  803MPD2    H711837   4.627   2.740  11.857  0.3582 -0.3400  1.2775
  804MPD2     C11838   3.708   3.957  17.012 -0.7519 -0.6266  0.2997
  804MPD2    C111839   3.686   3.911  17.142  0.5187  0.1210  0.5764
  804MPD2    C211840   3.751   3.983  17.237 -0.4238 -0.3594  0.4548
  804MPD2    C311841   3.814   4.102  17.210 -0.0591 -0.8646 -0.1326
  804MPD2    C411842   3.820   4.155  17.085  0.4958 -0.3689 -0.0662
  804MPD2    C511843   3.767   4.083  16.986 -0.0850  0.4558  0.7244
  804MPD2     H11844   3.759   3.949  17.340  1.1642 -1.6166 -0.0849
  804MPD2    H111845   3.870   4.248  17.062  0.7161 -0.5195 -0.1917
  804MPD2    H211846   3.680   3.893  16.929 -0.1766  1.0719 -1.2115
  804MPD2    H311847   3.773   4.110  16.881 -2.5529  3.3217  1.3204
  804MPD2     N11848   3.891   4.162  17.310 -0.2205  0.7266  0.3456
  804MPD2    H511849   3.886   4.125  17.405  1.1865 -2.6710 -0.9034
  804MPD2    N111850   3.636   3.776  17.165 -0.0958  0.3986 -0.5203
  804MPD2    H711851   3.619   3.750  17.262 -0.3274 -2.1281 -1.2271
  805MPD2     C11852   3.066   1.817  15.436  0.4934 -0.2319  0.5046
  805MPD2    C111853   3.021   1.940  15.478  0.5832 -0.0009 -0.0964
  805MPD2    C211854   3.082   2.000  15.592  0.1263 -0.8145  0.3606
  805MPD2    C311855   3.195   1.940  15.640 -0.1847  0.2799  0.4387
  805MPD2    C411856   3.235   1.816  15.594  0.1687 -0.2066  0.0852
  805MPD2    C511857   3.165   1.750  15.498  0.0355  0.6949  0.0854
  805MPD2     H11858   3.059   2.100  15.626 -1.5533 -0.7849 -0.8296
  805MPD2    H111859   3.332   1.777  15.621 -0.0984 -0.9619 -0.0510
  805MPD2    H211860   3.017   1.771  15.351 -2.4275  1.5895  1.2294
  805MPD2    H311861   3.201   1.655  15.460  0.8468  1.1565 -0.3192
  805MPD2     N11862   3.264   2.017  15.741  0.6921 -0.0732 -0.6485
  805MPD2    H511863   3.238   2.114  15.754  0.6940 -0.1726  0.0769
  805MPD2    N111864   2.924   2.004  15.406  0.4901  0.5411  0.5250
  805MPD2    H711865   2.902   1.959  15.318 -2.1254  3.3613 -0.2260
  806MPD2     C11866   3.263   1.407   0.330  0.0737  0.5608  0.2225
  806MPD2    C111867   3.310   1.525   0.391 -0.6952  0.3630  0.0713
  806MPD2    C211868   3.376   1.617   0.308 -0.4524  0.1987 -0.3221
  806MPD2    C311869   3.387   1.595   0.174 -0.0457 -0.1690 -0.3723
  806MPD2    C411870   3.341   1.477   0.115 -0.0014 -0.2666 -0.4600
  806MPD2    C511871   3.277   1.391   0.192  0.2504  0.2044 -0.2494
  806MPD2     H11872   3.421   1.708   0.347  0.6108 -0.0910 -0.9009
  806MPD2    H111873   3.332   1.467   0.007  1.5563 -0.9020 -0.5304
  806MPD2    H211874   3.210   1.333   0.389 -0.8609 -0.9296 -2.4626
  806MPD2    H311875   3.229   1.305   0.147  0.9857 -0.8731  1.0457
  806MPD2     N11876   3.463   1.693   0.102  0.0346  0.4851 -0.3956
  806MPD2    H511877   3.503   1.774   0.149  1.4348 -0.4014 -0.0650
  806MPD2    N111878   3.300   1.529   0.529  0.2968  0.1412  0.0447
  806MPD2    H711879   3.273   1.438   0.566 -0.8475  0.4814  0.0397
  807MPD2     C11880   3.284   1.052   0.958 -0.0863  0.5971  0.2861
  807MPD2    C111881   3.200   1.134   1.037  0.2384 -0.2596  0.8892
  807MPD2    C211882   3.178   1.084   1.165  0.4541  0.3831  0.4731
  807MPD2    C311883   3.227   0.965   1.217 -0.3441  0.3119  0.1364
  807MPD2    C411884   3.316   0.893   1.137  0.3179  0.0030  0.8741
  807MPD2    C511885   3.341   0.935   1.007  0.5676  0.0857  0.3278
  807MPD2     H11886   3.107   1.138   1.226  1.3782  0.1874  1.7142
  807MPD2    H111887   3.340   0.790   1.159  2.4216  0.9379  2.8964
  807MPD2    H211888   3.316   1.083   0.859  2.5685  0.0257  0.9711
  807MPD2    H311889   3.408   0.876   0.944 -0.7821 -1.5710  0.4615
  807MPD2     N11890   3.190   0.919   1.347  0.3342  0.0163  0.2956
  807MPD2    H511891   3.121   0.970   1.401  0.2690 -0.5977  0.7906
  807MPD2    N111892   3.160   1.266   1.008  0.1804 -0.4295  0.2363
  807MPD2    H711893   3.122   1.329   1.079 -1.5671 -1.7582  0.5004
  808MPD2     C11894   3.810   2.797   9.820  0.5329 -0.5395  0.4361
  808MPD2    C111895   3.723   2.877   9.900  0.5336 -0.1340  0.3440
  808MPD2    C211896   3.781   2.963   9.996 -0.1794 -0.4226  0.2380
  808MPD2    C311897   3.915   2.963  10.005  0.3880 -0.1263  0.1549
  808MPD2    C411898   3.989   2.879   9.936 -0.1042  0.2480  0.0845
  808MPD2    C511899   3.944   2.798   9.843 -0.5972  0.0886 -0.2220
  808MPD2     H11900   3.721   3.025  10.061 -0.2624 -0.5990  0.3299
  808MPD2    H111901   4.097   2.887   9.947 -0.3788  4.7153 -0.6149
  808MPD2    H211902   3.776   2.748   9.729 -0.5876  0.7870  0.1432
  808MPD2    H311903   4.007   2.726   9.792 -1.2574 -1.1944  0.7939
  808MPD2     N11904   3.981   3.040  10.102 -0.4902  0.0002  0.2258
  808MPD2    H511905   4.082   3.030  10.107 -0.6073  1.6006  5.4679
  808MPD2    N111906   3.580   2.885   9.884 -0.2509  0.4277 -0.1907
  808MPD2    H711907   3.530   2.963   9.924  0.7856  0.5724  0.8292
  809MPD2     C11908   4.553   2.666  10.493 -0.3305 -0.7970 -0.1781
  809MPD2    C111909   4.604   2.791  10.480 -0.4766 -0.2113  0.6923
  809MPD2    C211910   4.516   2.896  10.476  0.0047  0.2121 -0.2754
  809MPD2    C311911   4.380   2.880  10.481 -0.1652 -0.2651 -0.8212
  809MPD2    C411912   4.332   2.752  10.481 -0.0501  0.3184 -0.0218
  809MPD2    C511913   4.419   2.648  10.482 -0.2335  0.1212  1.1026
  809MPD2     H11914   4.552   2.995  10.452 -0.8251  0.8472  1.0875
  809MPD2    H111915   4.228   2.721  10.482 -0.3689  1.3806 -1.0354
  809MPD2    H211916   4.625   2.585  10.502  0.2202 -0.4329 -1.2525
  809MPD2    H311917   4.381   2.546  10.480 -2.5207  1.0129 -1.4032
  809MPD2     N11918   4.280   2.978  10.465 -0.0720 -0.2771 -0.0671
  809MPD2    H511919   4.184   2.943  10.462  0.3218 -1.4386  0.8035
  809MPD2    N111920   0.014   2.806  10.461  0.0405  0.5597 -0.0952
  809MPD2    H711921   0.047   2.902  10.469 -2.1454  1.5167 -2.6894
  810MPD2     C11922   3.641   2.325  11.017  0.2808  0.1165 -0.4629
  810MPD2    C111923   3.572   2.362  10.904  0.0258 -0.6876 -0.0152
  810MPD2    C211924   3.518   2.491  10.903 -0.3123 -0.3843 -0.0117
  810MPD2    C311925   3.555   2.583  10.998 -0.0746  0.3357 -0.4565
  810MPD2    C411926   3.637   2.544  11.106 -0.3290 -0.0518 -0.1161
  810MPD2    C511927   3.673   2.409  11.117  0.2105  0.5198 -0.4120
  810MPD2     H11928   3.438   2.522  10.836  0.9256  0.2253 -1.2127
  810MPD2    H111929   3.682   2.619  11.170 -0.9857  0.1218  0.1522
  810MPD2    H211930   3.675   2.223  11.030 -4.8819 -1.9302 -2.8844
  810MPD2    H311931   3.746   2.380  11.191  0.2244  1.3800 -0.0828
  810MPD2     N11932   3.517   2.724  10.992  0.1225  0.1392 -0.0954
  810MPD2    H511933   3.541   2.784  11.071 -0.7185 -1.0377  1.0447
  810MPD2    N111934   3.540   2.269  10.806  0.0986 -0.2584  0.4500
  810MPD2    H711935   3.560   2.171  10.823 -0.5300 -0.6885 -1.3662
  811MPD2     C11936   2.972   2.124  10.129  1.0555  0.2712 -0.2529
  811MPD2    C111937   3.069   2.210  10.178 -0.5732 -0.2939  0.4185
  811MPD2    C211938   3.043   2.340  10.185 -0.1764 -0.5226 -0.2014
  811MPD2    C311939   2.923   2.393  10.133 -0.2435  0.0010  1.0931
  811MPD2    C411940   2.829   2.300  10.089  0.3418 -0.3905  0.4218
  811MPD2    C511941   2.850   2.169  10.087  0.2975 -0.5481 -0.9338
  811MPD2     H11942   3.111   2.418  10.219  0.3494 -0.7473 -0.7330
  811MPD2    H111943   2.734   2.333  10.048  0.5428  0.5985  0.7535
  811MPD2    H211944   2.979   2.016  10.137  1.2630  0.2729 -0.4297
  811MPD2    H311945   2.785   2.098  10.038 -1.3196 -0.9637  1.7973
  811MPD2     N11946   2.905   2.535  10.128 -0.4199  0.8216 -0.1257
  811MPD2    H511947   2.986   2.588  10.158 -0.8811  0.9253  0.9286
  811MPD2    N111948   3.182   2.154  10.231 -0.2348 -0.2943 -0.3854
  811MPD2    H711949   3.190   2.053  10.235 -1.0379 -0.3173  0.4263
  812MPD2     C11950   2.263   2.310  12.317 -0.9252 -0.1928  0.2009
  812MPD2    C111951   2.369   2.395  12.330 -0.2279 -0.3494 -0.5871
  812MPD2    C211952   2.472   2.350  12.415  1.0560  0.5377 -0.2901
  812MPD2    C311953   2.466   2.233  12.483  0.1410 -0.2240 -0.0741
  812MPD2    C411954   2.359   2.144  12.464  0.2948 -0.6052  0.0351
  812MPD2    C511955   2.255   2.189  12.389 -0.9428 -1.3092 -0.1141
  812MPD2     H11956   2.560   2.412  12.428 -0.3081  1.8870  2.4323
  812MPD2    H111957   2.355   2.043  12.503 -1.0361  0.4047  2.5238
  812MPD2    H211958   2.174   2.348  12.267  0.0581  0.3701 -1.1135
  812MPD2    H311959   2.164   2.130  12.381 -0.8321 -1.2233 -2.0153
  812MPD2     N11960   2.565   2.210  12.574 -0.3074 -0.3508 -0.0566
  812MPD2    H511961   2.651   2.261  12.560 -0.8364  0.9532  1.4866
  812MPD2    N111962   2.367   2.523  12.271 -0.4141 -0.2035 -0.5362
  812MPD2    H711963   2.278   2.550  12.229 -0.1147 -1.1994 -1.8438
  813MPD2     C11964   1.531   4.066  12.854 -0.3953  0.3522 -0.0645
  813MPD2    C111965   1.575   4.188  12.906 -0.0907 -0.9746  0.3506
  813MPD2    C211966   1.513   4.239  13.019  0.4595 -0.1128 -0.3950
  813MPD2    C311967   1.413   4.173  13.086  0.4317  0.0904  0.0074
  813MPD2    C411968   1.369   4.055  13.037 -0.8156  0.3612 -0.0591
  813MPD2    C511969   1.427   4.006  12.916  0.5545 -0.3200  0.0054
  813MPD2     H11970   1.538   4.336  13.059  0.2140 -0.6181  0.9907
  813MPD2    H111971   1.285   4.011  13.089  0.7067 -0.7966  1.4324
  813MPD2    H211972   1.582   4.030  12.765  0.6139  1.6215 -0.0000
  813MPD2    H311973   1.390   3.911  12.880 -0.0193 -0.3506  0.6778
  813MPD2     N11974   1.362   4.235  13.202  0.9760  0.4628 -1.0658
  813MPD2    H511975   1.398   4.330  13.209  2.9936 -0.4977  1.5602
  813MPD2    N111976   1.669   4.264  12.838  0.2611 -0.4474  0.3154
  813MPD2    H711977   1.736   4.217  12.778 -0.2870 -0.0378 -0.6246
  814MPD2     C11978   2.134   0.397  12.440 -0.6069 -0.3456 -0.5124
  814MPD2    C111979   2.109   0.446  12.312 -0.6035 -0.2160  0.5374
  814MPD2    C211980   2.106   0.579  12.285 -0.1844  0.0514 -0.8351
  814MPD2    C311981   2.093   0.666  12.392  0.0706 -0.5969  0.3087
  814MPD2    C411982   2.104   0.617  12.522  0.7115  0.0507 -0.7069
  814MPD2    C511983   2.130   0.487  12.542  0.1828 -0.8738 -0.0648
  814MPD2     H11984   2.100   0.619  12.184 -0.2515 -0.2274 -0.9427
  814MPD2    H111985   2.114   0.688  12.603  1.9489 -1.0892  0.1528
  814MPD2    H211986   2.170   0.296  12.459 -1.3351 -0.8543 -1.8429
  814MPD2    H311987   2.146   0.459  12.645  0.3762  0.4349  0.2697
  814MPD2     N11988   2.066   0.807  12.376  0.0274 -0.4128  0.4840
  814MPD2    H511989   2.062   0.859  12.463 -1.7689 -1.3619  0.9781
  814MPD2    N111990   2.105   0.355  12.200  0.3035 -0.1694  0.2472
  814MPD2    H711991   2.113   0.392  12.106  0.1139 -2.0110 -0.4919
  815MPD2     C11992   2.142   4.399  11.759 -0.3918  0.0623  0.8148
  815MPD2    C111993   2.128   4.262  11.786  0.8134 -0.5158  0.2983
  815MPD2    C211994   2.002   4.224  11.824  0.3026  0.0873 -0.1792
  815MPD2    C311995   1.909   4.318  11.860  0.2407  0.3364  0.1859
  815MPD2    C411996   1.930   4.454  11.846  0.2647 -0.5846 -0.9938
  815MPD2    C511997   2.047   4.495  11.789  0.1928  0.4791  0.0197
  815MPD2     H11998   1.982   4.119  11.842 -0.9399  0.6130  1.5027
  815MPD2    H111999   1.850   4.526  11.845 -0.5600 -1.4946 -0.7501
  815MPD2    H212000   2.228   4.433  11.701 -0.1777 -1.4037  0.2692
  815MPD2    H312001   2.070   4.600  11.774 -0.7171  0.7654  0.6561
  815MPD2     N12002   1.801   4.268  11.933 -0.0114  0.2387 -0.3789
  815MPD2    H512003   1.809   4.171  11.961  1.0721  0.7034  0.8994
  815MPD2    N112004   2.226   4.176  11.731 -0.3434  0.6460  0.0740
  815MPD2    H712005   2.305   4.220  11.685  0.6882 -0.0461  1.1805
  816MPD2     C12006   2.152   3.033  17.281  0.2096 -0.2120 -0.4385
  816MPD2    C112007   2.184   3.129  17.189 -0.8451 -0.1224  0.5894
  816MPD2    C212008   2.280   3.103  17.092  0.1885 -0.6061  0.0016
  816MPD2    C312009   2.350   2.987  17.096  0.3603  0.3001  0.2288
  816MPD2    C412010   2.317   2.890  17.189 -0.0398 -0.8775 -0.2749
  816MPD2    C512011   2.215   2.909  17.282  0.0404 -0.1418 -0.7647
  816MPD2     H12012   2.291   3.164  17.003  0.2885  0.5463  0.8037
  816MPD2    H112013   2.353   2.789  17.200 -2.9927 -1.8884  0.2081
  816MPD2    H212014   2.080   3.054  17.359  1.7786 -1.4379  1.3584
  816MPD2    H312015   2.184   2.825  17.342  1.2574 -0.1319 -0.1146
  816MPD2     N12016   2.439   2.959  16.996 -0.1909 -0.5804  0.1917
  816MPD2    H512017   2.444   3.035  16.928  1.4587  0.7771  1.8555
  816MPD2    N112018   2.105   3.240  17.196  0.1630  0.3006 -0.1917
  816MPD2    H712019   2.035   3.247  17.270  1.2672 -0.9702  0.9429
  817MPD2     C12020   2.009   0.225   9.611 -0.3474  0.0569 -0.3649
  817MPD2    C112021   2.029   0.137   9.501 -0.3764  0.1599  0.4473
  817MPD2    C212022   1.969   0.170   9.378 -0.0366 -0.0871  0.2877
  817MPD2    C312023   1.887   0.288   9.369  0.7301  0.5288  0.6621
  817MPD2    C412024   1.871   0.376   9.479  1.1512  0.6023  0.5718
  817MPD2    C512025   1.926   0.333   9.600 -0.4050  0.0364 -0.3923
  817MPD2     H12026   1.981   0.105   9.292 -1.5614  1.9514 -1.4652
  817MPD2    H112027   1.829   0.475   9.480  0.6964  0.4153 -0.3284
  817MPD2    H212028   2.036   0.197   9.713 -0.5008 -0.6282 -0.5076
  817MPD2    H312029   1.928   0.399   9.686  0.8015  1.4186 -1.4999
  817MPD2     N12030   1.825   0.331   9.244 -0.2753 -0.0109  0.1532
  817MPD2    H512031   1.865   0.270   9.174 -0.5904 -0.0323 -0.0067
  817MPD2    N112032   2.095   0.009   9.519  0.2023  0.1641 -0.1530
  817MPD2    H712033   2.117   4.688   9.432  0.1256  0.2462 -0.2169
  818MPD2     C12034   0.843   0.452  10.226  0.1667  0.3739  0.2082
  818MPD2    C112035   0.720   0.396  10.251 -0.0021  0.0603 -0.6055
  818MPD2    C212036   0.697   0.259  10.208  0.4238  0.0856  0.6752
  818MPD2    C312037   0.783   0.195  10.124  0.4519  0.2732  0.2872
  818MPD2    C412038   0.906   0.260  10.106  0.6530 -1.1033  0.9727
  818MPD2    C512039   0.933   0.381  10.158 -0.3837  0.3761  0.6939
  818MPD2     H12040   0.601   0.218  10.239 -0.6186  0.7334 -1.6505
  818MPD2    H112041   0.987   0.208  10.055  1.9169  2.9148 -1.1147
  818MPD2    H212042   0.873   0.548  10.266  1.3712  0.0383  0.1137
  818MPD2    H312043   1.035   0.418  10.152 -0.3859  0.4027  0.8229
  818MPD2     N12044   0.777   0.060  10.086  0.3370  0.1755 -0.3763
  818MPD2    H512045   0.863   0.022  10.046  0.8135  2.9022 -1.9538
  818MPD2    N112046   0.629   0.454  10.341 -0.3194  0.0609 -0.0381
  818MPD2    H712047   0.555   0.399  10.384  0.8843  0.6516  2.7759
  819MPD2     C12048   4.063   1.986  15.683 -0.1490 -0.8297 -0.1042
  819MPD2    C112049   3.960   1.917  15.737  1.0333 -0.0416  0.2894
  819MPD2    C212050   3.979   1.827  15.838 -0.0568  0.6203  0.1704
  819MPD2    C312051   4.100   1.824  15.905 -0.0288 -0.3029 -0.2044
  819MPD2    C412052   4.204   1.900  15.855  0.2151  0.0224 -0.3325
  819MPD2    C512053   4.190   1.985  15.744 -0.4601  0.0850 -0.6262
  819MPD2     H12054   3.896   1.765  15.871 -0.4318  0.7101 -0.5998
  819MPD2    H112055   4.304   1.892  15.896 -0.1388 -2.0561  0.1109
  819MPD2    H212056   4.046   2.053  15.599  1.6745  0.4437  0.5398
  819MPD2    H312057   4.275   2.039  15.703 -0.9755  2.2602  1.1791
  819MPD2     N12058   4.112   1.730  16.005 -0.3037  1.0447  0.1535
  819MPD2    H512059   4.036   1.664  16.017 -0.7651  1.7682  1.1800
  819MPD2    N112060   3.834   1.913  15.671 -0.1298  0.3139  0.4293
  819MPD2    H712061   3.829   1.964  15.583  2.0231 -1.8986 -0.9805
  820MPD2     C12062   3.237   1.955  14.886 -0.4059  0.3352  0.7529
  820MPD2    C112063   3.205   2.003  15.010 -0.0016 -0.2114  0.1385
  820MPD2    C212064   3.289   1.971  15.120  0.1455  0.3841 -0.1940
  820MPD2    C312065   3.381   1.878  15.102  0.7516  0.4083 -0.0135
  820MPD2    C412066   3.405   1.816  14.983  0.6887 -0.0798 -0.4458
  820MPD2    C512067   3.332   1.851  14.878 -0.0394  0.0063 -0.0239
  820MPD2     H12068   3.269   2.007  15.220  1.2565  2.2005 -0.6201
  820MPD2    H112069   3.477   1.735  14.971 -1.2400 -2.1670  2.0990
  820MPD2    H212070   3.192   1.989  14.794  1.1260  0.5604  0.0894
  820MPD2    H312071   3.371   1.811  14.786  0.4057 -0.3306  0.3124
  820MPD2     N12072   3.461   1.832  15.210 -0.2455 -0.5396  0.0177
  820MPD2    H512073   3.523   1.753  15.192 -0.1431 -0.6162  0.6988
  820MPD2    N112074   3.098   2.091  15.018 -1.0295  0.0153  0.2092
  820MPD2    H712075   3.045   2.106  14.932  0.4272 -1.0564 -0.8884
  821MPD2     C12076   4.114   3.355  13.408 -0.2782  0.0436  0.1829
  821MPD2    C112077   4.216   3.265  13.430  1.0858  0.1599  0.9254
  821MPD2    C212078   4.284   3.229  13.320  0.5065  0.5777  0.3055
  821MPD2    C312079   4.250   3.277  13.193  0.1480 -0.7676  0.1307
  821MPD2    C412080   4.144   3.364  13.180 -0.8576 -0.0815 -0.0659
  821MPD2    C512081   4.082   3.403  13.291 -0.2325 -0.9995  0.6170
  821MPD2     H12082   4.368   3.162  13.339 -0.4075 -0.7729 -0.4613
  821MPD2    H112083   4.110   3.405  13.086 -0.9990  0.3366  0.1671
  821MPD2    H212084   4.045   3.392  13.483  0.7089  0.6850  0.7660
  821MPD2    H312085   4.002   3.475  13.276 -0.5315 -2.1395 -3.3410
  821MPD2     N12086   4.342   3.253  13.084 -0.1641  0.6218 -0.3472
  821MPD2    H512087   4.321   3.303  12.999  0.4380  3.2932  1.0697
  821MPD2    N112088   4.255   3.220  13.554 -0.2627  0.3597  0.2900
  821MPD2    H712089   4.345   3.174  13.551  0.4227  1.7913 -1.3615
  822MPD2     C12090   4.331   3.166  15.572  0.7866  0.1763  0.3136
  822MPD2    C112091   4.321   3.139  15.707  0.4303 -0.3035 -0.0235
  822MPD2    C212092   4.272   3.230  15.796 -0.2073 -0.0103  0.0709
  822MPD2    C312093   4.234   3.357  15.752 -0.1838 -0.2301 -0.9133
  822MPD2    C412094   4.230   3.383  15.619 -0.7984  0.0983  0.1321
  822MPD2    C512095   4.277   3.286  15.534 -0.1901  0.1450  0.0410
  822MPD2     H12096   4.276   3.212  15.903 -0.6198  2.2140  0.4678
  822MPD2    H112097   4.192   3.476  15.578  0.9540  0.4338 -0.7520
  822MPD2    H212098   4.372   3.099  15.497 -1.8689  1.3985 -2.2384
  822MPD2    H312099   4.281   3.318  15.431  0.8852 -0.0092  0.0336
  822MPD2     N12100   4.185   3.440  15.851  0.2879  0.2170  0.2906
  822MPD2    H512101   4.177   3.398  15.943  1.6140  0.9381  0.7421
  822MPD2    N112102   4.373   3.022  15.771 -0.1261 -0.4347 -0.1765
  822MPD2    H712103   4.369   3.017  15.872 -1.3457  1.0953 -0.1530
  823MPD2     C12104   3.806   3.569  16.592  0.0645 -0.2083 -0.5585
  823MPD2    C112105   3.880   3.499  16.497  0.7861  0.3126 -0.3562
  823MPD2    C212106   3.962   3.395  16.531  0.5909  0.2847 -0.0821
  823MPD2    C312107   3.981   3.367  16.668  0.3099  0.4997 -0.3059
  823MPD2    C412108   3.912   3.443  16.761 -0.9835 -0.2492  0.1875
  823MPD2    C512109   3.820   3.538  16.725 -0.6862 -0.0452  0.2662
  823MPD2     H12110   4.017   3.336  16.459 -2.5295 -1.2375 -1.2243
  823MPD2    H112111   3.922   3.419  16.866  0.2024  1.9434  0.5586
  823MPD2    H212112   3.744   3.654  16.566  2.0754  1.1788 -0.7999
  823MPD2    H312113   3.765   3.597  16.798  1.0919  0.9765  0.7904
  823MPD2     N12114   4.061   3.266  16.721 -0.3076 -0.1526  0.6643
  823MPD2    H512115   4.044   3.239  16.817  1.6024  1.7796  1.5553
  823MPD2    N112116   3.876   3.545  16.363 -0.0004  0.2504 -0.3296
  823MPD2    H712117   3.832   3.635  16.346  1.2061  0.7865 -0.5646
  824MPD2     C12118   4.538   2.163  15.863  0.5006  0.1983  0.1572
  824MPD2    C112119   4.627   2.264  15.842 -0.5223  0.5616  0.3766
  824MPD2    C212120   0.030   2.231  15.817  0.4665 -0.0485 -0.1942
  824MPD2    C312121   0.072   2.098  15.808  0.1503  0.7703  0.0224
  824MPD2    C412122   4.709   1.998  15.820 -0.5618  0.2100 -0.5968
  824MPD2    C512123   4.582   2.029  15.857  0.6074 -0.2872 -0.0714
  824MPD2     H12124   0.109   2.305  15.819 -0.8188  1.3242 -1.3928
  824MPD2    H112125   0.003   1.892  15.814 -2.3132  0.0069 -2.8793
  824MPD2    H212126   4.433   2.177  15.885  0.6339  2.7835 -0.8758
  824MPD2    H312127   4.515   1.954  15.897 -0.6436  0.3327 -1.0262
  824MPD2     N12128   0.211   2.073  15.796  0.3136 -0.2512  0.2423
  824MPD2    H512129   0.271   2.155  15.792 -0.0748 -0.0696 -1.5560
  824MPD2    N112130   4.601   2.397  15.858  0.0490  0.0768  0.1131
  824MPD2    H712131   4.682   2.458  15.849  0.4609 -0.1869  2.2112
  825MPD2     C12132   0.438   2.352  15.282  0.3459  0.7007  0.2151
  825MPD2    C112133   0.539   2.296  15.347  0.3671  0.3930 -0.5768
  825MPD2    C212134   0.658   2.344  15.314  0.2371  0.1548  0.1207
  825MPD2    C312135   0.676   2.422  15.200 -0.8616  0.0483 -0.6595
  825MPD2    C412136   0.568   2.449  15.119 -0.1287  0.4307 -0.3929
  825MPD2    C512137   0.443   2.426  15.173  0.6634 -0.6443  0.5337
  825MPD2     H12138   0.743   2.320  15.377 -0.4920 -0.7876  0.7449
  825MPD2    H112139   0.573   2.498  15.022  2.0905  1.8404  0.4418
  825MPD2    H212140   0.338   2.327  15.315  0.1558  2.8261  1.2068
  825MPD2    H312141   0.352   2.453  15.121 -0.3751 -0.7604  2.2708
  825MPD2     N12142   0.812   2.464  15.160 -0.5368  0.4912 -0.3065
  825MPD2    H512143   0.883   2.457  15.232  0.0281  0.4863 -0.8609
  825MPD2    N112144   0.514   2.205  15.454 -0.0505 -0.1143  0.6602
  825MPD2    H712145   0.417   2.190  15.480 -0.1012 -2.8381 -1.0458
  826MPD2     C12146   0.710   2.322  13.808 -0.1899  1.3618  0.7764
  826MPD2    C112147   0.653   2.366  13.692 -0.3006 -0.0045 -0.6369
  826MPD2    C212148   0.549   2.454  13.693  1.2435  0.4800 -0.1179
  826MPD2    C312149   0.505   2.503  13.806  0.2962 -0.2393 -0.0066
  826MPD2    C412150   0.565   2.461  13.925  0.2131 -0.1266 -0.1191
  826MPD2    C512151   0.665   2.370  13.929 -0.0395 -0.0088 -0.1340
  826MPD2     H12152   0.500   2.481  13.600 -2.1898 -0.1646  1.5276
  826MPD2    H112153   0.527   2.513  14.012  2.7743  1.3930  0.0875
  826MPD2    H212154   0.787   2.246  13.805  0.9707  2.5946 -0.6080
  826MPD2    H312155   0.727   2.348  14.014  0.9309  1.6887 -0.4019
  826MPD2     N12156   0.393   2.588  13.827 -0.1417  0.0121 -0.0060
  826MPD2    H512157   0.367   2.604  13.924  0.9239  0.2333  0.2411
  826MPD2    N112158   0.707   2.301  13.576  0.2133  0.3058 -0.4406
  826MPD2    H712159   0.778   2.230  13.589 -0.1257  0.1638  0.6935
  827MPD2     C12160   0.940   3.594  10.156  0.1105  0.2003  0.2096
  827MPD2    C112161   0.999   3.473  10.173  0.8064  0.0323 -0.7005
  827MPD2    C212162   0.953   3.365  10.097  0.2950 -0.4958  0.2474
  827MPD2    C312163   0.860   3.380   9.995 -0.2560  0.1477 -0.1946
  827MPD2    C412164   0.807   3.506   9.979  0.2127  0.5349  0.2589
  827MPD2    C512165   0.843   3.606  10.060 -0.2070  0.0946  0.0778
  827MPD2     H12166   0.987   3.264  10.118 -1.2255 -1.1225 -0.2924
  827MPD2    H112167   0.735   3.530   9.901  0.9761  0.9562 -0.3149
  827MPD2    H212168   0.959   3.681  10.217  1.2595  0.1608 -0.0964
  827MPD2    H312169   0.806   3.706  10.041 -2.2014 -0.1953  2.5496
  827MPD2     N12170   0.815   3.266   9.930 -0.1004 -0.3807 -0.0171
  827MPD2    H512171   0.857   3.176   9.953  0.4740 -0.0334  0.2773
  827MPD2    N112172   1.111   3.465  10.262 -0.1186  0.1533 -0.4870
  827MPD2    H712173   1.148   3.552  10.298  0.6229 -0.9715  1.4652
  828MPD2     C12174   0.033   3.821  12.469 -0.5003 -0.9816  1.0615
  828MPD2    C112175   4.677   3.849  12.359 -0.3401 -0.2160  0.2805
  828MPD2    C212176   4.710   3.793  12.239 -0.2639 -0.3913  0.0192
  828MPD2    C312177   0.088   3.707  12.215  0.6895 -0.0164 -1.1084
  828MPD2    C412178   0.171   3.683  12.319  0.5337  0.3651 -0.2556
  828MPD2    C512179   0.141   3.739  12.443  0.5213 -0.4165  0.5050
  828MPD2     H12180   4.652   3.820  12.152  1.3803  0.2903 -0.8736
  828MPD2    H112181   0.261   3.624  12.306  0.6576  1.0150 -2.3751
  828MPD2    H212182   0.014   3.857  12.569  1.6573 -0.8860  1.4472
  828MPD2    H312183   0.210   3.728  12.526  0.9066  0.7315  0.3330
  828MPD2     N12184   0.116   3.643  12.091  0.3513  0.4202 -0.3549
  828MPD2    H512185   0.187   3.570  12.093 -0.0034  0.1223  1.3407
  828MPD2    N112186   4.546   3.905  12.364 -0.5047  0.1469 -0.1813
  828MPD2    H712187   4.501   3.919  12.275 -0.5679 -0.5832 -0.2604
  829MPD2     C12188   3.848   4.413  11.872  0.4928 -0.5645 -0.4731
  829MPD2    C112189   3.787   4.365  11.979 -0.5377  0.1346  0.5531
  829MPD2    C212190   3.868   4.305  12.070  0.4145 -0.1738  0.4814
  829MPD2    C312191   4.005   4.305  12.067  0.6644 -0.1498  0.1601
  829MPD2    C412192   4.071   4.364  11.964  0.4427  0.1165 -0.3968
  829MPD2    C512193   3.987   4.412  11.870  0.0319  0.1767 -0.6281
  829MPD2     H12194   3.831   4.257  12.160  2.4723 -1.5201  0.6128
  829MPD2    H112195   4.178   4.370  11.944  0.6433 -0.8607  0.4099
  829MPD2    H212196   3.792   4.463  11.794  0.1619 -1.2881 -0.7082
  829MPD2    H312197   4.037   4.450  11.782 -0.5412  0.4523 -0.8315
  829MPD2     N12198   4.074   4.254  12.180 -0.2153 -0.0568  0.0232
  829MPD2    H512199   4.010   4.215  12.248 -1.1695  1.7753  0.1932
  829MPD2    N112200   3.649   4.383  11.990 -0.6107  0.4688  0.4813
  829MPD2    H712201   3.605   4.427  11.909 -0.7874  1.5234  1.1453
  830MPD2     C12202   4.538   1.252  16.266  0.0974  0.2241  0.0305
  830MPD2    C112203   4.423   1.293  16.203 -0.7951  0.1807  0.3125
  830MPD2    C212204   4.433   1.378  16.091  0.1344 -0.3474 -0.0309
  830MPD2    C312205   4.564   1.413  16.050  0.2442 -0.8772 -0.1415
  830MPD2    C412206   4.681   1.372  16.121 -0.2815  0.5313  0.3931
  830MPD2    C512207   4.663   1.289  16.230  0.1758 -0.2162  0.3852
  830MPD2     H12208   4.341   1.401  16.038  0.1887 -0.3301 -0.1173
  830MPD2    H112209   0.053   1.404  16.091  0.1610  0.3265  1.6301
  830MPD2    H212210   4.535   1.191  16.355 -0.3691 -0.2622 -0.3215
  830MPD2    H312211   0.025   1.267  16.288  0.1142  0.4803  0.7545
  830MPD2     N12212   4.587   1.498  15.941  0.1583  0.1147  0.1321
  830MPD2    H512213   4.678   1.543  15.940 -0.8123  2.0972  0.5663
  830MPD2    N112214   4.293   1.250  16.260  0.0960 -0.0404 -0.1958
  830MPD2    H712215   4.297   1.211  16.354 -1.2569 -0.4371 -0.3030
  831MPD2     C12216   4.455   3.539  16.127 -0.3143 -0.1367  0.0816
  831MPD2    C112217   4.484   3.421  16.062 -0.2425 -0.1277  0.6448
  831MPD2    C212218   4.417   3.306  16.090  0.0965 -0.6312 -0.0529
  831MPD2    C312219   4.306   3.311  16.173 -0.0472  0.0788  0.2909
  831MPD2    C412220   4.295   3.425  16.250  0.3853 -0.0264  0.1136
  831MPD2    C512221   4.367   3.546  16.227  0.4861  0.8282 -0.2891
  831MPD2     H12222   4.434   3.218  16.029  0.6686 -1.3479  1.1259
  831MPD2    H112223   4.224   3.425  16.332  2.0217 -1.2626  1.5452
  831MPD2    H212224   4.510   3.629  16.104  0.6245 -1.2272 -1.9446
  831MPD2    H312225   4.356   3.635  16.288  1.2320  0.6922  0.0417
  831MPD2     N12226   4.213   3.211  16.204  0.0527 -0.3277  0.4469
  831MPD2    H512227   4.143   3.240  16.271  1.2038  0.3294  1.3841
  831MPD2    N112228   4.572   3.433  15.952  0.8861 -0.0671  0.2446
  831MPD2    H712229   4.577   3.521  15.903  0.2820 -1.5026 -2.4141
  832MPD2     C12230   2.631   4.158  17.113  0.3598  0.1920  0.4054
  832MPD2    C112231   2.649   4.291  17.089  0.1414 -0.2853  0.4242
  832MPD2    C212232   2.573   4.371  17.006 -0.6092 -0.3239 -0.6215
  832MPD2    C312233   2.462   4.306  16.943 -0.4234  0.9128  0.6451
  832MPD2    C412234   2.445   4.169  16.957  0.1147 -0.2125  0.2131
  832MPD2    C512235   2.533   4.098  17.037 -0.3622  0.3911  0.1623
  832MPD2     H12236   2.585   4.478  16.994  0.7061 -0.1746  1.9922
  832MPD2    H112237   2.357   4.127  16.909 -0.3818  2.0120 -0.8430
  832MPD2    H212238   2.695   4.098  17.177  0.9817  0.5877  0.1571
  832MPD2    H312239   2.522   3.991  17.051  0.1932  0.1606 -1.1443
  832MPD2     N12240   2.364   4.377  16.866  0.0588 -0.0217 -0.3241
  832MPD2    H512241   2.297   4.318  16.818  1.2009 -1.1829 -0.5145
  832MPD2    N112242   2.738   4.346  17.186 -0.6505  0.8043 -0.3111
  832MPD2    H712243   2.761   4.283  17.262 -0.3563 -1.1650 -2.0292
  833MPD2     C12244   0.098   1.697  12.785 -0.3687  0.2426  0.2522
  833MPD2    C112245   0.131   1.778  12.678  0.4637  0.8206 -0.5553
  833MPD2    C212246   0.236   1.734  12.614 -0.8628  0.1112  0.4087
  833MPD2    C312247   0.320   1.632  12.652 -0.5222  0.1937 -0.2697
  833MPD2    C412248   0.296   1.574  12.776 -1.0686  0.4893  0.1874
  833MPD2    C512249   0.180   1.603  12.842  0.7691  0.3834  0.3742
  833MPD2     H12250   0.263   1.789  12.524  1.2494 -1.5037  0.0576
  833MPD2    H112251   0.366   1.499  12.810 -0.8519  0.9516  0.7682
  833MPD2    H212252   0.004   1.724  12.833 -0.7404 -3.1247  1.4246
  833MPD2    H312253   0.149   1.546  12.929 -0.7978 -0.9500 -1.0815
  833MPD2     N12254   0.444   1.602  12.584  0.1262  0.0820 -0.3542
  833MPD2    H512255   0.498   1.529  12.630  1.0447  0.3342 -1.0509
  833MPD2    N112256   0.048   1.885  12.639 -0.1741  0.2359  0.4096
  833MPD2    H712257   4.695   1.897  12.701 -0.4608 -1.3107  0.3566
  834MPD2     C12258   0.414   0.931  12.026 -0.6869 -0.2601  0.1668
  834MPD2    C112259   0.411   1.043  11.935  0.4884  0.3618  0.1405
  834MPD2    C212260   0.467   1.163  11.971 -0.5104  0.1764 -0.0804
  834MPD2    C312261   0.543   1.167  12.086 -0.3617 -0.4732 -0.1666
  834MPD2    C412262   0.570   1.054  12.160  0.5465  0.5061  0.3193
  834MPD2    C512263   0.501   0.939  12.129 -0.1261  0.1819  0.0468
  834MPD2     H12264   0.455   1.251  11.909 -2.3198  0.9442  1.3309
  834MPD2    H112265   0.641   1.044  12.241  1.1846 -0.1848 -0.3287
  834MPD2    H212266   0.356   0.839  12.018  1.0810 -1.4210  0.5957
  834MPD2    H312267   0.507   0.856  12.199 -1.8086  0.0323  0.0205
  834MPD2     N12268   0.604   1.292  12.124 -0.1507 -0.3542 -0.3832
  834MPD2    H512269   0.603   1.364  12.052 -0.9990  0.0211 -0.0017
  834MPD2    N112270   0.342   1.025  11.814  0.4939 -0.3034 -0.2210
  834MPD2    H712271   0.298   0.934  11.801  0.2493 -0.2342  0.1200
  835MPD2     C12272   0.479   3.403  11.146 -0.5964 -0.5362  0.8388
  835MPD2    C112273   0.401   3.511  11.179  0.1637  0.5187 -0.7957
  835MPD2    C212274   0.426   3.581  11.299  0.9377 -0.0711 -0.3189
  835MPD2    C312275   0.528   3.544  11.388  0.0635  0.1162  0.3447
  835MPD2    C412276   0.612   3.441  11.341 -0.5066 -0.4136 -0.6935
  835MPD2    C512277   0.587   3.368  11.223  0.2240 -0.7748 -0.6374
  835MPD2     H12278   0.369   3.670  11.321 -0.1128 -0.3839 -1.7858
  835MPD2    H112279   0.697   3.401  11.396  0.3502  0.0540 -1.6869
  835MPD2    H212280   0.454   3.332  11.068 -1.4375  1.9570 -1.1410
  835MPD2    H312281   0.638   3.274  11.204 -0.6721 -1.2347 -0.7921
  835MPD2     N12282   0.551   3.600  11.517 -0.1663  0.3820 -0.0460
  835MPD2    H512283   0.628   3.554  11.565  3.1060  4.0044 -1.7899
  835MPD2    N112284   0.294   3.564  11.106  0.0488  0.1571  0.0296
  835MPD2    H712285   0.249   3.638  11.158  0.4442  0.3327  0.1245
  836MPD2     C12286   0.073   4.158  11.866  0.0281 -0.0342 -0.0139
  836MPD2    C112287   0.142   4.083  11.952 -0.1261  0.1289 -0.0873
  836MPD2    C212288   0.116   4.099  12.090  1.7650  0.0674  0.1785
  836MPD2    C312289   0.018   4.201  12.129 -0.0673  0.3556  0.0116
  836MPD2    C412290   4.672   4.266  12.035 -0.1699 -0.7932  0.2421
  836MPD2    C512291   4.699   4.251  11.902 -0.2506 -0.4601 -0.0362
  836MPD2     H12292   0.175   4.043  12.162  1.1802 -1.0883 -0.2332
  836MPD2    H112293   4.607   4.349  12.062  0.5114  0.9153 -3.3404
  836MPD2    H212294   0.097   4.158  11.760  1.6446  3.8920  0.3571
  836MPD2    H312295   4.637   4.290  11.822  1.8539 -1.6426 -2.2128
  836MPD2     N12296   0.007   4.240  12.263  0.0514  0.7562 -0.2152
  836MPD2    H512297   4.672   4.321  12.273  1.9082  2.2060 -0.4318
  836MPD2    N112298   0.251   4.007  11.898  0.6024  0.1202 -0.1833
  836MPD2    H712299   0.269   4.009  11.798 -2.2735  2.8993 -0.6709
  837MPD2     C12300   3.236   3.173  10.414 -0.0968  0.5645 -0.1484
  837MPD2    C112301   3.168   3.183  10.299 -0.3277 -0.3081 -0.3494
  837MPD2    C212302   3.179   3.288  10.217 -0.3424 -0.0406  0.0220
  837MPD2    C312303   3.270   3.392  10.240 -0.4043 -0.0302 -0.3146
  837MPD2    C412304   3.342   3.382  10.363  0.4573  0.4304 -0.7152
  837MPD2    C512305   3.329   3.273  10.441  0.0095 -0.1613 -0.5396
  837MPD2     H12306   3.124   3.288  10.124 -0.3934  0.1715  0.0533
  837MPD2    H112307   3.394   3.466  10.407  2.2636 -1.0167 -0.0707
  837MPD2    H212308   3.222   3.092  10.485  2.2323 -0.3693 -0.7554
  837MPD2    H312309   3.390   3.265  10.530 -1.5926 -2.5724  0.3762
  837MPD2     N12310   3.264   3.513  10.169  0.1997  0.5120  0.3006
  837MPD2    H512311   3.190   3.516  10.099  0.7144 -0.3968 -0.2784
  837MPD2    N112312   3.062   3.096  10.258  0.1779  0.5936 -0.3418
  837MPD2    H712313   3.030   3.117  10.164 -0.1441 -1.1415 -0.6068
  838MPD2     C12314   1.853   1.709  11.521  0.4395 -0.1484  0.2782
  838MPD2    C112315   1.886   1.576  11.551 -0.1146 -0.1343 -0.0946
  838MPD2    C212316   1.786   1.478  11.541 -0.0571  0.3484  0.3540
  838MPD2    C312317   1.650   1.520  11.537  0.8419  0.4133 -0.0481
  838MPD2    C412318   1.620   1.656  11.525 -0.4648  0.0745  0.0313
  838MPD2    C512319   1.723   1.747  11.518 -0.2210  0.7445 -0.4618
  838MPD2     H12320   1.808   1.373  11.529  1.8991  0.6677  1.1437
  838MPD2    H112321   1.517   1.687  11.518  0.0333  1.6097 -0.5672
  838MPD2    H212322   1.925   1.789  11.531  0.9705 -0.5073 -0.6356
  838MPD2    H312323   1.696   1.852  11.508 -0.5794  0.7177  0.2776
  838MPD2     N12324   1.552   1.422  11.552 -0.1876 -0.3769  0.0870
  838MPD2    H512325   1.585   1.329  11.577  2.6345  1.6194  3.8828
  838MPD2    N112326   2.014   1.527  11.590 -0.6555 -0.3856  0.2561
  838MPD2    H712327   2.014   1.429  11.618 -1.5359 -0.4753 -0.0608
  839MPD2     C12328   1.956   0.723  11.706  0.6713  0.1263  0.4519
  839MPD2    C112329   1.944   0.775  11.576  0.4799  0.5784  0.2021
  839MPD2    C212330   2.015   0.888  11.541  0.0060 -0.2863 -0.2321
  839MPD2    C312331   2.081   0.951  11.643 -0.5871 -0.5163  0.6758
  839MPD2    C412332   2.090   0.896  11.773 -0.2493  0.1705  0.1740
  839MPD2    C512333   2.029   0.783  11.803 -0.9900  0.7259  0.5633
  839MPD2     H12334   2.003   0.932  11.442  0.2901 -2.6018 -1.3027
  839MPD2    H112335   2.163   0.927  11.846  1.5023  1.3803 -2.0767
  839MPD2    H212336   1.904   0.629  11.721 -0.5372  0.7061 -0.0698
  839MPD2    H312337   2.050   0.725  11.892  2.5635  1.2685  0.0787
  839MPD2     N12338   2.152   1.078  11.627 -0.4361 -1.0162  0.2614
  839MPD2    H512339   2.191   1.130  11.705  0.7452 -1.4063 -0.0693
  839MPD2    N112340   1.843   0.709  11.501  0.2895  0.7454 -0.0772
  839MPD2    H712341   1.793   0.629  11.538 -1.9264  1.9438 -0.4697
  840MPD2     C12342   1.529   3.911  10.285 -0.7746 -0.2705  0.3341
  840MPD2    C112343   1.562   3.833  10.397 -0.4637  0.1121  0.3738
  840MPD2    C212344   1.679   3.860  10.468 -0.5762  0.7233  0.5087
  840MPD2    C312345   1.757   3.967  10.435 -0.3398 -0.2470  0.7997
  840MPD2    C412346   1.728   4.044  10.318 -0.6347  0.5363 -0.1352
  840MPD2    C512347   1.621   4.006  10.243  0.8203 -0.2912 -0.1215
  840MPD2     H12348   1.706   3.801  10.555 -1.4612  0.7843  0.8218
  840MPD2    H112349   1.795   4.124  10.288 -1.0793  0.9480 -0.0374
  840MPD2    H212350   1.439   3.892  10.227 -1.0356  1.3327  0.2107
  840MPD2    H312351   1.606   4.045  10.144  1.7618  2.8747  0.9688
  840MPD2     N12352   1.876   4.004  10.500  0.5858 -0.9389 -0.0478
  840MPD2    H512353   1.926   4.084  10.463 -0.8241 -0.0045  0.1196
  840MPD2    N112354   1.476   3.722  10.425  0.2653  0.1605 -1.1488
  840MPD2    H712355   1.401   3.694  10.363 -0.0373 -1.5052 -0.0172
  841MPD2     C12356   1.483   3.181  14.859 -0.1741 -0.4595 -0.1843
  841MPD2    C112357   1.474   3.202  14.725  0.2543  0.1561  0.1074
  841MPD2    C212358   1.436   3.328  14.682  0.0067 -0.4488  0.2014
  841MPD2    C312359   1.395   3.428  14.767 -0.0500 -0.2550 -0.4751
  841MPD2    C412360   1.388   3.394  14.901 -0.0406 -0.5234  0.1730
  841MPD2    C512361   1.442   3.277  14.944  0.3232  0.1699  0.0684
  841MPD2     H12362   1.436   3.349  14.576 -2.3895  1.4921  0.5776
  841MPD2    H112363   1.367   3.466  14.979  0.2417 -1.2886  0.9559
  841MPD2    H212364   1.520   3.096  14.915  1.5347  0.8805  0.7026
  841MPD2    H312365   1.449   3.261  15.051  0.1925  0.6490  0.1483
  841MPD2     N12366   1.370   3.565  14.718 -0.1850 -0.6441 -0.6077
  841MPD2    H512367   1.364   3.572  14.617 -1.3001 -1.0455 -0.5752
  841MPD2    N112368   1.515   3.110  14.637  0.4056  0.4492 -0.4480
  841MPD2    H712369   1.517   3.131  14.537  0.3190 -0.2100 -0.5897
  842MPD2     C12370   1.587   4.273  16.584 -0.1728  0.9791 -0.2280
  842MPD2    C112371   1.654   4.390  16.579 -0.2596 -0.4148 -0.2542
  842MPD2    C212372   1.705   4.455  16.696  0.3205  0.1928 -0.5048
  842MPD2    C312373   1.679   4.406  16.821 -0.0049 -0.4397 -0.1787
  842MPD2    C412374   1.626   4.277  16.825  0.1890  0.2468 -1.2391
  842MPD2    C512375   1.578   4.211  16.708  0.3689  0.5348  0.1127
  842MPD2     H12376   1.755   4.550  16.685 -1.7839  1.4158  0.3397
  842MPD2    H112377   1.624   4.228  16.921  1.8634 -1.2732 -1.9872
  842MPD2    H212378   1.552   4.217  16.498  0.4442  0.1317  0.0692
  842MPD2    H312379   1.523   4.118  16.709 -0.9952  1.3309 -0.2403
  842MPD2     N12380   1.710   4.472  16.941 -0.6514  0.4956  0.3144
  842MPD2    H512381   1.690   4.424  17.029  0.6784 -0.1865  0.2457
  842MPD2    N112382   1.676   4.438  16.447 -0.4110 -0.2671  0.4864
  842MPD2    H712383   1.620   4.391  16.377  0.5419 -0.3990 -0.1938
  843MPD2     C12384   3.711   0.404   0.084 -0.2794 -0.4139 -0.8658
  843MPD2    C112385   3.798   0.361   0.184  0.6304 -0.4134 -0.1584
  843MPD2    C212386   3.908   0.436   0.224 -0.3316 -0.1710 -0.5024
  843MPD2    C312387   3.932   0.557   0.170 -0.1060  0.2988 -0.1474
  843MPD2    C412388   3.844   0.600   0.068  0.4249 -0.0860 -0.4894
  843MPD2    C512389   3.740   0.522   0.027  0.2016  0.7495  0.4948
  843MPD2     H12390   3.987   0.389   0.281  0.0155  3.3231  1.8577
  843MPD2    H112391   3.877   0.686   0.010 -0.6744 -0.5383 -1.7955
  843MPD2    H212392   3.627   0.340   0.061 -0.8940  0.0549  0.0295
  843MPD2    H312393   3.684   0.545  17.644  1.6943  0.5777 -0.4950
  843MPD2     N12394   4.045   0.638   0.203 -0.0158  0.3526 -0.5704
  843MPD2    H512395   4.039   0.730   0.161  1.7736  0.2512 -1.0147
  843MPD2    N112396   3.772   0.233   0.243  0.2326 -0.5580  0.8109
  843MPD2    H712397   3.695   0.179   0.204 -0.4263  0.0411  1.2773
  844MPD2     C12398   2.442   4.108  16.469 -0.6770 -0.9084 -0.8394
  844MPD2    C112399   2.515   3.997  16.500 -0.2188 -0.2590 -0.4769
  844MPD2    C212400   2.611   4.007  16.600  0.8621 -0.2174 -0.7374
  844MPD2    C312401   2.638   4.125  16.659 -0.0982 -0.2664  0.9289
  844MPD2    C412402   2.560   4.236  16.627 -0.2016 -0.0554  0.1654
  844MPD2    C512403   2.464   4.226  16.534  0.1635  0.2961 -0.6407
  844MPD2     H12404   2.659   3.917  16.637 -1.7837 -0.8022  1.2594
  844MPD2    H112405   2.575   4.333  16.672 -2.2836  0.3694 -0.0576
  844MPD2    H212406   2.374   4.106  16.385 -0.0537 -0.9049 -1.3363
  844MPD2    H312407   2.401   4.309  16.502 -0.5629 -0.2710 -0.6724
  844MPD2     N12408   2.743   4.130  16.752  0.2995 -0.4278 -0.2391
  844MPD2    H512409   2.785   4.040  16.774  0.2066 -0.1793  0.8995
  844MPD2    N112410   2.503   3.874  16.433 -0.3664 -0.3264 -0.6694
  844MPD2    H712411   2.562   3.801  16.470 -1.3273 -1.1754 -0.8116
  845MPD2     C12412   3.218   0.195  17.145 -0.3114  0.0134  0.2262
  845MPD2    C112413   3.090   0.168  17.114  0.3396 -0.4060  0.2001
  845MPD2    C212414   3.057   0.042  17.079 -0.1211  0.8431  0.2324
  845MPD2    C312415   3.150   4.670  17.079 -0.3984  0.0412 -0.9773
  845MPD2    C412416   3.281   4.698  17.107  0.1922  0.2649  0.3777
  845MPD2    C512417   3.318   0.101  17.128 -0.8201  0.1367 -0.1616
  845MPD2     H12418   2.951   0.023  17.063  0.5567 -2.5599 -0.2930
  845MPD2    H112419   3.367   4.632  17.109  0.2017  0.1767 -2.1201
  845MPD2    H212420   3.239   0.294  17.183  2.7373  0.1109 -1.6754
  845MPD2    H312421   3.420   0.119  17.160 -1.0431  1.1542 -0.0378
  845MPD2     N12422   3.104   4.541  17.030  0.1777  0.5102  1.0061
  845MPD2    H512423   3.010   4.537  16.992  1.0108 -0.0168 -0.9649
  845MPD2    N112424   3.005   0.273  17.130 -0.0323  0.5985 -0.6499
  845MPD2    H712425   3.044   0.366  17.139  0.6944  0.4140 -1.8996
  846MPD2     C12426   4.174   0.705  13.544  0.3146  0.0533  0.6719
  846MPD2    C112427   4.151   0.824  13.605 -0.4949 -0.1580  0.1012
  846MPD2    C212428   4.138   0.834  13.743 -0.1172  0.5198 -0.1320
  846MPD2    C312429   4.153   0.714  13.814 -0.7075  0.4460 -0.0854
  846MPD2    C412430   4.184   0.598  13.750  0.9016  0.2957  0.0758
  846MPD2    C512431   4.189   0.594  13.621  0.3808  0.5405  0.0750
  846MPD2     H12432   4.116   0.927  13.794 -1.7059  0.4056 -0.6250
  846MPD2    H112433   4.199   0.499  13.791 -1.0952 -0.6716 -1.5399
  846MPD2    H212434   4.186   0.701  13.436 -1.0268  1.8752  0.4676
  846MPD2    H312435   4.204   0.502  13.566 -0.1798  1.2234 -1.2150
  846MPD2     N12436   4.136   0.719  13.955 -0.3796  0.4793 -0.3091
  846MPD2    H512437   4.086   0.802  13.987 -0.4549  0.4610 -0.3795
  846MPD2    N112438   4.150   0.944  13.532  0.0284  0.4631  0.0477
  846MPD2    H712439   4.137   1.030  13.585 -1.2669  0.3352 -0.0744
  847MPD2     C12440   4.405   1.302  14.431 -0.0405 -0.5519 -0.0340
  847MPD2    C112441   4.495   1.395  14.474 -0.2305  0.1571 -0.6365
  847MPD2    C212442   4.574   1.369  14.582 -0.2308 -0.3504 -0.2219
  847MPD2    C312443   4.554   1.254  14.657 -0.3746  0.7219  0.1078
  847MPD2    C412444   4.466   1.155  14.615  0.4417 -0.2633 -0.3765
  847MPD2    C512445   4.389   1.185  14.503 -0.6127  0.0655  0.5793
  847MPD2     H12446   4.634   1.446  14.628 -2.6142 -0.3916  2.9954
  847MPD2    H112447   4.462   1.059  14.665  0.3951 -0.0468  0.0354
  847MPD2    H212448   4.339   1.306  14.346 -0.4576  0.8847  0.3625
  847MPD2    H312449   4.317   1.109  14.475 -1.6003  1.2231 -0.0062
  847MPD2     N12450   4.624   1.245  14.776  0.0729  0.1929 -0.5843
  847MPD2    H512451   4.701   1.310  14.783  0.1681 -0.2861  2.5378
  847MPD2    N112452   4.528   1.514  14.407  0.6776  0.4039 -0.2471
  847MPD2    H712453   4.610   1.553  14.452  2.1030 -1.1436 -1.5065
  848MPD2     C12454   2.177   0.011  16.150  0.0705 -0.1038 -0.0281
  848MPD2    C112455   2.254   0.039  16.264 -0.2097 -0.0027 -1.3418
  848MPD2    C212456   2.333   0.150  16.274  0.4336  0.1464 -0.3437
  848MPD2    C312457   2.345   0.235  16.162 -0.0799  0.1596 -0.0257
  848MPD2    C412458   2.279   0.194  16.048  0.1197 -0.6327 -0.1340
  848MPD2    C512459   2.199   0.086  16.042 -0.0122  0.4217  0.6655
  848MPD2     H12460   2.363   0.175  16.375  0.1948 -1.1470  0.0440
  848MPD2    H112461   2.285   0.259  15.961 -0.4340 -0.1110  0.2244
  848MPD2    H212462   2.103   4.658  16.143 -1.5829  1.6824 -2.6818
  848MPD2    H312463   2.139   0.062  15.955 -0.4590  1.9197  0.5644
  848MPD2     N12464   2.398   0.366  16.161 -0.7059 -0.1934 -0.0548
  848MPD2    H512465   2.396   0.412  16.071 -1.7134  0.1316  0.1315
  848MPD2    N112466   2.246   4.693  16.381 -0.1245 -0.0206 -0.6607
  848MPD2    H712467   2.292   0.004  16.463 -0.8861 -0.3777 -0.0707
  849MPD2     C12468   1.790   4.287  13.972  0.9805 -0.1410  0.5857
  849MPD2    C112469   1.855   4.388  14.045  0.4788 -0.3065 -0.1850
  849MPD2    C212470   1.815   4.407  14.178 -1.1983  0.1978 -0.3148
  849MPD2    C312471   1.720   4.321  14.230 -0.0080 -0.0224  0.9302
  849MPD2    C412472   1.667   4.214  14.155 -1.0548  0.2475 -0.4604
  849MPD2    C512473   1.707   4.200  14.029 -0.2260 -0.1263 -0.6017
  849MPD2     H12474   1.857   4.484  14.240 -0.5925 -1.3333  1.1743
  849MPD2    H112475   1.602   4.140  14.200 -0.3089 -0.5980 -0.7904
  849MPD2    H212476   1.820   4.268  13.870  0.5285 -3.5770  1.1153
  849MPD2    H312477   1.694   4.105  13.979  0.8877 -1.4170  1.6071
  849MPD2     N12478   1.694   4.314  14.373 -0.3705 -0.0277  0.0784
  849MPD2    H512479   1.670   4.222  14.407 -3.0286  0.8186  0.4684
  849MPD2    N112480   1.956   4.460  13.985 -0.0414  0.4503 -0.4775
  849MPD2    H712481   1.963   4.453  13.884 -1.1406 -0.6635 -0.4745
  850MPD2     C12482   0.114   2.265  14.547  0.2552 -0.4119  0.2073
  850MPD2    C112483   0.064   2.356  14.637 -0.4939  0.7318 -1.0663
  850MPD2    C212484   0.135   2.458  14.687 -0.3943  0.1954  0.5931
  850MPD2    C312485   0.271   2.468  14.660  0.4932  0.1077  0.1147
  850MPD2    C412486   0.324   2.387  14.566 -0.5722  0.0518  0.0951
  850MPD2    C512487   0.251   2.278  14.517  0.2112  0.1920 -0.2488
  850MPD2     H12488   0.088   2.528  14.756 -1.1607 -1.2872  1.5958
  850MPD2    H112489   0.425   2.400  14.528  0.3689 -0.4463  2.4461
  850MPD2    H212490   0.060   2.186  14.496  0.6335 -0.5533  0.0298
  850MPD2    H312491   0.302   2.219  14.442  2.5174 -2.8311  3.6952
  850MPD2     N12492   0.360   2.558  14.723 -0.0795  0.2560  0.2049
  850MPD2    H512493   0.460   2.549  14.707 -0.0291  1.3336 -0.0608
  850MPD2    N112494   4.647   2.332  14.671 -0.2486  0.0412  0.1253
  850MPD2    H712495   4.600   2.265  14.611 -1.2016  0.8166  0.0125
  851MPD2     C12496   0.325   2.046  15.194  0.8360 -0.2452  0.4519
  851MPD2    C112497   0.198   2.102  15.219  0.9460 -0.0456  0.2087
  851MPD2    C212498   0.112   2.043  15.310 -0.2430 -0.0438  0.1871
  851MPD2    C312499   0.141   1.933  15.392  0.3733 -0.1244  0.6624
  851MPD2    C412500   0.271   1.892  15.373  0.6704 -0.3429 -0.7552
  851MPD2    C512501   0.357   1.946  15.286 -0.4776 -0.8781  0.4220
  851MPD2     H12502   0.012   2.079  15.333 -0.1517  1.5189 -1.9100
  851MPD2    H112503   0.313   1.806  15.425  1.3398  1.1981  1.2314
  851MPD2    H212504   0.396   2.082  15.120  0.3808 -0.4090 -0.0688
  851MPD2    H312505   0.452   1.894  15.281 -0.7557 -1.4040  0.5818
  851MPD2     N12506   0.043   1.882  15.474  0.2891  0.2971 -0.2815
  851MPD2    H512507   4.681   1.932  15.472 -0.2508 -0.6883 -1.4358
  851MPD2    N112508   0.155   2.212  15.141  0.0915 -0.1679  0.2625
  851MPD2    H712509   0.201   2.221  15.050 -3.2526 -2.8658 -1.7093
  852MPD2     C12510   3.947   0.879   9.199  0.1073 -0.1075 -0.3290
  852MPD2    C112511   4.035   0.823   9.288 -0.9599 -0.6714  0.2296
  852MPD2    C212512   4.175   0.820   9.257 -0.1673 -0.6967 -0.0509
  852MPD2    C312513   4.229   0.889   9.154 -0.3947  0.0317 -0.2313
  852MPD2    C412514   4.136   0.951   9.073 -0.3392 -0.0765  0.1459
  852MPD2    C512515   4.002   0.927   9.084  0.1591 -0.5764 -0.1118
  852MPD2     H12516   4.242   0.775   9.329  0.0152  0.2718  0.3969
  852MPD2    H112517   4.181   1.011   8.995  2.7876 -0.3593  1.7078
  852MPD2    H212518   3.840   0.882   9.214  0.3352  1.1116  1.0108
  852MPD2    H312519   3.945   0.980   9.008  0.4547 -0.1316 -0.0211
  852MPD2     N12520   4.375   0.913   9.161  0.1020 -0.2117 -0.2874
  852MPD2    H512521   4.436   0.870   9.230 -2.0863 -3.1200 -0.1358
  852MPD2    N112522   3.991   0.764   9.412  0.1395  0.2171 -0.6685
  852MPD2    H712523   4.057   0.718   9.474  0.0649 -1.2574 -1.6953
  853MPD2     C12524   1.690   0.004  12.462  0.4063  0.3629  0.4137
  853MPD2    C112525   1.575   0.076  12.458  0.4771  0.1202  0.0618
  853MPD2    C212526   1.498   0.068  12.346  0.2625  0.3323 -0.1629
  853MPD2    C312527   1.541   4.716  12.234 -0.4204  0.3331 -0.1868
  853MPD2    C412528   1.660   4.646  12.238 -0.2410  0.1082  0.1788
  853MPD2    C512529   1.738   4.663  12.356 -0.2660 -0.6028 -0.3859
  853MPD2     H12530   1.400   0.113  12.342 -0.3637 -1.2122 -2.1711
  853MPD2    H112531   1.718   4.602  12.159  1.6787  1.3496  0.8943
  853MPD2    H212532   1.754   0.003  12.550  1.4851  1.1030 -0.3704
  853MPD2    H312533   1.838   4.623  12.367 -0.4766 -0.6576  1.3756
  853MPD2     N12534   1.474   4.710  12.108  0.5744 -0.0682  0.1233
  853MPD2    H512535   1.537   4.676  12.037 -0.7334  2.2827 -2.1680
  853MPD2    N112536   1.536   0.149  12.580  0.2527  0.4385 -0.0415
  853MPD2    H712537   1.601   0.152  12.658  0.4975 -0.2779 -0.2201
  854MPD2     C12538   3.060   0.474  13.005  0.4443 -0.4074 -0.0840
  854MPD2    C112539   3.176   0.499  12.934 -0.6033 -0.1968 -0.3647
  854MPD2    C212540   3.299   0.492  12.996  0.1775  0.1806 -0.5575
  854MPD2    C312541   3.309   0.436  13.122 -0.1669 -0.4922 -0.1947
  854MPD2    C412542   3.196   0.388  13.183  0.4407  1.1194  0.3692
  854MPD2    C512543   3.071   0.414  13.121  0.1165  0.4267 -0.3625
  854MPD2     H12544   3.388   0.532  12.949  0.1787  0.2658 -0.4837
  854MPD2    H112545   3.191   0.334  13.277 -1.4357 -0.1249 -0.4422
  854MPD2    H212546   2.960   0.486  12.963  0.8517  1.8859 -0.4336
  854MPD2    H312547   2.981   0.376  13.167 -2.2050  2.6155 -3.1088
  854MPD2     N12548   3.429   0.399  13.186 -0.1482 -0.7950  0.0168
  854MPD2    H512549   3.421   0.336  13.265 -0.4253  0.2428  0.8233
  854MPD2    N112550   3.168   0.539  12.802  0.2277  0.0636  0.3621
  854MPD2    H712551   3.254   0.579  12.765  0.1873  0.0664  0.2695
  855MPD2     C12552   3.521   0.256  14.006  0.0231  0.2291  0.9010
  855MPD2    C112553   3.624   0.172  13.958  0.0671  0.7246  0.0390
  855MPD2    C212554   3.663   0.179  13.824 -0.0847 -0.6413 -0.4246
  855MPD2    C312555   3.600   0.263  13.738  0.8250  0.4963  0.6101
  855MPD2    C412556   3.500   0.347  13.779  0.0946  0.5727  0.0065
  855MPD2    C512557   3.456   0.327  13.913  0.0480 -0.3369  0.0873
  855MPD2     H12558   3.733   0.105  13.788 -0.4467 -1.1885 -0.0065
  855MPD2    H112559   3.446   0.413  13.713  0.5640  1.7726  0.8295
  855MPD2    H212560   3.487   0.248  14.108 -1.8485 -1.3844  0.1529
  855MPD2    H312561   3.372   0.385  13.951  1.3978  0.2364  2.2013
  855MPD2     N12562   3.637   0.280  13.603 -0.2037 -0.6805 -0.0851
  855MPD2    H512563   3.580   0.351  13.558  0.4259 -0.9869 -1.3754
  855MPD2    N112564   3.699   0.091  14.048 -0.6484  0.1496 -0.1310
  855MPD2    H712565   3.779   0.049  14.002 -0.0363  1.3988 -0.2228
  856MPD2     C12566   0.235   0.845  14.345 -1.0407  0.2301 -0.2409
  856MPD2    C112567   0.317   0.947  14.314  0.1708 -0.8695 -0.2629
  856MPD2    C212568   0.273   1.061  14.253  0.1916 -0.1439  0.0297
  856MPD2    C312569   0.148   1.073  14.208 -0.2096  0.0131  0.7428
  856MPD2    C412570   0.067   0.967  14.219  0.1960 -0.2985 -0.4304
  856MPD2    C512571   0.110   0.856  14.291 -0.0047 -0.3789 -0.1296
  856MPD2     H12572   0.342   1.143  14.238 -0.8994  0.6393 -0.7250
  856MPD2    H112573   4.696   0.964  14.170  0.8341 -0.6192 -1.6837
  856MPD2    H212574   0.263   0.754  14.397  0.1720  0.1607 -1.0003
  856MPD2    H312575   0.043   0.771  14.286 -0.0779 -0.4974  3.0793
  856MPD2     N12576   0.098   1.197  14.169  0.5237 -0.4353  0.8531
  856MPD2    H512577   4.724   1.210  14.171  0.3796 -0.6756 -3.5839
  856MPD2    N112578   0.450   0.957  14.358  0.6932  0.3851  0.1944
  856MPD2    H712579   0.478   1.054  14.345 -2.0731  1.1320 -0.2151
  857MPD2     C12580   2.644   3.030  13.226  0.3863  0.3657 -0.0720
  857MPD2    C112581   2.640   3.152  13.176  0.0626  0.5150 -0.4368
  857MPD2    C212582   2.684   3.257  13.250 -0.0042  0.4031 -0.1259
  857MPD2    C312583   2.720   3.239  13.381  0.3094  0.1777  0.1843
  857MPD2    C412584   2.705   3.115  13.439  0.4492  1.0217 -0.2605
  857MPD2    C512585   2.669   3.012  13.357  0.0047 -0.5993  0.2350
  857MPD2     H12586   2.699   3.353  13.202  0.0206  1.4629  1.9933
  857MPD2    H112587   2.745   3.089  13.536 -0.5867 -0.2840 -0.1969
  857MPD2    H212588   2.610   2.947  13.165  1.3156  2.2172 -3.0829
  857MPD2    H312589   2.659   2.910  13.394  2.2296 -0.4545  1.1734
  857MPD2     N12590   2.775   3.346  13.455 -0.1032 -0.3255 -0.1974
  857MPD2    H512591   2.787   3.430  13.400 -0.3741 -0.9549 -1.2115
  857MPD2    N112592   2.599   3.160  13.039  0.6792 -0.0178 -0.0220
  857MPD2    H712593   2.578   3.073  12.991  0.6020 -0.0143  0.0051
  858MPD2     C12594   2.747   2.342  16.887 -0.5973  0.1188  0.3830
  858MPD2    C112595   2.879   2.300  16.874  0.1168  1.1506  0.4405
  858MPD2    C212596   2.977   2.354  16.962 -0.3390  0.4006  0.5726
  858MPD2    C312597   2.939   2.438  17.070  0.2059  0.2715 -0.0687
  858MPD2    C412598   2.801   2.475  17.081 -0.1878 -0.1174 -0.7142
  858MPD2    C512599   2.711   2.420  16.991 -0.1788 -1.2630  0.1867
  858MPD2     H12600   3.081   2.339  16.937 -0.6809  0.1146 -0.6607
  858MPD2    H112601   2.761   2.529  17.166  1.7619  0.5729 -0.2311
  858MPD2    H212602   2.676   2.294  16.820 -0.8021 -2.3326  2.3521
  858MPD2    H312603   2.605   2.438  17.009 -0.1270  0.3054 -1.0391
  858MPD2     N12604   3.033   2.511  17.147 -0.1686  0.2843  0.1240
  858MPD2    H512605   2.986   2.576  17.209 -1.4993  0.3153 -0.9153
  858MPD2    N112606   2.907   2.217  16.765  0.3951 -0.3988  0.4079
  858MPD2    H712607   2.829   2.200  16.703  1.5080 -0.4052 -0.9947
  859MPD2     C12608   1.221   4.301  15.512  0.0668  0.6277 -0.0088
  859MPD2    C112609   1.339   4.326  15.449  0.0268  0.7295 -0.1695
  859MPD2    C212610   1.421   4.220  15.403  0.6417  0.2777  0.5378
  859MPD2    C312611   1.385   4.085  15.422  0.0670 -0.3825  0.1164
  859MPD2    C412612   1.268   4.068  15.495 -0.5348  0.3923  0.1467
  859MPD2    C512613   1.191   4.169  15.538 -0.5793  0.2479  0.5570
  859MPD2     H12614   1.518   4.235  15.356  1.6001 -4.5298  0.9112
  859MPD2    H112615   1.239   3.966  15.516 -1.4827  0.3384 -1.3967
  859MPD2    H212616   1.164   4.384  15.552 -0.6242  0.3445 -0.4180
  859MPD2    H312617   1.101   4.148  15.595 -0.6820  2.1609  1.1181
  859MPD2     N12618   1.472   3.977  15.391 -1.0037 -0.0846  0.1714
  859MPD2    H512619   1.447   3.886  15.429 -0.3923  0.3441  1.5965
  859MPD2    N112620   1.376   4.463  15.436  0.1738  0.7618 -0.6717
  859MPD2    H712621   1.305   4.536  15.442  2.2661  2.8232 -1.0392
  860MPD2     C12622   4.172   0.410  11.744  0.4229  0.6270 -0.1987
  860MPD2    C112623   4.243   0.346  11.846  0.0968 -0.4494  0.4445
  860MPD2    C212624   4.175   0.256  11.932 -0.2734 -0.2302 -0.2703
  860MPD2    C312625   4.045   0.222  11.912 -0.9428  0.3969  0.1553
  860MPD2    C412626   3.977   0.276  11.801 -0.2942  0.3447 -0.1270
  860MPD2    C512627   4.043   0.369  11.720  0.5230 -0.0400 -0.0905
  860MPD2     H12628   4.227   0.206  12.012 -0.0509  0.5303  0.0585
  860MPD2    H112629   3.877   0.250  11.769  0.1355 -1.9608  0.3901
  860MPD2    H212630   4.216   0.492  11.688  0.6309  1.0860  0.6333
  860MPD2    H312631   3.986   0.412  11.639 -0.6968  1.9963  1.8545
  860MPD2     N12632   3.994   0.122  12.001 -0.4045  1.0574  0.4406
  860MPD2    H512633   4.050   0.094  12.081 -2.6581 -2.9697  0.5948
  860MPD2    N112634   4.383   0.372  11.870 -0.3893 -0.3450 -0.3468
  860MPD2    H712635   4.408   0.343  11.964 -0.7121  0.3466 -0.0501
  861MPD2     C12636   3.110   3.218  11.292 -0.3292  0.3207  0.3166
  861MPD2    C112637   2.995   3.144  11.321  0.2090  0.3111  0.2611
  861MPD2    C212638   2.904   3.118  11.223 -0.3088  0.0200 -0.4023
  861MPD2    C312639   2.930   3.167  11.099 -0.0914  0.5287 -0.5020
  861MPD2    C412640   3.043   3.249  11.077 -0.5442 -0.0131 -0.4393
  861MPD2    C512641   3.131   3.273  11.169  0.1547  0.3997 -0.2166
  861MPD2     H12642   2.814   3.059  11.237 -0.5247  0.1978 -1.0466
  861MPD2    H112643   3.070   3.287  10.980  0.2452  1.3084  0.3047
  861MPD2    H212644   3.192   3.233  11.361 -0.0888  0.9462 -0.0998
  861MPD2    H312645   3.209   3.347  11.162  0.0596  0.3859 -1.3525
  861MPD2     N12646   2.836   3.160  10.990 -0.4635 -0.2380 -0.3922
  861MPD2    H512647   2.851   3.215  10.906 -0.0586  0.4838  0.1521
  861MPD2    N112648   2.980   3.086  11.448 -0.0311  0.0307  0.2839
  861MPD2    H712649   3.045   3.122  11.517  0.8026 -1.6101  0.3622
  862MPD2     C12650   2.160   2.865  10.591  0.0662 -0.1467 -0.4278
  862MPD2    C112651   2.269   2.841  10.669  0.1771  0.5362  0.3350
  862MPD2    C212652   2.321   2.714  10.673 -0.0081  0.4959  0.1138
  862MPD2    C312653   2.258   2.608  10.608 -0.1246  0.5249  0.4635
  862MPD2    C412654   2.139   2.629  10.540  0.5312 -0.4975  0.1050
  862MPD2    C512655   2.093   2.759  10.536 -0.1760  0.1060 -1.0935
  862MPD2     H12656   2.423   2.702  10.710  0.2390 -1.3476 -1.1783
  862MPD2    H112657   2.077   2.554  10.491  2.3730 -0.8616 -1.6673
  862MPD2    H212658   2.114   2.959  10.561 -0.9652  0.0587  1.7786
  862MPD2    H312659   2.004   2.784  10.480 -1.2337 -0.1645  0.4446
  862MPD2     N12660   2.303   2.479  10.603 -0.2716  0.2341 -0.3744
  862MPD2    H512661   2.254   2.414  10.542  0.4254 -1.1359  0.5253
  862MPD2    N112662   2.339   2.945  10.735 -0.1186 -0.0104  0.4405
  862MPD2    H712663   2.417   2.906  10.788  0.8313  1.7747  0.3413
  863MPD2     C12664   1.079   1.371  17.085  0.0757 -0.1569  0.0803
  863MPD2    C112665   1.193   1.385  17.010 -0.7198 -0.3020 -0.0241
  863MPD2    C212666   1.309   1.328  17.060 -0.0409 -0.0173 -0.0175
  863MPD2    C312667   1.316   1.254  17.177  0.2330  0.2555  0.2694
  863MPD2    C412668   1.198   1.242  17.256  1.3439  0.1809 -0.4825
  863MPD2    C512669   1.088   1.313  17.207 -0.0002 -0.0893 -0.2076
  863MPD2     H12670   1.389   1.326  16.988 -0.2885  0.1904 -0.2999
  863MPD2    H112671   1.193   1.182  17.346 -0.0334 -0.9178 -1.2966
  863MPD2    H212672   0.979   1.401  17.056 -0.2531  0.0025  1.3953
  863MPD2    H312673   0.998   1.315  17.267  0.3411  2.9362  0.1779
  863MPD2     N12674   1.434   1.181  17.217 -0.6934  0.3847  0.4680
  863MPD2    H512675   1.419   1.110  17.288  2.2736  0.9491  1.6552
  863MPD2    N112676   1.177   1.424  16.877  0.3106  0.1486 -0.0224
  863MPD2    H712677   1.084   1.413  16.838  0.8028  0.8437 -1.3622
  864MPD2     C12678   1.910   2.382  17.181 -0.1586 -0.1932  0.9197
  864MPD2    C112679   1.799   2.385  17.101  0.0548  0.1622  0.4027
  864MPD2    C212680   1.791   2.481  17.000 -0.1658 -0.4319 -0.0212
  864MPD2    C312681   1.883   2.579  16.980  0.6180  0.2636 -0.2715
  864MPD2    C412682   1.993   2.570  17.068  0.0838 -0.2170  0.4619
  864MPD2    C512683   2.009   2.472  17.171 -0.6507  0.6629 -0.0354
  864MPD2     H12684   1.706   2.473  16.933 -1.6470  1.8508  1.6056
  864MPD2    H112685   2.076   2.636  17.044  0.1266 -0.3348  0.2888
  864MPD2    H212686   1.920   2.305  17.257 -0.2909  0.5116  1.6510
  864MPD2    H312687   2.103   2.472  17.226 -0.2301 -0.6879 -0.7545
  864MPD2     N12688   1.875   2.678  16.879 -0.0416 -0.5836 -0.3528
  864MPD2    H512689   1.955   2.731  16.848 -0.8762  1.0029  0.2260
  864MPD2    N112690   1.703   2.284  17.124 -0.3603 -0.3886 -0.0949
  864MPD2    H712691   1.731   2.211  17.188 -1.4233 -1.8600 -1.3030
  865MPD2     C12692   1.719   2.742  15.910  0.0139  0.2057 -0.0124
  865MPD2    C112693   1.732   2.666  16.024  0.0395 -0.4341  0.3019
  865MPD2    C212694   1.699   2.724  16.145  0.0961 -0.6383 -0.1186
  865MPD2    C312695   1.670   2.859  16.161 -0.6984  0.3960  0.1353
  865MPD2    C412696   1.664   2.932  16.045 -0.6902  0.1799  0.5870
  865MPD2    C512697   1.690   2.877  15.920 -0.1427  0.1603  0.5464
  865MPD2     H12698   1.703   2.661  16.234  1.8120  0.8150  0.8263
  865MPD2    H112699   1.631   3.035  16.049 -1.8082 -0.1542 -0.0388
  865MPD2    H212700   1.745   2.705  15.812  1.3925 -0.7274  0.7104
  865MPD2    H312701   1.672   2.939  15.833 -1.6680  0.1266  0.8471
  865MPD2     N12702   1.648   2.920  16.288 -0.8429 -0.8674  0.4358
  865MPD2    H512703   1.664   3.020  16.300 -1.5144 -0.6308 -0.6048
  865MPD2    N112704   1.788   2.536  16.012  0.2032 -0.3922  0.3949
  865MPD2    H712705   1.817   2.505  15.920  1.3106  0.8537  0.3185
  866MPD2     C12706   3.216   3.802  11.989 -0.7702  0.1669  0.8145
  866MPD2    C112707   3.276   3.756  11.874 -0.1277 -0.0192  0.3469
  866MPD2    C212708   3.198   3.705  11.771 -0.3724  0.4048  0.5410
  866MPD2    C312709   3.062   3.711  11.778 -0.1958 -0.7399  0.6123
  866MPD2    C412710   3.003   3.756  11.897 -0.4368  0.6999  0.2916
  866MPD2    C512711   3.082   3.802  11.996  1.6387 -0.1225  0.4159
  866MPD2     H12712   3.255   3.655  11.693  1.2272 -0.5779  2.3294
  866MPD2    H112713   2.895   3.765  11.901 -0.5041 -1.4246  3.0560
  866MPD2    H212714   3.271   3.849  12.070 -0.8916  1.6832  0.0040
  866MPD2    H312715   3.033   3.852  12.079  0.5391  0.7427 -0.7558
  866MPD2     N12716   2.975   3.654  11.687  0.4949 -0.5352 -0.3419
  866MPD2    H512717   2.876   3.638  11.705  0.0377  3.0922  0.2528
  866MPD2    N112718   3.414   3.749  11.869  0.1180 -0.3933 -0.4658
  866MPD2    H712719   3.459   3.770  11.957  1.7588 -1.3865 -1.0577
  867MPD2     C12720   0.791   2.709  16.576  0.6411 -0.1759 -1.0470
  867MPD2    C112721   0.840   2.616  16.667 -0.2944  0.4289 -0.0277
  867MPD2    C212722   0.956   2.652  16.734  0.2360  0.0081  0.2682
  867MPD2    C312723   1.029   2.767  16.702  0.2071  1.0168  0.9021
  867MPD2    C412724   0.982   2.854  16.601 -0.9746  0.1525 -0.3013
  867MPD2    C512725   0.857   2.823  16.548 -0.5699  0.0479  0.0741
  867MPD2     H12726   1.002   2.584  16.804 -0.8563 -1.3937 -0.3881
  867MPD2    H112727   1.031   2.946  16.571 -1.4471  0.7273  0.7236
  867MPD2    H212728   0.693   2.685  16.535 -0.1566  0.2540  0.6036
  867MPD2    H312729   0.810   2.881  16.470  0.8517  1.0070 -0.0775
  867MPD2     N12730   1.152   2.799  16.767 -0.0312  0.3613  0.1742
  867MPD2    H512731   1.206   2.877  16.731  0.0200  0.6457  0.8724
  867MPD2    N112732   0.770   2.490  16.689  0.0286 -0.3234  0.2378
  867MPD2    H712733   0.689   2.482  16.627  0.8674 -0.9336 -0.7881
  868MPD2     C12734   1.955   1.095  12.785 -0.3815  0.2385  0.2047
  868MPD2    C112735   2.030   1.133  12.892 -0.7872  0.5806  0.7508
  868MPD2    C212736   1.969   1.227  12.981  0.3470 -0.4493 -0.1294
  868MPD2    C312737   1.841   1.281  12.964  0.2271  0.6115  0.3501
  868MPD2    C412738   1.772   1.236  12.857 -0.8906  0.4017 -0.4920
  868MPD2    C512739   1.828   1.143  12.771  0.0476 -0.0391 -0.4449
  868MPD2     H12740   2.023   1.268  13.066  2.6506 -1.3919 -1.1373
  868MPD2    H112741   1.675   1.276  12.831 -1.1897  0.8543  1.2671
  868MPD2    H212742   1.998   1.025  12.714  0.8999  0.4160  0.8090
  868MPD2    H312743   1.774   1.106  12.685 -0.0297 -1.2471  0.1322
  868MPD2     N12744   1.798   1.382  13.050 -0.4322 -0.3847 -0.0126
  868MPD2    H512745   1.871   1.410  13.115  0.3829 -0.2801 -0.9691
  868MPD2    N112746   2.161   1.090  12.896  0.3054 -0.0105 -0.0275
  868MPD2    H712747   2.187   1.026  12.822 -0.9965  0.3972 -0.8346
  869MPD2     C12748   4.031   4.036   2.050  1.0575 -0.0821  0.4246
  869MPD2    C112749   4.031   4.005   1.916  0.4151 -0.4218 -0.4216
  869MPD2    C212750   4.003   4.101   1.822  0.4724 -0.2051 -0.1477
  869MPD2    C312751   3.965   4.228   1.855 -0.0283 -0.6891  0.0485
  869MPD2    C412752   3.970   4.260   1.987 -0.0553 -0.2984  0.2690
  869MPD2    C512753   4.008   4.167   2.082  0.2856  0.1955  0.9185
  869MPD2     H12754   3.999   4.078   1.716 -0.0293  0.0667 -0.1877
  869MPD2    H112755   3.947   4.363   2.014  1.2779  0.3167 -0.9324
  869MPD2    H212756   4.034   3.962   2.130  0.8656  1.2874  1.6878
  869MPD2    H312757   4.016   4.195   2.186  1.3269  0.8474  0.6606
  869MPD2     N12758   3.908   4.323   1.761  0.0897 -0.0773 -0.0294
  869MPD2    H512759   3.891   4.419   1.788  0.6055 -0.8142  2.9268
  869MPD2    N112760   4.064   3.870   1.886  0.1290  0.3260 -0.2113
  869MPD2    H712761   4.078   3.810   1.967  0.0779  0.5048 -0.0704
  870MPD2     C12762   3.400   3.009   1.801  0.1378 -0.7488  0.3633
  870MPD2    C112763   3.453   2.920   1.706 -1.3727 -0.4985 -0.4579
  870MPD2    C212764   3.552   2.974   1.624  0.6542 -0.0449  0.0457
  870MPD2    C312765   3.602   3.095   1.647  1.0972 -0.0494 -0.4703
  870MPD2    C412766   3.549   3.177   1.748  0.0186  0.6388 -0.3653
  870MPD2    C512767   3.445   3.135   1.823 -0.0731  0.4384 -0.2242
  870MPD2     H12768   3.603   2.910   1.553  0.0404 -0.2882 -0.1755
  870MPD2    H112769   3.591   3.275   1.766  2.1550 -0.4621  0.7739
  870MPD2    H212770   3.321   2.974   1.867 -0.0104 -0.6587  0.2330
  870MPD2    H312771   3.415   3.192   1.910 -1.6218  1.4386 -1.4123
  870MPD2     N12772   3.696   3.150   1.551 -0.2330 -0.4349 -0.2792
  870MPD2    H512773   3.730   3.079   1.486 -1.2821  0.4085 -1.7485
  870MPD2    N112774   3.404   2.787   1.705 -0.1410  0.7611 -0.4559
  870MPD2    H712775   3.349   2.755   1.783  1.8780 -0.1118  0.6048
  871MPD2     C12776   4.262   2.630  16.246 -0.3598 -0.0847 -0.2993
  871MPD2    C112777   4.292   2.623  16.382 -0.6308 -0.7003 -0.1460
  871MPD2    C212778   4.355   2.509  16.416  0.2163  0.1762  0.0082
  871MPD2    C312779   4.387   2.409  16.324  0.1683 -0.3647  0.0746
  871MPD2    C412780   4.361   2.430  16.191 -0.1812  0.1159  0.3860
  871MPD2    C512781   4.289   2.536  16.153  0.3191  0.2350 -0.3064
  871MPD2     H12782   4.380   2.490  16.520  0.1863 -1.0426 -0.2040
  871MPD2    H112783   4.380   2.353  16.117 -0.3518  0.4829 -0.0388
  871MPD2    H212784   4.195   2.709  16.213 -0.3196 -0.7480 -1.9524
  871MPD2    H312785   4.238   2.531  16.058  0.4918  0.2876 -0.4035
  871MPD2     N12786   4.439   2.290  16.377  0.7122  0.1110  0.0647
  871MPD2    H512787   4.425   2.276  16.477  0.3555 -0.6847 -0.1010
  871MPD2    N112788   4.253   2.727  16.471  0.9212 -0.0652 -0.1818
  871MPD2    H712789   4.221   2.811  16.424 -0.5359 -0.4783  0.0656
  872MPD2     C12790   0.347   0.089  14.180  0.0102  0.3532  0.8978
  872MPD2    C112791   0.287   0.213  14.160  0.2965 -0.1002 -0.4719
  872MPD2    C212792   0.151   0.210  14.125 -0.5001  0.6020 -0.1716
  872MPD2    C312793   0.084   0.089  14.108  0.2188 -0.0094 -0.5845
  872MPD2    C412794   0.150   4.694  14.126 -0.8381  0.3943 -0.6133
  872MPD2    C512795   0.281   4.693  14.158  0.1788  0.1861 -0.8540
  872MPD2     H12796   0.098   0.303  14.109  0.8517  1.2891 -0.7374
  872MPD2    H112797   0.096   4.601  14.117  1.4656 -0.8194 -1.9972
  872MPD2    H212798   0.452   0.085  14.208 -0.1661 -0.3585  1.4598
  872MPD2    H312799   0.336   4.601  14.172 -1.8643 -1.0851 -1.1498
  872MPD2     N12800   4.676   0.077  14.071  0.0798 -0.0327  0.2623
  872MPD2    H512801   4.654   4.707  14.046 -0.9406 -0.2278  1.9463
  872MPD2    N112802   0.354   0.340  14.174 -0.1919 -0.4609  0.3812
  872MPD2    H712803   0.297   0.422  14.155 -1.5925 -2.3978 -3.9604
  873MPD2     C12804   1.996   0.302   0.721  0.0136  0.4007  0.8300
  873MPD2    C112805   2.066   0.330   0.839 -0.0516 -0.1229 -0.0972
  873MPD2    C212806   2.188   0.281   0.853  0.6229  0.4330 -0.1494
  873MPD2    C312807   2.251   0.215   0.742  0.1279  0.3552  0.1603
  873MPD2    C412808   2.180   0.176   0.629 -0.2040 -0.1857  0.3087
  873MPD2    C512809   2.054   0.226   0.618 -0.2101 -0.1264 -0.1898
  873MPD2     H12810   2.249   0.296   0.942 -0.4570 -2.7882  1.1306
  873MPD2    H112811   2.233   0.148   0.539  0.8019  0.9263  0.5428
  873MPD2    H212812   1.892   0.331   0.709  0.2109  0.9850  0.5162
  873MPD2    H312813   1.990   0.212   0.532 -0.5126  0.9139 -0.1366
  873MPD2     N12814   2.387   0.168   0.744 -0.5086  0.5904 -0.1715
  873MPD2    H512815   2.418   0.108   0.668 -1.1742 -1.7626  1.4445
  873MPD2    N112816   2.003   0.408   0.939 -0.5334 -0.3238 -0.3832
  873MPD2    H712817   1.905   0.421   0.917 -0.2982  0.9358 -0.6602
  874MPD2     C12818   1.850   0.430  15.881 -1.2834 -0.5930 -0.3129
  874MPD2    C112819   1.884   0.371  15.998 -0.5187 -0.3211 -0.8087
  874MPD2    C212820   1.976   0.442  16.070 -0.3121  0.6524 -0.6036
  874MPD2    C312821   2.046   0.553  16.020  0.9682  0.2969  0.6907
  874MPD2    C412822   2.028   0.592  15.891  0.0373  0.2415 -0.2693
  874MPD2    C512823   1.920   0.534  15.828 -0.5181  0.0901 -0.4684
  874MPD2     H12824   1.988   0.417  16.175 -0.2728  0.1662 -0.7234
  874MPD2    H112825   2.080   0.671  15.836  0.8833 -0.0669  0.0921
  874MPD2    H212826   1.779   0.380  15.816 -0.1544 -1.0586 -1.2019
  874MPD2    H312827   1.899   0.565  15.726  1.2318  1.6796 -0.3442
  874MPD2     N12828   2.140   0.613  16.104 -0.1512 -0.4292  0.2213
  874MPD2    H512829   2.174   0.563  16.186  1.5752 -0.7512 -0.6896
  874MPD2    N112830   1.817   0.256  16.045  0.1457  0.4870 -0.4237
  874MPD2    H712831   1.750   0.205  15.988  0.2985  0.5875 -0.6921
  875MPD2     C12832   3.017   3.601  14.512 -0.2033  0.6548 -0.1730
  875MPD2    C112833   2.908   3.516  14.531 -0.0233  0.0715  0.4540
  875MPD2    C212834   2.848   3.509  14.652 -0.1750 -0.0568  0.1405
  875MPD2    C312835   2.888   3.593  14.753 -0.2738  0.1774  0.5992
  875MPD2    C412836   2.996   3.677  14.735 -0.7396 -0.2426  0.9630
  875MPD2    C512837   3.071   3.674  14.617  0.1801 -0.2008 -0.2159
  875MPD2     H12838   2.757   3.451  14.657 -0.1700  0.0459  1.3182
  875MPD2    H112839   3.037   3.727  14.822  2.0312 -0.1905 -0.3688
  875MPD2    H212840   3.072   3.615  14.420  0.6866  2.2068  0.6017
  875MPD2    H312841   3.149   3.745  14.595 -2.3182  2.4038 -0.5753
  875MPD2     N12842   2.808   3.606  14.870 -0.2409  0.2147 -0.3689
  875MPD2    H512843   2.824   3.681  14.935  1.3355 -1.3946  1.1127
  875MPD2    N112844   2.841   3.446  14.426  0.1646  0.9093 -0.3533
  875MPD2    H712845   2.761   3.388  14.449 -0.6105  2.3240  0.4866
  876MPD2     C12846   1.631   4.542  15.832  0.8156 -0.3244 -0.7753
  876MPD2    C112847   1.767   4.536  15.806 -0.2195 -0.8439 -0.9790
  876MPD2    C212848   1.839   4.418  15.836  0.3521  0.2846  0.3570
  876MPD2    C312849   1.778   4.313  15.903 -0.1964  0.1449  0.1551
  876MPD2    C412850   1.645   4.321  15.933 -0.1639 -0.0841 -0.1683
  876MPD2    C512851   1.574   4.430  15.894  0.9728 -0.0598 -0.0338
  876MPD2     H12852   1.945   4.416  15.812  0.6413 -1.2778  1.7348
  876MPD2    H112853   1.587   4.234  15.961 -1.6159  0.3625 -1.7663
  876MPD2    H212854   1.567   4.628  15.821 -0.0467 -0.9380 -0.5724
  876MPD2    H312855   1.471   4.432  15.926  1.1297 -1.3726  0.5609
  876MPD2     N12856   1.856   4.195  15.943 -0.2296  1.0507 -0.7350
  876MPD2    H512857   1.949   4.196  15.901  0.4367  1.0698  0.7471
  876MPD2    N112858   1.825   4.654  15.754 -1.0252  0.1195 -1.1425
  876MPD2    H712859   1.769   0.005  15.721 -1.0411  0.9030  0.7122
  877MPD2     C12860   1.710   0.434  15.286 -0.3042 -0.0404  0.2075
  877MPD2    C112861   1.845   0.457  15.308  0.3242 -0.6997  0.4580
  877MPD2    C212862   1.916   0.537  15.219 -0.4602 -0.2064  0.1385
  877MPD2    C312863   1.864   0.579  15.095  0.1072  0.1052 -0.4007
  877MPD2    C412864   1.734   0.551  15.072  0.1272 -0.8238 -0.4992
  877MPD2    C512865   1.655   0.485  15.167  0.8614  0.1750  0.5979
  877MPD2     H12866   2.019   0.555  15.250 -0.8120  1.8028  0.1364
  877MPD2    H112867   1.685   0.590  14.983 -1.0473 -0.7111  0.2015
  877MPD2    H212868   1.641   0.383  15.351 -0.1676 -0.8992 -0.3132
  877MPD2    H312869   1.551   0.463  15.144  0.7798  0.9725  0.1992
  877MPD2     N12870   1.932   0.662  15.003  0.0689 -0.4363 -0.3151
  877MPD2    H512871   1.884   0.670  14.913  1.2019  1.9988 -0.7011
  877MPD2    N112872   1.911   0.415  15.429 -0.4519 -0.1349  0.1070
  877MPD2    H712873   2.010   0.435  15.426 -0.3661 -0.3735  1.4761
  878MPD2     C12874   2.329   4.326  13.147  0.0431 -1.0517  0.7282
  878MPD2    C112875   2.230   4.413  13.188  0.1602 -0.2539  0.9294
  878MPD2    C212876   2.226   4.440  13.327  0.2792 -0.1280 -0.1854
  878MPD2    C312877   2.316   4.394  13.419  0.4334  0.5665  0.1270
  878MPD2    C412878   2.411   4.305  13.373  0.4248 -0.7162  0.4042
  878MPD2    C512879   2.409   4.262  13.243  0.2765  0.1553  0.0377
  878MPD2     H12880   2.138   4.497  13.355 -0.0473 -2.1508  2.8403
  878MPD2    H112881   2.483   4.263  13.443 -0.0494 -0.2775  1.1564
  878MPD2    H212882   2.336   4.290  13.045  1.8389 -0.1193  0.5209
  878MPD2    H312883   2.474   4.183  13.206 -1.2696 -0.9823 -0.2653
  878MPD2     N12884   2.321   4.415  13.560  0.3003 -0.2779  0.1113
  878MPD2    H512885   2.388   4.357  13.608  1.1995  1.5201  1.0147
  878MPD2    N112886   2.134   4.472  13.097 -0.3664  0.5608 -0.7205
  878MPD2    H712887   2.071   4.541  13.137  1.8259  1.6568  0.8603
  879MPD2     C12888   2.642   1.497  17.280 -0.0531 -0.0177  1.1529
  879MPD2    C112889   2.621   1.403  17.377 -0.0487  0.4315  0.4492
  879MPD2    C212890   2.598   1.273  17.339  0.4966 -0.5117  0.5324
  879MPD2    C312891   2.569   1.247  17.204  0.7157  0.3722  0.1194
  879MPD2    C412892   2.587   1.347  17.110 -0.1097 -0.0256 -0.9867
  879MPD2    C512893   2.627   1.472  17.149  0.0408  0.2489  0.2503
  879MPD2     H12894   2.569   1.200  17.414  1.6429 -0.5543  0.9400
  879MPD2    H112895   2.575   1.324  17.005 -2.2517  0.8175 -0.9201
  879MPD2    H212896   2.662   1.598  17.314  0.7022  0.7095 -1.5179
  879MPD2    H312897   2.649   1.553  17.080  2.1150  0.2525  0.9059
  879MPD2     N12898   2.507   1.131  17.159 -0.3681 -0.1875  0.1705
  879MPD2    H512899   2.465   1.134  17.067 -0.3253  0.5788  0.1740
  879MPD2    N112900   2.646   1.444  17.507 -1.2542 -0.4810  0.1542
  879MPD2    H712901   2.679   1.540  17.513 -1.2020 -0.3666 -1.9074
  880MPD2     C12902   3.680   2.652   0.652  0.0386  0.4841  0.3624
  880MPD2    C112903   3.704   2.695   0.525  0.2658  0.3912 -0.4753
  880MPD2    C212904   3.787   2.632   0.441 -0.7292  0.6087  0.0763
  880MPD2    C312905   3.837   2.507   0.479  0.0733 -0.1472 -0.2709
  880MPD2    C412906   3.805   2.455   0.606 -0.2361 -0.1742  0.2376
  880MPD2    C512907   3.726   2.523   0.690 -0.3782 -0.3348 -0.4303
  880MPD2     H12908   3.804   2.671   0.341  1.0316  0.2271  0.2269
  880MPD2    H112909   3.831   2.356   0.642  2.2726 -0.0287 -1.1821
  880MPD2    H212910   3.611   2.707   0.715  0.2219  2.3052 -1.0422
  880MPD2    H312911   3.697   2.484   0.787  1.3093  0.8540  0.5483
  880MPD2     N12912   3.912   2.431   0.386 -0.2961 -0.0963 -0.4183
  880MPD2    H512913   3.931   2.464   0.292  1.1286 -1.0752 -0.4680
  880MPD2    N112914   3.638   2.813   0.497 -0.7428  0.1864 -0.7308
  880MPD2    H712915   3.585   2.856   0.572 -1.5548 -0.9325 -0.6519
  881MPD2     C12916   3.278   3.678  17.651 -0.1719 -0.5358  0.4847
  881MPD2    C112917   3.292   3.551  17.608 -0.0095  0.2355  0.9151
  881MPD2    C212918   3.319   3.461   0.008 -0.1328  0.2591 -0.0641
  881MPD2    C312919   3.320   3.495   0.139  0.0685 -0.3540  0.0844
  881MPD2    C412920   3.269   3.621   0.178  0.2586  0.0611  0.3670
  881MPD2    C512921   3.245   3.708   0.075  0.3067 -0.0853 -0.1248
  881MPD2     H12922   3.355   3.363  17.684  0.3376  0.2405  0.5539
  881MPD2    H112923   3.257   3.658   0.279  1.8381 -1.6442  1.1746
  881MPD2    H212924   3.278   3.759  17.579 -1.1298 -0.8085  0.1790
  881MPD2    H312925   3.210   3.809   0.094  0.3215 -0.2169  0.5935
  881MPD2     N12926   3.349   3.402   0.240 -0.0781  0.6435  0.1720
  881MPD2    H512927   3.358   3.441   0.334 -1.6547  1.6702 -0.1106
  881MPD2    N112928   3.338   3.532  17.479 -0.4353 -0.1794  0.3251
  881MPD2    H712929   3.358   3.617  17.428  0.3929 -1.0698 -0.8382
  882MPD2     C12930   1.952   0.488  14.233  0.2389 -0.5674  0.7287
  882MPD2    C112931   1.899   0.521  14.351  0.2552 -0.0218 -0.5593
  882MPD2    C212932   1.767   0.496  14.381 -0.5880  0.6052 -1.0511
  882MPD2    C312933   1.685   0.435  14.286  0.2063 -0.5775  0.1049
  882MPD2    C412934   1.749   0.384  14.172  0.5469  0.2722  0.6456
  882MPD2    C512935   1.881   0.418  14.142  0.3020 -0.0275 -0.1392
  882MPD2     H12936   1.720   0.532  14.472  0.7813  2.7269 -1.1816
  882MPD2    H112937   1.681   0.344  14.097  0.1220  2.5492 -0.2191
  882MPD2    H212938   2.057   0.513  14.217 -0.6080  1.6828 -1.2913
  882MPD2    H312939   1.931   0.387  14.052  1.0353  2.0578 -0.4443
  882MPD2     N12940   1.553   0.394  14.318  0.6657  0.2615 -0.1167
  882MPD2    H512941   1.504   0.327  14.260 -0.7383 -1.1440  2.7084
  882MPD2    N112942   1.973   0.595  14.444 -0.3427  0.3807 -0.1665
  882MPD2    H712943   2.069   0.615  14.417 -0.1763  0.8296  0.7703
  883MPD2     C12944   3.688   0.243  16.545 -0.8933  0.1127 -0.7094
  883MPD2    C112945   3.751   0.259  16.422  0.9084  0.2256 -0.1490
  883MPD2    C212946   3.890   0.259  16.416 -0.4135 -0.0166 -0.2731
  883MPD2    C312947   3.971   0.256  16.532  0.5412  0.1111 -0.4870
  883MPD2    C412948   3.907   0.240  16.654 -0.0175 -0.1739 -0.9808
  883MPD2    C512949   3.768   0.234  16.660 -0.1139 -0.3719 -0.6837
  883MPD2     H12950   3.949   0.275  16.326 -0.0892  0.9616  0.1193
  883MPD2    H112951   3.951   0.242  16.753  2.3337 -0.6982 -2.0109
  883MPD2    H212952   3.581   0.231  16.559 -1.2104  2.9203 -0.6687
  883MPD2    H312953   3.711   0.202  16.746  1.1429 -0.1957  0.2057
  883MPD2     N12954   4.110   0.257  16.517  0.4613 -0.1919 -0.0100
  883MPD2    H512955   4.149   0.277  16.425  2.7600  0.0662  1.0343
  883MPD2    N112956   3.690   0.258  16.291  0.4606 -0.2126 -0.4304
  883MPD2    H712957   3.753   0.274  16.214 -0.2062 -0.8057 -1.0980
  884MPD2     C12958   1.068   1.004  15.101 -0.1876  0.3215 -0.5501
  884MPD2    C112959   1.049   1.079  15.208  0.3907  0.3883 -0.3012
  884MPD2    C212960   0.929   1.079  15.278  0.1482 -0.0709  0.1690
  884MPD2    C312961   0.825   1.003  15.226 -1.0240 -0.4495  0.5446
  884MPD2    C412962   0.845   0.924  15.113 -0.0415 -0.2851 -0.1733
  884MPD2    C512963   0.964   0.927  15.050  0.3271  0.2147  1.3699
  884MPD2     H12964   0.910   1.137  15.368 -0.6394  0.2324 -0.1940
  884MPD2    H112965   0.768   0.868  15.060 -1.2318  0.1639  1.0842
  884MPD2    H212966   1.161   1.002  15.046  0.3522  0.1756  0.3749
  884MPD2    H312967   0.969   0.861  14.964 -1.0147  0.2579  1.2643
  884MPD2     N12968   0.702   1.008  15.290  0.0146 -0.2147 -0.3326
  884MPD2    H512969   0.691   1.075  15.365  1.6826 -1.3367  0.9140
  884MPD2    N112970   1.163   1.148  15.263  0.4154  0.7521 -0.4405
  884MPD2    H712971   1.143   1.192  15.352 -1.7472 -0.2517 -0.4539
  885MPD2     C12972   3.798   1.400   0.368 -0.3153 -0.0575 -0.0745
  885MPD2    C112973   3.875   1.299   0.329 -0.1786  0.3282  0.0604
  885MPD2    C212974   3.919   1.296   0.194  0.6037  0.3083 -0.2373
  885MPD2    C312975   3.876   1.389   0.104  0.0077  0.2453 -0.1349
  885MPD2    C412976   3.802   1.495   0.150  0.4173 -0.0174  0.2398
  885MPD2    C512977   3.766   1.499   0.283  0.2371  0.3451  0.2576
  885MPD2     H12978   3.988   1.219   0.160 -0.3319  0.1657 -1.7837
  885MPD2    H112979   3.779   1.574   0.080 -1.5110  0.1173  1.0298
  885MPD2    H212980   3.760   1.410   0.469 -0.1716 -0.8735  0.0643
  885MPD2    H312981   3.705   1.585   0.306  1.5209  1.1554  0.6492
  885MPD2     N12982   3.904   1.373  17.676  0.3154  0.4806 -0.1132
  885MPD2    H512983   3.971   1.302  17.651  1.4153  1.3898  0.2397
  885MPD2    N112984   3.923   1.208   0.425  0.3404 -0.0531  0.1297
  885MPD2    H712985   3.870   1.207   0.512  0.2458 -1.9648  0.0312
  886MPD2     C12986   0.584   4.401  15.754 -0.4161 -1.0986 -0.8684
  886MPD2    C112987   0.554   4.371  15.620 -0.0640 -0.9830  0.2936
  886MPD2    C212988   0.520   4.470  15.536  0.1510 -0.2902  0.1527
  886MPD2    C312989   0.534   4.600  15.582 -0.6143  0.4613  0.1611
  886MPD2    C412990   0.578   4.625  15.707 -0.3944 -0.5452 -0.0122
  886MPD2    C512991   0.591   4.530  15.804  0.3145 -0.3157 -0.0456
  886MPD2     H12992   0.499   4.447  15.433  0.5917 -2.4874  0.5601
  886MPD2    H112993   0.603   0.002  15.731 -2.4235 -0.0197 -0.0978
  886MPD2    H212994   0.618   4.328  15.827 -2.2684 -0.7534  0.3493
  886MPD2    H312995   0.633   4.544  15.903 -0.2101 -0.7290  0.2364
  886MPD2     N12996   0.507   4.718  15.503  0.0399 -0.0224 -0.2722
  886MPD2    H512997   0.511   0.082  15.548  1.4464 -1.2673  2.0626
  886MPD2    N112998   0.568   4.246  15.566 -0.6402  0.5399  0.4378
  886MPD2    H712999   0.512   4.233  15.481  0.3429 -1.2206  0.0578
  887MPD2     C13000   0.961   4.274  15.173  0.1733 -0.0603  0.0202
  887MPD2    C113001   0.884   4.282  15.285  0.3910  0.0616  0.1903
  887MPD2    C213002   0.896   4.399  15.366 -0.4587  0.4536 -0.3608
  887MPD2    C313003   0.981   4.504  15.335  0.1314 -0.0988 -0.4096
  887MPD2    C413004   1.049   4.495  15.209 -0.1003 -0.3416  0.5579
  887MPD2    C513005   1.044   4.380  15.137 -0.1040 -0.1748  0.3461
  887MPD2     H13006   0.852   4.393  15.465 -0.5867  1.0045 -0.3824
  887MPD2    H113007   1.100   4.584  15.172 -2.3230 -0.7683 -3.6261
  887MPD2    H213008   0.974   4.183  15.115 -0.1965 -1.2780  1.8643
  887MPD2    H313009   1.096   4.377  15.042 -1.1225 -1.5159 -0.1812
  887MPD2     N13010   0.987   4.612  15.425 -0.4009  0.4548 -0.0616
  887MPD2    H513011   0.921   4.610  15.502  1.4666 -0.9336  1.4931
  887MPD2    N113012   0.804   4.174  15.327 -0.6722  0.6262  0.0938
  887MPD2    H713013   0.738   4.192  15.403  0.3558  0.8031  0.9380
  888MPD2     C13014   2.883   4.617  14.867  0.6126 -0.3565 -0.0895
  888MPD2    C113015   2.867   4.639  14.999 -0.7568 -0.1442  0.3310
  888MPD2    C213016   2.952   4.726  15.065  0.1186 -0.2715 -0.4561
  888MPD2    C313017   3.058   0.058  14.997  0.2294  0.2920 -0.4043
  888MPD2    C413018   3.077   0.035  14.862  0.4876 -1.4467 -0.1259
  888MPD2    C513019   2.995   4.663  14.807  0.0249  0.7042  0.5953
  888MPD2     H13020   2.945   0.026  15.170 -2.5026 -1.6747 -0.2686
  888MPD2    H113021   3.161   0.066  14.802  1.8255 -0.2659  2.3342
  888MPD2    H213022   2.827   4.545  14.809  0.6945 -0.0645 -0.5349
  888MPD2    H313023   3.014   4.629  14.706 -1.5102  2.1035 -0.1706
  888MPD2     N13024   3.131   0.150  15.078  0.3825  0.1984 -0.1592
  888MPD2    H513025   3.099   0.169  15.172 -0.0061  0.4559 -0.3450
  888MPD2    N113026   2.774   4.563  15.075  0.8788 -0.3442 -0.2097
  888MPD2    H713027   2.774   4.576  15.175 -3.3484 -1.5009 -0.0832
  889MPD2     C13028   3.187   4.047  13.356 -0.2093 -0.2392 -0.9810
  889MPD2    C113029   3.070   3.995  13.413 -0.5623  0.8413  0.3155
  889MPD2    C213030   2.960   4.081  13.435 -0.5570  0.7364  0.6443
  889MPD2    C313031   2.952   4.204  13.364  0.3469  0.0847  0.7922
  889MPD2    C413032   3.068   4.253  13.313  0.3202  0.2430 -0.4191
  889MPD2    C513033   3.184   4.181  13.321 -0.2903 -0.0433 -0.3616
  889MPD2     H13034   2.868   4.044  13.477 -0.1259  1.6838  2.4119
  889MPD2    H113035   3.073   4.351  13.267 -0.0231  1.1645  1.5048
  889MPD2    H213036   3.277   3.996  13.325 -1.7341 -4.0958  0.9510
  889MPD2    H313037   3.275   4.225  13.281  0.2194 -1.2818 -0.5832
  889MPD2     N13038   2.833   4.277  13.387 -0.3930 -0.3265  0.1619
  889MPD2    H513039   2.765   4.229  13.446 -1.8121  0.0247 -1.1816
  889MPD2    N113040   3.077   3.867  13.474 -0.3109  0.4539 -0.5631
  889MPD2    H713041   3.165   3.818  13.476 -0.7259 -0.2314  0.8802
  890MPD2     C13042   2.289   1.216  14.744  0.2217 -0.3529  0.3325
  890MPD2    C113043   2.164   1.265  14.767  0.0375 -0.3278 -0.4212
  890MPD2    C213044   2.088   1.209  14.866 -0.1382 -0.8295 -0.5681
  890MPD2    C313045   2.136   1.112  14.946  0.2466 -0.4742 -0.0074
  890MPD2    C413046   2.259   1.069  14.919  0.3269 -0.5443 -0.3658
  890MPD2    C513047   2.332   1.113  14.817 -0.6153 -0.1753 -0.5629
  890MPD2     H13048   1.987   1.246  14.882  1.2352  1.8247  2.0968
  890MPD2    H113049   2.298   0.985  14.975 -2.1125 -0.9849  0.6809
  890MPD2    H213050   2.358   1.264  14.676  0.6633  0.6005  1.4502
  890MPD2    H313051   2.433   1.080  14.796  0.4391  1.8840  1.2300
  890MPD2     N13052   2.069   1.076  15.062 -0.2738 -0.3761  0.1837
  890MPD2    H513053   1.977   1.114  15.081  0.5794  2.2056 -0.8973
  890MPD2    N113054   2.136   1.383  14.695  0.2173 -0.0942 -0.1506
  890MPD2    H713055   2.208   1.421  14.634  0.8259 -0.6620  0.2206
  891MPD2     C13056   4.582   4.163  16.544  0.5012  0.1822 -0.3680
  891MPD2    C113057   4.524   4.182  16.663  0.2089  0.3845 -0.5173
  891MPD2    C213058   4.585   4.128  16.778 -0.6412  0.1844 -0.0143
  891MPD2    C313059   4.694   4.048  16.768 -0.1582  0.0338 -0.5432
  891MPD2    C413060   0.030   4.028  16.649 -0.9538  0.6822  0.1380
  891MPD2    C513061   4.704   4.096  16.539 -0.7574 -0.3224  0.3691
  891MPD2     H13062   4.551   4.157  16.877 -1.1991  2.1315 -0.7756
  891MPD2    H113063   0.120   3.970  16.642 -0.1430  1.9789 -0.1833
  891MPD2    H213064   4.541   4.206  16.453 -3.0137 -1.1204  0.5987
  891MPD2    H313065   0.027   4.082  16.444  0.4381  0.2394  0.9139
  891MPD2     N13066   0.027   3.996  16.890  0.1331  0.2703  0.6367
  891MPD2    H513067   4.705   4.014  16.978 -1.1605  1.1907 -0.2753
  891MPD2    N113068   4.417   4.275  16.669 -0.3740  0.0688 -0.2073
  891MPD2    H713069   4.402   4.323  16.581 -0.5534 -1.5899 -1.0814
  892MPD2     C13070   0.920   0.554  15.121  0.5504  0.2703 -0.1870
  892MPD2    C113071   0.849   0.556  15.004  0.2324 -0.1678 -0.5214
  892MPD2    C213072   0.912   0.520  14.881 -0.0839 -0.4271 -1.0265
  892MPD2    C313073   1.044   0.489  14.866  0.2486  0.1042 -0.4213
  892MPD2    C413074   1.111   0.495  14.985  0.5536 -0.6723  0.2061
  892MPD2    C513075   1.051   0.511  15.110 -0.0934 -0.4693 -0.1922
  892MPD2     H13076   0.856   0.523  14.788 -2.8284  0.8695  0.6745
  892MPD2    H113077   1.215   0.466  14.988  0.7337  0.3450  3.5047
  892MPD2    H213078   0.873   0.578  15.216  1.2710 -0.2754  0.3110
  892MPD2    H313079   1.118   0.490  15.192  0.7089 -0.7642 -0.9217
  892MPD2     N13080   1.107   0.454  14.745 -0.8758 -0.3884  0.2815
  892MPD2    H513081   1.208   0.443  14.745 -0.8433 -0.0654  1.4763
  892MPD2    N113082   0.714   0.588  15.008 -0.2862 -0.2530  0.2201
  892MPD2    H713083   0.679   0.608  15.102  2.5053 -0.4402  1.2876
  893MPD2     C13084   3.533   1.991   1.851  0.0278 -0.2007  0.2573
  893MPD2    C113085   3.503   2.123   1.877 -0.0942 -0.4316 -0.3168
  893MPD2    C213086   3.379   2.147   1.937  0.1609  1.2298  0.3710
  893MPD2    C313087   3.297   2.038   1.973  0.7969 -0.5367  0.3324
  893MPD2    C413088   3.339   1.910   1.949  0.1985  0.6648  0.1577
  893MPD2    C513089   3.459   1.883   1.893 -0.8100 -0.0009  0.7152
  893MPD2     H13090   3.339   2.245   1.960 -2.8863  0.3176 -1.1045
  893MPD2    H113091   3.269   1.830   1.973 -0.9534  2.0362  1.4437
  893MPD2    H213092   3.623   1.967   1.795 -1.4466 -0.9276 -1.8199
  893MPD2    H313093   3.488   1.783   1.861  2.4816  0.0609  3.5863
  893MPD2     N13094   3.174   2.050   2.037 -0.3073 -0.3819  0.4085
  893MPD2    H513095   3.108   1.974   2.029 -1.0396  0.0582  2.2193
  893MPD2    N113096   3.593   2.226   1.838 -0.1049 -0.1871  0.7243
  893MPD2    H713097   3.670   2.194   1.780  0.9721  1.7548  1.0871
  894MPD2     C13098   0.647   1.143   0.898 -0.0303  0.8336 -0.2226
  894MPD2    C113099   0.584   1.169   1.017  0.3469 -0.0852  0.4239
  894MPD2    C213100   0.562   1.300   1.060 -0.3881 -0.4309  0.4209
  894MPD2    C313101   0.616   1.406   0.982 -0.1665 -0.0937  0.3384
  894MPD2    C413102   0.689   1.373   0.870  0.2284  0.8186  0.5900
  894MPD2    C513103   0.700   1.244   0.827 -0.4472 -0.0434  0.0716
  894MPD2     H13104   0.511   1.311   1.155  1.0244  1.2819  0.9820
  894MPD2    H113105   0.756   1.440   0.818  1.1458  0.8203  1.7942
  894MPD2    H213106   0.667   1.045   0.856 -0.7373  0.3559  0.5621
  894MPD2    H313107   0.757   1.227   0.737  0.3616  0.2021  0.5324
  894MPD2     N13108   0.602   1.542   1.023 -0.0808  0.0578 -0.8700
  894MPD2    H513109   0.571   1.557   1.118  1.4001 -1.4347 -0.1734
  894MPD2    N113110   0.536   1.062   1.092 -0.4564 -0.2217 -0.0667
  894MPD2    H713111   0.482   1.089   1.174 -1.0904  0.4605 -0.7044
  895MPD2     C13112   0.433   0.033  13.779  0.5913  0.3277  0.7147
  895MPD2    C113113   0.451   0.028  13.642  0.3270  0.3460  0.1389
  895MPD2    C213114   0.563   4.683  13.595 -0.0631  0.1473  0.4999
  895MPD2    C313115   0.661   4.645  13.681 -0.5344  0.6926 -0.6888
  895MPD2    C413116   0.643   4.645  13.820  0.6099  0.3666 -0.2471
  895MPD2    C513117   0.531   4.707  13.864 -0.6286 -0.3532  0.6425
  895MPD2     H13118   0.575   4.677  13.488 -2.1448  3.3252  0.0676
  895MPD2    H113119   0.713   4.598  13.888  0.3378 -0.4683 -0.5383
  895MPD2    H213120   0.345   0.078  13.824  1.1723  1.4729  0.7119
  895MPD2    H313121   0.507   4.719  13.969  1.6406  0.3717  1.0872
  895MPD2     N13122   0.768   4.581  13.619  0.3099  0.3850  0.1382
  895MPD2    H513123   0.775   4.587  13.518 -0.9540 -1.9795 -0.1144
  895MPD2    N113124   0.361   0.078  13.546  0.2463  0.2389  0.0807
  895MPD2    H713125   0.374   0.059  13.447  0.8370  2.0794 -0.1874
  896MPD2     C13126   1.960   2.186   1.701  0.4570  0.2679 -0.8448
  896MPD2    C113127   1.983   2.135   1.575 -1.0200  0.2134 -0.1244
  896MPD2    C213128   1.877   2.069   1.508 -0.0558 -0.1360 -0.2477
  896MPD2    C313129   1.748   2.053   1.570  0.0978  0.2557  1.0744
  896MPD2    C413130   1.734   2.102   1.696  0.0640 -0.0254 -0.6524
  896MPD2    C513131   1.839   2.172   1.758 -0.1261 -0.4628  0.0710
  896MPD2     H13132   1.897   2.011   1.418 -0.7296  2.3767 -2.0074
  896MPD2    H113133   1.648   2.082   1.759 -0.3963 -2.0905 -1.9301
  896MPD2    H213134   2.032   2.248   1.753 -0.1021 -1.3556  1.8474
  896MPD2    H313135   1.835   2.206   1.861 -2.2720 -0.3932 -0.0511
  896MPD2     N13136   1.642   1.997   1.492 -0.4799  0.5621 -0.0628
  896MPD2    H513137   1.672   1.946   1.410  0.9645 -2.6937  2.5001
  896MPD2    N113138   2.113   2.154   1.518  0.6948 -0.4734 -0.1267
  896MPD2    H713139   2.177   2.206   1.577  1.0912 -2.5993  1.3374
  897MPD2     C13140   3.701   3.888  10.808 -0.0695  0.5070  0.6343
  897MPD2    C113141   3.604   3.932  10.726 -0.0077 -0.1660  0.4907
  897MPD2    C213142   3.470   3.956  10.770 -0.8359 -0.4215  0.6198
  897MPD2    C313143   3.442   3.911  10.897 -0.0488  0.1557  0.4132
  897MPD2    C413144   3.541   3.870  10.981 -0.2645 -0.6017  1.1652
  897MPD2    C513145   3.668   3.867  10.938 -0.3877  0.3180  0.3506
  897MPD2     H13146   3.396   3.994  10.701  2.4266 -0.4908 -2.9001
  897MPD2    H113147   3.523   3.849  11.086  1.6437  1.1768  1.8362
  897MPD2    H213148   3.805   3.869  10.786  0.2849  0.1797  2.6074
  897MPD2    H313149   3.747   3.822  10.997 -0.1876 -0.1485 -0.2784
  897MPD2     N13150   3.308   3.939  10.944 -0.1658 -0.4394  0.3962
  897MPD2    H513151   3.243   3.955  10.868  1.5824 -1.2764 -1.2695
  897MPD2    N113152   3.656   3.974  10.598 -0.5266  0.0745 -0.3015
  897MPD2    H713153   3.756   3.979  10.584 -0.5179 -1.8403 -0.8793
  898MPD2     C13154   0.652   0.166   0.006 -0.2485  0.0968  0.2225
  898MPD2    C113155   0.756   0.168  17.616 -0.2749  0.6589  0.3706
  898MPD2    C213156   0.761   0.259  17.510  0.2382 -0.3657 -0.1463
  898MPD2    C313157   0.661   0.357  17.505 -0.4862  0.0723  0.1909
  898MPD2    C413158   0.559   0.345  17.594 -0.5024 -0.2601 -0.2553
  898MPD2    C513159   0.554   0.258  17.697 -0.5690 -0.7676  0.2992
  898MPD2     H13160   0.828   0.246  17.425 -0.6645  0.9594 -1.0554
  898MPD2    H113161   0.466   0.398  17.583 -1.5604 -1.6959  1.7268
  898MPD2    H213162   0.657   0.096   0.088  2.9402  0.5523  0.4052
  898MPD2    H313163   0.482   0.266   0.071 -0.7844  0.0765  0.0219
  898MPD2     N13164   0.667   0.460  17.410 -0.2274  0.5831 -0.1765
  898MPD2    H513165   0.747   0.456  17.348 -0.1234 -0.6554  0.0195
  898MPD2    N113166   0.865   0.082  17.626 -0.4376 -0.2733  0.0143
  898MPD2    H713167   0.924   0.089  17.544 -1.2963 -0.8922 -0.6560
  899MPD2     C13168   1.499   0.589  17.479  0.1278 -0.0345  0.2723
  899MPD2    C113169   1.552   0.697  17.544  0.4093  0.3033 -0.1586
  899MPD2    C213170   1.547   0.704  17.688 -0.4455 -0.2912  0.8883
  899MPD2    C313171   1.488   0.598   0.058 -0.4024 -0.4189 -0.4763
  899MPD2    C413172   1.455   0.487  17.690 -0.2797  0.4778 -0.1688
  899MPD2    C513173   1.460   0.482  17.552 -0.0846  0.9269  0.0720
  899MPD2     H13174   1.580   0.796   0.029 -1.7415  0.1849  0.8581
  899MPD2    H113175   1.416   0.395   0.025  1.8553 -0.3489  0.0134
  899MPD2    H213176   1.505   0.580  17.371 -1.9014 -0.7687  0.2115
  899MPD2    H313177   1.438   0.384  17.511 -1.1803  1.0002  0.4657
  899MPD2     N13178   1.449   0.607   0.198  0.1108 -0.2405 -0.3701
  899MPD2    H513179   1.398   0.532   0.244  0.0205 -0.0896 -0.2251
  899MPD2    N113180   1.612   0.799  17.464 -0.0109  0.3138  1.1892
  899MPD2    H713181   1.612   0.775  17.365  0.5007 -1.0999  1.5235
  900MPD2     C13182   1.289   2.184  12.231 -0.9100  0.5216  0.2908
  900MPD2    C113183   1.158   2.146  12.245 -0.0100  0.2309  0.0036
  900MPD2    C213184   1.054   2.231  12.203  0.1053  0.2182 -0.0874
  900MPD2    C313185   1.096   2.348  12.142  0.8398  0.3957  0.1474
  900MPD2    C413186   1.227   2.390  12.130  0.5389 -0.0481  0.4017
  900MPD2    C513187   1.327   2.302  12.175 -1.0158  0.1393  0.0451
  900MPD2     H13188   0.949   2.207  12.199  0.4828 -1.2358 -1.7831
  900MPD2    H113189   1.256   2.492  12.109 -0.7657  1.0221  3.8352
  900MPD2    H213190   1.371   2.122  12.263 -0.7815  0.8043  0.5030
  900MPD2    H313191   1.432   2.322  12.160 -1.3992  2.1073 -0.0329
  900MPD2     N13192   0.992   2.423  12.077  0.0673 -0.1798 -0.1472
  900MPD2    H513193   0.895   2.406  12.100 -0.1814  0.9436 -0.3650
  900MPD2    N113194   1.149   2.020  12.312 -0.0742 -0.1662  0.8432
  900MPD2    H713195   1.240   1.985  12.340  0.3024  0.1334  0.0030
  901MPD2     C13196   1.217   1.223  12.983  0.2076  0.2121 -0.0822
  901MPD2    C113197   1.239   1.180  12.853  0.1632 -0.5647  0.0061
  901MPD2    C213198   1.186   1.259  12.747  0.3444  0.5092 -0.7350
  901MPD2    C313199   1.113   1.377  12.775 -0.2291 -0.2287  0.4059
  901MPD2    C413200   1.086   1.407  12.907  0.4939 -0.3391 -0.4002
  901MPD2    C513201   1.145   1.337  13.010 -0.0454 -1.1910 -0.1082
  901MPD2     H13202   1.222   1.233  12.648 -0.9779  0.6979 -1.2715
  901MPD2    H113203   1.039   1.500  12.936  0.6162 -0.1019 -0.9719
  901MPD2    H213204   1.243   1.173  13.076 -0.1369 -1.5117 -0.9142
  901MPD2    H313205   1.139   1.359  13.116  1.3419  3.1170 -0.9386
  901MPD2     N13206   1.070   1.460  12.669  0.1381  0.6217 -0.2710
  901MPD2    H513207   1.079   1.424  12.574 -2.4072  1.3264 -0.7917
  901MPD2    N113208   1.328   1.077  12.839  0.3151 -0.7420 -1.0338
  901MPD2    H713209   1.385   1.065  12.922  0.4842  1.3643 -0.8364
  902MPD2     C13210   0.257   0.535  13.465  0.4252  0.3356 -0.3485
  902MPD2    C113211   0.171   0.568  13.364 -0.4330  0.2147 -0.1939
  902MPD2    C213212   0.232   0.611  13.250 -0.0109 -0.0320 -0.4281
  902MPD2    C313213   0.368   0.639  13.239  0.0871 -0.7695  0.1010
  902MPD2    C413214   0.451   0.608  13.344 -0.1112  0.2964 -0.8867
  902MPD2    C513215   0.396   0.554  13.454 -0.0294  0.4362  0.6132
  902MPD2     H13216   0.169   0.642  13.167  0.4207 -1.3562 -1.2382
  902MPD2    H113217   0.553   0.645  13.347  0.3870 -1.0979 -0.8946
  902MPD2    H213218   0.215   0.509  13.562 -2.4124 -0.4360 -1.7717
  902MPD2    H313219   0.454   0.542  13.546  2.1817 -0.9946 -0.9591
  902MPD2     N13220   0.428   0.678  13.119  0.7119 -0.1218  0.1422
  902MPD2    H513221   0.529   0.676  13.122  0.6967 -1.0405 -0.0150
  902MPD2    N113222   0.026   0.561  13.373 -0.2087 -0.3628  0.7304
  902MPD2    H713223   4.719   0.550  13.468  3.7660 -1.9341  1.9088
  903MPD2     C13224   0.065   0.964  12.490 -0.0399 -0.2977  0.1232
  903MPD2    C113225   0.183   0.896  12.459 -0.3375 -0.1213 -0.3346
  903MPD2    C213226   0.186   0.825  12.343  0.2894  0.6932  0.0886
  903MPD2    C313227   0.088   0.828  12.249  0.5326  0.4510  0.0864
  903MPD2    C413228   4.697   0.900  12.277  0.2379 -0.9373 -0.1363
  903MPD2    C513229   4.688   0.966  12.399  0.7202 -0.2801  1.3517
  903MPD2     H13230   0.280   0.777  12.318 -0.1461  0.0549 -0.2948
  903MPD2    H113231   4.610   0.893  12.213  0.3589 -0.9255 -0.3025
  903MPD2    H213232   0.049   1.003  12.590 -0.0045  2.3144 -0.8752
  903MPD2    H313233   4.601   1.015  12.440 -0.0210 -1.2669  0.9596
  903MPD2     N13234   0.099   0.739  12.139 -0.0361 -0.0240  0.1321
  903MPD2    H513235   0.177   0.674  12.140 -0.2634 -0.2986  0.0894
  903MPD2    N113236   0.288   0.898  12.552 -0.2769 -0.1205 -0.0769
  903MPD2    H713237   0.284   0.965  12.628  1.3505 -1.5496  1.2951
  904MPD2     C13238   0.566   3.759  13.748  0.0288  0.6699  0.5968
  904MPD2    C113239   0.522   3.880  13.804 -0.1829 -0.3011 -0.5332
  904MPD2    C213240   0.580   3.923  13.921 -0.0982  0.3173 -0.0015
  904MPD2    C313241   0.680   3.854  13.986  0.3646  0.6768  1.1650
  904MPD2    C413242   0.713   3.727  13.929  0.7330  0.1929 -0.7265
  904MPD2    C513243   0.655   3.677  13.820 -0.0968 -0.2706  0.4134
  904MPD2     H13244   0.559   4.024  13.954  0.7809  0.0907  1.2606
  904MPD2    H113245   0.790   3.659  13.965  0.0676 -0.5412 -0.6931
  904MPD2    H213246   0.523   3.724  13.654  0.1588  0.0334  0.7748
  904MPD2    H313247   0.674   3.578  13.781  3.5145  1.0147 -1.1660
  904MPD2     N13248   0.741   3.909  14.092 -0.4513 -0.2405 -0.2248
  904MPD2    H513249   0.701   3.995  14.127  0.6501 -0.3614  1.3359
  904MPD2    N113250   0.426   3.962  13.746  0.0710  0.6149  0.7440
  904MPD2    H713251   0.426   4.054  13.788 -0.8977  1.9319 -2.1089
  905MPD2     C13252   0.432   4.177  13.054 -0.7658  1.0829  0.0332
  905MPD2    C113253   0.423   4.270  13.157 -0.6637 -0.7901  0.2516
  905MPD2    C213254   0.540   4.334  13.199  0.0810 -0.0628 -0.7353
  905MPD2    C313255   0.666   4.305  13.139  0.1414 -0.2762  0.0089
  905MPD2    C413256   0.671   4.212  13.041  0.8809 -0.0354 -0.5237
  905MPD2    C513257   0.555   4.147  13.005 -0.1748 -0.5743  0.0782
  905MPD2     H13258   0.539   4.397  13.287  0.5908  1.6464 -1.9667
  905MPD2    H113259   0.760   4.172  12.994 -0.2283 -2.6605 -0.4123
  905MPD2    H213260   0.351   4.106  13.040  1.4398 -0.8289 -3.0625
  905MPD2    H313261   0.557   4.066  12.933 -0.0123 -0.6847  0.2058
  905MPD2     N13262   0.795   4.349  13.186  0.2671 -0.5511 -0.2880
  905MPD2    H513263   0.879   4.315  13.142 -0.8165 -0.4950 -2.3884
  905MPD2    N113264   0.309   4.252  13.247  0.4269  0.3763  0.5045
  905MPD2    H713265   0.236   4.185  13.226  0.6682  0.6014 -1.1286
  906MPD2     C13266   2.063   4.116  11.301  0.1311 -0.3729 -0.1505
  906MPD2    C113267   2.091   4.014  11.204 -0.5922 -0.1128 -0.3452
  906MPD2    C213268   2.078   3.885  11.246 -0.5824  0.1227  0.5582
  906MPD2    C313269   2.039   3.851  11.373  0.2026  0.4071 -0.2394
  906MPD2    C413270   2.015   3.953  11.465 -0.2021  0.0592 -0.4007
  906MPD2    C513271   2.028   4.087  11.426  0.4043 -0.2331 -0.4687
  906MPD2     H13272   2.083   3.808  11.170  1.0441  0.1955  0.5858
  906MPD2    H113273   1.985   3.940  11.569  0.7048 -0.0492 -0.1491
  906MPD2    H213274   2.056   4.221  11.277 -1.9077 -0.1332  1.4533
  906MPD2    H313275   2.022   4.171  11.495  1.5497 -1.3440  0.9758
  906MPD2     N13276   2.018   3.718  11.401 -0.2115 -0.5199 -0.5102
  906MPD2    H513277   2.036   3.654  11.324 -0.1682 -0.6732 -0.3737
  906MPD2    N113278   2.123   4.037  11.068 -0.1498  0.4257 -1.1008
  906MPD2    H713279   2.143   3.958  11.007 -2.2583 -0.4888 -0.6055
  907MPD2     C13280   1.123   3.064  15.463  0.2365  0.2806 -0.2939
  907MPD2    C113281   1.109   2.926  15.472 -0.0844 -0.3833 -0.2055
  907MPD2    C213282   1.112   2.876  15.594  0.2095 -0.0827  0.1943
  907MPD2    C313283   1.128   2.951  15.714 -0.0843  0.5432 -0.4384
  907MPD2    C413284   1.139   3.087  15.699 -0.6096  0.4741 -0.2270
  907MPD2    C513285   1.142   3.142  15.571 -0.4374  0.4731 -0.1053
  907MPD2     H13286   1.100   2.770  15.607 -1.4756 -0.3546 -3.6770
  907MPD2    H113287   1.135   3.152  15.786  1.8322  0.7207 -0.2943
  907MPD2    H213288   1.123   3.121  15.370 -0.8054 -0.8170 -0.9642
  907MPD2    H313289   1.171   3.246  15.572 -2.8903  1.1572 -1.5469
  907MPD2     N13290   1.145   2.883  15.839  0.5067 -0.4756 -0.4666
  907MPD2    H513291   1.170   2.786  15.825  1.1201 -0.4487  0.4671
  907MPD2    N113292   1.087   2.849  15.356 -0.2922  0.7742  0.5621
  907MPD2    H713293   1.054   2.753  15.360 -2.4183  1.5236  0.8937
  908MPD2     C13294   3.100   4.188   9.831  0.0321 -0.3200  0.2533
  908MPD2    C113295   3.164   4.069   9.798 -0.0968 -0.5674  0.4647
  908MPD2    C213296   3.274   4.028   9.866  0.1371  0.3703 -0.1225
  908MPD2    C313297   3.335   4.112   9.950 -0.0047  0.0092  0.3865
  908MPD2    C413298   3.272   4.229   9.986  0.4677  0.4571 -0.1572
  908MPD2    C513299   3.156   4.271   9.929 -0.2307 -0.2071 -0.5944
  908MPD2     H13300   3.320   3.932   9.849 -2.3530 -1.3235  2.6285
  908MPD2    H113301   3.297   4.293  10.070 -0.8639  0.0080  0.5822
  908MPD2    H213302   3.007   4.226   9.790 -0.3245 -1.9525 -0.4623
  908MPD2    H313303   3.112   4.368   9.946 -0.3660 -0.3838  0.0261
  908MPD2     N13304   3.453   4.071  10.012 -0.0318 -0.2636  0.3979
  908MPD2    H513305   3.490   3.976  10.012  2.3321  0.6585  0.0080
  908MPD2    N113306   3.105   3.976   9.703 -0.3262  0.3613  0.1852
  908MPD2    H713307   3.151   3.885   9.697 -0.7572  0.1407  0.2215
  909MPD2     C13308   3.841   1.495  11.682  0.2224 -0.3061 -0.9414
  909MPD2    C113309   3.881   1.624  11.640  0.3368 -0.1372 -0.8376
  909MPD2    C213310   3.840   1.735  11.709  0.2002 -0.4177  0.4298
  909MPD2    C313311   3.766   1.718  11.821  0.3965 -0.0008 -0.3480
  909MPD2    C413312   3.727   1.588  11.866 -0.0136  0.3812  0.3591
  909MPD2    C513313   3.775   1.483  11.798 -0.1049 -0.2100 -0.3532
  909MPD2     H13314   3.873   1.835  11.685 -0.0368 -0.3680  0.3158
  909MPD2    H113315   3.666   1.577  11.955 -0.5253  0.1930 -0.0163
  909MPD2    H213316   3.869   1.408  11.625 -0.3420 -0.4305 -1.0255
  909MPD2    H313317   3.755   1.386  11.842 -1.0233 -0.1968 -0.7359
  909MPD2     N13318   3.713   1.835  11.879  0.1735  0.5112 -0.6569
  909MPD2    H513319   3.744   1.918  11.829  0.9458  0.8218  0.3537
  909MPD2    N113320   3.969   1.649  11.531  0.5386 -0.1777  0.5059
  909MPD2    H713321   3.994   1.743  11.503  2.0632 -1.0582 -1.0490
  910MPD2     C13322   0.199   3.507  16.186  0.0022  0.4789 -0.4830
  910MPD2    C113323   0.276   3.485  16.071 -0.2345 -0.6572 -0.7840
  910MPD2    C213324   0.254   3.551  15.956 -0.7649 -0.1514  0.0438
  910MPD2    C313325   0.146   3.641  15.949 -1.1410  0.4038 -0.2632
  910MPD2    C413326   0.066   3.661  16.062  0.4466  0.3785  0.0611
  910MPD2    C513327   0.097   3.598  16.178  0.4851  0.5389  0.5154
  910MPD2     H13328   0.311   3.523  15.868 -0.2505 -2.7414  1.1999
  910MPD2    H113329   4.700   3.718  16.067 -0.6022 -1.3076 -0.3222
  910MPD2    H213330   0.217   3.457  16.281 -2.4639  0.7822  0.1458
  910MPD2    H313331   0.026   3.609  16.259 -1.4186 -1.9605 -0.8323
  910MPD2     N13332   0.109   3.702  15.828 -0.4023 -0.3410  0.1055
  910MPD2    H513333   0.030   3.765  15.840  0.2013  0.6883 -1.2997
  910MPD2    N113334   0.386   3.396  16.070  0.0674  0.2316 -0.4409
  910MPD2    H713335   0.432   3.387  15.980 -0.0284  3.7323 -0.8690
  911MPD2     C13336   2.760   3.989  16.184  0.8984  0.2694 -0.0225
  911MPD2    C113337   2.801   4.105  16.252  0.4764  0.0009 -0.0792
  911MPD2    C213338   2.727   4.223  16.235 -0.7557  0.0315 -0.1466
  911MPD2    C313339   2.611   4.219  16.164  0.1596  0.1422 -0.2602
  911MPD2    C413340   2.578   4.110  16.090  0.1424 -0.0505 -0.0935
  911MPD2    C513341   2.646   3.992  16.111  0.1312  0.8189  0.0532
  911MPD2     H13342   2.759   4.319  16.275 -1.0534 -0.2686  0.8314
  911MPD2    H113343   2.480   4.120  16.044  0.5385  0.2844 -0.8745
  911MPD2    H213344   2.815   3.896  16.176  0.7176  0.2338 -0.8790
  911MPD2    H313345   2.610   3.904  16.058 -0.8659  0.7980  0.7648
  911MPD2     N13346   2.518   4.332  16.150  0.2188  0.3454  0.3606
  911MPD2    H513347   2.437   4.323  16.089 -0.6042  0.5546  1.4260
  911MPD2    N113348   2.930   4.104  16.309  0.7159  0.2611 -0.3847
  911MPD2    H713349   2.986   4.019  16.304  0.6737  0.1083  1.6219
  912MPD2     C13350   2.325   4.142  15.631 -0.0979  0.1068  0.5549
  912MPD2    C113351   2.285   4.168  15.761 -0.5056  0.0549 -0.1351
  912MPD2    C213352   2.307   4.071  15.859 -0.5368  0.2801  0.4730
  912MPD2    C313353   2.331   3.939  15.827  0.0320 -0.0929  0.0869
  912MPD2    C413354   2.352   3.907  15.695  0.5593  0.3922  0.0887
  912MPD2    C513355   2.360   4.011  15.599  0.4234 -0.6210  1.2772
  912MPD2     H13356   2.296   4.095  15.964 -0.1278 -0.0792  0.5919
  912MPD2    H113357   2.367   3.803  15.668  1.0091  0.0783  1.5530
  912MPD2    H213358   2.313   4.215  15.553 -1.5183  1.7743  2.3377
  912MPD2    H313359   2.373   3.978  15.496 -1.2932  0.1228  0.8169
  912MPD2     N13360   2.334   3.847  15.937 -0.2523 -0.0721 -0.4747
  912MPD2    H513361   2.314   3.881  16.031  2.6770  1.8186 -0.5414
  912MPD2    N113362   2.257   4.308  15.795  0.2148 -0.0982  0.6567
  912MPD2    H713363   2.254   4.373  15.717 -0.7084 -1.4930 -0.4688
  913MPD2     C13364   3.371   1.227  10.406  0.1860 -0.1755  0.7741
  913MPD2    C113365   3.295   1.132  10.337 -0.0692  0.1820  0.2939
  913MPD2    C213366   3.213   1.179  10.240 -0.2916 -0.4501 -0.0396
  913MPD2    C313367   3.209   1.317  10.216  0.8253 -0.1492 -0.0343
  913MPD2    C413368   3.288   1.413  10.282 -0.5232  0.1607  0.4986
  913MPD2    C513369   3.376   1.360  10.378  0.0889  0.0611  0.5874
  913MPD2     H13370   3.141   1.110  10.198 -0.4553 -1.1091  1.3147
  913MPD2    H113371   3.275   1.519  10.262 -1.3585 -0.2314 -0.9690
  913MPD2    H213372   3.442   1.202  10.484 -0.3388  0.4560  1.4471
  913MPD2    H313373   3.447   1.417  10.436 -0.1234 -0.1845  1.0887
  913MPD2     N13374   3.116   1.380  10.134  0.2333 -0.1812  0.6973
  913MPD2    H513375   3.125   1.476  10.102  0.1928  0.4082  2.4022
  913MPD2    N113376   3.300   0.992  10.363 -0.0215 -0.2231 -0.7437
  913MPD2    H713377   3.366   0.965  10.435  1.6821  1.6431 -1.6071
  914MPD2     C13378   1.689   0.983  11.945  0.6255 -0.1251 -0.1591
  914MPD2    C113379   1.594   1.057  12.009  0.5602 -0.0467 -0.2114
  914MPD2    C213380   1.579   1.044  12.147 -0.4932  0.9936  0.6106
  914MPD2    C313381   1.657   0.952  12.218  0.0204  0.5741  0.3593
  914MPD2    C413382   1.744   0.870  12.153 -0.3123  0.0574  0.3762
  914MPD2    C513383   1.764   0.895  12.019 -0.6434 -0.3751 -0.8311
  914MPD2     H13384   1.501   1.107  12.188 -0.2533 -0.1738  2.8548
  914MPD2    H113385   1.801   0.785  12.190 -0.1563  0.8468  1.9415
  914MPD2    H213386   1.723   1.001  11.843  0.6754 -0.0244 -0.1249
  914MPD2    H313387   1.840   0.841  11.963  1.5375 -1.0703  2.8456
  914MPD2     N13388   1.634   0.929  12.358  0.9354  0.0889 -0.0218
  914MPD2    H513389   1.576   0.996  12.408  0.1776 -2.2027  2.1630
  914MPD2    N113390   1.521   1.143  11.926 -0.7504 -0.2485  0.4966
  914MPD2    H713391   1.542   1.143  11.827  0.2995 -2.0100  0.7139
  915MPD2     C13392   3.977   1.202  15.160  0.8447 -0.2651 -0.5292
  915MPD2    C113393   3.881   1.115  15.196  0.3333  0.4462  0.2551
  915MPD2    C213394   3.840   1.109  15.327  0.5782  0.0196 -0.0976
  915MPD2    C313395   3.904   1.176  15.428  0.0825 -0.5910 -0.4419
  915MPD2    C413396   4.008   1.259  15.395 -0.2702  0.3781 -1.2121
  915MPD2    C513397   4.037   1.268  15.262 -0.2917 -0.2366 -0.7570
  915MPD2     H13398   3.761   1.044  15.363 -0.0589 -0.0660 -1.6606
  915MPD2    H113399   4.073   1.315  15.462  0.5026  0.4066 -1.9799
  915MPD2    H213400   3.998   1.229  15.057 -0.9334 -4.2317 -1.9532
  915MPD2    H313401   4.106   1.351  15.255  1.0458 -1.4251 -1.6073
  915MPD2     N13402   3.854   1.151  15.562  0.3218  0.0732 -0.2295
  915MPD2    H513403   3.761   1.113  15.575  0.4253  0.1184  0.6459
  915MPD2    N113404   3.815   1.031  15.101 -0.3061 -0.4591 -0.2823
  915MPD2    H713405   3.751   0.963  15.141 -0.2559  0.2194  0.9507
  916MPD2     C13406   2.071   3.896  15.447  0.4163  0.3154  0.9318
  916MPD2    C113407   2.065   3.803  15.544 -0.4678 -0.2464  0.1237
  916MPD2    C213408   2.079   3.676  15.503  0.3073 -0.3232  0.0515
  916MPD2    C313409   2.119   3.643  15.374  0.4651  0.4234 -0.4174
  916MPD2    C413410   2.131   3.749  15.279  0.6332 -0.2171 -0.0016
  916MPD2    C513411   2.098   3.871  15.315 -0.3564  0.2677 -0.6528
  916MPD2     H13412   2.063   3.594  15.573 -0.6992 -0.2818 -0.1258
  916MPD2    H113413   2.159   3.730  15.176 -1.4456 -0.6606 -0.4776
  916MPD2    H213414   2.064   4.000  15.477 -0.1309  0.5559 -0.0172
  916MPD2    H313415   2.115   3.944  15.237 -0.8062  1.9170  0.7847
  916MPD2     N13416   2.137   3.508  15.338 -0.0624  0.4939 -0.2878
  916MPD2    H513417   2.124   3.442  15.414 -1.4909 -0.9588 -1.7863
  916MPD2    N113418   2.044   3.846  15.680 -0.4801 -0.0343  0.8652
  916MPD2    H713419   2.024   3.944  15.691 -1.4749 -0.0350 -0.7446
  917MPD2     C13420   2.616   1.167  11.136  0.1673 -0.4199 -0.1647
  917MPD2    C113421   2.699   1.180  11.247 -0.6066  0.4588  0.1495
  917MPD2    C213422   2.804   1.262  11.241 -0.1334 -0.3420  0.4238
  917MPD2    C313423   2.840   1.323  11.121  0.8791 -0.2264 -0.8415
  917MPD2    C413424   2.756   1.312  11.013  0.8131 -0.7560 -0.2911
  917MPD2    C513425   2.644   1.228  11.018  0.2489  0.3287 -0.3032
  917MPD2     H13426   2.871   1.280  11.324  0.5097 -1.2362  0.0992
  917MPD2    H113427   2.782   1.369  10.925  2.2051  1.1637  1.3597
  917MPD2    H213428   2.524   1.110  11.141  0.3018 -0.7670 -1.8678
  917MPD2    H313429   2.568   1.227  10.940  0.1800  0.7611 -0.2391
  917MPD2     N13430   2.955   1.404  11.101 -0.2893  0.4572 -0.3559
  917MPD2    H513431   2.975   1.443  11.010 -1.5727 -1.0038 -1.2670
  917MPD2    N113432   2.652   1.124  11.369  1.0341 -0.6301 -0.6667
  917MPD2    H713433   2.569   1.066  11.369  1.3962 -1.1486 -0.6928
  918MPD2     C13434   2.263   1.662  12.045 -0.5688  0.0797  0.1105
  918MPD2    C113435   2.401   1.668  12.043  0.5520  0.0606  0.4677
  918MPD2    C213436   2.465   1.551  11.996 -0.2639  0.2339  1.3142
  918MPD2    C313437   2.393   1.449  11.937 -0.7153  0.4461  0.2293
  918MPD2    C413438   2.257   1.442  11.943 -0.4162  0.7063 -0.4460
  918MPD2    C513439   2.204   1.553  11.999 -0.2910  0.3126 -0.0182
  918MPD2     H13440   2.572   1.545  12.011 -0.0347 -0.2883 -0.4961
  918MPD2    H113441   2.198   1.363  11.899  1.2722  0.2393 -1.8882
  918MPD2    H213442   2.191   1.736  12.079  0.4473  1.0925  0.0809
  918MPD2    H313443   2.097   1.563  11.989 -0.3183  0.2154  0.1748
  918MPD2     N13444   2.466   1.337  11.888 -0.2581  0.0857  0.2452
  918MPD2    H513445   2.564   1.360  11.874  0.1210 -0.9502  1.2128
  918MPD2    N113446   2.474   1.778  12.092 -0.1427 -0.3425  0.2814
  918MPD2    H713447   2.569   1.744  12.102  0.1102  0.3717  0.3133
  919MPD2     C13448   3.340   0.606  11.628  0.8202  0.4692 -0.6486
  919MPD2    C113449   3.376   0.477  11.589 -0.2190  0.4280 -0.0446
  919MPD2    C213450   3.377   0.443  11.452 -0.5515  0.0196  0.1928
  919MPD2    C313451   3.338   0.533  11.362 -0.2064  0.1862  0.2585
  919MPD2    C413452   3.298   0.663  11.402 -0.3826 -0.2850 -0.0105
  919MPD2    C513453   3.297   0.698  11.535 -0.1261  0.6942 -0.1531
  919MPD2     H13454   3.414   0.344  11.430  1.6919  0.1365  3.4473
  919MPD2    H113455   3.269   0.734  11.325  0.8315 -1.2562 -1.3693
  919MPD2    H213456   3.350   0.638  11.731 -1.2637 -2.5266  0.4519
  919MPD2    H313457   3.278   0.803  11.551 -0.9297  0.3517  1.1727
  919MPD2     N13458   3.317   0.502  11.226  0.1101 -0.3027  0.3145
  919MPD2    H513459   3.253   0.558  11.171 -1.0520 -0.7868  1.1740
  919MPD2    N113460   3.405   0.378  11.681 -0.3202 -0.3684 -0.8902
  919MPD2    H713461   3.404   0.281  11.649  0.1010 -0.4891 -0.5401
  920MPD2     C13462   2.873   0.812  10.406  0.6566  0.1590  0.4177
  920MPD2    C113463   2.845   0.678  10.403 -0.1484  0.3224 -0.5984
  920MPD2    C213464   2.925   0.593  10.470  0.3615  0.2169 -0.0960
  920MPD2    C313465   3.020   0.644  10.561  0.0056  0.7015 -0.1248
  920MPD2    C413466   3.049   0.780  10.561  0.3352  0.1569 -0.3938
  920MPD2    C513467   2.979   0.864  10.480 -0.0564 -0.3812  0.1955
  920MPD2     H13468   2.889   0.491  10.474  2.1912 -0.4092  0.4109
  920MPD2    H113469   3.117   0.826  10.632 -0.1997 -0.1997  0.3434
  920MPD2    H213470   2.806   0.879  10.352  1.8821 -0.2360 -1.6124
  920MPD2    H313471   2.982   0.972  10.485 -4.0906 -0.2523 -0.3366
  920MPD2     N13472   3.095   0.552  10.645 -0.0456  0.4650  0.1310
  920MPD2    H513473   3.071   0.453  10.635 -0.5593  0.5796  0.2217
  920MPD2    N113474   2.723   0.630  10.348 -0.2468  0.5930  0.9851
  920MPD2    H713475   2.686   0.539  10.374 -0.2956  0.5350  0.7102
  921MPD2     C13476   3.638   4.686  16.910  0.4903  0.2628 -0.3472
  921MPD2    C113477   3.701   4.568  16.875  0.3673 -0.1131  0.2601
  921MPD2    C213478   3.625   4.471  16.819 -0.6007  0.1002 -0.6293
  921MPD2    C313479   3.487   4.476  16.797  0.3021  0.0049  0.2305
  921MPD2    C413480   3.430   4.598  16.829  0.3104 -0.1357  0.1580
  921MPD2    C513481   3.505   4.701  16.877 -0.7178  1.0687  0.2090
  921MPD2     H13482   3.669   4.380  16.781 -0.3701 -0.7393  1.6253
  921MPD2    H113483   3.324   4.619  16.824  1.1169  3.4007 -1.7294
  921MPD2    H213484   3.687   0.046  16.954 -0.9045  0.4895  0.7697
  921MPD2    H313485   3.453   0.060  16.917  0.6573  2.6834 -1.4906
  921MPD2     N13486   3.421   4.371  16.731 -0.3933 -0.1202  0.1913
  921MPD2    H513487   3.477   4.287  16.720  1.9091  1.3801  0.6183
  921MPD2    N113488   3.837   4.558  16.895  1.5025 -0.6604 -0.4721
  921MPD2    H713489   3.879   4.646  16.923  0.5031 -0.0774 -0.8191
  922MPD2     C13490   4.720   2.276  16.768 -0.1408 -0.2738 -0.4637
  922MPD2    C113491   0.037   2.330  16.885  0.0930  0.3305 -0.4133
  922MPD2    C213492   4.698   2.295  17.006  0.2235 -0.4212  0.3066
  922MPD2    C313493   4.583   2.217  17.015 -0.0296 -0.8116 -0.0454
  922MPD2    C413494   4.537   2.173  16.888  0.4398  0.9817  0.2266
  922MPD2    C513495   4.607   2.198  16.772 -0.0139 -0.3956  0.1830
  922MPD2     H13496   0.014   2.332  17.099 -0.9954 -1.6001  1.3091
  922MPD2    H113497   4.445   2.115  16.879  1.4227 -0.5783  0.1139
  922MPD2    H213498   0.040   2.295  16.672  1.9897 -0.0736  0.6216
  922MPD2    H313499   4.572   2.149  16.682  0.6654  1.0884 -0.8855
  922MPD2     N13500   4.532   2.169  17.138  0.6703  0.2417  0.1267
  922MPD2    H513501   4.561   2.209  17.227 -0.6404  0.0508  0.6395
  922MPD2    N113502   0.140   2.420  16.896 -0.1786  0.5231 -0.6273
  922MPD2    H713503   0.159   2.448  16.992 -1.4874 -0.4183 -0.0894
  923MPD2     C13504   1.329   3.505   9.488  0.2689  0.1063  0.6866
  923MPD2    C113505   1.317   3.636   9.528  0.0521 -0.0706  0.3437
  923MPD2    C213506   1.373   3.687   9.641  0.6299  0.5089  0.6100
  923MPD2    C313507   1.468   3.608   9.705 -0.3271 -0.3474  0.3758
  923MPD2    C413508   1.482   3.478   9.661 -0.7969  0.5590  0.4701
  923MPD2    C513509   1.405   3.422   9.563  0.3958 -0.2858  0.2320
  923MPD2     H13510   1.335   3.777   9.688 -0.7025  1.1106 -1.6235
  923MPD2    H113511   1.571   3.426   9.695  0.7012  0.8989 -2.9117
  923MPD2    H213512   1.266   3.465   9.409  1.1316 -2.2504  1.1822
  923MPD2    H313513   1.434   3.322   9.533 -0.0603 -0.7793  1.4697
  923MPD2     N13514   1.550   3.657   9.810  0.0147  0.6083 -0.1952
  923MPD2    H513515   1.631   3.601   9.835 -0.5200  0.5670  1.4565
  923MPD2    N113516   1.225   3.710   9.451 -1.0668 -0.5541 -0.2467
  923MPD2    H713517   1.152   3.664   9.398 -0.3970 -1.2647 -0.5509
  924MPD2     C13518   1.303   2.215  15.671 -0.4211  0.1121 -0.6717
  924MPD2    C113519   1.248   2.220  15.794 -0.8235 -0.2514 -0.1183
  924MPD2    C213520   1.290   2.312  15.880 -0.3468 -0.0166 -0.6568
  924MPD2    C313521   1.363   2.421  15.825  0.4970  0.4760  0.1900
  924MPD2    C413522   1.415   2.414  15.698  0.0621  0.0359  0.7250
  924MPD2    C513523   1.390   2.310  15.619 -0.2592 -0.7444  0.1461
  924MPD2     H13524   1.239   2.317  15.976 -1.9289  0.6241 -1.5458
  924MPD2    H113525   1.496   2.480  15.671  0.6500 -1.0424 -0.1206
  924MPD2    H213526   1.278   2.134  15.604  1.3708 -2.9485  2.3839
  924MPD2    H313527   1.446   2.292  15.528 -0.9848 -1.3331 -0.1815
  924MPD2     N13528   1.381   2.539  15.907  0.0989  0.2169  0.3098
  924MPD2    H513529   1.413   2.623  15.859  2.4256  0.0942  1.6243
  924MPD2    N113530   1.143   2.122  15.822 -0.3073 -0.3442 -0.4464
  924MPD2    H713531   1.111   2.058  15.751  1.0334 -0.5903 -0.8299
  925MPD2     C13532   4.450   4.572  14.674 -0.0855 -0.2971  0.3627
  925MPD2    C113533   4.350   4.664  14.646 -0.3857 -0.4171  0.7604
  925MPD2    C213534   4.307   0.015  14.756 -0.1236 -0.4770 -0.4991
  925MPD2    C313535   4.349   4.708  14.890 -0.3477 -0.1869 -0.7502
  925MPD2    C413536   4.448   4.609  14.909  0.7059  0.0614 -0.3444
  925MPD2    C513537   4.494   4.547  14.801 -0.1238 -0.1469 -0.2688
  925MPD2     H13538   4.236   0.093  14.732  1.3674  0.5386 -1.5809
  925MPD2    H113539   4.473   4.580  15.011 -0.9593 -0.8708 -0.1992
  925MPD2    H213540   4.503   4.514  14.600 -3.2881  0.1920 -2.3540
  925MPD2    H313541   4.558   4.460  14.810 -1.3887 -1.0180  0.2038
  925MPD2     N13542   4.305   0.048  15.002  0.0083 -0.2297 -0.3853
  925MPD2    H513543   4.359   0.027  15.085 -2.0871 -1.1101  0.7587
  925MPD2    N113544   4.311   4.695  14.515 -0.3034 -0.3656 -0.5591
  925MPD2    H713545   4.253   0.052  14.512 -0.3524 -0.4164 -1.0284
  926MPD2     C13546   4.433   3.593  13.393 -0.1927 -0.1816 -0.7627
  926MPD2    C113547   4.324   3.654  13.450  0.0100  0.4059  0.0865
  926MPD2    C213548   4.268   3.756  13.386  0.4080 -0.1089  0.6815
  926MPD2    C313549   4.312   3.797  13.258  0.4985 -0.1771  0.5084
  926MPD2    C413550   4.409   3.720  13.196  0.1364  0.6584  0.6420
  926MPD2    C513551   4.470   3.616  13.262  0.1892 -0.1611  0.5579
  926MPD2     H13552   4.186   3.805  13.438  1.6149  2.3639  0.2455
  926MPD2    H113553   4.427   3.737  13.091  0.5369  0.1488  0.6285
  926MPD2    H213554   4.480   3.512  13.446 -0.4086 -0.0457 -0.3635
  926MPD2    H313555   4.547   3.561  13.210 -0.8430 -1.8538  0.8442
  926MPD2     N13556   4.261   3.907  13.191 -0.1216 -0.1335 -0.7357
  926MPD2    H513557   4.310   3.928  13.105  1.0790  0.9705  0.2238
  926MPD2    N113558   4.288   3.647  13.587  0.2302  0.2173 -0.3239
  926MPD2    H713559   4.207   3.699  13.619  0.5491 -0.0621  0.9577
  927MPD2     C13560   2.956   1.346   0.461 -0.0889  0.1388  1.0777
  927MPD2    C113561   2.965   1.215   0.491 -1.0297 -1.0719 -0.2999
  927MPD2    C213562   2.955   1.122   0.389  0.2386 -0.4018  0.2655
  927MPD2    C313563   2.943   1.157   0.260  0.0918  0.4287  0.3119
  927MPD2    C413564   2.952   1.290   0.230  0.3684 -0.1733  0.0467
  927MPD2    C513565   2.957   1.387   0.332  0.8777  0.4236 -0.4383
  927MPD2     H13566   2.949   1.016   0.411  2.1458 -0.9875 -2.0327
  927MPD2    H113567   2.930   1.324   0.130  0.2176  2.8833  1.1013
  927MPD2    H213568   2.944   1.420   0.540  1.3828  2.6503 -1.0438
  927MPD2    H313569   2.964   1.489   0.295  1.3609  0.9865  1.2180
  927MPD2     N13570   2.917   1.060   0.160 -0.3361 -0.1429  0.1031
  927MPD2    H513571   2.896   0.967   0.194 -1.5276 -1.2508 -3.6505
  927MPD2    N113572   2.955   1.187   0.627  0.0565  0.1260 -0.1709
  927MPD2    H713573   2.924   1.259   0.692  0.4751 -1.9226  2.3220
  928MPD2     C13574   1.761   4.015   1.067  0.3595  1.0069 -0.2645
  928MPD2    C113575   1.854   4.104   1.116 -0.0651 -0.3321  0.1227
  928MPD2    C213576   1.936   4.175   1.026  0.1292  0.1227  0.2149
  928MPD2    C313577   1.919   4.162   0.889  0.1864  0.2395 -0.4788
  928MPD2    C413578   1.828   4.067   0.841 -0.2956  0.0468 -0.3092
  928MPD2    C513579   1.758   3.996   0.931  0.6549  0.6196 -0.5679
  928MPD2     H13580   1.999   4.254   1.064 -1.3579  0.7409  1.4232
  928MPD2    H113581   1.810   4.049   0.736 -0.6885  0.4805 -0.3149
  928MPD2    H213582   1.705   3.945   1.127  0.2821  1.3711  0.0821
  928MPD2    H313583   1.695   3.917   0.892  1.3845 -1.0870  1.7006
  928MPD2     N13584   1.973   4.245   0.792  0.4968 -0.1331 -0.2871
  928MPD2    H513585   1.931   4.250   0.699 -0.3449 -0.2083  0.0827
  928MPD2    N113586   1.875   4.129   1.250 -0.0906  0.3523  0.3677
  928MPD2    H713587   1.968   4.162   1.272  0.8559 -2.5650  0.7758
  929MPD2     C13588   1.392   4.288  10.334 -0.3908  0.1660 -0.2269
  929MPD2    C113589   1.288   4.200  10.320 -0.2107 -0.5189  0.3065
  929MPD2    C213590   1.184   4.236  10.235 -0.4493  0.5234 -0.5944
  929MPD2    C313591   1.183   4.351  10.162 -0.0769 -0.1238  0.7874
  929MPD2    C413592   1.287   4.438  10.173 -0.5616  0.2217 -0.1494
  929MPD2    C513593   1.395   4.404  10.258  0.1549 -0.0512 -0.7068
  929MPD2     H13594   1.090   4.182  10.230 -0.4042  0.2601  1.3815
  929MPD2    H113595   1.291   4.523  10.105 -1.4446  0.8225  0.5541
  929MPD2    H213596   1.480   4.263  10.393 -0.8144 -0.6698  0.0507
  929MPD2    H313597   1.477   4.475  10.249  0.7372 -0.7118 -0.5303
  929MPD2     N13598   1.066   4.394  10.089  0.1295  0.2354 -0.1607
  929MPD2    H513599   1.058   4.492  10.062  0.3927 -0.5898 -3.2433
  929MPD2    N113600   1.283   4.087  10.408 -0.5477  0.1981 -0.0351
  929MPD2    H713601   1.362   4.071  10.470  0.0810  1.8424 -0.4302
  930MPD2     C13602   2.823   1.650  14.021  0.1011  0.4064 -0.4836
  930MPD2    C113603   2.838   1.740  13.913  0.0148  0.9546  0.6045
  930MPD2    C213604   2.803   1.688  13.789  0.1639 -0.3475  0.5114
  930MPD2    C313605   2.754   1.565  13.768  0.0952 -0.3990 -0.2669
  930MPD2    C413606   2.738   1.479  13.880 -0.0099  0.3262 -0.4003
  930MPD2    C513607   2.767   1.522  14.009 -0.4180  0.1795 -0.1276
  930MPD2     H13608   2.837   1.742  13.702 -1.1305  0.1211  0.3106
  930MPD2    H113609   2.705   1.376  13.866 -1.4386  1.0085 -2.0864
  930MPD2    H213610   2.860   1.670  14.121  2.0177  1.4864 -1.4013
  930MPD2    H313611   2.767   1.460  14.098 -0.8688  1.6364  0.8785
  930MPD2     N13612   2.745   1.502  13.645 -0.6033  0.9807 -0.2906
  930MPD2    H513613   2.719   1.404  13.643  0.1667  0.7566  1.2538
  930MPD2    N113614   2.899   1.869  13.923 -0.8378 -0.5259  0.3447
  930MPD2    H713615   2.928   1.914  13.836  0.2550 -0.0471  0.9598
  931MPD2     C13616   3.185   0.568   1.100 -0.3850 -0.1073  0.5951
  931MPD2    C113617   3.071   0.630   1.141 -0.1229 -0.0835  0.1606
  931MPD2    C213618   3.010   0.591   1.258 -0.2169  0.1031  0.0240
  931MPD2    C313619   3.065   0.485   1.331 -0.5818  0.1970  0.3871
  931MPD2    C413620   3.185   0.427   1.295  0.3068 -0.1525 -0.7311
  931MPD2    C513621   3.239   0.463   1.170  0.4241 -0.0936 -0.0971
  931MPD2     H13622   2.905   0.612   1.275 -0.6638 -0.0456 -2.4834
  931MPD2    H113623   3.237   0.355   1.356 -2.7158 -0.8992  0.9227
  931MPD2    H213624   3.223   0.601   1.004  0.5681  0.3671  1.1330
  931MPD2    H313625   3.325   0.411   1.131 -0.2596 -1.6212  0.4056
  931MPD2     N13626   3.012   0.446   1.463  0.4014  0.0635 -0.2464
  931MPD2    H513627   3.066   0.380   1.518  1.2213 -0.0630 -1.2123
  931MPD2    N113628   3.024   0.733   1.064  0.2029  0.4089  0.0168
  931MPD2    H713629   3.064   0.737   0.971  0.7447 -1.4700  0.1702
  932MPD2     C13630   0.043   0.492  11.509 -0.4707  0.3109  0.2421
  932MPD2    C113631   0.108   0.559  11.606 -0.0436  0.4860 -0.3834
  932MPD2    C213632   0.184   0.484  11.696 -0.7835  0.5560 -0.0672
  932MPD2    C313633   0.204   0.346  11.684 -0.2262 -0.3047 -0.4738
  932MPD2    C413634   0.130   0.284  11.590  0.1525  0.7273  0.3166
  932MPD2    C513635   0.053   0.353  11.503  0.1969 -0.0866  0.3174
  932MPD2     H13636   0.246   0.542  11.764 -0.6575 -0.4960  0.7111
  932MPD2    H113637   0.132   0.178  11.568 -2.2876  0.7767 -0.2272
  932MPD2    H213638   4.692   0.532  11.444 -0.1297  0.2669 -0.1877
  932MPD2    H313639   4.725   0.296  11.429 -3.0279  1.4497  1.4997
  932MPD2     N13640   0.287   0.266  11.764 -0.6688 -0.4215 -0.0762
  932MPD2    H513641   0.290   0.165  11.754 -0.5548 -0.3711 -0.5502
  932MPD2    N113642   0.103   0.704  11.609  0.4541  0.6737 -0.1347
  932MPD2    H713643   0.153   0.754  11.682 -1.3706  0.8161  1.0353
  933MPD2     C13644   1.618   4.454   2.088  0.0803  0.3519  0.0035
  933MPD2    C113645   1.582   4.441   1.953  0.6616 -0.6872 -0.0219
  933MPD2    C213646   1.471   4.506   1.902 -0.2734 -0.4544  0.1506
  933MPD2    C313647   1.392   4.582   1.987  0.0998 -0.2812 -0.1133
  933MPD2    C413648   1.435   4.608   2.114 -0.5586 -0.9954  0.7230
  933MPD2    C513649   1.536   4.537   2.160  0.0264  0.3613  0.2502
  933MPD2     H13650   1.442   4.498   1.798  0.6627 -0.5831 -0.0995
  933MPD2    H113651   1.384   4.671   2.186  1.3969 -0.8757  1.9975
  933MPD2    H213652   1.704   4.403   2.130  0.2351  0.1850 -0.5098
  933MPD2    H313653   1.560   4.547   2.265  3.2642 -0.0952 -0.4320
  933MPD2     N13654   1.288   4.651   1.924 -0.4317 -0.2344 -0.1796
  933MPD2    H513655   1.280   4.625   1.826  0.1918 -0.9171 -0.0517
  933MPD2    N113656   1.661   4.349   1.873  0.2077 -0.3948 -0.2205
  933MPD2    H713657   1.742   4.316   1.924 -1.3720 -0.7680  2.0363
  934MPD2     C13658   1.613   2.305   2.122 -0.4914 -0.3227 -0.6004
  934MPD2    C113659   1.682   2.189   2.157 -0.2764 -0.9040  0.3897
  934MPD2    C213660   1.649   2.070   2.091  0.3974  0.9002  0.3284
  934MPD2    C313661   1.546   2.065   2.001  0.3337 -0.7308  0.2894
  934MPD2    C413662   1.473   2.184   1.965 -0.0646  0.1477  0.1013
  934MPD2    C513663   1.507   2.302   2.037 -0.7265 -0.3198 -0.0134
  934MPD2     H13664   1.713   1.986   2.116  0.1420  0.6358  0.0920
  934MPD2    H113665   1.386   2.184   1.900 -2.2312  0.9694  3.0330
  934MPD2    H213666   1.631   2.405   2.161  0.6443 -2.1053  3.4981
  934MPD2    H313667   1.450   2.392   2.015  1.3667  1.6615  2.7324
  934MPD2     N13668   1.503   1.945   1.938  0.3286 -0.0221 -0.4741
  934MPD2    H513669   1.426   1.956   1.873 -0.1066  1.0038  0.2164
  934MPD2    N113670   1.784   2.191   2.257  1.0452  0.3092 -0.7847
  934MPD2    H713671   1.841   2.109   2.276  0.5575  0.7671  2.6294
  935MPD2     C13672   1.995   1.102   1.730  0.0530 -0.3497  0.9408
  935MPD2    C113673   1.916   1.121   1.616  0.1261  0.1060  0.2923
  935MPD2    C213674   1.814   1.211   1.616  0.2466  0.1491  0.2294
  935MPD2    C313675   1.790   1.273   1.735  0.3286 -0.0342 -0.3274
  935MPD2    C413676   1.856   1.236   1.855  0.2812  0.0184  0.0786
  935MPD2    C513677   1.964   1.152   1.854 -0.3488  0.6175  0.3711
  935MPD2     H13678   1.750   1.231   1.532  0.2747 -1.2529 -0.1293
  935MPD2    H113679   1.835   1.292   1.946  1.3309  2.7037 -1.3221
  935MPD2    H213680   2.083   1.039   1.724  0.6031  0.2946  2.1151
  935MPD2    H313681   2.019   1.134   1.945  0.5621 -1.9345 -0.6737
  935MPD2     N13682   1.696   1.377   1.754  0.3694 -0.1350  0.7210
  935MPD2    H513683   1.670   1.405   1.848 -1.9889 -0.3662  0.1484
  935MPD2    N113684   1.938   1.050   1.499  0.2223  0.6359 -0.0156
  935MPD2    H713685   1.872   1.068   1.425  1.0513 -0.7265 -1.0843
  936MPD2     C13686   0.512   3.392  12.124 -0.2157  0.8758 -0.5699
  936MPD2    C113687   0.540   3.335  12.246 -0.1784 -0.1547  0.2046
  936MPD2    C213688   0.539   3.415  12.355  0.5204  0.3656  0.4591
  936MPD2    C313689   0.533   3.550  12.347 -0.3879  0.3617  0.3880
  936MPD2    C413690   0.499   3.604  12.224  0.2014 -0.2575  0.2068
  936MPD2    C513691   0.479   3.522  12.114 -0.0600  0.7048 -0.4817
  936MPD2     H13692   0.567   3.376  12.452 -1.6666  0.3355  1.0720
  936MPD2    H113693   0.500   3.712  12.216  1.6339 -0.2338  0.6475
  936MPD2    H213694   0.513   3.342  12.028 -1.3586  0.4535 -0.3636
  936MPD2    H313695   0.466   3.570  12.018  0.7541  0.4615 -0.7100
  936MPD2     N13696   0.561   3.641  12.448  0.1620  1.0352  0.4841
  936MPD2    H513697   0.588   3.736  12.424  0.4917  0.7506 -0.2682
  936MPD2    N113698   0.555   3.195  12.257  0.5502 -0.5734 -0.1969
  936MPD2    H713699   0.562   3.151  12.348 -0.7287  1.4093  0.8533
  937MPD2     C13700   3.596   4.478  11.564 -0.3426  1.0865  0.0899
  937MPD2    C113701   3.664   4.590  11.606  0.0871 -0.0479 -0.4380
  937MPD2    C213702   3.770   4.633  11.532 -0.1468 -0.1724 -0.0148
  937MPD2    C313703   3.830   4.549  11.444 -0.0814  0.0242 -0.3758
  937MPD2    C413704   3.777   4.427  11.416  0.2697  0.1607 -0.0057
  937MPD2    C513705   3.660   4.389  11.479  0.5068 -0.8848  0.1682
  937MPD2     H13706   3.808   0.008  11.539 -0.6760 -0.0166  0.5309
  937MPD2    H113707   3.824   4.353  11.352  0.5527  0.3418 -0.0097
  937MPD2    H213708   3.496   4.455  11.600  0.7764 -3.1806  0.4259
  937MPD2    H313709   3.622   4.288  11.472  0.1772 -0.5842 -2.1981
  937MPD2     N13710   3.942   4.606  11.377  0.8110  0.3118 -0.6897
  937MPD2    H513711   3.948   4.706  11.389  0.3611  0.5800 -2.7263
  937MPD2    N113712   3.588   4.682  11.676 -0.0660  0.0952  0.3857
  937MPD2    H713713   3.599   0.056  11.662 -1.2623 -0.1228 -2.0759
  938MPD2     C13714   1.165   0.622   1.057  0.1057  0.0222  0.2630
  938MPD2    C113715   1.041   0.673   1.077 -1.3759  0.5631 -0.0357
  938MPD2    C213716   0.978   0.642   1.196 -0.4298 -0.4395 -1.0714
  938MPD2    C313717   1.037   0.556   1.291 -0.0760  0.0173  0.0725
  938MPD2    C413718   1.160   0.508   1.265 -0.5214 -0.1980  0.3564
  938MPD2    C513719   1.228   0.544   1.152  0.2433 -0.2331 -0.1430
  938MPD2     H13720   0.876   0.675   1.212  0.1770 -1.7320  5.3911
  938MPD2    H113721   1.219   0.448   1.333 -2.6439 -0.5500  1.8780
  938MPD2    H213722   1.228   0.664   0.979  1.8055  0.0597  1.6514
  938MPD2    H313723   1.331   0.514   1.137  0.0316 -0.2248 -1.5674
  938MPD2     N13724   0.984   0.519   1.416  0.0250 -0.2194 -1.2524
  938MPD2    H513725   1.044   0.452   1.464 -0.0954  0.8134  0.3167
  938MPD2    N113726   0.979   0.762   0.988 -0.3650 -0.0870  0.2958
  938MPD2    H713727   0.897   0.808   1.027  0.2594  0.4569  0.9526
  939MPD2     C13728   1.987   2.329   0.908 -0.2344 -0.5544  0.2090
  939MPD2    C113729   2.079   2.387   0.988 -0.1100  0.0060 -0.2481
  939MPD2    C213730   2.195   2.436   0.941  0.4256  0.1160 -0.3113
  939MPD2    C313731   2.233   2.411   0.815 -0.3620 -0.6280  0.1098
  939MPD2    C413732   2.150   2.334   0.736 -0.5448  0.3718 -0.0929
  939MPD2    C513733   2.021   2.304   0.776 -0.0829  0.0102 -0.1794
  939MPD2     H13734   2.257   2.485   1.015  0.8463  0.0539 -0.6238
  939MPD2    H113735   2.171   2.313   0.631 -0.5618 -0.0800 -0.0087
  939MPD2    H213736   1.886   2.299   0.935 -1.3946  3.5947  0.4714
  939MPD2    H313737   1.941   2.274   0.709 -1.9030  1.8271  1.1388
  939MPD2     N13738   2.361   2.449   0.780 -0.5854 -1.1255 -0.1514
  939MPD2    H513739   2.408   2.503   0.853 -0.4198 -0.0463 -1.0586
  939MPD2    N113740   2.043   2.413   1.121  0.5396  0.2345 -0.0085
  939MPD2    H713741   1.945   2.411   1.146  0.7524  0.0853  0.8134
  940MPD2     C13742   1.048   3.233  13.086  0.2813  0.1927  0.1327
  940MPD2    C113743   1.178   3.261  13.122  0.1755 -0.8311  0.3214
  940MPD2    C213744   1.282   3.233  13.034  0.5418 -0.1630 -0.3030
  940MPD2    C313745   1.256   3.183  12.908 -0.4271  0.4338  0.1246
  940MPD2    C413746   1.123   3.165  12.876 -0.4461  0.0089 -0.3719
  940MPD2    C513747   1.014   3.192  12.955 -0.0479 -0.5210 -0.3936
  940MPD2     H13748   1.383   3.235  13.072  0.3420 -2.3436  0.3246
  940MPD2    H113749   1.100   3.144  12.772  0.3553 -2.0478 -0.1365
  940MPD2    H213750   0.962   3.249  13.150  0.1029  0.4012 -0.1579
  940MPD2    H313751   0.911   3.189  12.921 -0.1883 -2.1517  0.1950
  940MPD2     N13752   1.358   3.151  12.821 -0.5263  0.1215  0.6698
  940MPD2    H513753   1.328   3.085  12.749  0.6466  0.2380  0.0641
  940MPD2    N113754   1.215   3.316  13.245  0.4422  0.4775 -0.6173
  940MPD2    H713755   1.316   3.327  13.254  0.1755  1.0070  1.8510
  941MPD2     C13756   0.824   2.098   9.310  0.0350  0.0410  0.2315
  941MPD2    C113757   0.851   2.060   9.439  0.1704  0.3285 -0.7006
  941MPD2    C213758   0.854   1.924   9.467  0.6560  0.2270  0.1261
  941MPD2    C313759   0.798   1.835   9.382  0.3614 -0.4007  0.0452
  941MPD2    C413760   0.766   1.873   9.260 -0.2696 -0.3898 -0.3009
  941MPD2    C513761   0.785   2.001   9.220 -0.7196 -0.2708 -0.1405
  941MPD2     H13762   0.871   1.901   9.572  1.0209 -0.4600 -0.0831
  941MPD2    H113763   0.737   1.799   9.186  0.7749 -1.1463  0.0465
  941MPD2    H213764   0.826   2.203   9.280  0.1191  0.1584  0.6458
  941MPD2    H313765   0.756   2.035   9.121 -0.9615 -0.3212 -0.0878
  941MPD2     N13766   0.775   1.696   9.409 -0.4106  0.5958  0.0567
  941MPD2    H513767   0.747   1.643   9.327  1.8851  1.3475 -1.2091
  941MPD2    N113768   0.907   2.139   9.545 -0.0280 -0.7880 -0.2864
  941MPD2    H713769   0.929   2.087   9.630  2.5107  0.9397  0.0968
  942MPD2     C13770   0.062   4.031  10.324  0.2464 -0.5518 -0.6233
  942MPD2    C113771   4.703   3.974  10.232 -0.2900  0.1019  0.4179
  942MPD2    C213772   4.720   3.989  10.102  0.2793  0.4459 -0.0768
  942MPD2    C313773   0.091   4.083  10.058 -0.2619  0.5657 -0.7153
  942MPD2    C413774   0.174   4.142  10.151 -0.2266 -0.6185 -0.1081
  942MPD2    C513775   0.149   4.128  10.287  0.3998  0.1360  1.2511
  942MPD2     H13776   4.655   3.936  10.033  0.5445 -0.8898  0.6991
  942MPD2    H113777   0.260   4.198  10.118  0.6624 -2.3469 -0.7169
  942MPD2    H213778   0.052   4.008  10.429  1.7769  1.3908 -0.0501
  942MPD2    H313779   0.208   4.186  10.357  0.0022 -0.3038  1.9485
  942MPD2     N13780   0.116   4.113   9.922  0.5423 -0.1464  0.2616
  942MPD2    H513781   0.182   4.189   9.905 -1.2222  1.2051 -0.5211
  942MPD2    N113782   4.615   3.873  10.269 -0.5591 -0.3737  0.0029
  942MPD2    H713783   4.573   3.815  10.198 -1.6622  2.1994 -1.4370
  943MPD2     C13784   3.476   2.868   9.479  0.1619 -0.0420 -0.2566
  943MPD2    C113785   3.369   2.774   9.468 -0.5488  0.1767 -0.1550
  943MPD2    C213786   3.256   2.825   9.412  0.9072  0.1664  0.7700
  943MPD2    C313787   3.247   2.952   9.358 -0.0591  0.5692 -0.4022
  943MPD2    C413788   3.355   3.040   9.373 -0.2349  0.5590 -1.0459
  943MPD2    C513789   3.472   2.995   9.428 -0.1898 -0.0479 -0.0456
  943MPD2     H13790   3.165   2.765   9.410  1.7662 -1.1896  2.3913
  943MPD2    H113791   3.347   3.144   9.343 -0.4671  1.3455  1.6740
  943MPD2    H213792   3.567   2.842   9.532  1.5193 -1.2445 -3.1711
  943MPD2    H313793   3.558   3.060   9.439 -1.6679  2.0769 -0.9142
  943MPD2     N13794   3.135   3.017   9.310  0.3442  0.2063  0.0844
  943MPD2    H513795   3.149   3.113   9.280 -3.3961  0.5257 -0.6571
  943MPD2    N113796   3.389   2.645   9.515 -0.2093  0.2039  0.1100
  943MPD2    H713797   3.480   2.619   9.552  1.2288  2.8819 -1.5502
  944MPD2     C13798   3.701   1.059  11.541  0.2076 -0.3863 -0.5924
  944MPD2    C113799   3.699   1.127  11.425 -0.5774  0.4099  0.2752
  944MPD2    C213800   3.640   1.258  11.422 -0.2158  1.0548  0.7494
  944MPD2    C313801   3.567   1.300  11.532 -0.6162  0.1264  0.4993
  944MPD2    C413802   3.557   1.225  11.646 -0.5564 -0.0758  0.3160
  944MPD2    C513803   3.630   1.106  11.644  0.4656 -0.3885  0.0172
  944MPD2     H13804   3.668   1.325  11.342  2.3932  1.5283  2.0653
  944MPD2    H113805   3.507   1.251  11.739 -1.0866  2.1464 -0.5999
  944MPD2    H213806   3.744   0.960  11.548  0.1078 -0.3569  0.5918
  944MPD2    H313807   3.618   1.049  11.736  1.3641 -1.8256 -0.7521
  944MPD2     N13808   3.508   1.429  11.518  0.2299 -0.1928  0.2980
  944MPD2    H513809   3.533   1.477  11.432 -0.0607  2.6151  1.7913
  944MPD2    N113810   3.769   1.069  11.321 -0.4135 -0.0348  0.7411
  944MPD2    H713811   3.797   0.972  11.334  1.0106  0.2991  0.2299
    1TCq1    O113812   1.668   2.288  14.232 -0.1708 -0.0148  0.0065
    1TCq1    C113813   1.733   2.221  14.138 -0.6084 -0.0342  0.1526
    1TCq1    O213814   1.676   2.158  14.048  0.0431  0.7257  0.0252
    1TCq1    C213815   1.870   2.258  14.128 -0.1377 -0.1421 -0.1779
    1TCq1    C313816   1.931   2.188  14.035  0.5486  0.7905 -0.2096
    1TCq1    C413817   2.068   2.169  14.053 -0.2804 -0.6783 -0.9816
    1TCq1    C513818   2.127   2.198  14.172 -0.0577  0.2858 -0.9292
    1TCq1    C613819   2.062   2.269  14.267  0.1248  0.4064 -0.7289
    1TCq1    C713820   1.934   2.309  14.242  0.1362  0.4004 -0.0955
    1TCq1    C813821   2.141   2.348  14.362  0.3309 -0.8867  0.7611
    1TCq1    O413822   2.242   2.301  14.408 -0.1817 -0.0629 -0.2421
    1TCq1    C913823   2.147   2.114  13.947 -0.8699 -0.2988 -0.2458
    1TCq1    O513824   2.076   2.088  13.846 -0.3809  0.6438  0.7615
    1TCq1    O613825   2.270   2.117  13.943 -0.2720 -0.0447 -0.4493
    1TCq1    H113826   1.709   2.353  14.292 -0.6481  1.6528 -1.4879
    1TCq1    H213827   1.880   2.160  13.944 -0.6719  3.6952 -0.4233
    1TCq1    H313828   2.233   2.179  14.181 -0.1243  0.1807 -0.3693
    1TCq1    H413829   1.884   2.352  14.328 -0.1514  1.2587 -0.7065
    2MPD2     C13830   2.232   2.798  14.586 -0.4587  0.8426 -0.6383
    2MPD2    C113831   2.137   2.815  14.492 -0.5109 -0.3754  0.4591
    2MPD2    C213832   2.099   2.702  14.419  0.0584 -0.6755  0.2235
    2MPD2    C313833   2.148   2.577  14.441 -0.1853 -0.2472 -0.1259
    2MPD2    C413834   2.244   2.563  14.542  0.3008 -0.4438 -0.2613
    2MPD2    C513835   2.283   2.674  14.609 -0.9931  0.1745 -0.0085
    2MPD2     H13836   2.023   2.712  14.342 -0.5357  1.1287  1.0614
    2MPD2    H113837   2.286   2.468  14.573  0.5534 -0.4137 -0.5128
    2MPD2    H213838   2.263   2.886  14.643 -1.2928  0.6713  0.0851
    2MPD2    H313839   2.355   2.659  14.689 -1.1150 -0.2408  0.0249
    2MPD2     N13840   2.086   2.472  14.371  0.4599  0.6092 -0.2513
    2MPD2    H513841   2.028   2.494  14.291 -0.5590  0.8572  0.5468
    2MPD2    N113842   2.077   2.948  14.473 -0.2223  0.5447  0.4781
    2MPD2    H713843   2.117   3.027  14.523 -0.4975  0.2635  1.1395
    3TMC2    C113844   1.963   3.127  14.364 -0.2281  0.2641  0.5005
    3TMC2    C213845   1.837   3.168  14.348 -0.1043 -0.2965 -0.1491
    3TMC2    C313846   1.817   3.287  14.284 -0.1272  0.7719 -0.1922
    3TMC2    C413847   2.065   3.198  14.315 -0.4031 -0.7128 -0.1241
    3TMC2    C513848   2.042   3.324  14.255  0.1731 -1.0428 -0.4441
    3TMC2    C613849   1.913   3.369  14.240  0.8142 -0.5177 -0.7635
    3TMC2     C13850   1.976   2.975  14.383 -1.0794 -0.1409  0.4378
    3TMC2     O13851   1.912   2.897  14.313 -0.6095 -0.2872 -0.0931
    3TMC2     H13852   1.751   3.104  14.367 -1.1122  1.3973  0.9487
    3TMC2    H113853   2.165   3.158  14.303 -0.5874 -1.4723  0.9051
    3TMC2    H213854   1.903   3.466  14.194 -1.6926 -0.0496  0.7596
    3TMC2    C713855   2.154   3.364  14.171 -0.1976 -1.0575  0.3379
    3TMC2    C813856   1.676   3.333  14.286  0.4107  0.2409  0.1026
    3TMC2    O113857   2.224   3.275  14.128  0.1663 -0.4956 -0.1891
    3TMC2    O213858   1.589   3.277  14.346 -0.0166  0.3661  0.4633
    3TMC2    O513859   1.667   3.454  14.232 -0.4313 -0.0978  0.5331
    3TMC2    H513860   1.727   3.457  14.154 -0.5680 -0.3416  0.4165
    4MPD2     C13861   1.532   3.892  13.310  0.0325 -0.3299  0.4992
    4MPD2    C113862   1.640   3.866  13.225 -0.2249  0.5382 -0.0497
    4MPD2    C213863   1.763   3.909  13.267  0.2687  0.3349  0.3546
    4MPD2    C313864   1.775   3.987  13.387 -0.7903 -0.1457 -0.4362
    4MPD2    C413865   1.664   4.011  13.463 -0.1457  0.2072 -0.0574
    4MPD2    C513866   1.547   3.965  13.428  0.7103  0.0321 -0.1978
    4MPD2     H13867   1.847   3.883  13.204  0.6382 -1.6929  1.6813
    4MPD2    H113868   1.668   4.059  13.560 -1.7887  2.0954 -0.9393
    4MPD2    H213869   1.430   3.873  13.276  0.5574  0.1634 -1.3552
    4MPD2    H313870   1.463   3.988  13.493  0.8808  0.5590 -0.1627
    4MPD2     N13871   1.901   4.027  13.431  0.2937 -0.1911 -0.1942
    4MPD2    H513872   1.983   3.992  13.382 -0.5077 -2.6799  0.2148
    4MPD2    N113873   1.607   3.802  13.102  0.1415 -0.0217 -0.4927
    4MPD2    H713874   1.510   3.772  13.096 -0.0349  1.0160 -2.4867
    5TCq2    C113875   1.940   4.103  13.543 -0.2727  0.3924  0.4156
    5TCq2    O213876   1.865   4.157  13.624 -0.4110 -0.7923  0.1195
    5TCq2    C213877   2.085   4.099  13.571 -0.3051  0.7082  0.0093
    5TCq2    C313878   2.172   4.064  13.471 -0.4455 -0.0116  0.7384
    5TCq2    C413879   2.293   4.012  13.506  0.7991  0.3784  0.4813
    5TCq2    C513880   2.326   3.998  13.637  0.1433 -0.5199  1.0506
    5TCq2    C613881   2.230   4.023  13.735 -0.2501  0.1234 -0.8849
    5TCq2    C713882   2.109   4.071  13.698  0.1372 -0.1587 -0.3139
    5TCq2    C813883   2.226   3.940  13.852  0.1339  0.2168 -0.0518
    5TCq2    O413884   2.114   3.915  13.894  0.2649  0.7738 -0.4108
    5TCq2    C913885   2.389   3.975  13.402 -0.2126 -0.2889 -0.4252
    5TCq2    O513886   2.343   3.939  13.288  0.1478 -0.3938 -0.1565
    5TCq2    O613887   2.506   3.940  13.436 -0.3958  0.6080  0.0142
    5TCq2    H213888   2.141   4.101  13.374 -0.3066 -0.0586  0.6758
    5TCq2    H313889   2.430   3.982  13.664  0.0837 -3.0345 -0.2699
    5TCq2    H413890   2.028   4.072  13.770  0.5726 -1.6917  0.1989
    6MPD1     C13891   1.111   0.360  13.106  0.4374 -0.2905  0.3779
    6MPD1    C113892   1.151   0.238  13.160  1.0670  0.1843  0.2808
    6MPD1    C213893   1.140   0.126  13.089 -0.1341  0.1431 -0.4554
    6MPD1    C313894   1.120   0.134  12.948 -0.0171  0.2267 -0.2349
    6MPD1    C413895   1.096   0.255  12.882  0.1671 -0.4162 -0.0234
    6MPD1    C513896   1.092   0.365  12.970 -0.0887  0.1430  0.6499
    6MPD1     H13897   1.153   0.030  13.138 -0.2703 -0.2247 -1.1338
    6MPD1    H113898   1.074   0.266  12.776  2.1794  0.2945 -0.3745
    6MPD1    H213899   1.102   0.454  13.159  1.6173 -0.1652  0.3532
    6MPD1    H313900   1.073   0.459  12.919 -2.0439 -0.8380 -0.4204
    6MPD1     N13901   1.115   0.014  12.869  0.4209  0.0182  0.1239
    6MPD1    H513902   1.130   0.023  12.769  0.6526 -0.3740  0.1273
    6MPD1    N113903   1.175   0.231  13.299  1.2050  0.4001  0.4807
    6MPD1    H613904   1.217   0.151  13.346 -1.0358 -0.6587  0.6951
    6MPD1    H713905   1.224   0.314  13.330  0.8638  0.5130  0.7128
    7MPD2     C13906   1.023   3.909  13.100 -0.4141 -0.7452 -0.6780
    7MPD2    C113907   1.075   3.918  12.972  0.3170  0.7300  0.3772
    7MPD2    C213908   1.141   3.810  12.920 -0.3651 -0.0253  0.3547
    7MPD2    C313909   1.167   3.695  12.995  0.5108  0.2662  0.3776
    7MPD2    C413910   1.125   3.689  13.130 -1.3243 -0.3830 -0.5466
    7MPD2    C513911   1.051   3.797  13.177 -0.7688  0.1924  0.1925
    7MPD2     H13912   1.183   3.811  12.820  0.9789  0.0210  0.9171
    7MPD2    H113913   1.140   3.595  13.182 -1.0925 -1.0564 -1.8172
    7MPD2    H213914   0.972   3.997  13.138  0.6839 -0.6593  0.6081
    7MPD2    H313915   1.010   3.795  13.277 -1.7560  2.3434 -0.1618
    7MPD2     N13916   1.249   3.588  12.952  0.5190  0.1409 -0.4176
    7MPD2    H513917   1.301   3.533  13.020 -2.1591 -1.1761  0.5600
    7MPD2    N113918   1.080   4.036  12.899 -0.2608 -0.6362 -0.1853
    7MPD2    H713919   1.116   4.026  12.805 -1.7471  0.2062 -0.8302
    8TMC3    C113920   1.442   3.579  12.815  0.0280 -0.8784 -0.3540
    8TMC3    C213921   1.514   3.627  12.926 -0.2106 -0.3511 -0.5560
    8TMC3    C313922   1.625   3.701  12.894  0.1530  0.3843 -0.5620
    8TMC3    C413923   1.478   3.619  12.684  0.3167 -0.0587  0.5462
    8TMC3    C513924   1.590   3.694  12.664  0.0521  0.3759 -0.9043
    8TMC3    C613925   1.666   3.731  12.773  0.3488 -0.0642 -0.4845
    8TMC3     C13926   1.297   3.578  12.826 -0.3957 -0.4780  0.0021
    8TMC3     O13927   1.240   3.618  12.726 -0.5614 -0.1610  0.1452
    8TMC3     H13928   1.499   3.592  13.027  0.8086  0.7964 -0.0047
    8TMC3    H113929   1.412   3.591  12.603 -0.3433  3.2404 -0.0435
    8TMC3    H213930   1.747   3.802  12.763  0.7611 -0.4285  0.3302
    8TMC3    C713931   1.569   3.798  12.566  0.5076 -0.9024 -0.1563
    8TMC3    C813932   1.692   3.769  13.001  0.2736 -0.2250 -0.5330
    8TMC3    O113933   1.454   3.809  12.522  0.3715  0.4058 -0.0741
    8TMC3    O213934   1.813   3.797  12.993 -0.3924 -0.4024  0.1328
    9TMC3    C113935   1.082   4.511  12.824  0.0681  0.3039  0.2225
    9TMC3    C213936   1.206   4.508  12.765 -0.8050 -0.0707 -0.1314
    9TMC3    C313937   1.261   4.386  12.730 -0.1062 -0.9295  0.2017
    9TMC3    C413938   1.028   4.395  12.865  0.0854  0.1905 -0.4506
    9TMC3    C513939   1.089   4.271  12.849 -0.3738 -0.0302 -0.5258
    9TMC3    C613940   1.214   4.267  12.787 -0.6498  0.2998  0.3643
    9TMC3     C13941   1.067   4.623  12.918 -0.7825 -0.0424 -1.0252
    9TMC3     O13942   1.001   4.605  13.019  0.0801 -0.1017 -0.8743
    9TMC3     H13943   1.269   4.595  12.749 -1.7449  0.8147  0.9572
    9TMC3    H113944   0.929   4.387  12.909 -0.3174 -1.5987 -1.6693
    9TMC3    H213945   1.272   4.176  12.779 -0.8393  0.1055  1.2023
    9TMC3    C713946   1.055   4.166  12.945 -0.9293 -0.9683  0.3191
    9TMC3    C813947   1.382   4.383  12.657  0.3504 -0.2438  0.2875
    9TMC3    O113948   1.001   4.198  13.049  0.2864  0.0986 -0.0608
    9TMC3    O213949   1.454   4.482  12.647 -0.3733  0.6146 -0.1233
   10MPD2     C13950   1.770   4.099  12.465 -0.3098 -0.1246 -0.1951
   10MPD2    C113951   1.663   4.017  12.502  0.0388  0.1848  0.3374
   10MPD2    C213952   1.542   4.076  12.532 -0.0005  0.3020  0.6189
   10MPD2    C313953   1.523   4.213  12.536  0.0877  0.2515 -0.5568
   10MPD2    C413954   1.634   4.294  12.507  0.3834  0.4403 -0.0690
   10MPD2    C513955   1.748   4.233  12.464 -0.2586  0.3835  0.6273
   10MPD2     H13956   1.455   4.024  12.570 -0.4852  0.0322 -0.8551
   10MPD2    H113957   1.624   4.401  12.497 -0.2134  0.0913 -3.0742
   10MPD2    H213958   1.873   4.064  12.459 -0.2981  0.3354 -2.5871
   10MPD2    H313959   1.831   4.299  12.442  1.9533 -2.2808  1.0087
   10MPD2     N13960   1.401   4.260  12.595  0.6104 -0.1535  0.5545
   10MPD2    H513961   1.337   4.183  12.612 -1.7327  2.2056  2.6450
   10MPD2    N113962   1.681   3.883  12.536  0.2973  0.0692  0.1708
   10MPD2    H713963   1.774   3.847  12.557  0.0327 -0.5116  0.3398
   11MPD2     C13964   2.375   3.493  14.036 -0.3714  0.4647  0.0584
   11MPD2    C113965   2.252   3.555  14.049 -1.0051 -0.1784  0.7883
   11MPD2    C213966   2.236   3.686  14.001 -0.8701  0.1479  0.5783
   11MPD2    C313967   2.339   3.737  13.925  0.1321 -0.4842 -0.0022
   11MPD2    C413968   2.455   3.671  13.901  0.6669  0.4134  0.2951
   11MPD2    C513969   2.477   3.550  13.963 -0.7674 -0.7929 -0.3466
   11MPD2     H13970   2.140   3.729  14.026  1.1120  3.4209  2.4813
   11MPD2    H113971   2.533   3.718  13.843  1.6554 -0.6953  0.7432
   11MPD2    H213972   2.402   3.399  14.083 -0.5105  0.4086  0.0230
   11MPD2    H313973   2.575   3.505  13.957 -1.1325 -1.8118  1.4436
   11MPD2     N13974   2.335   3.859  13.855 -0.2417 -0.3566 -0.5061
   11MPD2    H513975   2.416   3.881  13.798 -0.2007  2.7615  0.7272
   11MPD2    N113976   2.151   3.497  14.128 -0.0404 -0.3392  0.3379
   11MPD2    H713977   2.071   3.558  14.140 -0.3085 -1.0601  2.1911
    1MPD1     C13978   4.056   0.076  17.306  0.2569  0.4005 -0.3382
    1MPD1    C113979   4.093   4.679  17.256  0.0675  0.3468 -0.8139
    1MPD1    C213980   4.209   4.663  17.199 -0.2464  0.3085  0.0078
    1MPD1    C313981   4.310   0.038  17.205 -0.0116 -0.6723  0.2847
    1MPD1    C413982   4.273   0.158  17.270 -0.8197  0.3197  0.6451
    1MPD1    C513983   4.149   0.175  17.310  0.1432  0.5463  0.8554
    1MPD1     H13984   4.224   4.571  17.144  1.9756  2.3575 -2.7731
    1MPD1    H113985   4.352   0.232  17.272 -0.4637 -0.0228 -0.6932
    1MPD1    H213986   3.957   0.095  17.346 -0.3417  1.3940 -2.3046
    1MPD1    H313987   4.127   0.274  17.348 -1.2840 -0.1153  1.7264
    1MPD1     N13988   4.445   0.028  17.155  0.5765  0.2046 -0.1526
    1MPD1    H513989   4.511   0.104  17.167 -0.9069  1.1567  2.0435
    1MPD1    N113990   3.991   4.589  17.234  0.1055 -0.6145 -0.1077
    1MPD1    H613991   4.005   4.497  17.192  0.1805 -0.7294  0.1719
    1MPD1    H713992   3.920   4.582  17.307  1.6444 -1.7402  1.2709
    2MPD1     C13993   0.585   4.124  16.904  0.5095  0.4134 -0.3476
    2MPD1    C113994   0.622   4.229  16.988  0.0272 -0.1014  0.1913
    2MPD1    C213995   0.523   4.324  17.022  0.4546 -0.4184 -0.1979
    2MPD1    C313996   0.399   4.319  16.956  0.1255  0.2981  0.1937
    2MPD1    C413997   0.369   4.217  16.870 -0.8186  0.0739 -0.4470
    2MPD1    C513998   0.464   4.126  16.844  0.0398 -0.4302 -0.0932
    2MPD1     H13999   0.565   4.395  17.092  0.2787 -0.7802  0.2720
    2MPD1    H114000   0.275   4.218  16.816 -1.3858  1.5890  0.5666
    2MPD1    H214001   0.654   4.048  16.869  0.9773 -0.0114  1.4963
    2MPD1    H314002   0.439   4.048  16.774 -2.5227 -0.7189  1.1360
    2MPD1     N14003   0.307   4.422  16.989  0.3644  0.4829  0.2047
    2MPD1    H514004   0.337   4.494  17.054 -1.1468  0.4771  0.8985
    2MPD1    N114005   0.738   4.215  17.064  0.1079  0.9463  0.0886
    2MPD1    H614006   0.806   4.166  17.007 -0.7612  0.0656 -0.1894
    2MPD1    H714007   0.784   4.301  17.093  1.0486  0.2567  0.6154
    3TMC3    C114008   0.114   4.539  17.024  0.4072 -0.1318  0.4585
    3TMC3    C214009   0.187   4.659  17.035 -0.3922 -0.8564 -0.0210
    3TMC3    C314010   0.118   0.044  17.073  0.1100 -0.1659  0.2078
    3TMC3    C414011   4.710   4.531  17.060  0.3074 -0.3934 -0.0062
    3TMC3    C514012   4.642   4.648  17.084 -0.2589  0.3381 -0.0498
    3TMC3    C614013   4.710   0.047  17.099  0.1250  0.7041  0.7860
    3TMC3     C14014   0.178   4.426  16.962  0.0204 -0.0360 -0.4913
    3TMC3     O14015   0.112   4.341  16.903 -0.5319  0.0595 -0.4448
    3TMC3     H14016   0.282   4.666  16.983 -0.4653  1.6061  0.1730
    3TMC3    H114017   4.659   4.436  17.057  1.2151 -0.9244  1.5972
    3TMC3    H214018   4.663   0.136  17.137  0.1748  0.6014  1.0900
    3TMC3    C714019   4.501   4.636  17.105  0.0294  0.6089 -0.4972
    3TMC3    C814020   0.187   0.175  17.092  0.4397 -0.6196 -0.0683
    3TMC3    O114021   4.441   4.532  17.086  0.1331  0.1616  0.1095
    3TMC3    O214022   0.110   0.268  17.110  0.2431  0.0323 -0.1905
    4MPD1     C14023   0.620   0.430  16.983 -0.3799 -0.1244  0.0987
    4MPD1    C114024   0.655   0.321  17.059  0.1801  0.4337  0.1534
    4MPD1    C214025   0.554   0.235  17.098  0.5971  0.7556 -0.0278
    4MPD1    C314026   0.417   0.263  17.076  0.1836  0.0429  0.1930
    4MPD1    C414027   0.389   0.381  17.006 -0.3311 -0.3002 -0.2186
    4MPD1    C514028   0.489   0.464  16.965  0.0157 -0.7596  0.1142
    4MPD1     H14029   0.582   0.143  17.149 -2.7563 -1.1115 -1.5276
    4MPD1    H114030   0.288   0.402  16.972 -0.7153  0.7743  1.5966
    4MPD1    H214031   0.691   0.498  16.939  0.5598  0.1427  2.0397
    4MPD1    H314032   0.462   0.554  16.911  0.0617 -1.6223 -1.3470
    4MPD1     N14033   0.328   0.164  17.103  0.0123 -0.0522  0.4257
    4MPD1    H514034   0.372   0.073  17.106  1.8979  0.8250 -0.5959
    4MPD1    N114035   0.790   0.288  17.071  0.1941  0.1312  0.4813
    4MPD1    H614036   0.850   0.366  17.097 -0.2139  0.6478 -0.1365
    4MPD1    H714037   0.811   0.218  17.141 -2.5064 -1.2283 -0.0441
    1TCq1    O114038   0.498   0.473  11.535 -0.1697 -0.2041 -0.8315
    1TCq1    C114039   0.420   0.508  11.432 -0.1921  0.3875  0.0692
    1TCq1    O214040   0.395   0.625  11.406  0.2157 -0.4318 -0.3612
    1TCq1    C214041   0.453   0.415  11.323  0.0393 -0.2072 -0.5881
    1TCq1    C314042   0.496   0.287  11.353  0.2525 -0.3035  0.2787
    1TCq1    C414043   0.541   0.203  11.260 -0.4125 -0.8302  1.0283
    1TCq1    C514044   0.578   0.261  11.139 -0.0455  0.6514 -0.2936
    1TCq1    C614045   0.553   0.393  11.116 -0.0803 -0.2473  0.3952
    1TCq1    C714046   0.477   0.466  11.197  0.1799  0.1541 -0.3007
    1TCq1    C814047   0.599   0.449  10.983  0.7354 -0.1188 -0.3175
    1TCq1    O414048   0.582   0.569  10.959  0.6150 -0.1137  0.0058
    1TCq1    C914049   0.614   0.087  11.289 -0.8774 -0.2710 -0.5688
    1TCq1    O514050   0.615   0.061  11.411  0.3198  0.0939  0.5220
    1TCq1    O614051   0.705   0.046  11.208 -0.5271 -0.0470 -0.0043
    1TCq1    H114052   0.534   0.383  11.518  1.4358  0.4001 -0.5840
    1TCq1    H214053   0.459   0.243  11.445 -0.1198  1.5700  1.0234
    1TCq1    H314054   0.643   0.201  11.076 -0.7183  0.9704 -1.2879
    1TCq1    H414055   0.460   0.572  11.182  0.0726 -0.1448 -2.2195
    2MPD1     C14056   0.929   0.425  10.588  0.3328 -0.1548 -0.6160
    2MPD1    C114057   0.912   0.300  10.647 -0.5486  0.2682  0.5416
    2MPD1    C214058   0.801   0.289  10.729  0.5253 -0.2831 -0.0788
    2MPD1    C314059   0.743   0.393  10.789 -0.2293  0.3549  1.1306
    2MPD1    C414060   0.778   0.518  10.748 -0.3661  0.0812  0.2147
    2MPD1    C514061   0.864   0.528  10.643 -0.3367  0.3711 -0.4301
    2MPD1     H14062   0.778   0.188  10.759 -0.3079  0.0029  0.2504
    2MPD1    H114063   0.731   0.606  10.790 -1.1709 -1.2439  2.1176
    2MPD1    H214064   0.990   0.448  10.501 -1.4746 -0.6347 -1.9979
    2MPD1    H314065   0.877   0.628  10.603  0.7448  0.1121 -0.7423
    2MPD1     N14066   0.665   0.361  10.901  0.5401 -0.0809 -0.0125
    2MPD1    H514067   0.651   0.262  10.920  0.6659 -0.3370 -1.2873
    2MPD1    N114068   0.970   0.183  10.598 -0.2878  0.3944 -0.4851
    2MPD1    H614069   1.064   0.194  10.559 -0.9536  1.6919 -1.7399
    2MPD1    H714070   0.971   0.098  10.653 -2.8199 -0.7661 -2.2447
    1TCq1    O114071   1.552   1.109   1.331 -0.0556  0.5424 -0.0016
    1TCq1    C114072   1.557   1.039   1.444 -0.2084  0.1086  0.1003
    1TCq1    O214073   1.651   0.964   1.478 -0.1529  0.2671  0.0042
    1TCq1    C214074   1.464   1.104   1.538  0.2306  0.2038 -0.0637
    1TCq1    C314075   1.485   1.087   1.676 -0.1593 -0.4093 -0.6295
    1TCq1    C414076   1.391   1.144   1.761  0.4728 -0.3497 -0.2649
    1TCq1    C514077   1.277   1.207   1.720 -0.0434  0.0040  0.6386
    1TCq1    C614078   1.264   1.217   1.583 -0.0539 -0.3896 -0.4252
    1TCq1    C714079   1.353   1.172   1.490 -0.3282  0.0491  0.5098
    1TCq1    C814080   1.148   1.288   1.539 -0.7284  0.7594  0.3143
    1TCq1    O414081   1.137   1.323   1.421 -0.2312 -0.0040  0.3943
    1TCq1    C914082   1.395   1.098   1.894  1.1890  0.3234  0.5086
    1TCq1    O514083   1.358   1.177   1.988  0.3807  0.2370 -0.7442
    1TCq1    O614084   1.454   0.988   1.922 -0.1493 -0.1870 -1.2439
    1TCq1    H114085   1.480   1.175   1.323 -1.1620 -0.8686 -1.7904
    1TCq1    H214086   1.576   1.047   1.720 -0.1484  1.0785  0.7137
    1TCq1    H314087   1.213   1.241   1.801  0.1659 -0.1282  0.8588
    1TCq1    H414088   1.325   1.169   1.385  1.3338 -2.0579  0.1291
    2MPD1     C14089   0.650   1.362   1.571  0.4070 -0.0836 -0.4839
    2MPD1    C114090   0.688   1.293   1.680  0.0280 -1.4476 -0.4035
    2MPD1    C214091   0.826   1.297   1.706 -0.6910 -0.0527 -0.0944
    2MPD1    C314092   0.914   1.336   1.613 -0.8105 -0.3191  0.6281
    2MPD1    C414093   0.866   1.387   1.490 -0.5463 -0.0821  0.4078
    2MPD1    C514094   0.735   1.408   1.473  0.1827  0.7067 -0.7001
    2MPD1     H14095   0.872   1.249   1.792  2.0352  0.3971 -1.2835
    2MPD1    H114096   0.932   1.418   1.410 -0.3602 -0.2966  0.4758
    2MPD1    H214097   0.545   1.370   1.545  0.2915 -0.6105 -0.1662
    2MPD1    H314098   0.696   1.464   1.389 -2.5274 -2.1997 -1.4097
    2MPD1     N14099   1.047   1.292   1.635 -0.9447 -0.0229  0.5036
    2MPD1    H514100   1.082   1.262   1.725 -0.8582 -1.9994 -0.1947
    2MPD1    N114101   0.599   1.260   1.778  0.4364 -0.1998 -0.8093
    2MPD1    H614102   0.512   1.228   1.736  0.7108 -0.8892 -0.8588
    2MPD1    H714103   0.637   1.182   1.832 -1.1329 -1.1666 -1.1052
    1MPD1     C14104   2.355   4.461  11.379  0.2171  0.0699 -0.3488
    1MPD1    C114105   2.239   4.543  11.361  0.9450 -0.0083 -0.0322
    1MPD1    C214106   2.263   4.654  11.278 -0.3969  0.2309 -0.3789
    1MPD1    C314107   2.390   4.691  11.228 -0.5083 -0.3357  0.1252
    1MPD1    C414108   2.501   4.612  11.257 -0.6838  0.4109  0.4539
    1MPD1    C514109   2.477   4.498  11.331 -0.4929 -0.7044 -0.0863
    1MPD1     H14110   2.186   0.002  11.261  0.7954  1.5587  0.0618
    1MPD1    H114111   2.603   4.643  11.238 -0.5931  0.2997  0.7599
    1MPD1    H214112   2.351   4.372  11.440 -2.2603 -0.3518 -1.1423
    1MPD1    H314113   2.563   4.442  11.365  0.4866 -0.1369 -1.6179
    1MPD1     N14114   2.400   0.078  11.147  0.0142  0.1093  0.8710
    1MPD1    H514115   2.317   0.135  11.131  0.3087  0.1512 -0.5059
    1MPD1    N114116   2.112   4.510  11.419 -0.0187 -0.0787  0.1927
    1MPD1    H614117   2.118   4.413  11.450 -1.1419 -0.9339 -2.2329
    1MPD1    H714118   2.051   4.503  11.337  0.4341 -0.8537 -0.0797
    2MPD1     C14119   2.040   0.495  11.297  0.5513  0.1252 -0.5263
    2MPD1    C114120   1.976   0.389  11.339 -0.5781  0.1317 -0.1112
    2MPD1    C214121   1.945   0.282  11.252  0.1784 -0.4437  0.3791
    2MPD1    C314122   2.003   0.282  11.126  0.6343 -0.8906  0.2885
    2MPD1    C414123   2.071   0.396  11.082  0.1494 -0.2324 -0.0956
    2MPD1    C514124   2.082   0.501  11.166 -0.6856  0.3367  0.0054
    2MPD1     H14125   1.881   0.208  11.298  1.0202 -1.3759  0.0427
    2MPD1    H114126   2.103   0.403  10.979  2.2017 -1.6978  0.4469
    2MPD1    H214127   2.055   0.585  11.355 -0.7352 -0.6809  1.0766
    2MPD1    H314128   2.137   0.588  11.131 -0.3607 -0.2759 -1.0096
    2MPD1     N14129   1.987   0.175  11.033 -0.5028 -0.1108  0.1455
    2MPD1    H514130   2.013   0.207  10.940  0.6714  0.0492  0.5413
    2MPD1    N114131   1.931   0.375  11.475 -0.0011  0.3518  0.3083
    2MPD1    H614132   2.010   0.408  11.530  0.4950 -0.8836  0.3202
    2MPD1    H714133   1.905   0.282  11.505  1.9048 -0.2398  0.1283
    3MPD1     C14134   1.625   3.929  11.089 -0.3201 -0.1001  0.0326
    3MPD1    C114135   1.709   4.001  11.167  0.0777  0.7271  0.2813
    3MPD1    C214136   1.743   4.126  11.133  0.0032 -0.3563  0.5232
    3MPD1    C314137   1.711   4.176  11.009  1.1567  0.2153 -0.8334
    3MPD1    C414138   1.644   4.091  10.919 -0.1597  0.1515  0.0766
    3MPD1    C514139   1.603   3.969  10.960  0.3390 -0.0160 -0.5684
    3MPD1     H14140   1.811   4.183  11.196 -1.6136  1.5167  0.5568
    3MPD1    H114141   1.603   4.120  10.822  0.4887  0.8000 -0.0083
    3MPD1    H214142   1.593   3.828  11.113  0.7266 -0.6026 -0.7038
    3MPD1    H314143   1.564   3.901  10.885 -1.3979  0.2109  0.1324
    3MPD1     N14144   1.750   4.310  10.972 -0.1142  0.1653 -0.1241
    3MPD1    H514145   1.798   4.367  11.041 -1.1555  1.6639 -0.6321
    3MPD1    N114146   1.739   3.965  11.296  0.2195 -0.3921 -0.5779
    3MPD1    H614147   1.740   3.863  11.292 -0.4412 -0.2740 -3.6572
    3MPD1    H714148   1.832   3.996  11.323  0.9462 -1.3130 -2.0350
    4MPD2     C14149   2.098   0.165  10.512 -0.3513  0.3545 -0.2208
    4MPD2    C114150   2.237   0.187  10.507 -0.1392  0.4884 -0.6993
    4MPD2    C214151   2.305   0.156  10.397 -0.2160 -0.2803  0.3970
    4MPD2    C314152   2.239   0.092  10.296  0.1100  0.2615  0.1447
    4MPD2    C414153   2.104   0.066  10.298  0.3259 -0.0543 -0.0842
    4MPD2    C514154   2.031   0.111  10.402  0.0849  0.3387 -0.4799
    4MPD2     H14155   2.408   0.184  10.376 -0.6167  0.4234 -0.6675
    4MPD2    H114156   2.052   0.019  10.215  1.0417  0.9070 -1.0848
    4MPD2    H214157   2.041   0.206  10.595 -0.2277 -1.2660  0.6637
    4MPD2    H314158   1.923   0.105  10.398  0.2468 -1.7184 -1.8404
    4MPD2     N14159   2.304   0.058  10.165 -0.4348 -0.3234  0.1721
    4MPD2    H514160   2.255   4.715  10.109 -1.4833  0.1269  0.5204
    4MPD2    N114161   2.311   0.242  10.610  0.3377  0.1064  0.0826
    4MPD2    H714162   2.411   0.248  10.597 -0.0531 -0.9173 -3.3323
    5TMC3    C114163   2.365   0.324  10.821  0.8524  0.5141 -0.1167
    5TMC3    C214164   2.375   0.252  10.939  1.0045  1.0419 -0.3634
    5TMC3    C314165   2.501   0.218  10.981 -0.2434  0.4383  1.2773
    5TMC3    C414166   2.473   0.360  10.749  0.2441  0.1071 -0.2164
    5TMC3    C514167   2.596   0.324  10.796  0.2935  0.3163  0.8200
    5TMC3    C614168   2.611   0.252  10.912  0.4322  0.2557 -0.0726
    5TMC3     C14169   2.261   0.279  10.738 -0.3694 -0.5933  1.0249
    5TMC3     O14170   2.150   0.258  10.784 -0.1254 -0.0084  0.1565
    5TMC3     H14171   2.287   0.208  10.985 -0.0991  2.7375 -0.8400
    5TMC3    H114172   2.458   0.412  10.655 -1.0574 -2.1376 -1.2352
    5TMC3    H214173   2.710   0.234  10.953  0.9124 -0.3139 -1.4963
    5TMC3    C714174   2.663   0.263  10.680  0.4243 -0.3446  0.0192
    5TMC3    C814175   2.515   0.112  11.079 -0.1572 -0.4770  0.0089
    5TMC3    O114176   2.594   0.235  10.584 -0.5631  0.2715  0.0331
    5TMC3    O214177   2.624   0.058  11.075  0.2774 -0.7003  0.3545
    6TMC3    C114178   1.912   4.687  10.939  0.1428 -0.1300  0.3007
    6TMC3    C214179   1.831   4.570  10.953  0.3124  0.5348 -0.3655
    6TMC3    C314180   1.823   4.484  10.841  1.0475 -0.0315 -0.0246
    6TMC3    C414181   1.998   4.700  10.835 -0.0007  0.4902 -1.6849
    6TMC3    C514182   2.006   4.600  10.743 -0.6443 -0.4478 -0.2339
    6TMC3    C614183   1.918   4.493  10.751  0.0361  1.1267 -0.5398
    6TMC3     C14184   1.910   0.062  11.051 -0.1374  0.1598  0.0037
    6TMC3     O14185   1.855   0.029  11.154  1.0644  0.3958  0.5107
    6TMC3     H14186   1.751   4.551  11.024  0.3854 -2.1467 -1.0047
    6TMC3    H114187   2.061   0.060  10.817  2.0849 -0.8031 -0.5220
    6TMC3    H214188   1.928   4.419  10.673 -2.3562 -0.7998  0.9479
    6TMC3    C714189   2.125   4.589  10.663 -0.0145  0.4631  0.2316
    6TMC3    C814190   1.747   4.361  10.846 -0.3749  0.0737  0.5240
    6TMC3    O114191   2.112   4.544  10.548 -0.1868 -0.3749  0.1281
    6TMC3    O214192   1.701   4.314  10.742 -0.4255 -0.1890 -0.0796
    7MPD2     C14193   3.063   0.039  10.434 -0.5109  0.1065  0.7254
    7MPD2    C114194   2.942   0.074  10.394  0.5894 -0.0940  0.8195
    7MPD2    C214195   2.853   0.141  10.480  0.0456 -0.5160  0.7771
    7MPD2    C314196   2.889   0.187  10.605  0.4026 -0.0149  0.5038
    7MPD2    C414197   3.018   0.153  10.642  0.2112  0.0472 -0.1316
    7MPD2    C514198   3.103   0.088  10.552 -0.5331 -0.5566  0.2085
    7MPD2     H14199   2.754   0.171  10.445 -0.3575 -0.3008  2.1055
    7MPD2    H114200   3.060   0.179  10.738  1.2640 -0.9865 -0.3120
    7MPD2    H214201   3.142   4.724  10.371  0.2979  0.2483  1.6420
    7MPD2    H314202   3.210   0.086  10.567 -0.6816 -0.0403  1.3974
    7MPD2     N14203   2.801   0.248  10.696  0.1778  1.2309  0.0520
    7MPD2    H514204   2.839   0.285  10.783  0.3571 -0.5899  0.7435
    7MPD2    N114205   2.901   0.021  10.277  0.2143  0.3647  0.0662
    7MPD2    H714206   2.956   4.675  10.232  2.5149  2.8230 -1.0617
    8TMC3    C114207   2.731   0.005  10.116  0.0720 -0.0120 -0.0749
    8TMC3    C214208   2.703   4.609  10.178 -0.3311 -0.0349  0.1878
    8TMC3    C314209   2.578   4.556  10.159  0.5266  0.1392  0.5643
    8TMC3    C414210   2.631   0.068  10.041 -0.3311  0.5356  0.0797
    8TMC3    C514211   2.504   0.023  10.045  0.8277  0.0187  1.2007
    8TMC3    C614212   2.483   4.614  10.081 -0.0365 -0.7575 -0.1652
    8TMC3     C14213   2.822   0.092  10.195  0.9916 -0.2182 -0.7136
    8TMC3     O14214   2.808   0.212  10.188  0.0688  0.2703 -0.0509
    8TMC3     H14215   2.769   4.558  10.247 -0.8530  0.5299  1.1023
    8TMC3    H114216   2.639   0.171  10.010 -3.0613  0.3157 -1.3706
    8TMC3    H214217   2.383   4.572  10.087  0.9043 -2.9416  0.0821
    8TMC3    C714218   2.423   0.113  10.121 -0.4428 -0.3504 -0.2725
    8TMC3    C814219   2.512   4.514  10.282 -0.6593 -0.4605  0.1634
    8TMC3    O114220   2.497   0.199  10.173  0.6262  0.1174 -0.3059
    8TMC3    O214221   2.404   4.459  10.276 -0.1984 -0.4957  0.5480
    9MPD2     C14222   2.636   4.589  10.625  0.0507  0.2045  0.2684
    9MPD2    C114223   2.536   4.563  10.528  0.4190  1.3558 -0.2128
    9MPD2    C214224   2.404   4.551  10.564 -0.3077  0.9753 -0.1549
    9MPD2    C314225   2.373   4.575  10.696 -0.0670  0.5419  0.3746
    9MPD2    C414226   2.468   4.580  10.797 -0.5805 -0.2862 -0.0863
    9MPD2    C514227   2.601   4.593  10.764  0.0209 -0.3076 -1.3766
    9MPD2     H14228   2.328   4.539  10.487  0.5977 -0.0401 -0.8925
    9MPD2    H114229   2.431   4.610  10.895 -0.2335  1.8669 -0.6148
    9MPD2    H214230   2.742   4.587  10.602 -0.0442 -0.7690 -0.0971
    9MPD2    H314231   2.671   4.593  10.846 -1.3885  0.0360 -0.1864
    9MPD2     N14232   2.240   4.587  10.745  0.7645  0.4161  0.0691
    9MPD2    H514233   2.220   4.592  10.845  1.5271 -0.8654  0.2776
    9MPD2    N114234   2.577   4.555  10.392  0.2888  0.4533 -0.4964
    9MPD2    H714235   2.663   4.605  10.370  0.4423  0.1636 -0.5551
    1MPD1     C14236   1.953   3.162  16.808 -0.1836  0.0679  0.1505
    1MPD1    C114237   1.967   3.052  16.887  0.1253 -0.1127  0.0448
    1MPD1    C214238   2.067   2.966  16.855  0.0336 -0.0045  0.2393
    1MPD1    C314239   2.160   2.989  16.752  0.2518 -0.0853  0.2778
    1MPD1    C414240   2.138   3.091  16.665 -0.6010  0.0571  0.3116
    1MPD1    C514241   2.035   3.181  16.701  0.5437  0.2758 -0.2454
    1MPD1     H14242   2.071   2.878  16.918  0.0067 -0.1503  0.0376
    1MPD1    H114243   2.200   3.113  16.580 -1.2093  3.7268  0.8350
    1MPD1    H214244   1.872   3.233  16.827  0.6287  1.1449 -0.3890
    1MPD1    H314245   2.018   3.269  16.641  0.0752 -0.7377 -1.5933
    1MPD1     N14246   2.257   2.897  16.710  0.0885  0.3718 -0.2116
    1MPD1    H514247   2.321   2.935  16.642  0.7190 -1.4643 -0.6397
    1MPD1    N114248   1.882   3.024  16.993 -0.0869 -0.1822 -1.2275
    1MPD1    H614249   1.852   3.111  17.034 -0.3071  0.2184 -2.2326
    1MPD1    H714250   1.931   2.962  17.058 -3.0899 -0.1932  1.0345
    2MPD1     C14251   2.859   2.682  15.967  0.2985  0.7176 -0.7153
    2MPD1    C114252   2.847   2.549  16.005 -0.2791 -0.6334  0.0438
    2MPD1    C214253   2.755   2.530  16.110  0.0474  0.8951 -0.4506
    2MPD1    C314254   2.669   2.631  16.163 -0.2395 -0.2884  0.3311
    2MPD1    C414255   2.679   2.753  16.108 -0.6455  0.3399 -0.0457
    2MPD1    C514256   2.774   2.778  16.016  0.4312 -0.1209 -0.1982
    2MPD1     H14257   2.744   2.428  16.144 -2.9211  1.0268 -0.9834
    2MPD1    H114258   2.622   2.839  16.142  0.5037  1.6701 -1.4790
    2MPD1    H214259   2.938   2.702  15.896  0.7258 -0.9397 -0.7216
    2MPD1    H314260   2.785   2.883  15.990  0.6419  0.5559  2.6266
    2MPD1     N14261   2.579   2.600  16.275 -0.3493  0.4351  0.2060
    2MPD1    H514262   2.572   2.505  16.308  0.9583  1.0659  2.2522
    2MPD1    N114263   2.949   2.458  15.974  0.0919  0.2761 -0.3720
    2MPD1    H614264   2.983   2.486  15.883  1.0296  0.7403  0.1264
    2MPD1    H714265   2.915   2.362  15.970 -1.5474  0.8766 -0.8269
    3TCq2    C114266   2.495   2.694  16.335  0.4233 -0.5107  0.5671
    3TCq2    O214267   2.487   2.814  16.309  0.6355 -0.0483  0.2294
    3TCq2    C214268   2.428   2.639  16.448  0.1099  0.4373 -0.0401
    3TCq2    C314269   2.427   2.500  16.473  0.4052 -0.3546 -0.6111
    3TCq2    C414270   2.365   2.451  16.588 -0.7739  0.5448 -0.3763
    3TCq2    C514271   2.307   2.540  16.671 -0.1685 -0.2958 -0.7428
    3TCq2    C614272   2.309   2.677  16.642  0.5501 -0.9513  0.2632
    3TCq2    C714273   2.377   2.726  16.532  0.2711 -0.8259 -0.0717
    3TCq2    C814274   2.248   2.766  16.742 -0.3222  0.2557  0.2267
    3TCq2    O414275   2.170   2.706  16.812 -0.2310 -0.3030  0.0084
    3TCq2    C914276   2.344   2.312  16.621 -0.0747 -0.7475 -0.2172
    3TCq2    O514277   2.257   2.285  16.706  0.2752 -0.4377 -0.3186
    3TCq2    O614278   2.435   2.238  16.580  0.8508 -0.1108  0.8810
    3TCq2    H214279   2.457   2.423  16.402 -1.0571 -0.6212 -0.9254
    3TCq2    H314280   2.242   2.511  16.753 -2.0242  1.3834 -1.5924
    3TCq2    H414281   2.380   2.831  16.506 -1.7163 -0.3409  1.6631
    1TCq1    O114282   0.324   2.491  12.441 -0.2258 -0.1928  0.3340
    1TCq1    C114283   0.231   2.512  12.532 -0.3681  0.3387  0.4869
    1TCq1    O214284   0.109   2.490  12.515  0.4941 -0.0464 -0.2155
    1TCq1    C214285   0.291   2.520  12.668  0.1157  0.2278  0.0437
    1TCq1    C314286   0.206   2.554  12.772 -0.4681  0.2594 -0.0412
    1TCq1    C414287   0.248   2.541  12.899 -0.3377 -0.1981 -0.2241
    1TCq1    C514288   0.370   2.489  12.926  0.6311 -0.1558  0.6809
    1TCq1    C614289   0.446   2.453  12.823  0.1013 -0.1081  0.2194
    1TCq1    C714290   0.414   2.479  12.694 -0.7626 -0.2776  0.6275
    1TCq1    C814291   0.591   2.438  12.852 -0.1162  0.2338  0.0527
    1TCq1    O414292   0.662   2.409  12.758  0.2344 -0.2254 -0.5295
    1TCq1    C914293   0.158   2.579  13.010 -0.0519 -0.0074  0.6167
    1TCq1    O514294   0.187   2.528  13.120  0.3381 -0.7346  0.3024
    1TCq1    O614295   0.044   2.622  12.977 -0.0115 -0.0056  0.0173
    1TCq1    H114296   0.412   2.525  12.469  1.0525 -2.4016 -1.0486
    1TCq1    H214297   0.106   2.585  12.746 -0.7586 -0.3947  0.2916
    1TCq1    H314298   0.388   2.452  13.027  0.4973 -0.1535  0.7056
    1TCq1    H414299   0.475   2.441  12.612 -1.6743  0.7278 -0.5104
    2MPD2     C14300   0.875   2.452  12.964  0.1748 -0.4064 -0.0478
    2MPD2    C114301   0.767   2.485  13.033 -0.0739  0.2548 -0.0416
    2MPD2    C214302   0.779   2.511  13.165 -0.3669  0.5629 -1.1773
    2MPD2    C314303   0.901   2.524  13.227  0.0909 -0.2655 -0.5403
    2MPD2    C414304   1.016   2.487  13.154 -0.0679 -0.0077 -0.1720
    2MPD2    C514305   0.999   2.453  13.023  0.0954 -0.1636 -0.5563
    2MPD2     H14306   0.687   2.540  13.214  0.7384 -0.9946  1.7783
    2MPD2    H114307   1.110   2.506  13.203 -0.1136  1.0557 -0.4901
    2MPD2    H214308   0.872   2.427  12.858 -0.1735  1.5677 -0.5151
    2MPD2    H314309   1.079   2.439  12.951  0.4873 -1.9109  0.2118
    2MPD2     N14310   0.908   2.572  13.357  0.1766  0.0809 -0.3434
    2MPD2    H514311   0.822   2.607  13.397  0.1701  0.3629 -0.5989
    2MPD2    N114312   0.631   2.474  12.981 -0.0829 -0.4605  0.4500
    2MPD2    H714313   0.559   2.497  13.048  0.1890  0.5160  0.4131
    3TCq1    O114314   0.669   2.834  13.668 -0.9204 -0.5609 -0.7455
    3TCq1    C114315   0.769   2.856  13.755 -0.2677 -0.4872 -0.4562
    3TCq1    O214316   0.750   2.889  13.870 -0.0416  0.4869 -0.2262
    3TCq1    C214317   0.870   2.751  13.729 -0.2936  0.1284 -0.4443
    3TCq1    C314318   0.911   2.673  13.834  0.5228 -0.0471 -0.1620
    3TCq1    C414319   0.997   2.568  13.807  0.4129 -0.3012 -0.5428
    3TCq1    C514320   1.028   2.532  13.682  0.4419  0.2115  0.0230
    3TCq1    C614321   0.971   2.606  13.583 -0.0888  0.2899  0.2387
    3TCq1    C714322   0.894   2.716  13.603  0.0754 -0.8219 -0.0127
    3TCq1    C814323   1.009   2.576  13.449  0.8053 -0.1278  0.0458
    3TCq1    O414324   1.120   2.528  13.441  0.2447 -0.2232 -0.0733
    3TCq1    C914325   1.058   2.495  13.912 -0.3468  0.3225  0.7790
    3TCq1    O514326   1.121   2.391  13.882  0.0347  0.2545  0.1420
    3TCq1    O614327   1.073   2.549  14.022 -0.1857 -0.0071  0.0171
    3TCq1    H114328   0.688   2.774  13.592  0.0554 -3.7123  1.9788
    3TCq1    H214329   0.899   2.693  13.940 -3.6815  0.9380 -0.8449
    3TCq1    H314330   1.086   2.442  13.668  0.5345  0.0236  1.6003
    3TCq1    H414331   0.888   2.788  13.522  0.9995 -0.8280 -0.0901
    1MPD2     C14332   4.691   3.435  14.888 -0.1927  0.1940 -0.3013
    1MPD2    C114333   0.029   3.319  14.857 -0.0760  0.4712  0.6609
    1MPD2    C214334   0.161   3.328  14.815 -0.1196 -0.4087 -0.0469
    1MPD2    C314335   0.232   3.448  14.813 -0.3849 -0.2488 -0.0381
    1MPD2    C414336   0.172   3.560  14.858 -0.6840  0.2700  0.9440
    1MPD2    C514337   0.036   3.552  14.884  0.1436  0.7228  0.3078
    1MPD2     H14338   0.211   3.243  14.770  1.8666  1.6003 -1.7098
    1MPD2    H114339   0.219   3.657  14.868 -2.2153  1.1016  0.0888
    1MPD2    H214340   4.585   3.433  14.912  0.1816 -0.2431  1.3037
    1MPD2    H314341   4.712   3.644  14.909 -3.7681 -1.5234  0.6788
    1MPD2     N14342   0.361   3.449  14.760  0.0337 -0.6422  0.0490
    1MPD2    H514343   0.400   3.356  14.751  1.0900 -0.1403 -0.5035
    1MPD2    N114344   4.673   3.200  14.849 -0.4196 -0.5868 -0.1576
    1MPD2    H714345   4.573   3.208  14.858 -0.3133  1.8883 -1.2114
    2TMC3    C114346   4.630   2.970  14.799  0.3595 -0.1899 -0.0502
    2TMC3    C214347   4.702   2.860  14.756  0.2308  0.2813 -0.8569
    2TMC3    C314348   4.669   2.810  14.636  0.4864  0.4258  0.0775
    2TMC3    C414349   4.528   3.018  14.732  0.3362 -0.1473  0.1658
    2TMC3    C514350   4.478   2.944  14.624  0.2143  0.1512 -0.0630
    2TMC3    C614351   4.553   2.843  14.571  0.3933  0.0646 -0.5232
    2TMC3     C14352   0.000   3.076  14.826  0.2155 -0.0597  0.0399
    2TMC3     O14353   0.119   3.044  14.832  0.9639  0.0014 -0.1547
    2TMC3     H14354   0.068   2.833  14.805 -1.1492 -0.7438  1.1685
    2TMC3    H114355   4.473   3.098  14.780 -0.5186 -0.8254  0.3133
    2TMC3    H214356   4.519   2.808  14.474  2.2539  3.2278 -2.3254
    2TMC3    C714357   4.345   2.968  14.578 -0.6987 -0.2868 -0.6152
    2TMC3    C814358   0.062   2.780  14.557  0.7632 -0.2331 -0.6436
    2TMC3    O114359   4.300   2.868  14.522  0.2436 -0.2188 -0.8486
    2TMC3    O214360   0.044   2.729  14.447  0.3736 -0.5306 -1.1277
    3TCq1    O114361   3.695   3.661  15.199  0.7439 -0.1443 -0.4976
    3TCq1    C114362   3.623   3.661  15.084 -0.5770  0.3396  0.6885
    3TCq1    O214363   3.509   3.616  15.067  0.0885  0.0852  0.0254
    3TCq1    C214364   3.713   3.708  14.981 -0.2912  0.1143 -0.0344
    3TCq1    C314365   3.837   3.762  15.015  0.0498 -0.4398  0.8666
    3TCq1    C414366   3.944   3.751  14.924  0.3634  0.1154 -0.2484
    3TCq1    C514367   3.929   3.670  14.814  0.3896  0.2768  0.3495
    3TCq1    C614368   3.809   3.603  14.797 -0.3009  0.3363  0.2654
    3TCq1    C714369   3.696   3.631  14.870  0.7165 -0.4746  0.3645
    3TCq1    C814370   3.811   3.463  14.751  0.1362  0.2720  0.0588
    3TCq1    O414371   3.700   3.410  14.738 -0.2702  0.6105  0.5645
    3TCq1    C914372   4.064   3.833  14.944 -0.1285 -0.2429 -0.4213
    3TCq1    O514373   4.063   3.909  15.045 -0.0313 -0.1125  0.2962
    3TCq1    O614374   4.157   3.816  14.858  0.2347  0.4171  0.3344
    3TCq1    H114375   3.789   3.692  15.200  0.8626 -0.4802 -1.4981
    3TCq1    H214376   3.847   3.824  15.103  2.2021  0.9323 -0.3634
    3TCq1    H314377   4.011   3.670  14.743 -0.2292  2.8164 -0.3616
    3TCq1    H414378   3.603   3.581  14.848 -1.4030  3.5506  0.2193
    4MPD2     C14379   3.870   3.191  14.653 -0.7160  1.0769 -0.2571
    4MPD2    C114380   3.973   3.282  14.683 -0.6586 -0.3770  0.3097
    4MPD2    C214381   4.104   3.245  14.668 -0.1286 -0.0443 -0.2694
    4MPD2    C314382   4.142   3.118  14.623  0.0762  0.3113 -0.2701
    4MPD2    C414383   4.042   3.031  14.586  0.0301 -0.0710 -0.4034
    4MPD2    C514384   3.909   3.070  14.591 -0.0635  0.7200  0.5174
    4MPD2     H14385   4.171   3.324  14.700 -1.7952  0.9355  0.8046
    4MPD2    H114386   4.060   2.929  14.554  0.1354 -0.5990  1.3076
    4MPD2    H214387   3.763   3.209  14.660 -0.7081  0.4076  1.7838
    4MPD2    H314388   3.827   3.004  14.562  2.2219 -1.4594 -0.9609
    4MPD2     N14389   4.277   3.084  14.630  0.1797 -0.4862  0.8529
    4MPD2    H514390   4.339   3.158  14.662  0.9715 -0.1220 -1.5116
    4MPD2    N114391   3.940   3.414  14.728  0.0576  0.2132  0.8825
    4MPD2    H714392   4.018   3.474  14.751 -0.1280 -0.2393  2.6821
    5TMC2    C114393   0.686   3.329  14.622 -0.4297 -0.6406  0.0528
    5TMC2    C214394   0.773   3.321  14.730  0.1254  0.8445 -0.8674
    5TMC2    C314395   0.757   3.425  14.824 -0.4199  0.3650 -0.0589
    5TMC2    C414396   0.582   3.419  14.618 -0.0472  0.1697 -0.2461
    5TMC2    C514397   0.577   3.519  14.712  0.2000  0.3854  0.0645
    5TMC2    C614398   0.666   3.524  14.816 -0.2740  0.4912  0.1487
    5TMC2     C14399   0.659   3.206  14.543  0.5182 -0.1534 -0.5395
    5TMC2     O14400   0.723   3.198  14.439 -0.5510  0.0562  0.2727
    5TMC2     H14401   0.843   3.241  14.753 -0.2161  1.6248  2.8686
    5TMC2    H114402   0.519   3.422  14.530  2.2009  1.9147 -1.8180
    5TMC2    H214403   0.669   3.603  14.891  0.6870  0.4892  0.1099
    5TMC2    C714404   0.444   3.553  14.760  1.0175 -1.0601 -0.4319
    5TMC2    C814405   0.811   3.402  14.954  0.3100 -0.0001  0.0528
    5TMC2    O114406   0.429   3.668  14.793  0.5570 -0.5133  0.4667
    5TMC2    O214407   0.773   3.460  15.056 -0.6076  0.6161  0.6221
    5TMC2    O514408   0.922   3.325  14.954  0.2486 -0.0849  0.1455
    5TMC2    H514409   0.951   3.315  14.861  1.8535 -0.1257  0.6634
    6MPD2     C14410   0.320   2.855  14.412 -0.5653 -0.0997  0.3129
    6MPD2    C114411   0.278   2.908  14.531 -0.3445 -0.5753  0.1818
    6MPD2    C214412   0.359   3.012  14.585 -0.0666  0.2811 -0.0848
    6MPD2    C314413   0.483   3.041  14.530 -0.3658  0.7543  0.2583
    6MPD2    C414414   0.521   2.981  14.411 -0.7927  0.3217 -0.9621
    6MPD2    C514415   0.442   2.888  14.354  0.6774 -0.9230  0.1374
    6MPD2     H14416   0.330   3.059  14.678  0.1055  1.8962 -0.8439
    6MPD2    H114417   0.612   3.006  14.357 -1.6679  2.6752 -1.3865
    6MPD2    H214418   0.263   2.776  14.365 -0.3853 -0.0620  0.0256
    6MPD2    H314419   0.470   2.853  14.255 -0.8106 -0.8623 -0.3158
    6MPD2     N14420   0.552   3.144  14.594 -0.2691  0.1995 -0.5627
    6MPD2    H514421   0.528   3.180  14.686  2.1516 -1.9205  0.8834
    6MPD2    N114422   0.162   2.862  14.599  0.2545  0.2114  0.6085
    6MPD2    H714423   0.153   2.909  14.688 -1.1893 -1.7513  1.4705
  945NH4     N114424   1.908   1.552  16.804  0.2962 -0.2445 -0.5871
  945NH4     H214425   1.920   1.450  16.786  0.4496  0.0383 -2.1291
  945NH4     H314426   1.810   1.570  16.775 -0.3699 -0.9077  1.2944
  945NH4     H414427   1.970   1.609  16.742  2.1905 -2.8868 -1.1465
  945NH4     H514428   1.917   1.588  16.901 -2.1756  0.3912 -0.6059
  946SOD     NA14429   1.413   2.679  11.077 -0.2003 -0.1995 -0.3465
  947SOD     NA14430   1.004   3.917  15.042 -0.1030 -0.0682 -0.3596
  948SOD     NA14431   3.347   2.614  10.603  0.0873 -0.1733  0.1718
  949SOD     NA14432   0.877   2.336  10.205 -0.0066 -0.3271 -0.2401
  950SOD     NA14433   2.090   3.255  15.772 -0.2580 -0.4647  0.2778
  951SOD     NA14434   4.642   1.341  11.780  0.5859 -0.3718 -0.7700
  952SOD     NA14435   2.123   1.732   7.978  0.5767  0.3206  0.0051
  953SOD     NA14436   2.053   3.168  10.845  0.2760  0.1708 -0.0951
  954SOD     NA14437   1.279   2.469  14.036 -0.7133  0.0226  0.4785
  955SOD     NA14438   4.352   3.310  17.534 -0.0281  0.0914  0.1217
  956SOD     NA14439   3.294   2.790  12.817  0.5557  0.2213 -0.0816
  957SOD     NA14440   1.613   0.671  14.704 -0.1020 -0.4483  0.0295
  958SOD     NA14441   1.848   2.978   6.500 -0.0433 -0.7415 -0.0691
  959SOD     NA14442   3.167   2.484  12.651 -0.3382 -0.4081  0.1977
  960SOD     NA14443   3.819   3.205  14.124  0.0887  0.3620 -0.1125
  961SOD     NA14444   2.577   1.937   0.484 -0.1336  0.3916 -0.1767
  962SOD     NA14445   3.881   3.451  11.332  0.0673 -0.2056  0.6312
  963SOD     NA14446   4.603   0.459  12.567 -0.3393 -0.3422  0.2694
  964SOD     NA14447   1.062   1.593   3.163  0.1714  0.1745 -0.0193
  965SOD     NA14448   0.523   4.711  11.594  0.0594  0.0130  0.1939
  966SOD     NA14449   0.672   2.147   2.528  0.0825  0.1360  0.0663
  967SOD     NA14450   4.318   1.411  11.785  0.0187 -0.2410  0.3757
  968SOD     NA14451   0.552   2.035  11.504  0.7836 -0.3316  0.6325
  969SOD     NA14452   1.062   2.046  10.063 -0.6930 -0.3541  0.6295
  970SOD     NA14453   3.720   2.227  11.506  0.1269 -0.1035 -0.0490
  971SOD     NA14454   2.584   0.891   1.693  0.2205  0.1765  0.3323
  972SOD     NA14455   2.660   3.173  14.824  0.1902  0.6162 -0.1170
  973SOD     NA14456   1.707   0.909   2.211  0.2592  0.0738  0.5343
  974SOD     NA14457   3.356   0.859   0.031 -0.3769  0.3872 -0.1073
  975SOD     NA14458   2.298   3.490   1.432  0.3133  1.0608 -0.0778
  976SOD     NA14459   2.297   2.056  13.742  0.2045  0.1822 -0.1556
  977SOD     NA14460   3.722   4.345  15.614 -0.6507 -0.1760 -0.1946
  978SOD     NA14461   3.376   4.044  11.374 -0.3247 -0.3323  0.2708
  979SOD     NA14462   0.919   1.774  12.939 -0.5279  0.1250  0.2391
  980SOD     NA14463   2.476   0.936  15.222  0.1087 -0.4146 -0.1186
  981SOD     NA14464   2.724   0.749   1.384 -0.0055  0.5741 -0.5469
  982SOD     NA14465   2.636   0.014  16.728  0.1363  0.1313  0.1338
  983SOD     NA14466   3.781   1.406  10.336 -0.5653  0.4675 -0.4045
  984SOD     NA14467   0.885   3.613   2.213 -0.0636  0.0781  0.2183
  985SOD     NA14468   3.581   3.068   0.952  0.0256  0.1924 -0.5111
  986SOD     NA14469   0.490   2.921  11.556  0.0125  0.0662  0.5228
  987SOD     NA14470   2.429   2.039  14.076 -0.3178  0.0837  0.5852
  988SOD     NA14471   0.308   1.510   9.209 -0.1247 -0.2027  0.7005
  989SOD     NA14472   3.819   2.043   5.038  0.2790 -0.3943  0.1491
  990SOD     NA14473   1.439   4.206   8.205 -0.1677  0.2812  0.1370
  991SOD     NA14474   4.551   3.953   5.644  0.1796  0.2530  0.0930
  992SOD     NA14475   3.420   2.548  14.123 -0.3523 -0.1878 -0.2538
  993SOD     NA14476   1.479   2.438  14.294  0.2995 -0.2877 -0.1145
  994SOD     NA14477   4.487   2.862  13.213  0.4740  0.1752 -0.2948
  995SOD     NA14478   3.648   1.701  10.133 -0.6631  0.2794 -0.1895
  996SOD     NA14479   0.845   0.006  11.382  0.3376 -0.4406 -0.0628
  997SOD     NA14480   4.526   3.904   1.466 -0.2697 -0.1430  0.2734
  998SOD     NA14481   4.203   4.375   7.918 -0.7959 -0.4492  0.0142
  999SOD     NA14482   1.768   3.044   2.115  0.0851 -0.4065  0.2184
 1000SOD     NA14483   1.391   1.631   9.963  0.2443  0.2502 -0.0725
 1001SOD     NA14484   1.122   3.969  13.785  0.4022  0.1989 -0.5550
 1002SOD     NA14485   0.854   2.802  10.343  0.4526 -0.1898 -0.1052
 1003SOD     NA14486   0.748   1.092   0.255  0.0464  0.1497 -0.0569
 1004SOD     NA14487   4.198   2.269  14.760 -0.3660 -0.6620  0.1089
 1005SOD     NA14488   3.790   0.441   2.324  0.2007  0.0055 -0.1887
 1006SOD     NA14489   0.227   4.639  10.706  0.1957 -0.3715 -0.2243
 1007SOD     NA14490   2.039   3.072  14.922  0.1371  0.4478 -0.0194
 1008SOD     NA14491   3.349   2.633   7.888 -0.0340  0.1156 -0.1148
 1009SOD     NA14492   1.775   0.420   2.414 -0.2695 -0.1796 -0.1158
 1010SOD     NA14493   0.121   3.081  11.192 -0.0007  0.5851 -0.2370
 1011SOL     OW14494   1.626   2.278   7.625 -0.4616 -0.3682  0.1735
 1011SOL    HW114495   1.656   2.352   7.677  0.9098 -0.4182 -0.5281
 1011SOL    HW214496   1.711   2.256   7.586  0.8384  1.2625  2.1297
 1012SOL     OW14497   2.293   4.140   9.254  0.4503 -0.3273 -0.6358
 1012SOL    HW114498   2.204   4.169   9.233  0.8047  0.3381 -1.1914
 1012SOL    HW214499   2.283   4.053   9.294  1.5325 -0.5534 -0.8790
 1013SOL     OW14500   0.588   4.364   6.010 -0.2268 -0.0252  0.6673
 1013SOL    HW114501   0.600   4.344   6.103  0.5736  1.7943  0.9637
 1013SOL    HW214502   0.675   4.388   5.978 -0.6558  0.8446  0.1617
 1014SOL     OW14503   3.538   4.030  14.304  0.2610  0.6419 -0.2295
 1014SOL    HW114504   3.487   4.097  14.348  0.6436  1.3515 -0.8741
 1014SOL    HW214505   3.623   4.064  14.333  0.9355 -0.2388 -1.1563
 1015SOL     OW14506   2.440   4.009   5.761  0.0598  0.1799 -0.6862
 1015SOL    HW114507   2.519   4.047   5.798  0.4253 -1.6573  0.4408
 1015SOL    HW214508   2.397   4.085   5.721  0.2753  0.4911 -0.3266
 1016SOL     OW14509   1.720   2.483   1.703 -0.1313  0.1267 -0.7089
 1016SOL    HW114510   1.770   2.474   1.784  0.1656 -1.0093 -1.0173
 1016SOL    HW214511   1.705   2.390   1.690  1.4853 -0.1798 -0.3608
 1017SOL     OW14512   2.849   1.546   6.660  0.3953 -0.5936 -0.5559
 1017SOL    HW114513   2.862   1.463   6.614 -1.2507 -0.1548 -1.8239
 1017SOL    HW214514   2.879   1.524   6.748  1.8930  1.0454 -0.6606
 1018SOL     OW14515   1.881   2.705  15.562  0.1595 -0.2339 -0.3060
 1018SOL    HW114516   1.955   2.738  15.613  1.7842 -1.4670 -1.8757
 1018SOL    HW214517   1.897   2.724  15.470  0.7689 -0.7219 -0.2982
 1019SOL     OW14518   3.003   2.871   0.606  0.3239  0.6305 -0.8908
 1019SOL    HW114519   2.983   2.783   0.639 -0.8897  1.0714 -0.4591
 1019SOL    HW214520   2.918   2.912   0.619 -0.5806 -1.5109 -0.0975
 1020SOL     OW14521   1.654   0.469  17.030  0.2880  0.1851  0.0007
 1020SOL    HW114522   1.691   0.395  17.079 -1.3826  1.2124  2.8098
 1020SOL    HW214523   1.649   0.439  16.939  1.1141  0.6024 -0.1834
 1021SOL     OW14524   0.622   0.511   7.458  0.4199 -0.3741  0.3802
 1021SOL    HW114525   0.572   0.474   7.530  1.4355  0.1648  1.3563
 1021SOL    HW214526   0.578   0.591   7.432  0.4199 -0.8669 -1.1397
 1022SOL     OW14527   2.586   1.566   7.231  0.0822 -0.0635  0.0774
 1022SOL    HW114528   2.570   1.657   7.206  1.3216 -0.4187 -1.9980
 1022SOL    HW214529   2.592   1.518   7.148  2.9035  0.7875 -0.1863
 1023SOL     OW14530   3.089   3.730   8.001  0.7448 -0.3058  0.0498
 1023SOL    HW114531   3.050   3.807   7.960  1.5337 -0.3182 -0.6993
 1023SOL    HW214532   3.177   3.763   7.988  0.8618 -0.3017  0.8601
 1024SOL     OW14533   3.490   3.805   2.247  0.2106 -0.2464  0.2973
 1024SOL    HW114534   3.472   3.741   2.316  1.0974  1.1446  1.8238
 1024SOL    HW214535   3.577   3.834   2.274  0.3804 -1.9445  1.5717
 1025SOL     OW14536   1.085   1.160   6.108 -0.7100  0.1505 -0.2737
 1025SOL    HW114537   1.046   1.238   6.069 -1.3110  0.4292  0.8850
 1025SOL    HW214538   1.177   1.186   6.110  0.0106 -2.3246 -1.1852
 1026SOL     OW14539   3.393   2.490   8.282  0.0172  0.5066  0.4192
 1026SOL    HW114540   3.484   2.516   8.289  1.1577 -2.9844 -1.4500
 1026SOL    HW214541   3.399   2.396   8.296  2.5904  0.6114 -0.0339
 1027SOL     OW14542   0.229   3.622   6.815 -0.4293  0.2849 -0.0118
 1027SOL    HW114543   0.245   3.654   6.726  0.8655 -0.1655  0.0512
 1027SOL    HW214544   0.139   3.596   6.797  0.0987 -0.7382 -1.1644
 1028SOL     OW14545   1.398   0.339   5.422 -0.0289 -0.2098 -0.2207
 1028SOL    HW114546   1.330   0.406   5.435 -0.2591 -0.1806 -1.5991
 1028SOL    HW214547   1.476   0.386   5.452 -1.5796  0.8614  2.1349
 1029SOL     OW14548   3.217   0.732  11.080  0.1178  0.1013  0.2518
 1029SOL    HW114549   3.236   0.739  10.986 -0.0800  1.2154  0.2874
 1029SOL    HW214550   3.294   0.781  11.108 -0.8028  0.4221  2.2106
 1030SOL     OW14551   3.217   1.924  12.238 -0.2256 -0.5596  0.2777
 1030SOL    HW114552   3.228   1.832  12.263  0.3310 -0.6046 -0.1183
 1030SOL    HW214553   3.143   1.927  12.177 -1.4334  1.0115  1.8311
 1031SOL     OW14554   0.824   2.069   8.850 -0.4023  0.2342  0.4349
 1031SOL    HW114555   0.879   2.122   8.908 -0.3586 -0.4537  1.0151
 1031SOL    HW214556   0.863   1.984   8.870  1.7665  1.5880  2.0324
 1032SOL     OW14557   0.178   3.837   4.434 -0.9260  0.3858  0.3575
 1032SOL    HW114558   0.231   3.885   4.497  1.6964 -0.8740 -0.9003
 1032SOL    HW214559   0.092   3.875   4.451 -1.7544  0.3890 -3.8149
 1033SOL     OW14560   0.388   3.951  12.435  0.7760 -0.2956  0.3410
 1033SOL    HW114561   0.410   3.915  12.349 -0.9094  0.8395 -0.5742
 1033SOL    HW214562   0.321   4.017  12.417  1.3104  0.6645  1.9320
 1034SOL     OW14563   3.894   0.164   8.013 -0.0085 -0.3363 -0.5417
 1034SOL    HW114564   3.955   0.093   8.033 -2.4793 -2.4356 -0.4503
 1034SOL    HW214565   3.950   0.240   8.000  0.1584  0.0375  2.4648
 1035SOL     OW14566   1.522   3.068  11.612 -0.1329  0.4110  0.1393
 1035SOL    HW114567   1.520   2.975  11.635 -1.5830  0.9030  2.0281
 1035SOL    HW214568   1.614   3.095  11.623  0.1533 -0.6199  0.2565
 1036SOL     OW14569   0.330   0.454  12.383  0.4293 -0.6321 -0.4975
 1036SOL    HW114570   0.305   0.390  12.317 -1.3193  0.8771 -1.3002
 1036SOL    HW214571   0.382   0.517  12.334  0.2136  0.8201  1.1621
 1037SOL     OW14572   2.844   4.400   7.678  0.4446 -0.2960  0.2272
 1037SOL    HW114573   2.788   4.476   7.697 -0.6630 -0.7959 -0.9903
 1037SOL    HW214574   2.887   4.433   7.599 -0.4892  1.9787  0.6612
 1038SOL     OW14575   1.571   3.372   9.213 -0.6639  0.1230 -0.7243
 1038SOL    HW114576   1.578   3.356   9.307 -1.3025 -1.1296 -0.8886
 1038SOL    HW214577   1.490   3.332   9.181 -0.6629 -1.0260  0.7054
 1039SOL     OW14578   2.590   3.223   7.573 -0.5212 -0.2526  0.4206
 1039SOL    HW114579   2.679   3.254   7.585 -0.8964  0.3074  1.7303
 1039SOL    HW214580   2.596   3.155   7.640  0.4559  1.1070  1.7030
 1040SOL     OW14581   2.059   2.759   2.815  0.2876  0.2930  0.2128
 1040SOL    HW114582   2.022   2.693   2.757  2.3203 -0.8407  0.2038
 1040SOL    HW214583   2.116   2.704   2.869  0.2650 -0.7604 -0.8406
 1041SOL     OW14584   2.893   3.464  16.805  0.0095 -0.0006 -0.0984
 1041SOL    HW114585   2.865   3.374  16.793 -0.6843  0.2416 -0.2858
 1041SOL    HW214586   2.810   3.510  16.813  0.0261 -0.2714  1.4481
 1042SOL     OW14587   0.138   0.652   3.125  0.7024 -0.0382 -0.4299
 1042SOL    HW114588   0.054   0.610   3.142 -1.2358  4.1035  0.3688
 1042SOL    HW214589   0.125   0.747   3.128  1.5357  0.0541  0.3611
 1043SOL     OW14590   2.209   1.862   9.268 -0.2663 -0.2189  0.0772
 1043SOL    HW114591   2.258   1.861   9.350  0.1414 -0.2523 -0.1625
 1043SOL    HW214592   2.241   1.780   9.230 -1.7382 -1.1201  0.8034
 1044SOL     OW14593   1.576   3.099   8.622  0.0118  0.5507  0.0765
 1044SOL    HW114594   1.518   3.029   8.594  0.8007 -0.5216  1.1315
 1044SOL    HW214595   1.503   3.159   8.638  1.1968  2.2217 -0.8032
 1045SOL     OW14596   0.579   1.038   3.836 -0.7656  0.1837  0.1485
 1045SOL    HW114597   0.512   0.970   3.835 -0.9438  0.3734 -1.1952
 1045SOL    HW214598   0.656   1.000   3.793  0.0501 -0.5630  2.2708
 1046SOL     OW14599   1.125   3.627  12.378  0.6324 -0.3702  0.3538
 1046SOL    HW114600   1.129   3.681  12.457 -1.3564 -0.1620  0.3024
 1046SOL    HW214601   1.048   3.657  12.330  2.3918  2.8368 -0.4407
 1047SOL     OW14602   3.193   2.446  11.226 -0.3650 -0.2241 -0.4027
 1047SOL    HW114603   3.180   2.418  11.317  3.4463  0.7063  0.4076
 1047SOL    HW214604   3.112   2.409  11.190 -0.5278 -1.2720  1.0385
 1048SOL     OW14605   3.001   1.283   7.679 -0.3169  0.0961 -0.3585
 1048SOL    HW114606   2.941   1.211   7.662 -0.2829 -0.5251  2.1628
 1048SOL    HW214607   2.962   1.310   7.762 -0.1514  0.4814 -0.4020
 1049SOL     OW14608   2.775   1.461  10.292  0.0333 -0.5373  0.5380
 1049SOL    HW114609   2.712   1.390  10.299  0.2398 -0.8243 -0.4943
 1049SOL    HW214610   2.843   1.452  10.359  1.1637  1.3862 -0.3445
 1050SOL     OW14611   2.444   0.106   4.052  0.4236 -0.6612  0.0942
 1050SOL    HW114612   2.394   0.184   4.032  1.8509 -0.0867 -1.2875
 1050SOL    HW214613   2.403   0.043   3.992  1.6572 -1.4801  0.0993
 1051SOL     OW14614   2.241   0.138   7.517 -0.7892 -0.2270 -0.2556
 1051SOL    HW114615   2.152   0.157   7.490 -0.3850  2.0571  0.0334
 1051SOL    HW214616   2.251   0.198   7.591 -4.0216 -1.9805  1.6268
 1052SOL     OW14617   1.138   1.793   0.258  0.1468 -0.3952 -0.2884
 1052SOL    HW114618   1.175   1.715   0.300  0.8096 -0.3381 -0.7644
 1052SOL    HW214619   1.077   1.836   0.317 -1.2240 -0.8848 -1.3425
 1053SOL     OW14620   0.778   3.428   3.665  0.5132  0.3831  0.2292
 1053SOL    HW114621   0.694   3.447   3.624  1.6409  0.2843 -2.1558
 1053SOL    HW214622   0.766   3.335   3.686 -2.8590 -0.1963 -4.3283
 1054SOL     OW14623   4.196   3.624  16.649 -0.5342 -0.3896 -0.4554
 1054SOL    HW114624   4.125   3.578  16.695  0.0029 -0.2077  0.5602
 1054SOL    HW214625   4.153   3.679  16.583 -0.3219 -1.3624 -1.4133
 1055SOL     OW14626   1.621   0.847   6.752 -0.2844  0.2731  0.3313
 1055SOL    HW114627   1.715   0.866   6.752 -0.3936  0.8128 -1.5488
 1055SOL    HW214628   1.581   0.932   6.771  1.1255  1.0953 -0.3153
 1056SOL     OW14629   1.161   0.118   8.675  0.9464  0.3023  0.1250
 1056SOL    HW114630   1.162   0.089   8.584 -1.9447 -2.3351  0.9526
 1056SOL    HW214631   1.123   0.047   8.726 -0.3484  0.6585 -0.3367
 1057SOL     OW14632   1.578   1.040  11.328 -0.1044  0.3728 -0.1450
 1057SOL    HW114633   1.559   0.981  11.255  1.5101 -1.2495  0.7417
 1057SOL    HW214634   1.492   1.065  11.363  0.8167  2.5086  0.6125
 1058SOL     OW14635   3.014   1.820   2.320 -0.2305 -0.3323 -0.7723
 1058SOL    HW114636   2.992   1.898   2.371 -0.8816 -2.1368  1.7462
 1058SOL    HW214637   3.061   1.771   2.387 -2.3921 -2.0492 -0.4830
 1059SOL     OW14638   2.615   1.831   3.702 -0.6680  0.1219  0.5815
 1059SOL    HW114639   2.528   1.848   3.667 -0.4146  3.1243  1.4493
 1059SOL    HW214640   2.624   1.921   3.731 -0.0029 -0.4649  2.2000
 1060SOL     OW14641   0.549   2.677   1.763 -0.5350 -0.1723  0.3591
 1060SOL    HW114642   0.484   2.642   1.702  1.1459 -2.6902  0.0023
 1060SOL    HW214643   0.585   2.755   1.720 -2.3906  1.3875  1.6476
 1061SOL     OW14644   4.055   2.730   4.076  0.0881 -0.3461  0.8338
 1061SOL    HW114645   3.967   2.759   4.050  0.3214 -0.4324 -0.0707
 1061SOL    HW214646   4.097   2.814   4.057 -1.5030  0.6440  1.6434
 1062SOL     OW14647   0.896   4.409   3.112 -0.1118 -0.1807  0.1043
 1062SOL    HW114648   0.896   4.483   3.051 -0.1063 -0.0132  0.3080
 1062SOL    HW214649   0.825   4.353   3.078  1.6872 -1.7479 -1.1120
 1063SOL     OW14650   2.831   1.419   0.776 -0.1316  0.6880  0.2265
 1063SOL    HW114651   2.868   1.475   0.846  1.2926 -0.3301  0.2859
 1063SOL    HW214652   2.750   1.464   0.755 -0.9983 -1.6303 -1.3103
 1064SOL     OW14653   4.411   1.507   5.806  1.0849  0.0847  0.7853
 1064SOL    HW114654   4.417   1.411   5.811  0.9441  0.1373  1.9970
 1064SOL    HW214655   4.327   1.509   5.760  0.2383 -0.2388  2.3113
 1065SOL     OW14656   1.020   3.158   0.251 -0.1924 -0.5991 -0.1871
 1065SOL    HW114657   1.057   3.080   0.292 -0.6719  0.0522  1.4742
 1065SOL    HW214658   0.940   3.169   0.302 -0.4322 -0.4351 -0.5995
 1066SOL     OW14659   2.366   2.832   4.675 -0.1471  0.1097  0.4115
 1066SOL    HW114660   2.284   2.784   4.686  1.2442 -2.7592 -1.7070
 1066SOL    HW214661   2.402   2.805   4.591 -2.7728 -1.4598 -0.1668
 1067SOL     OW14662   2.531   2.431   4.872  0.0509  0.2219  0.4354
 1067SOL    HW114663   2.594   2.495   4.840  0.0305 -1.8745 -3.7817
 1067SOL    HW214664   2.463   2.417   4.807  0.9798  0.2195 -0.5400
 1068SOL     OW14665   3.041   3.833   5.482  0.6609 -0.0512  0.2180
 1068SOL    HW114666   3.026   3.743   5.511  0.9979  0.6704  2.5780
 1068SOL    HW214667   2.984   3.845   5.406  3.5643 -2.2555 -2.3263
 1069SOL     OW14668   1.462   2.148   3.228 -0.1805 -0.6636 -0.3479
 1069SOL    HW114669   1.546   2.169   3.187  1.5519 -2.2738  2.3752
 1069SOL    HW214670   1.420   2.232   3.250 -2.3061 -1.7421 -0.2827
 1070SOL     OW14671   1.998   0.371   3.577  0.0072 -0.5053  0.3589
 1070SOL    HW114672   2.085   0.343   3.607  1.9459  1.6029 -3.3359
 1070SOL    HW214673   1.976   0.387   3.669 -1.2149  1.1337 -0.2297
 1071SOL     OW14674   3.452   0.194   7.739 -0.1219  0.6917 -0.2460
 1071SOL    HW114675   3.386   0.208   7.807  2.2041  0.0439  2.1371
 1071SOL    HW214676   3.401   0.169   7.662  3.3589 -2.2877 -1.5732
 1072SOL     OW14677   1.370   3.890   6.083  0.7518  0.2601  0.1239
 1072SOL    HW114678   1.351   3.858   5.995 -0.5042  1.0537  0.1194
 1072SOL    HW214679   1.286   3.876   6.126 -0.3204  2.1487 -1.3944
 1073SOL     OW14680   0.413   2.034   4.863 -0.1805 -0.3460 -0.0925
 1073SOL    HW114681   0.487   2.093   4.851  1.3649 -1.7907  2.2006
 1073SOL    HW214682   0.405   1.993   4.777  0.2591  0.3698 -0.4678
 1074SOL     OW14683   3.445   2.162   4.997 -0.4077  0.2445  0.2973
 1074SOL    HW114684   3.376   2.224   4.976 -0.5860  0.9195  2.9023
 1074SOL    HW214685   3.456   2.187   5.089  0.1273  1.3510 -0.0623
 1075SOL     OW14686   1.513   4.225   6.352  0.6018  0.5526 -0.3398
 1075SOL    HW114687   1.519   4.231   6.448 -2.4300  0.5460 -0.1562
 1075SOL    HW214688   1.587   4.167   6.333  0.6223 -0.0987  1.6816
 1076SOL     OW14689   3.331   2.311   2.866 -0.4447  0.3686  0.1335
 1076SOL    HW114690   3.301   2.386   2.918 -0.4082  0.0477  0.6138
 1076SOL    HW214691   3.250   2.261   2.859 -0.3051  0.2146 -0.3879
 1077SOL     OW14692   0.517   4.715   3.932 -0.5756  0.3251  0.2680
 1077SOL    HW114693   0.588   0.017   3.990  1.0847 -0.6950 -1.2841
 1077SOL    HW214694   0.469   4.647   3.980  0.0642 -0.2218  0.1269
 1078SOL     OW14695   2.548   2.811   5.890 -0.5910 -0.0885 -0.2137
 1078SOL    HW114696   2.491   2.865   5.835  1.6349  2.0872 -0.3786
 1078SOL    HW214697   2.492   2.778   5.961  0.4336 -0.0074  0.6206
 1079SOL     OW14698   0.350   0.614  12.112  0.3891  0.2839 -0.1471
 1079SOL    HW114699   0.353   0.539  12.054 -2.1346 -0.4543  0.6840
 1079SOL    HW214700   0.436   0.615  12.154  0.7322 -0.7517 -0.8375
 1080SOL     OW14701   3.021   1.142  11.909 -0.3453  0.2119 -0.4824
 1080SOL    HW114702   2.994   1.201  11.838 -2.6773 -1.4617 -0.9651
 1080SOL    HW214703   2.948   1.133  11.971  0.9601  1.4736  1.2295
 1081SOL     OW14704   1.875   3.950   7.133 -0.4058 -0.2304  0.7558
 1081SOL    HW114705   1.856   3.955   7.039  1.4883  0.7245  0.4197
 1081SOL    HW214706   1.830   3.868   7.152  1.7589 -1.0548  2.3638
 1082SOL     OW14707   3.926   3.174   4.856 -0.3733 -0.1788 -0.3180
 1082SOL    HW114708   3.910   3.117   4.781 -1.0372 -0.0109 -0.3015
 1082SOL    HW214709   3.948   3.254   4.809 -0.3122 -0.2128 -0.3471
 1083SOL     OW14710   4.341   1.641   6.049  0.0661  0.3309 -0.1616
 1083SOL    HW114711   4.278   1.695   6.002 -1.1015 -0.0449  0.9879
 1083SOL    HW214712   4.381   1.587   5.981  1.6027 -0.8960  1.7027
 1084SOL     OW14713   4.637   0.485   9.516 -0.0490 -0.1667 -0.3455
 1084SOL    HW114714   4.691   0.542   9.570 -0.4716  1.5067 -1.6878
 1084SOL    HW214715   4.682   0.486   9.431 -0.6369  2.2042 -0.6298
 1085SOL     OW14716   0.417   3.580   7.029  0.0387 -0.6333  0.0059
 1085SOL    HW114717   0.413   3.651   7.094  0.2912 -1.3757  0.8361
 1085SOL    HW214718   0.346   3.604   6.970 -0.4441 -1.4971  0.2343
 1086SOL     OW14719   1.655   3.748   6.403  0.5458  0.0801 -0.2944
 1086SOL    HW114720   1.670   3.728   6.311  0.5534 -0.3871 -0.1900
 1086SOL    HW214721   1.571   3.706   6.420 -0.9742  2.5574 -1.6846
 1087SOL     OW14722   1.265   4.484   6.304  0.4403  0.5251  0.5392
 1087SOL    HW114723   1.198   4.434   6.351  0.1371 -0.2317 -0.6876
 1087SOL    HW214724   1.318   4.526   6.372 -0.1657  0.4508  1.0527
 1088SOL     OW14725   3.213   2.660  10.148 -0.0404 -0.2760 -0.1653
 1088SOL    HW114726   3.264   2.740  10.157 -0.0137  0.2045 -4.4824
 1088SOL    HW214727   3.278   2.613  10.095 -0.3887 -1.0663  0.1148
 1089SOL     OW14728   4.655   1.591   1.311 -0.2434 -0.4637 -0.4773
 1089SOL    HW114729   4.645   1.633   1.396 -0.1528 -1.9315  0.2691
 1089SOL    HW214730   4.590   1.520   1.316  0.4864 -0.9919  1.2520
 1090SOL     OW14731   3.769   0.900  13.065 -0.3185  0.2252  0.4188
 1090SOL    HW114732   3.688   0.864  13.030 -0.0499 -0.2614  0.2890
 1090SOL    HW214733   3.815   0.919  12.983  1.4447  0.7279  1.5223
 1091SOL     OW14734   4.041   0.131   3.113  0.7322 -0.1219  0.3353
 1091SOL    HW114735   4.131   0.162   3.120 -0.2165  3.2096 -1.9121
 1091SOL    HW214736   4.004   0.149   3.200  2.9623 -0.2899  1.3217
 1092SOL     OW14737   1.436   0.742   4.379  0.1740 -0.2125 -0.4765
 1092SOL    HW114738   1.387   0.821   4.356 -0.3316 -0.3636  0.0685
 1092SOL    HW214739   1.379   0.686   4.325 -0.8821  1.2694 -0.9024
 1093SOL     OW14740   1.973   1.413   3.938 -0.5794 -0.8293 -0.2842
 1093SOL    HW114741   1.961   1.435   3.846 -0.6966 -0.6634 -0.2307
 1093SOL    HW214742   1.883   1.412   3.971  0.0916  2.6071  1.7531
 1094SOL     OW14743   0.463   3.468   9.562  0.1786 -0.3407  0.2578
 1094SOL    HW114744   0.546   3.516   9.566  0.0982 -0.2047  0.2811
 1094SOL    HW214745   0.436   3.491   9.651 -1.5242 -1.6584  0.0773
 1095SOL     OW14746   3.891   2.299   8.143 -0.0773  0.1880 -0.4676
 1095SOL    HW114747   3.890   2.241   8.219 -3.1246 -0.6850 -1.1757
 1095SOL    HW214748   3.895   2.382   8.191  1.3729  0.5369 -1.1838
 1096SOL     OW14749   1.191   0.482  16.823 -0.2316 -0.6932 -0.5793
 1096SOL    HW114750   1.112   0.533  16.806 -1.8779 -3.9163 -2.7861
 1096SOL    HW214751   1.254   0.553  16.818 -1.9374  0.8842  0.2217
 1097SOL     OW14752   4.120   4.110   2.893  0.4607  0.0342  0.4851
 1097SOL    HW114753   4.181   4.081   2.825 -2.2754  0.4088 -2.1351
 1097SOL    HW214754   4.186   4.163   2.936  0.2097  0.1668  0.7063
 1098SOL     OW14755   0.166   3.281   3.289  0.4584  0.3833  0.3360
 1098SOL    HW114756   0.224   3.223   3.339  0.5047 -1.0481 -1.3776
 1098SOL    HW214757   0.128   3.219   3.227  0.6256 -1.1877  1.8192
 1099SOL     OW14758   2.279   2.229  13.592  0.1176 -0.0241  0.1237
 1099SOL    HW114759   2.252   2.319  13.577 -3.3796 -1.1596 -0.3749
 1099SOL    HW214760   2.259   2.188  13.508 -1.3840 -2.5100  1.6556
 1100SOL     OW14761   3.793   3.519   4.140 -0.5394  0.3063 -0.4804
 1100SOL    HW114762   3.749   3.454   4.195 -1.8063  0.8067 -0.9030
 1100SOL    HW214763   3.717   3.559   4.098 -0.9474  0.8568  0.7976
 1101SOL     OW14764   1.678   1.673  12.840  0.2375  0.2999 -0.6551
 1101SOL    HW114765   1.614   1.712  12.780 -1.0935 -1.0557 -0.1370
 1101SOL    HW214766   1.719   1.744  12.889  2.0152 -1.4068  0.3256
 1102SOL     OW14767   2.598   0.801   3.872  0.4615 -0.0052  0.3866
 1102SOL    HW114768   2.553   0.871   3.826  0.1473 -0.1973  0.3982
 1102SOL    HW214769   2.674   0.847   3.906 -0.2440  1.2669  0.2215
 1103SOL     OW14770   4.138   2.342  15.674 -0.5966  0.0828 -0.6294
 1103SOL    HW114771   4.068   2.296  15.720 -0.7962  1.3747  0.3699
 1103SOL    HW214772   4.197   2.362  15.747  0.9948  1.0636 -2.1711
 1104SOL     OW14773   0.775   0.728   4.506  0.2908 -0.2850  0.0942
 1104SOL    HW114774   0.686   0.740   4.471  0.7885  0.4738 -0.9147
 1104SOL    HW214775   0.763   0.683   4.589  0.4220  1.4620  1.0625
 1105SOL     OW14776   3.322   3.276   1.554 -0.1036 -0.5488  0.0573
 1105SOL    HW114777   3.373   3.266   1.635  0.3208 -0.4591 -0.1993
 1105SOL    HW214778   3.261   3.344   1.582  0.5506  0.5949 -1.2465
 1106SOL     OW14779   0.032   0.035   2.827  0.0983  0.2392 -0.2369
 1106SOL    HW114780   0.045   0.012   2.919 -0.1737  0.1055 -0.2338
 1106SOL    HW214781   0.124   0.036   2.799 -0.6079 -0.8951 -2.5707
 1107SOL     OW14782   0.417   4.622   6.798 -0.1698 -0.3726  0.2844
 1107SOL    HW114783   0.425   4.603   6.704  0.8792 -0.0946  0.3215
 1107SOL    HW214784   0.504   4.598   6.831  0.1755  1.2258  0.5309
 1108SOL     OW14785   0.782   2.039   5.553  0.0461 -0.3698 -0.5123
 1108SOL    HW114786   0.786   1.981   5.629  1.1934  1.0377  0.4988
 1108SOL    HW214787   0.689   2.045   5.532  0.2372  0.5292 -1.1016
 1109SOL     OW14788   4.551   0.583   3.554 -0.1073 -0.4511  0.3431
 1109SOL    HW114789   4.529   0.675   3.566  2.0903  0.0332  0.6053
 1109SOL    HW214790   4.646   0.588   3.549 -0.1135 -0.2588  0.4318
 1110SOL     OW14791   2.664   1.923   7.011 -0.0996 -0.0856 -0.1675
 1110SOL    HW114792   2.674   2.003   7.063  1.2524  0.0352 -0.6161
 1110SOL    HW214793   2.730   1.866   7.049  1.5287  0.4182 -2.1932
 1111SOL     OW14794   4.032   1.371   3.842  0.1167 -0.8132  1.0178
 1111SOL    HW114795   4.084   1.403   3.768 -4.3450  1.1145 -1.3114
 1111SOL    HW214796   4.064   1.440   3.901  0.6475 -0.4194  0.2711
 1112SOL     OW14797   4.253   4.601  11.518  0.5652  0.0516  0.2647
 1112SOL    HW114798   4.229   4.511  11.543  0.9184  0.1170  0.8327
 1112SOL    HW214799   4.199   4.655  11.576  1.9454  1.8218 -0.1217
 1113SOL     OW14800   0.938   2.349   6.269 -0.4347  0.2113 -0.0721
 1113SOL    HW114801   0.995   2.413   6.226  1.4130 -0.6426  1.1111
 1113SOL    HW214802   1.001   2.293   6.314 -1.3215 -1.1063 -0.4577
 1114SOL     OW14803   4.513   4.332   9.476  0.0620  0.1198  0.1989
 1114SOL    HW114804   4.526   4.420   9.440  2.7053  0.8032  2.7613
 1114SOL    HW214805   4.475   4.351   9.562  0.5085 -1.3926  0.7301
 1115SOL     OW14806   4.547   4.422   7.114 -0.1333  0.1314 -0.6722
 1115SOL    HW114807   4.491   4.372   7.054 -2.0710 -1.0350  2.1178
 1115SOL    HW214808   4.625   4.369   7.098 -0.4226 -0.0330 -1.5572
 1116SOL     OW14809   0.190   4.014   0.577  0.4754 -0.3234  0.1995
 1116SOL    HW114810   0.187   3.970   0.661  0.4754  1.5755  1.2097
 1116SOL    HW214811   0.219   4.101   0.606 -0.6227  0.0356  0.2183
 1117SOL     OW14812   3.549   4.390  17.242  0.1215 -0.0603 -0.4755
 1117SOL    HW114813   3.458   4.389  17.211 -0.3421 -2.7588  0.9579
 1117SOL    HW214814   3.605   4.370  17.167 -1.2558  3.1024 -2.3264
 1118SOL     OW14815   2.902   0.964   3.860 -0.0581 -0.2585 -0.1370
 1118SOL    HW114816   2.853   1.018   3.922 -0.1894 -0.9707  0.3712
 1118SOL    HW214817   2.934   0.893   3.915  0.3308 -1.6479 -2.1417
 1119SOL     OW14818   4.571   3.731   4.891  0.4304 -0.6012  0.8614
 1119SOL    HW114819   4.652   3.746   4.842  1.1114  0.2846  2.2442
 1119SOL    HW214820   4.541   3.644   4.864 -1.2234  0.7212 -1.4771
 1120SOL     OW14821   2.761   0.493   9.387  0.1217  0.0253  0.4220
 1120SOL    HW114822   2.791   0.456   9.470  0.7321 -1.4609 -0.4549
 1120SOL    HW214823   2.667   0.508   9.400  0.1002 -1.4173  1.9945
 1121SOL     OW14824   2.517   4.647   9.743 -0.2261  0.4443 -0.2592
 1121SOL    HW114825   2.611   4.652   9.759 -0.5182  1.6484  1.0699
 1121SOL    HW214826   2.513   4.686   9.656 -0.3663  0.1987 -0.3655
 1122SOL     OW14827   0.602   3.377   8.712  0.6313  0.2457 -0.3152
 1122SOL    HW114828   0.658   3.432   8.657 -0.6818  0.3026 -1.6140
 1122SOL    HW214829   0.526   3.430   8.736  0.7561 -0.9024  2.6103
 1123SOL     OW14830   3.020   3.961  13.054 -0.7034  0.1976  0.0435
 1123SOL    HW114831   3.067   4.011  12.987 -1.3092  2.0371  0.9828
 1123SOL    HW214832   3.028   4.012  13.135  0.2300  1.4559 -0.8341
 1124SOL     OW14833   1.221   1.522   0.313 -0.0773  0.2796  0.4214
 1124SOL    HW114834   1.281   1.482   0.377  1.8369  1.1740 -0.8214
 1124SOL    HW214835   1.142   1.467   0.309  0.6218 -0.9559  3.0801
 1125SOL     OW14836   1.963   3.751   7.295 -0.5420  0.0542 -0.3435
 1125SOL    HW114837   1.986   3.746   7.388 -0.2056 -1.5670 -0.5107
 1125SOL    HW214838   2.014   3.830   7.274  0.1037 -0.8515 -2.1834
 1126SOL     OW14839   0.207   3.828   6.597 -0.3019 -0.0767  0.5081
 1126SOL    HW114840   0.114   3.850   6.599  0.1786  1.9743 -0.4695
 1126SOL    HW214841   0.192   3.767   6.525  0.7829 -0.9741  1.0455
 1127SOL     OW14842   0.476   0.952   4.671  0.6830  0.3343 -0.0101
 1127SOL    HW114843   0.407   1.018   4.681 -0.0919 -0.1135 -2.3494
 1127SOL    HW214844   0.473   0.955   4.575 -1.5325  0.9392  0.0740
 1128SOL     OW14845   1.989   1.857  15.157 -0.4748  0.0324 -0.4574
 1128SOL    HW114846   1.923   1.832  15.093 -1.6325  1.8686 -0.0046
 1128SOL    HW214847   1.941   1.837  15.238 -1.7304 -0.1462 -1.2491
 1129SOL     OW14848   2.918   4.664   3.753  0.5526  0.3430 -0.1791
 1129SOL    HW114849   2.857   4.603   3.796  1.9240 -1.4127 -0.7184
 1129SOL    HW214850   2.999   4.649   3.802 -1.0467  1.0125  2.6722
 1130SOL     OW14851   0.564   3.677   1.495  0.4767 -0.1690  0.4126
 1130SOL    HW114852   0.469   3.666   1.490  0.5666 -0.4859 -0.4728
 1130SOL    HW214853   0.594   3.587   1.494 -0.1736 -0.3669 -1.1257
 1131SOL     OW14854   4.537   3.126  17.521  0.4247  0.1878 -0.1166
 1131SOL    HW114855   4.565   3.101  17.433 -0.6517  3.0064 -1.2647
 1131SOL    HW214856   4.547   3.043  17.568  1.3770  0.1342 -0.4199
 1132SOL     OW14857   3.914   2.320   2.539 -0.0057  0.2414  0.3332
 1132SOL    HW114858   3.984   2.255   2.546 -0.7693 -0.5324  0.7332
 1132SOL    HW214859   3.861   2.298   2.614 -1.4444 -0.3406 -0.8591
 1133SOL     OW14860   2.910   4.021   1.997  0.1437 -0.1036  0.4808
 1133SOL    HW114861   2.840   3.979   2.047  0.2815 -1.7942 -0.7711
 1133SOL    HW214862   2.909   3.974   1.914  1.8774  1.9832 -0.7472
 1134SOL     OW14863   0.383   0.921   6.529  0.1200  1.1860 -0.3884
 1134SOL    HW114864   0.467   0.904   6.485  0.4647 -1.2505  1.2655
 1134SOL    HW214865   0.381   1.017   6.532 -0.7678  1.0596  2.4960
 1135SOL     OW14866   1.167   0.801   7.717  0.0034  0.1501 -0.1043
 1135SOL    HW114867   1.078   0.824   7.691 -0.9397  0.2205  3.2059
 1135SOL    HW214868   1.144   0.760   7.799  2.2126  0.2772  0.5936
 1136SOL     OW14869   3.417   0.540  13.512  0.0014 -0.1201  0.1176
 1136SOL    HW114870   3.440   0.610  13.451  0.7701 -1.2858 -0.9305
 1136SOL    HW214871   3.357   0.586  13.571  0.3483  1.5910 -0.8670
 1137SOL     OW14872   3.252   3.150   3.015  0.2974 -0.4010  0.2126
 1137SOL    HW114873   3.344   3.177   3.018  0.0186  0.5917 -0.0769
 1137SOL    HW214874   3.235   3.109   2.930  1.4667  0.1708 -0.2968
 1138SOL     OW14875   3.420   1.318   6.218  0.3380  0.0545 -0.0592
 1138SOL    HW114876   3.366   1.289   6.291 -2.6803 -1.7599 -3.0082
 1138SOL    HW214877   3.365   1.338   6.143 -0.1285 -1.1614 -0.0408
 1139SOL     OW14878   3.413   0.105   7.263  0.0367 -0.1116  0.2484
 1139SOL    HW114879   3.404   0.055   7.182 -1.3472 -0.6588  0.7488
 1139SOL    HW214880   3.507   0.103   7.280  0.2283  1.8288 -0.5812
 1140SOL     OW14881   0.704   0.430   3.350  0.0791  0.1129  0.2455
 1140SOL    HW114882   0.717   0.514   3.394  3.2002  0.5872 -1.5581
 1140SOL    HW214883   0.744   0.374   3.417 -0.6053 -1.6367 -0.8069
 1141SOL     OW14884   1.408   0.754   1.841 -0.1548  0.1122  0.0083
 1141SOL    HW114885   1.395   0.779   1.750 -1.6187  0.4349  0.3123
 1141SOL    HW214886   1.412   0.838   1.887 -1.4649  0.2772 -0.1821
 1142SOL     OW14887   4.420   1.563   8.167 -0.2016  1.0239 -0.4051
 1142SOL    HW114888   4.463   1.482   8.137  0.3215  0.3699  2.1449
 1142SOL    HW214889   4.334   1.534   8.197  0.7355  0.1288  1.3594
 1143SOL     OW14890   1.974   1.917   8.813  0.3356 -0.2795  0.1828
 1143SOL    HW114891   1.949   2.010   8.817  0.0288 -0.3484 -0.1726
 1143SOL    HW214892   1.991   1.902   8.906  0.0566  1.2733  0.4864
 1144SOL     OW14893   2.182   2.487  13.580 -0.6043  0.2412  0.1849
 1144SOL    HW114894   2.184   2.570  13.627 -1.8985  0.6380 -0.4492
 1144SOL    HW214895   2.104   2.498  13.524  0.4862  2.2916 -0.9118
 1145SOL     OW14896   3.566   3.878  12.858 -0.5454 -0.4521 -0.6143
 1145SOL    HW114897   3.487   3.825  12.850  0.1875 -1.5674 -0.5590
 1145SOL    HW214898   3.529   3.954  12.813  0.2505 -0.8256 -1.9256
 1146SOL     OW14899   1.283   3.093  14.056  0.5040  0.2194  0.5696
 1146SOL    HW114900   1.348   3.050  14.112  1.4377  0.2018 -0.5503
 1146SOL    HW214901   1.208   3.038  14.078  0.5418  1.0623  2.8443
 1147SOL     OW14902   3.676   1.584   4.242 -0.3456 -0.0912  0.3991
 1147SOL    HW114903   3.740   1.556   4.307  0.2980  1.6917  0.5364
 1147SOL    HW214904   3.707   1.554   4.157 -2.2203  0.1566 -0.3811
 1148SOL     OW14905   0.708   2.725  15.296 -0.2945  0.7386  0.2347
 1148SOL    HW114906   0.647   2.766  15.358 -0.3883  2.1051 -0.7663
 1148SOL    HW214907   0.675   2.635  15.286  2.3932 -0.2975  0.7339
 1149SOL     OW14908   1.911   3.286   6.680 -0.3931 -0.4083 -0.5730
 1149SOL    HW114909   1.876   3.354   6.622 -0.1177  0.3690  0.1736
 1149SOL    HW214910   1.836   3.259   6.733 -0.2085 -1.0615 -0.6467
 1150SOL     OW14911   1.520   0.516   3.787 -0.0389  0.8183 -0.0752
 1150SOL    HW114912   1.543   0.472   3.705  1.3505 -0.9438  1.2611
 1150SOL    HW214913   1.562   0.460   3.853  0.3493  1.3056  0.0936
 1151SOL     OW14914   0.102   0.314   8.348 -0.0946  0.1782 -0.2749
 1151SOL    HW114915   0.014   0.336   8.379 -0.3512 -0.8520 -0.2875
 1151SOL    HW214916   0.163   0.356   8.408 -0.1298 -1.5784  0.9901
 1152SOL     OW14917   3.394   2.410   6.765 -0.5762  0.2439 -0.6665
 1152SOL    HW114918   3.400   2.376   6.676  0.8001 -0.3612 -0.3516
 1152SOL    HW214919   3.317   2.361   6.794 -0.1931 -0.6687 -1.1527
 1153SOL     OW14920   1.670   0.779  13.374 -0.4443  0.5409  0.2350
 1153SOL    HW114921   1.700   0.869  13.367 -0.2888  0.4276 -0.5589
 1153SOL    HW214922   1.752   0.738  13.403 -0.0393  1.7390  0.7918
 1154SOL     OW14923   3.570   1.895   4.643 -0.2854  0.1570 -0.0103
 1154SOL    HW114924   3.506   1.901   4.714  0.7583 -0.6703  0.9946
 1154SOL    HW214925   3.515   1.894   4.564  0.4895 -0.7663 -0.5402
 1155SOL     OW14926   1.249   1.998  11.144  0.1294  0.3074  0.0856
 1155SOL    HW114927   1.330   1.946  11.139  0.3944  0.7477 -0.2312
 1155SOL    HW214928   1.177   1.938  11.127 -0.6300  1.0500  0.6611
 1156SOL     OW14929   0.801   0.440   4.693  0.9188 -0.1335  0.2001
 1156SOL    HW114930   0.738   0.373   4.666  1.4385 -0.9619  1.0566
 1156SOL    HW214931   0.845   0.468   4.613  1.1771 -0.0026  0.3881
 1157SOL     OW14932   2.553   3.167   1.468  0.3522  0.5296 -0.4369
 1157SOL    HW114933   2.641   3.135   1.490  0.2580  1.3588  1.1484
 1157SOL    HW214934   2.517   3.108   1.402 -1.8294  0.5600  0.7143
 1158SOL     OW14935   3.001   0.942   9.105 -0.2092 -0.3095 -0.1757
 1158SOL    HW114936   3.053   0.883   9.160 -1.2077 -0.9531  0.0907
 1158SOL    HW214937   3.071   0.988   9.059  1.2104 -1.1581  1.1061
 1159SOL     OW14938   4.562   2.559   0.743 -0.0648  0.1434  0.1303
 1159SOL    HW114939   4.478   2.570   0.699  0.8715  1.7209 -1.2704
 1159SOL    HW214940   4.548   2.471   0.779  2.2193 -0.5024 -0.5786
 1160SOL     OW14941   2.259   1.985   7.132 -0.2042  0.0282 -0.4528
 1160SOL    HW114942   2.262   1.980   7.036 -2.8324 -2.4211 -0.4073
 1160SOL    HW214943   2.235   2.077   7.139  1.5244  0.1922  3.6434
 1161SOL     OW14944   2.590   0.179   5.098 -0.1689 -0.0285  0.9253
 1161SOL    HW114945   2.597   0.134   5.013  3.3134  1.6523  0.3097
 1161SOL    HW214946   2.586   0.101   5.154  1.4200 -0.4079  0.5287
 1162SOL     OW14947   4.654   2.661   4.396 -0.0864  0.4139 -0.2351
 1162SOL    HW114948   0.020   2.638   4.403 -0.2613 -0.7961 -2.0257
 1162SOL    HW214949   4.616   2.579   4.364  1.0787 -0.3204  0.2842
 1163SOL     OW14950   2.533   3.426   7.116  0.1165 -0.4076 -0.2232
 1163SOL    HW114951   2.453   3.388   7.082  1.1760 -1.8474 -1.0767
 1163SOL    HW214952   2.510   3.433   7.209 -0.9486  1.8217 -0.6500
 1164SOL     OW14953   1.628   2.424  15.343  0.0458 -0.0230  0.7301
 1164SOL    HW114954   1.659   2.335  15.328  0.3652  0.4942 -1.5829
 1164SOL    HW214955   1.611   2.452  15.253  0.9319 -1.4861  0.1105
 1165SOL     OW14956   3.638   1.008   9.058 -0.0020  0.4057  0.1731
 1165SOL    HW114957   3.655   0.923   9.016  0.8203  1.0049 -0.7112
 1165SOL    HW214958   3.591   0.980   9.136 -1.1048 -2.4653 -1.5065
 1166SOL     OW14959   4.278   0.687  10.477 -0.2349  0.0786  0.2165
 1166SOL    HW114960   4.188   0.715  10.459  0.7956  1.9299 -1.9312
 1166SOL    HW214961   4.299   0.761  10.534  0.3694  1.3598 -1.7020
 1167SOL     OW14962   2.744   3.474   7.477 -0.5017  0.4025  0.2797
 1167SOL    HW114963   2.816   3.420   7.442  1.0345  2.1227  0.8351
 1167SOL    HW214964   2.791   3.555   7.494 -0.2471  0.2315  0.4016
 1168SOL     OW14965   0.118   3.825  11.553  0.9681 -0.2068 -0.1831
 1168SOL    HW114966   0.138   3.911  11.516  0.4825 -0.3132 -0.6926
 1168SOL    HW214967   0.209   3.796  11.553  0.5862 -1.4096 -0.9336
 1169SOL     OW14968   4.110   3.363   9.330 -0.7445 -0.0460  0.6666
 1169SOL    HW114969   4.084   3.357   9.422 -0.6848  0.2754  0.7051
 1169SOL    HW214970   4.147   3.275   9.319  0.7095  0.2021  3.4400
 1170SOL     OW14971   2.835   1.307   3.948 -0.1835  0.4816  0.7698
 1170SOL    HW114972   2.792   1.240   4.001 -0.1115  0.8307  1.2770
 1170SOL    HW214973   2.924   1.310   3.985  0.2648  1.1770 -0.3681
 1171SOL     OW14974   1.701   0.094   9.897  0.5180  0.3937  0.4613
 1171SOL    HW114975   1.738   0.024   9.951  1.0423  0.3609  0.0615
 1171SOL    HW214976   1.639   0.051   9.838  0.0042 -0.1607  1.4079
 1172SOL     OW14977   0.759   4.141  12.037  0.5027 -0.3211 -0.5425
 1172SOL    HW114978   0.677   4.126  12.084 -0.0671  2.1736 -0.7628
 1172SOL    HW214979   0.722   4.150  11.949 -0.1189 -1.2875 -0.3775
 1173SOL     OW14980   3.535   4.015   3.727  0.4307  0.4858  0.1652
 1173SOL    HW114981   3.492   3.940   3.685  2.0723  0.8503 -2.1963
 1173SOL    HW214982   3.527   4.080   3.658  1.4823 -0.7661 -1.1520
 1174SOL     OW14983   0.341   0.900   3.729  0.1543 -0.0866  0.0540
 1174SOL    HW114984   0.308   0.910   3.640  0.1494  0.7652  0.1537
 1174SOL    HW214985   0.332   0.805   3.737 -3.3587  0.2547  0.4081
 1175SOL     OW14986   1.426   3.951   0.752 -0.1018  0.1373  0.4733
 1175SOL    HW114987   1.401   3.874   0.804 -1.4048 -1.2807 -2.2247
 1175SOL    HW214988   1.517   3.924   0.742  0.1804  0.9643  0.8241
 1176SOL     OW14989   1.458   4.276   4.711 -0.7374 -0.0202 -0.0800
 1176SOL    HW114990   1.550   4.248   4.713  0.3943  3.7116 -0.6835
 1176SOL    HW214991   1.483   4.366   4.730  0.1233 -0.2288 -0.2343
 1177SOL     OW14992   2.199   4.548  11.027 -0.0183 -0.1705  0.4983
 1177SOL    HW114993   2.268   4.555  11.093 -0.4703 -1.9621  1.1462
 1177SOL    HW214994   2.180   4.457  11.046  0.8461 -0.5177 -0.2926
 1178SOL     OW14995   2.113   3.717   4.264 -0.0491 -0.6052 -0.4076
 1178SOL    HW114996   2.151   3.783   4.322 -2.1780  0.5331 -0.3184
 1178SOL    HW214997   2.088   3.656   4.333  0.6736 -0.1947  0.2205
 1179SOL     OW14998   4.419   1.772   7.959  0.0710  0.5278  0.1078
 1179SOL    HW114999   4.503   1.726   7.961  0.4015  1.1498  0.3164
 1179SOL    HW215000   4.374   1.730   8.033  0.8972  1.1365  0.9497
 1180SOL     OW15001   1.159   2.810  10.106  0.2922  0.0749  0.2531
 1180SOL    HW115002   1.121   2.779  10.023  0.0451  1.1493 -0.0418
 1180SOL    HW215003   1.085   2.800  10.166 -0.3046  0.5963 -0.3959
 1181SOL     OW15004   1.823   1.002  16.996  0.3582 -0.0512 -0.0913
 1181SOL    HW115005   1.767   1.046  16.932  0.6847 -2.0265 -1.7350
 1181SOL    HW215006   1.804   0.911  16.977  0.4561 -0.2628  0.8240
 1182SOL     OW15007   0.049   2.981   2.429 -0.3907 -0.1874  0.2439
 1182SOL    HW115008   0.049   3.070   2.464  1.3888 -0.1917  0.2506
 1182SOL    HW215009   4.695   2.990   2.378  0.1819 -0.1344 -0.6481
 1183SOL     OW15010   3.888   4.630   8.264 -0.6837 -0.0026  0.4273
 1183SOL    HW115011   3.827   4.569   8.223 -0.5642  0.5895 -0.6198
 1183SOL    HW215012   3.915   4.574   8.337 -1.2580  2.0496  2.2192
 1184SOL     OW15013   3.100   2.863   0.356  0.3718  0.1890  0.2390
 1184SOL    HW115014   3.082   2.872   0.450  2.3366  0.1453  0.6218
 1184SOL    HW215015   3.065   2.943   0.315  0.3218 -0.4158 -0.8976
 1185SOL     OW15016   0.251   2.258   7.982 -0.3538  0.2375  0.0691
 1185SOL    HW115017   0.295   2.176   7.958 -1.9508  0.2547 -2.9459
 1185SOL    HW215018   0.298   2.286   8.060 -3.2142  1.3357  1.3662
 1186SOL     OW15019   0.457   3.066   1.170 -0.4045  0.3078 -0.2270
 1186SOL    HW115020   0.416   2.980   1.174  0.9161 -0.1748  2.6564
 1186SOL    HW215021   0.512   3.059   1.091 -0.6901  0.7768 -0.4669
 1187SOL     OW15022   1.021   2.265   2.350 -0.0147 -0.5648 -0.0009
 1187SOL    HW115023   0.973   2.328   2.296 -0.4602 -2.2834 -1.5931
 1187SOL    HW215024   1.100   2.260   2.295 -0.6723  0.1566 -1.0077
 1188SOL     OW15025   2.683   2.943   1.786 -0.1422 -0.4319 -0.0003
 1188SOL    HW115026   2.709   2.908   1.701 -2.1101  0.3635 -0.9141
 1188SOL    HW215027   2.588   2.946   1.779 -0.0485  0.4848 -0.8149
 1189SOL     OW15028   1.353   2.422   7.291  0.2389  0.3432 -0.1918
 1189SOL    HW115029   1.261   2.420   7.264  1.0801 -1.0480 -2.9776
 1189SOL    HW215030   1.354   2.517   7.300  0.7661 -0.0496  4.0835
 1190SOL     OW15031   3.190   2.250   5.719  0.3217 -0.4449 -0.5230
 1190SOL    HW115032   3.177   2.247   5.624  1.3514  1.8553 -0.7396
 1190SOL    HW215033   3.280   2.280   5.712  1.4008 -3.3313  0.8277
 1191SOL     OW15034   1.942   0.631   8.846  0.1505  0.0257 -0.4222
 1191SOL    HW115035   1.940   0.600   8.936  3.1563  2.1684  0.3629
 1191SOL    HW215036   2.032   0.664   8.840 -0.5045  1.5921 -1.7697
 1192SOL     OW15037   1.688   2.365   1.380 -0.6727 -0.4362 -0.1074
 1192SOL    HW115038   1.733   2.282   1.393  0.2092  0.0484 -0.0871
 1192SOL    HW215039   1.670   2.371   1.286  0.1860 -2.0884 -0.3776
 1193SOL     OW15040   0.012   3.251  12.487 -0.5893 -0.0320  0.1063
 1193SOL    HW115041   4.671   3.296  12.540 -0.1952 -1.9464  2.2382
 1193SOL    HW215042   0.090   3.300  12.513 -0.6528 -0.1666  0.5588
 1194SOL     OW15043   2.085   2.776   1.872 -0.1059 -0.5441  0.0009
 1194SOL    HW115044   2.132   2.764   1.789 -0.2290  0.5076 -0.2209
 1194SOL    HW215045   2.119   2.703   1.924 -2.0495 -0.5000  1.3104
 1195SOL     OW15046   1.731   0.240   8.240 -0.1940  0.0575 -0.1364
 1195SOL    HW115047   1.643   0.226   8.205 -0.0245 -1.0885 -0.1014
 1195SOL    HW215048   1.736   0.335   8.254  1.1442 -0.1070  0.4920
 1196SOL     OW15049   1.213   0.382  15.969 -0.4818 -0.4789 -0.7296
 1196SOL    HW115050   1.125   0.419  15.969  0.0410  0.7795 -2.7227
 1196SOL    HW215051   1.237   0.415  16.056 -1.8899 -0.2610 -0.4252
 1197SOL     OW15052   3.932   3.357   3.143  0.6470 -0.1431 -0.5816
 1197SOL    HW115053   3.870   3.349   3.070  0.7915 -1.5483 -0.5635
 1197SOL    HW215054   3.929   3.270   3.182  1.0398  0.4865  0.8260
 1198SOL     OW15055   0.683   4.317   2.507 -0.3545 -0.0667  0.2412
 1198SOL    HW115056   0.675   4.356   2.593 -1.0565  0.5921 -0.1211
 1198SOL    HW215057   0.765   4.271   2.525 -1.6716 -2.0421  1.1635
 1199SOL     OW15058   2.101   3.249   9.618  0.3145  0.8143 -0.3569
 1199SOL    HW115059   2.049   3.197   9.679 -1.1938  2.2370 -0.4284
 1199SOL    HW215060   2.038   3.321   9.620  1.3428  1.6330  2.3403
 1200SOL     OW15061   1.966   3.613   9.165  0.1099  0.1040 -0.0195
 1200SOL    HW115062   2.048   3.598   9.118 -0.1900  1.5608 -1.0037
 1200SOL    HW215063   1.919   3.535   9.135  1.5430 -0.5885 -0.4172
 1201SOL     OW15064   0.614   1.349   2.644 -0.0069  0.2504 -0.5736
 1201SOL    HW115065   0.583   1.264   2.611  1.3814 -0.2164 -0.6791
 1201SOL    HW215066   0.536   1.404   2.655 -0.1185  0.4021 -2.0670
 1202SOL     OW15067   3.244   3.951   0.392 -0.0905 -0.3023  0.1246
 1202SOL    HW115068   3.168   3.971   0.338  0.0890 -0.4879 -0.1970
 1202SOL    HW215069   3.191   3.959   0.471  2.4957  1.2935  1.7128
 1203SOL     OW15070   2.390   1.798   5.640 -0.2216  0.1858 -0.1596
 1203SOL    HW115071   2.359   1.718   5.682 -2.9567  0.8313 -0.9483
 1203SOL    HW215072   2.482   1.800   5.668 -0.1231  0.4696 -0.5036
 1204SOL     OW15073   2.651   3.398   3.404  0.1777  0.9010 -0.7426
 1204SOL    HW115074   2.589   3.354   3.463  2.2774  0.4022  1.0754
 1204SOL    HW215075   2.723   3.414   3.465 -1.4232 -0.3179  1.5026
 1205SOL     OW15076   0.423   1.356   6.222  0.4591  0.3503 -0.6451
 1205SOL    HW115077   0.394   1.321   6.137  0.6082  0.0331 -0.5653
 1205SOL    HW215078   0.371   1.436   6.226  2.6063  1.7296  0.0504
 1206SOL     OW15079   1.359   3.247   8.744  0.7185  0.3700  0.8289
 1206SOL    HW115080   1.268   3.263   8.768 -0.0375 -1.5051 -0.8418
 1206SOL    HW215081   1.390   3.337   8.732  1.3654  0.2700  1.7284
 1207SOL     OW15082   0.844   4.601   1.254  0.0484  0.5171  0.0795
 1207SOL    HW115083   0.829   4.623   1.162 -1.4799 -0.1760  0.1688
 1207SOL    HW215084   0.908   4.532   1.238 -1.6067 -0.9061 -0.4243
 1208SOL     OW15085   4.372   3.017   0.141  0.2989 -0.3148 -0.0401
 1208SOL    HW115086   4.445   2.957   0.123  1.0994  0.7601 -0.3510
 1208SOL    HW215087   4.307   2.989   0.077 -2.6780  0.1652  2.7665
 1209SOL     OW15088   0.623   0.684   9.732  0.2628  1.1931  0.0603
 1209SOL    HW115089   0.533   0.672   9.702  0.2752  1.6140 -0.1342
 1209SOL    HW215090   0.640   0.601   9.778 -1.2630  1.1571  0.5430
 1210SOL     OW15091   3.322   2.557   4.775 -0.1281  0.1243 -0.3668
 1210SOL    HW115092   3.252   2.607   4.818 -1.7068  1.1890 -4.2068
 1210SOL    HW215093   3.390   2.596   4.830 -3.1086  0.1883  3.3201
 1211SOL     OW15094   0.763   0.739   5.760 -0.0814 -0.5447 -0.1152
 1211SOL    HW115095   0.738   0.667   5.819 -0.2688 -1.9192 -1.8714
 1211SOL    HW215096   0.684   0.791   5.747  0.3402 -0.0258 -0.5822
 1212SOL     OW15097   0.854   4.295  17.654 -0.3463  0.2046 -0.4741
 1212SOL    HW115098   0.915   4.286  17.582  0.1934  0.8741 -0.1061
 1212SOL    HW215099   0.776   4.336  17.617  0.1100  0.5996 -1.0006
 1213SOL     OW15100   3.666   3.340   4.281  0.2049  0.7336 -0.0286
 1213SOL    HW115101   3.572   3.344   4.297  0.6795 -0.7408  3.1571
 1213SOL    HW215102   3.672   3.287   4.202  0.5915 -1.0530  1.2003
 1214SOL     OW15103   1.360   0.759   5.957  0.1874  0.0355 -0.5534
 1214SOL    HW115104   1.429   0.695   5.973 -0.9285 -0.2567  3.1716
 1214SOL    HW215105   1.403   0.843   5.948  2.4233 -0.9169  1.1640
 1215SOL     OW15106   2.539   1.953   8.019  0.2631  0.4123  0.2951
 1215SOL    HW115107   2.538   2.013   8.093 -1.3754  0.1363  0.4960
 1215SOL    HW215108   2.470   1.987   7.962  0.5297 -2.0744 -1.5014
 1216SOL     OW15109   4.281   3.285   0.408 -0.4381  0.5353  0.0932
 1216SOL    HW115110   4.375   3.289   0.423 -0.3039 -1.9333 -0.1973
 1216SOL    HW215111   4.254   3.374   0.431  0.3738  0.3569  1.7158
 1217SOL     OW15112   4.187   4.004  15.253 -0.0112 -0.0335  0.8484
 1217SOL    HW115113   4.276   4.037  15.237  0.9093 -1.9550  2.1153
 1217SOL    HW215114   4.173   3.951  15.174  2.1411 -2.2395  1.9686
 1218SOL     OW15115   4.316   1.007   3.315  0.2645 -0.2031 -0.1151
 1218SOL    HW115116   4.355   1.063   3.247  0.9036 -0.9025 -0.3154
 1218SOL    HW215117   4.277   0.942   3.257  0.2217 -0.5405  0.2937
 1219SOL     OW15118   4.077   2.641   6.635  1.0158  0.2553  0.8607
 1219SOL    HW115119   4.163   2.607   6.661  1.4015  0.0672 -0.6238
 1219SOL    HW215120   4.070   2.724   6.682  1.2852 -1.0094  3.1220
 1220SOL     OW15121   4.501   0.606   4.024 -0.2803 -0.3063  0.5885
 1220SOL    HW115122   4.483   0.690   4.066 -0.8063 -0.0222 -0.1983
 1220SOL    HW215123   4.421   0.606   3.971  0.8761  0.6218 -1.1735
 1221SOL     OW15124   3.879   3.258   2.482  0.3798 -0.3608 -0.1931
 1221SOL    HW115125   3.922   3.324   2.538  0.7349  1.1823 -2.2609
 1221SOL    HW215126   3.868   3.312   2.403  0.2588 -0.5570 -0.3090
 1222SOL     OW15127   2.743   1.362  11.941 -0.0552  0.5114  0.1423
 1222SOL    HW115128   2.778   1.418  12.010 -1.8031 -0.0825  1.5094
 1222SOL    HW215129   2.796   1.385  11.865  1.0116  0.9730  1.0294
 1223SOL     OW15130   1.705   0.886  13.800  0.4087 -0.5427  0.1674
 1223SOL    HW115131   1.773   0.888  13.734 -0.5300 -3.3244 -0.8672
 1223SOL    HW215132   1.715   0.793  13.821 -1.1198 -0.9674 -0.9769
 1224SOL     OW15133   3.017   4.110   8.908 -0.0593  0.0270  0.3329
 1224SOL    HW115134   2.986   4.035   8.857 -0.6130 -0.4427  1.3541
 1224SOL    HW215135   2.959   4.115   8.984 -1.8742 -3.6817 -0.8116
 1225SOL     OW15136   1.761   3.427  13.046  0.6138 -0.7459 -0.0324
 1225SOL    HW115137   1.690   3.382  13.001  0.1193 -2.7469  2.7655
 1225SOL    HW215138   1.799   3.356  13.098  0.5344  0.0523  1.1146
 1226SOL     OW15139   4.547   3.869   8.643  0.1754 -0.6673 -0.6801
 1226SOL    HW115140   4.484   3.804   8.673  0.9858 -1.4372 -0.6461
 1226SOL    HW215141   4.504   3.954   8.651  1.1469 -0.3475  1.2799
 1227SOL     OW15142   4.668   2.467   6.061 -0.1941  0.1062  0.0213
 1227SOL    HW115143   0.032   2.443   6.038 -0.1500  2.2929 -2.0501
 1227SOL    HW215144   4.669   2.562   6.057 -2.0394  0.0229 -2.1560
 1228SOL     OW15145   3.517   2.571   8.866  0.2797  0.7124  0.0563
 1228SOL    HW115146   3.488   2.586   8.777  1.0802 -0.1546 -0.3597
 1228SOL    HW215147   3.437   2.575   8.919 -0.4519 -3.8525 -0.6624
 1229SOL     OW15148   0.691   3.998   2.748  0.0833 -1.0354 -0.2725
 1229SOL    HW115149   0.739   3.927   2.705 -2.9063 -3.7094  0.7668
 1229SOL    HW215150   0.652   3.952   2.823 -2.7838  0.1601 -1.0258
 1230SOL     OW15151   0.554   3.783   6.791  0.5738  0.0436 -0.2779
 1230SOL    HW115152   0.575   3.836   6.868  0.8614  0.1029 -0.3958
 1230SOL    HW215153   0.472   3.753   6.829  1.2412  0.0152  1.1344
 1231SOL     OW15154   3.688   2.472   4.808 -0.0018  0.2967 -0.8835
 1231SOL    HW115155   3.764   2.513   4.851 -0.9341 -0.7807  1.8260
 1231SOL    HW215156   3.633   2.550   4.816 -0.2808  0.0507 -0.3716
 1232SOL     OW15157   4.464   2.203   3.747  0.0367  0.0641 -0.2538
 1232SOL    HW115158   4.527   2.248   3.691 -0.8063  0.5633 -0.7943
 1232SOL    HW215159   4.398   2.271   3.759 -1.6117 -1.7210  0.8667
 1233SOL     OW15160   0.679   0.867  15.662 -0.8500  0.0189 -0.3099
 1233SOL    HW115161   0.744   0.833  15.723  0.4332  1.7950 -0.6921
 1233SOL    HW215162   0.642   0.781  15.643 -0.3424 -0.4782  0.9780
 1234SOL     OW15163   4.221   2.936   3.696  0.6550  0.0992 -0.2977
 1234SOL    HW115164   4.187   2.918   3.783 -1.1309  2.2517 -0.5305
 1234SOL    HW215165   4.140   2.938   3.643 -0.2994  0.5709  1.1843
 1235SOL     OW15166   4.582   0.576   2.595  0.4791 -0.1782  0.1045
 1235SOL    HW115167   4.615   0.487   2.587  1.9484  0.4589 -1.0189
 1235SOL    HW215168   4.497   0.567   2.553  0.7427 -1.0234 -0.2476
 1236SOL     OW15169   4.638   2.422   6.328  0.1245  0.6812 -0.2733
 1236SOL    HW115170   4.652   2.424   6.234  0.3101  0.3042 -0.2517
 1236SOL    HW215171   4.550   2.385   6.332  0.2836  0.2462 -0.8657
 1237SOL     OW15172   4.317   4.687   4.068  0.0246 -0.1289 -0.1220
 1237SOL    HW115173   4.281   4.651   3.987  1.4467 -0.0348 -0.7951
 1237SOL    HW215174   4.411   4.671   4.074  0.4105  1.0497 -2.9523
 1238SOL     OW15175   4.236   0.785  15.684 -0.1241 -0.2028 -0.5058
 1238SOL    HW115176   4.222   0.843  15.609  1.0636 -0.0172 -0.5879
 1238SOL    HW215177   4.276   0.712  15.636 -4.2002 -2.2098 -0.7954
 1239SOL     OW15178   0.154   2.230   1.663 -0.2907  0.7354  0.8630
 1239SOL    HW115179   0.149   2.285   1.741  2.0553  2.1491  0.0178
 1239SOL    HW215180   0.212   2.163   1.698  0.2908  1.0591  0.5266
 1240SOL     OW15181   3.478   2.925  12.171  0.5005 -0.7170 -0.4585
 1240SOL    HW115182   3.542   2.854  12.176  1.4152  0.0939 -0.6036
 1240SOL    HW215183   3.457   2.934  12.264 -0.7823 -2.0927 -0.6189
 1241SOL     OW15184   1.579   2.609   8.798  0.3866 -0.4387  0.2053
 1241SOL    HW115185   1.519   2.678   8.769 -1.0064 -1.7272  0.0066
 1241SOL    HW215186   1.663   2.650   8.780  0.4059 -1.0797 -1.1217
 1242SOL     OW15187   2.323   3.825   2.095 -0.0528  0.4313  0.2863
 1242SOL    HW115188   2.334   3.879   2.017  0.4676  1.6401  1.1969
 1242SOL    HW215189   2.355   3.888   2.160 -0.3457 -0.9636  1.7706
 1243SOL     OW15190   4.664   4.354   6.307 -0.6075  0.7872 -0.8454
 1243SOL    HW115191   4.595   4.288   6.293 -1.2628  0.8224  2.1955
 1243SOL    HW215192   4.725   4.317   6.243  0.8089  1.8458 -0.1063
 1244SOL     OW15193   0.744   1.972   4.926  0.0303  0.1019  0.2198
 1244SOL    HW115194   0.774   2.009   4.843  1.2928  1.2716  1.2058
 1244SOL    HW215195   0.821   1.916   4.930  1.1796  1.5932 -0.9609
 1245SOL     OW15196   3.857   4.232  11.120 -0.0308 -0.2587  0.5201
 1245SOL    HW115197   3.925   4.207  11.058  0.3098  0.1146  0.7503
 1245SOL    HW215198   3.898   4.307  11.162 -0.2333  0.7318 -1.0150
 1246SOL     OW15199   1.267   4.252   5.339 -0.2158 -0.0100  0.0605
 1246SOL    HW115200   1.315   4.331   5.363 -0.1248  0.1786 -0.7458
 1246SOL    HW215201   1.207   4.229   5.410  2.7260 -4.3872  1.0604
 1247SOL     OW15202   3.697   0.195   6.715  0.6529 -0.3153 -0.4233
 1247SOL    HW115203   3.605   0.212   6.693  0.8826 -1.0675 -1.9270
 1247SOL    HW215204   3.732   0.284   6.712  0.0439 -0.1264 -1.7522
 1248SOL     OW15205   2.131   4.123   5.880  0.2441 -0.6624  0.4904
 1248SOL    HW115206   2.169   4.045   5.920  0.4100 -1.5420 -1.4204
 1248SOL    HW215207   2.137   4.177   5.959 -2.3506 -0.2859  0.4420
 1249SOL     OW15208   1.988   4.726  13.463  0.4474  0.2569  0.0837
 1249SOL    HW115209   2.053   0.070  13.472  0.2558  0.6347 -1.5004
 1249SOL    HW215210   2.047   4.653  13.479  0.9148  0.5014 -0.5301
 1250SOL     OW15211   0.362   2.733   2.643  0.7923 -0.3501  0.3848
 1250SOL    HW115212   0.275   2.720   2.606  1.2314  1.1273 -1.1534
 1250SOL    HW215213   0.392   2.796   2.577 -0.2616 -1.0285 -0.7273
 1251SOL     OW15214   2.993   3.233   5.615  0.3556 -0.2131 -0.0779
 1251SOL    HW115215   2.956   3.260   5.531 -0.1894  0.2688  0.3223
 1251SOL    HW215216   2.919   3.201   5.666 -0.3536 -1.3393 -1.7872
 1252SOL     OW15217   2.907   0.551   5.279 -0.3212 -0.9721  0.0656
 1252SOL    HW115218   2.845   0.484   5.250 -0.3073 -0.5860 -0.8509
 1252SOL    HW215219   2.968   0.534   5.208  0.3283 -3.5081  1.2303
 1253SOL     OW15220   3.604   4.180  11.073 -0.4787 -0.0679 -0.8439
 1253SOL    HW115221   3.607   4.096  11.028  1.8841 -0.7867  0.6679
 1253SOL    HW215222   3.698   4.187  11.086 -0.6156  0.3211 -0.0789
 1254SOL     OW15223   2.286   3.457   6.709 -0.0529  0.2108  0.1749
 1254SOL    HW115224   2.362   3.513   6.725 -1.7691  2.6204 -0.0831
 1254SOL    HW215225   2.325   3.395   6.647  0.5938 -0.0855  0.8714
 1255SOL     OW15226   2.723   4.265   7.163 -0.5035 -0.6409 -0.2306
 1255SOL    HW115227   2.692   4.343   7.117 -0.6361 -0.1788  0.6380
 1255SOL    HW215228   2.640   4.235   7.200  0.0080 -1.1581  0.5068
 1256SOL     OW15229   1.284   0.273   3.643 -0.3434  0.0718  0.5276
 1256SOL    HW115230   1.369   0.310   3.665  0.2837 -0.7142 -0.5857
 1256SOL    HW215231   1.293   0.254   3.549  0.4120  2.0290  0.1899
 1257SOL     OW15232   4.707   2.303   3.389 -0.0995  0.0424 -0.2738
 1257SOL    HW115233   4.721   2.252   3.469 -0.9121 -0.8441 -0.6989
 1257SOL    HW215234   0.073   2.320   3.370  0.0353 -0.9435 -0.4903
 1258SOL     OW15235   0.823   0.160   3.441  0.0514 -0.5125  0.6583
 1258SOL    HW115236   0.810   0.151   3.347 -1.6608  0.9728  0.7497
 1258SOL    HW215237   0.918   0.171   3.446  0.2036 -0.8355 -1.8140
 1259SOL     OW15238   1.051   4.576   6.062  0.1943 -0.2334 -0.0840
 1259SOL    HW115239   1.129   4.533   6.098 -0.2153  0.2501  1.3867
 1259SOL    HW215240   1.060   4.670   6.083  0.5984 -0.0595 -1.0285
 1260SOL     OW15241   1.541   1.780   4.071  0.6935  0.4360  0.6797
 1260SOL    HW115242   1.487   1.849   4.032  0.4794  0.0977  0.3747
 1260SOL    HW215243   1.625   1.824   4.054  1.5232 -0.5637  2.1872
 1261SOL     OW15244   3.573   2.778   9.176  0.1379 -0.1985  0.3959
 1261SOL    HW115245   3.479   2.782   9.156  0.9692  1.8294 -3.1241
 1261SOL    HW215246   3.598   2.856   9.128  1.0818  0.3825  1.8302
 1262SOL     OW15247   2.127   3.286   5.455 -0.5625 -0.0459 -0.1993
 1262SOL    HW115248   2.062   3.216   5.448  1.0215 -1.6322  0.6557
 1262SOL    HW215249   2.073   3.357   5.422 -0.7788 -0.6185 -1.0615
 1263SOL     OW15250   2.929   0.040   6.888 -0.1347 -0.2874 -0.0660
 1263SOL    HW115251   2.968   0.117   6.930  0.1347 -0.2224 -0.4357
 1263SOL    HW215252   3.009   4.718   6.869  0.3609  0.0761  1.0842
 1264SOL     OW15253   2.856   2.612   6.385  0.2156 -0.1299  0.5341
 1264SOL    HW115254   2.897   2.607   6.299 -2.3528  2.0076 -0.8228
 1264SOL    HW215255   2.865   2.520   6.408 -0.6817 -0.9683 -2.4532
 1265SOL     OW15256   3.276   3.874  11.506  0.4573 -0.1769 -0.3210
 1265SOL    HW115257   3.225   3.797  11.532 -1.1522  0.9061 -0.2969
 1265SOL    HW215258   3.351   3.856  11.564 -1.6098 -2.6079  1.6001
 1266SOL     OW15259   2.757   0.667   1.982  0.2695 -0.1264  0.0896
 1266SOL    HW115260   2.842   0.693   2.017 -0.2888 -0.0269  1.3751
 1266SOL    HW215261   2.759   0.729   1.909 -1.1448 -3.6246 -3.0022
 1267SOL     OW15262   4.150   0.085   7.327 -0.1446  0.0578  0.1759
 1267SOL    HW115263   4.224   0.042   7.285 -1.1612 -0.8085 -0.7338
 1267SOL    HW215264   4.126   0.011   7.383 -0.3459 -0.6322 -0.8181
 1268SOL     OW15265   3.656   0.855   4.016  0.2432  0.0103  0.0981
 1268SOL    HW115266   3.629   0.780   3.964 -2.0498 -0.3593  1.8054
 1268SOL    HW215267   3.736   0.883   3.971  0.1426 -1.2003 -0.8140
 1269SOL     OW15268   4.041   1.861   4.514  0.2102  0.0373 -0.2227
 1269SOL    HW115269   3.980   1.894   4.448 -1.1682 -1.1399  0.4517
 1269SOL    HW215270   3.991   1.784   4.543 -0.8912  1.3776  1.4103
 1270SOL     OW15271   2.899   0.568  16.680 -0.6533  0.1274  0.0843
 1270SOL    HW115272   2.911   0.661  16.662  0.0824 -0.2104 -1.1259
 1270SOL    HW215273   2.858   0.571  16.767 -1.4779  1.1707 -0.3501
 1271SOL     OW15274   4.052   1.563  13.836 -0.0082  0.3320  0.0030
 1271SOL    HW115275   4.126   1.590  13.783  1.4308 -1.9886  0.8153
 1271SOL    HW215276   3.984   1.620  13.801 -0.1015 -0.4759 -1.1392
 1272SOL     OW15277   3.247   2.619   1.193  0.1821 -0.4836 -0.0232
 1272SOL    HW115278   3.222   2.533   1.161 -3.9993  0.8130 -0.2938
 1272SOL    HW215279   3.192   2.675   1.139 -0.3284  1.4632  2.4775
 1273SOL     OW15280   4.335   1.179   3.547  0.1252  0.6257  0.0042
 1273SOL    HW115281   4.341   1.126   3.627 -1.2896 -1.1922 -1.0917
 1273SOL    HW215282   4.327   1.108   3.483  1.6693  0.7263 -0.2808
 1274SOL     OW15283   0.715   4.505  10.770 -0.2803 -0.2941  0.2007
 1274SOL    HW115284   0.790   4.454  10.801 -1.5099 -1.7248  0.8054
 1274SOL    HW215285   0.676   4.530  10.853  0.2297 -1.3650  0.7533
 1275SOL     OW15286   4.684   1.010   0.719 -0.5686  0.1930 -0.1474
 1275SOL    HW115287   4.677   0.970   0.632  0.5328 -0.1018 -0.0972
 1275SOL    HW215288   4.687   1.104   0.701 -3.1891  0.4393  0.6493
 1276SOL     OW15289   2.038   1.840   6.607  0.2083  0.5953 -0.2542
 1276SOL    HW115290   1.978   1.789   6.661  0.4586 -1.4395 -1.8995
 1276SOL    HW215291   2.063   1.778   6.538 -0.4022  0.2744 -0.1934
 1277SOL     OW15292   1.728   0.530  12.261  0.2045 -0.7032  0.7456
 1277SOL    HW115293   1.780   0.601  12.298 -1.2106  0.8395 -0.2416
 1277SOL    HW215294   1.639   0.559  12.280  0.9701  1.7242  0.5493
 1278SOL     OW15295   0.003   4.061   0.363 -0.2422 -0.0723  0.0598
 1278SOL    HW115296   0.015   4.149   0.400 -0.9049  0.3366 -0.6969
 1278SOL    HW215297   0.050   4.008   0.427  0.0240  0.2378  0.1179
 1279SOL     OW15298   2.052   4.175  10.259 -0.1100 -0.6130  0.3869
 1279SOL    HW115299   2.045   4.268  10.278  1.8417 -0.2570 -0.6415
 1279SOL    HW215300   2.147   4.165  10.250  0.0189  0.5400  0.4988
 1280SOL     OW15301   4.458   0.694  13.712  0.4148  0.3957 -0.6206
 1280SOL    HW115302   4.364   0.697  13.691  0.5073 -1.5810 -1.3511
 1280SOL    HW215303   4.473   0.634  13.784  0.7486  1.1755 -0.0399
 1281SOL     OW15304   1.563   0.581   6.752 -0.0585 -0.1196  0.4722
 1281SOL    HW115305   1.528   0.602   6.838  0.7992  1.1001  0.5233
 1281SOL    HW215306   1.604   0.663   6.722 -0.5119  0.2573  0.8903
 1282SOL     OW15307   2.494   3.955   9.073  0.4890  0.0313 -0.5556
 1282SOL    HW115308   2.554   3.943   9.000  1.0197  1.4802 -0.3564
 1282SOL    HW215309   2.546   3.980   9.150 -0.8127 -1.2794  0.7672
 1283SOL     OW15310   2.563   3.796   9.540  0.1470 -0.0370 -0.2163
 1283SOL    HW115311   2.518   3.714   9.519  0.7445 -0.2364 -0.7170
 1283SOL    HW215312   2.522   3.820   9.624 -1.3618 -1.3901 -0.5675
 1284SOL     OW15313   3.654   2.629   6.189  0.5068 -0.1701  0.5502
 1284SOL    HW115314   3.614   2.542   6.185  0.1625  0.0173 -0.1222
 1284SOL    HW215315   3.732   2.611   6.136  1.0767  0.7389  1.1029
 1285SOL     OW15316   3.686   4.596   7.934  0.2443 -0.1911 -0.2491
 1285SOL    HW115317   3.678   4.537   8.009  1.9468  0.7651  0.6908
 1285SOL    HW215318   3.762   4.548   7.901  1.4510 -0.4250  2.8195
 1286SOL     OW15319   0.644   3.149   4.590  0.0966  0.2985  0.2649
 1286SOL    HW115320   0.642   3.114   4.501 -1.0847 -0.1261  0.4553
 1286SOL    HW215321   0.673   3.239   4.577  0.8793  0.0591  0.3643
 1287SOL     OW15322   0.352   4.169   1.632 -0.0868 -0.0223  0.7674
 1287SOL    HW115323   0.306   4.223   1.567  1.8428  0.6832 -0.0330
 1287SOL    HW215324   0.393   4.102   1.577  0.2701  0.8997 -0.0992
 1288SOL     OW15325   0.652   4.349   8.492  0.2098  0.1363 -0.2896
 1288SOL    HW115326   0.582   4.370   8.430 -0.7946  2.5857  1.6555
 1288SOL    HW215327   0.623   4.397   8.570  1.1109 -0.4671  0.4063
 1289SOL     OW15328   4.598   0.984   7.663 -0.0033  0.2852  0.0749
 1289SOL    HW115329   4.576   0.896   7.695 -0.9318  1.5994  3.0489
 1289SOL    HW215330   4.693   0.987   7.673 -0.0256 -0.2402  0.5027
 1290SOL     OW15331   3.532   4.440   8.414  0.2504 -0.3791  0.1011
 1290SOL    HW115332   3.523   4.413   8.505 -1.1888 -3.2271 -0.8774
 1290SOL    HW215333   3.470   4.513   8.413 -1.6378 -1.9742  0.1770
 1291SOL     OW15334   4.155   2.695  14.690 -0.4078  0.1252 -0.4862
 1291SOL    HW115335   4.213   2.743  14.630  0.8247 -0.6979  0.0412
 1291SOL    HW215336   4.070   2.715  14.651 -1.1539  0.1174  1.1385
 1292SOL     OW15337   4.373   2.374  13.195 -0.7975 -0.0373 -0.4949
 1292SOL    HW115338   4.406   2.302  13.140 -1.1525  0.5974 -1.5423
 1292SOL    HW215339   4.412   2.451  13.154  1.3964 -1.4588 -1.0814
 1293SOL     OW15340   4.138   0.076   6.500  0.0061  0.2197 -0.4551
 1293SOL    HW115341   4.089   0.137   6.445 -2.5543 -1.6340 -0.2442
 1293SOL    HW215342   4.077   0.078   6.573  2.2475  1.0049  1.3925
 1294SOL     OW15343   3.918   3.673   6.144 -0.3127  0.0129  0.2300
 1294SOL    HW115344   3.941   3.627   6.063  0.3140 -1.1282  1.0571
 1294SOL    HW215345   3.840   3.626   6.173 -1.3759  0.6615 -1.6168
 1295SOL     OW15346   0.277   0.308   7.692  0.0672 -0.3629  0.8198
 1295SOL    HW115347   0.224   0.387   7.695 -2.4740 -2.0502 -0.2043
 1295SOL    HW215348   0.367   0.339   7.683 -0.9676  2.6406  0.8908
 1296SOL     OW15349   0.573   3.444  15.841 -0.4159  0.3435 -0.0722
 1296SOL    HW115350   0.549   3.486  15.758  0.8992 -1.2751 -1.2699
 1296SOL    HW215351   0.659   3.407  15.820 -0.1778  0.6662  0.3420
 1297SOL     OW15352   0.081   2.383  10.224 -0.1446  0.3585  0.3366
 1297SOL    HW115353   0.170   2.399  10.192 -1.3129  0.0159 -3.0668
 1297SOL    HW215354   0.071   2.450  10.292  2.2312 -0.6465  1.7067
 1298SOL     OW15355   4.329   0.405  16.211 -0.6053 -0.5072  0.1148
 1298SOL    HW115356   4.364   0.397  16.122 -1.3621 -0.5448 -0.1854
 1298SOL    HW215357   4.302   0.314  16.226 -2.1479 -0.2011 -0.7513
 1299SOL     OW15358   3.267   1.233   8.481 -0.2037  0.0213  0.3559
 1299SOL    HW115359   3.346   1.197   8.439 -0.6467 -1.7193  1.0025
 1299SOL    HW215360   3.290   1.215   8.572  0.8092  0.2361  0.1403
 1300SOL     OW15361   2.102   4.726   5.067 -0.0434 -0.3344  0.6936
 1300SOL    HW115362   2.014   0.037   5.062 -0.6724 -1.5824  2.7465
 1300SOL    HW215363   2.102   4.693   5.157 -0.7434 -2.3231 -0.0328
 1301SOL     OW15364   0.704   0.938   9.053  0.1485  0.2520 -0.0190
 1301SOL    HW115365   0.741   1.007   8.998  1.1646 -0.4596 -0.2280
 1301SOL    HW215366   0.711   0.989   9.134  0.8538  2.5191 -1.4972
 1302SOL     OW15367   3.825   0.392  12.639 -0.1968 -0.7566  0.3147
 1302SOL    HW115368   3.876   0.456  12.689 -0.1544 -0.8182  0.3517
 1302SOL    HW215369   3.898   0.358  12.587  0.4531 -0.5438  1.0708
 1303SOL     OW15370   3.100   1.097   5.357  0.0868  0.2926 -0.6625
 1303SOL    HW115371   3.060   1.082   5.272 -0.3608 -2.3957  0.0426
 1303SOL    HW215372   3.049   1.170   5.394  2.5998  0.1773  3.0446
 1304SOL     OW15373   3.664   3.651   7.489  0.4047 -0.6759  0.1212
 1304SOL    HW115374   3.573   3.628   7.511  0.3832  0.7835  1.5502
 1304SOL    HW215375   3.641   3.714   7.421  0.0106  0.3343  1.1773
 1305SOL     OW15376   1.575   2.835   2.642 -0.0242  0.1790 -0.0535
 1305SOL    HW115377   1.619   2.915   2.613  1.5511  0.2583  2.6396
 1305SOL    HW215378   1.652   2.780   2.631  0.1617  0.6962 -1.4521
 1306SOL     OW15379   0.251   3.390   5.509  1.4579 -0.0880  0.4151
 1306SOL    HW115380   0.234   3.467   5.564 -0.1844  0.1751 -0.4828
 1306SOL    HW215381   0.197   3.322   5.549  2.2555 -0.9644 -0.0225
 1307SOL     OW15382   4.725   3.100   5.276 -0.3655  0.1178 -0.1604
 1307SOL    HW115383   0.059   3.026   5.277 -0.6687 -0.1133  0.4994
 1307SOL    HW215384   0.022   3.145   5.194  2.6900 -2.2516 -0.6023
 1308SOL     OW15385   3.302   4.266  14.091  0.2705 -0.3593 -0.0149
 1308SOL    HW115386   3.221   4.310  14.062  0.2377  0.0268  0.6620
 1308SOL    HW215387   3.359   4.339  14.117 -1.1810  0.3337  1.2322
 1309SOL     OW15388   0.861   3.260   8.580  0.2475  0.8101 -0.4149
 1309SOL    HW115389   0.871   3.355   8.572 -0.0630  0.8848  0.0675
 1309SOL    HW215390   0.866   3.232   8.488  0.8286  2.2899 -0.8391
 1310SOL     OW15391   2.212   4.102   2.674 -0.1217  0.1784 -0.0956
 1310SOL    HW115392   2.297   4.130   2.707 -0.7236  2.3540 -0.4338
 1310SOL    HW215393   2.167   4.057   2.746 -2.9837 -0.2843 -2.1720
 1311SOL     OW15394   0.510   1.899   4.630  0.1989  0.3731 -1.0759
 1311SOL    HW115395   0.537   1.808   4.644 -0.0795  0.8773  2.8927
 1311SOL    HW215396   0.594   1.938   4.606  0.2812 -0.5128 -2.2301
 1312SOL     OW15397   2.692   2.280  16.568  0.0359  0.4728 -0.4643
 1312SOL    HW115398   2.713   2.373  16.577  1.9559  0.2427 -2.4874
 1312SOL    HW215399   2.602   2.278  16.599  0.4409  1.9217  0.8037
 1313SOL     OW15400   1.192   1.213   4.909 -0.3004 -0.6008  0.2815
 1313SOL    HW115401   1.128   1.265   4.959  0.3766  0.4689  0.0453
 1313SOL    HW215402   1.188   1.245   4.819 -1.2048  2.0048  1.2277
 1314SOL     OW15403   0.777   2.884   0.237  0.5247  0.1355  0.0154
 1314SOL    HW115404   0.727   2.928   0.169 -0.4670  1.5081  1.6169
 1314SOL    HW215405   0.781   2.947   0.310  1.0844 -1.2125  1.1565
 1315SOL     OW15406   0.330   2.816   6.735 -0.0568  0.4162 -0.1373
 1315SOL    HW115407   0.280   2.784   6.659 -0.6777  0.8493  0.0876
 1315SOL    HW215408   0.416   2.828   6.695 -0.4522  1.6670 -0.5934
 1316SOL     OW15409   2.294   4.621   6.710  0.1601 -0.2352 -0.8861
 1316SOL    HW115410   2.235   4.560   6.754  0.8757  0.1140  0.5741
 1316SOL    HW215411   2.358   4.558   6.675  0.3337 -1.1496  1.0786
 1317SOL     OW15412   1.235   0.408   6.142  0.2951 -0.4907  0.7486
 1317SOL    HW115413   1.266   0.495   6.118  0.4004 -0.9710 -0.8542
 1317SOL    HW215414   1.180   0.384   6.068  1.4918 -0.9345  0.0022
 1318SOL     OW15415   3.582   4.211   3.506  0.5502  0.1476  0.7177
 1318SOL    HW115416   3.576   4.291   3.558  0.5618 -0.0714  1.0573
 1318SOL    HW215417   3.518   4.242   3.442  2.2897  0.1764 -1.0370
 1319SOL     OW15418   3.367   0.702   9.308 -0.6462  0.4431 -0.2474
 1319SOL    HW115419   3.445   0.706   9.253 -0.5294 -0.9388 -0.1713
 1319SOL    HW215420   3.317   0.783   9.294  1.9054  1.7089 -1.9327
 1320SOL     OW15421   2.434   2.019   0.319  0.0039 -0.1969  0.5702
 1320SOL    HW115422   2.433   1.996   0.226 -0.0956 -0.4732  0.6401
 1320SOL    HW215423   2.404   2.110   0.319  1.7693  0.3741  1.1400
 1321SOL     OW15424   2.800   1.578   7.957 -0.4545 -0.2429 -0.4022
 1321SOL    HW115425   2.893   1.589   7.936 -0.5072  0.7291 -0.0955
 1321SOL    HW215426   2.784   1.664   7.996  0.2686 -0.4972  0.4547
 1322SOL     OW15427   1.435   3.933  14.224  0.2043  0.5568  0.1143
 1322SOL    HW115428   1.493   3.994  14.270  0.4413  0.0504  0.4900
 1322SOL    HW215429   1.494   3.875  14.176 -0.5541  2.0065 -2.5445
 1323SOL     OW15430   3.631   4.176   8.122  0.3257  0.4340 -0.6113
 1323SOL    HW115431   3.653   4.110   8.057  1.4963 -0.3759  0.6121
 1323SOL    HW215432   3.577   4.119   8.177  1.5084 -0.3448 -0.2776
 1324SOL     OW15433   4.065   2.642   0.915  0.3894  0.3350  0.4955
 1324SOL    HW115434   4.073   2.652   0.820 -1.0738 -1.0858  0.2332
 1324SOL    HW215435   3.984   2.686   0.940  0.2809  0.9515 -0.9240
 1325SOL     OW15436   3.977   0.989  16.959  0.9187  0.6315  0.1266
 1325SOL    HW115437   4.021   1.044  16.894  0.4550  0.3405 -0.4362
 1325SOL    HW215438   3.892   0.971  16.918  0.9628  0.1475  0.2448
 1326SOL     OW15439   4.120   3.107   0.303  0.3695  0.0707  0.3105
 1326SOL    HW115440   4.120   3.137   0.212 -0.7014 -1.2549 -0.1304
 1326SOL    HW215441   4.190   3.159   0.342 -1.0935  3.4911 -1.6309
 1327SOL     OW15442   4.132   2.267  12.605 -0.9842 -0.2879  0.6129
 1327SOL    HW115443   4.062   2.325  12.635 -0.6531  1.7552 -2.6056
 1327SOL    HW215444   4.086   2.184  12.595  0.1828 -1.1115  2.0937
 1328SOL     OW15445   3.077   2.957   1.807  0.5358  0.0437 -0.1213
 1328SOL    HW115446   3.031   2.874   1.822 -2.1679  1.7630  1.0336
 1328SOL    HW215447   3.025   3.014   1.863 -1.2481 -2.5872  0.9188
 1329SOL     OW15448   1.212   2.848   4.186  0.2885 -0.5139 -0.1351
 1329SOL    HW115449   1.220   2.943   4.181 -0.5498 -0.4548 -0.2937
 1329SOL    HW215450   1.230   2.817   4.097  0.9704 -1.4655  0.3320
 1330SOL     OW15451   3.363   2.050   8.583 -0.1016  0.0057 -0.2673
 1330SOL    HW115452   3.368   1.955   8.578 -0.6307 -0.0351  0.0527
 1330SOL    HW215453   3.437   2.071   8.640  0.8564 -1.8750 -0.8423
 1331SOL     OW15454   3.190   4.538   3.727  0.2745  0.1131 -0.0661
 1331SOL    HW115455   3.191   4.567   3.636 -0.5513 -0.1090 -0.1465
 1331SOL    HW215456   3.159   4.449   3.711 -0.0595  0.1754  0.2232
 1332SOL     OW15457   1.566   3.664  12.254 -0.1633  0.2203  0.7197
 1332SOL    HW115458   1.498   3.731  12.253 -1.6659 -1.3004  0.7399
 1332SOL    HW215459   1.517   3.582  12.258  0.2098  0.0081  1.0502
 1333SOL     OW15460   4.440   4.058   7.023 -0.2966  0.6347 -0.0075
 1333SOL    HW115461   4.397   3.993   7.079  1.3936 -0.9778 -0.5946
 1333SOL    HW215462   4.501   3.995   6.984  0.2399  1.7014 -0.8832
 1334SOL     OW15463   4.214   3.884   3.758  0.1764  0.3984  0.3830
 1334SOL    HW115464   4.256   3.967   3.737  1.3015 -1.2029 -3.7886
 1334SOL    HW215465   4.287   3.822   3.753  0.0055  0.0258  2.3599
 1335SOL     OW15466   3.493   2.056  12.905  0.1988 -0.2587 -0.3558
 1335SOL    HW115467   3.494   1.961  12.899 -0.0284 -0.2164 -1.1667
 1335SOL    HW215468   3.409   2.084  12.869  0.0506 -1.5645 -1.0383
 1336SOL     OW15469   3.650   2.566   3.651  0.1506  0.3773  0.1004
 1336SOL    HW115470   3.726   2.563   3.708  0.3404 -0.5941 -0.2070
 1336SOL    HW215471   3.596   2.505   3.702  0.7422  0.4045  0.7449
 1337SOL     OW15472   3.757   1.221  16.308 -0.0442  0.0211  0.2380
 1337SOL    HW115473   3.799   1.136  16.318 -0.3987 -0.0309  1.2915
 1337SOL    HW215474   3.715   1.231  16.394  2.2335 -1.0807  1.4763
 1338SOL     OW15475   4.083   2.074  14.751  0.0300  0.2407 -0.5635
 1338SOL    HW115476   4.128   1.990  14.767 -1.4634 -0.4646 -0.1045
 1338SOL    HW215477   4.055   2.101  14.838  0.2730 -2.6388  0.4295
 1339SOL     OW15478   0.532   2.122  11.746 -0.0688  0.6137 -0.4314
 1339SOL    HW115479   0.620   2.157  11.759 -0.3521  0.8636  0.8323
 1339SOL    HW215480   0.495   2.134  11.834  3.9593  2.3213  1.0275
 1340SOL     OW15481   3.689   1.631   0.635  0.2350 -0.2934  0.2082
 1340SOL    HW115482   3.650   1.543   0.635 -0.4907  0.0201  1.5505
 1340SOL    HW215483   3.619   1.687   0.601  2.0495  0.5312 -2.1222
 1341SOL     OW15484   4.534   1.719   7.195  0.4468  0.2389 -0.1949
 1341SOL    HW115485   4.556   1.783   7.262 -3.0142  2.8729 -1.5782
 1341SOL    HW215486   4.541   1.769   7.113 -0.3954 -0.9832 -1.0148
 1342SOL     OW15487   0.551   2.806   8.461 -0.1888 -0.3362  0.3655
 1342SOL    HW115488   0.597   2.844   8.536 -0.8024 -0.0516  0.5964
 1342SOL    HW215489   0.496   2.880   8.434  1.6598  0.9456  0.0488
 1343SOL     OW15490   2.283   1.943   8.924 -0.2293  0.0301 -0.4140
 1343SOL    HW115491   2.238   1.973   8.845 -0.6501  0.6825  0.0800
 1343SOL    HW215492   2.213   1.940   8.988 -1.2083 -0.5363 -1.5091
 1344SOL     OW15493   2.322   1.912  13.059  0.3133  0.1615  0.5636
 1344SOL    HW115494   2.298   1.833  13.108  1.1134 -1.5105 -1.7314
 1344SOL    HW215495   2.251   1.961  13.100  0.0324 -2.2861  3.0718
 1345SOL     OW15496   0.846   4.378   7.938  0.3915 -0.3391 -0.3689
 1345SOL    HW115497   0.876   4.288   7.922 -1.1767 -0.7224 -1.2151
 1345SOL    HW215498   0.814   4.381   8.028  0.0038  0.8228 -0.5419
 1346SOL     OW15499   4.287   2.428   3.853 -0.0539 -0.5326  0.2927
 1346SOL    HW115500   4.320   2.501   3.800 -0.4584 -2.1674 -2.2197
 1346SOL    HW215501   4.356   2.432   3.919 -2.0645 -0.4173  2.4060
 1347SOL     OW15502   1.494   4.037   3.690  0.5409 -0.4381  0.0499
 1347SOL    HW115503   1.500   4.121   3.736 -1.5703 -0.1180 -0.2467
 1347SOL    HW215504   1.578   4.002   3.717  1.0404  0.4887 -0.3085
 1348SOL     OW15505   1.786   1.205   7.596 -0.3984  0.4334  0.6282
 1348SOL    HW115506   1.817   1.240   7.679 -0.9386  0.6248  0.7502
 1348SOL    HW215507   1.693   1.229   7.594 -0.1839  1.3620  2.7417
 1349SOL     OW15508   4.436   0.516   8.650  0.1471  0.0750  0.2456
 1349SOL    HW115509   4.383   0.589   8.618  0.2728 -0.0643 -0.2699
 1349SOL    HW215510   4.475   0.565   8.723 -0.7427  0.1520  0.6668
 1350SOL     OW15511   0.530   2.618  11.411  0.7866 -0.1396  0.0358
 1350SOL    HW115512   0.470   2.686  11.379 -0.5401 -0.7123  1.3250
 1350SOL    HW215513   0.595   2.667  11.462  0.7754 -1.0562  0.9238
 1351SOL     OW15514   1.128   2.110   3.495  0.0220  0.2221  0.2312
 1351SOL    HW115515   1.149   2.202   3.509 -0.6987  0.2737  0.9806
 1351SOL    HW215516   1.053   2.106   3.554  1.0319 -1.8048  1.3781
 1352SOL     OW15517   3.731   3.566   6.870 -0.2054  0.1302  0.1391
 1352SOL    HW115518   3.781   3.643   6.843 -0.6400  0.8767  1.4755
 1352SOL    HW215519   3.717   3.525   6.785  1.1057 -1.7980  0.8468
 1353SOL     OW15520   4.282   0.776   3.535  0.3192 -0.2346  0.4466
 1353SOL    HW115521   4.295   0.847   3.473 -1.6903 -0.7306 -0.5436
 1353SOL    HW215522   4.356   0.798   3.592  2.0149  0.6997 -2.1214
 1354SOL     OW15523   3.448   1.792   2.640 -0.0556 -0.6529 -0.2893
 1354SOL    HW115524   3.422   1.814   2.730 -1.1823 -1.3123 -0.4592
 1354SOL    HW215525   3.435   1.876   2.596 -1.7478  0.2137  1.8616
 1355SOL     OW15526   3.481   2.174  16.454 -0.4765  0.4663  0.4200
 1355SOL    HW115527   3.521   2.111  16.515  1.2074  2.9164  1.8708
 1355SOL    HW215528   3.550   2.165  16.388  0.7006 -0.8616  1.8215
 1356SOL     OW15529   0.327   2.354   2.385  0.0078  0.1588 -0.1318
 1356SOL    HW115530   0.248   2.406   2.403 -1.6257 -2.8059  1.1957
 1356SOL    HW215531   0.327   2.370   2.291 -1.3012  0.1678 -0.1353
 1357SOL     OW15532   1.767   3.812   4.117  0.8520  0.3915  0.3091
 1357SOL    HW115533   1.679   3.787   4.145  0.7732 -1.1517 -1.3617
 1357SOL    HW215534   1.758   3.787   4.025 -0.0264  1.5065  0.0918
 1358SOL     OW15535   0.691   2.895   1.654  0.0245  0.3549  0.1634
 1358SOL    HW115536   0.636   2.897   1.576  0.4365  0.7314 -0.1199
 1358SOL    HW215537   0.767   2.941   1.617  1.1104 -0.5434  1.2862
 1359SOL     OW15538   2.986   1.519   7.528  0.5886  0.0761 -0.4096
 1359SOL    HW115539   2.891   1.520   7.535  0.5586 -0.1350 -0.7834
 1359SOL    HW215540   3.008   1.431   7.561 -0.9496  0.3129  1.2601
 1360SOL     OW15541   1.767   0.859   8.126 -0.3906 -0.0618 -0.5888
 1360SOL    HW115542   1.800   0.931   8.072  3.6171 -2.4508 -1.3748
 1360SOL    HW215543   1.771   0.905   8.210  0.1196  2.5034 -2.0209
 1361SOL     OW15544   0.033   0.881   8.005 -0.1189 -0.2191 -0.2166
 1361SOL    HW115545   0.045   0.791   8.037 -1.1392 -0.4843 -0.5581
 1361SOL    HW215546   0.106   0.908   7.950  0.4502 -1.3700 -0.0290
 1362SOL     OW15547   1.365   2.979   4.622  0.2441 -0.1646  0.1139
 1362SOL    HW115548   1.315   3.050   4.581 -1.2990 -0.3581  1.6444
 1362SOL    HW215549   1.424   2.961   4.550  2.2943  0.4454  1.6494
 1363SOL     OW15550   2.099   3.216   4.165  0.3455 -0.1954  0.1519
 1363SOL    HW115551   2.093   3.239   4.258  0.9620  0.1747  0.0979
 1363SOL    HW215552   2.006   3.205   4.148 -0.0112 -0.9894  2.5818
 1364SOL     OW15553   1.283   4.466   5.629 -0.2413  0.6589  0.1726
 1364SOL    HW115554   1.362   4.508   5.662  1.0846 -1.3411 -0.4257
 1364SOL    HW215555   1.239   4.542   5.592  1.1412  0.9856 -0.8322
 1365SOL     OW15556   2.517   2.696  14.973  0.2228  0.3310  0.0775
 1365SOL    HW115557   2.494   2.783  14.940  1.2955 -0.2620 -2.1982
 1365SOL    HW215558   2.433   2.662  15.005 -0.3424  0.7966 -0.9367
 1366SOL     OW15559   0.100   2.728   1.505  0.3722 -0.2806  0.1471
 1366SOL    HW115560   0.034   2.678   1.553 -1.9281 -0.3863 -3.1327
 1366SOL    HW215561   0.046   2.798   1.468  1.8051  0.2706 -0.8768
 1367SOL     OW15562   2.331   4.266   5.264  0.6630  0.5323  0.8917
 1367SOL    HW115563   2.361   4.357   5.255 -0.8841  0.8862 -0.7599
 1367SOL    HW215564   2.397   4.223   5.210 -0.0594 -0.3280  0.6951
 1368SOL     OW15565   1.075   3.378  14.201  0.6865  0.0190 -0.1481
 1368SOL    HW115566   1.168   3.377  14.180  0.6230  0.5522 -0.4500
 1368SOL    HW215567   1.064   3.473  14.199 -1.7403 -0.2492 -0.2962
 1369SOL     OW15568   3.892   4.483   6.793 -0.4840  0.0279 -0.2220
 1369SOL    HW115569   3.902   4.419   6.723 -0.0500 -1.2688  1.0253
 1369SOL    HW215570   3.980   4.510   6.819 -0.9250 -0.9470  2.3329
 1370SOL     OW15571   0.091   1.860   1.884  0.0961 -0.4122 -0.0076
 1370SOL    HW115572   0.061   1.778   1.922 -0.9628 -0.0561 -0.0871
 1370SOL    HW215573   0.030   1.920   1.926  0.5179 -1.9005  2.6903
 1371SOL     OW15574   1.775   0.188  10.175 -0.1201  0.3985  0.0576
 1371SOL    HW115575   1.788   0.198  10.081 -1.1030 -1.1160 -0.2497
 1371SOL    HW215576   1.814   0.267  10.212  0.8988 -0.9347  1.8372
 1372SOL     OW15577   0.342   0.085   9.394 -0.2762 -0.1179 -0.1351
 1372SOL    HW115578   0.384   0.026   9.457 -1.1145 -1.2347 -0.6308
 1372SOL    HW215579   0.411   0.106   9.330  0.1760 -0.9954  0.0744
 1373SOL     OW15580   2.632   3.627   3.931  0.1586 -0.2717  0.4682
 1373SOL    HW115581   2.644   3.591   4.018 -0.8476 -1.1417  0.2365
 1373SOL    HW215582   2.551   3.583   3.907  0.9502 -1.4805 -0.0166
 1374SOL     OW15583   4.094   0.260  10.092 -0.0162  0.0964  0.2332
 1374SOL    HW115584   4.094   0.349  10.127  1.5485  0.2936 -0.2638
 1374SOL    HW215585   4.167   0.235  10.148  0.3624  0.5871 -0.0383
 1375SOL     OW15586   2.245   1.895   2.776 -0.0901  0.0806  0.2529
 1375SOL    HW115587   2.223   1.965   2.837  1.4377 -0.3626  1.3146
 1375SOL    HW215588   2.268   1.944   2.697 -3.1087  1.7511  0.4418
 1376SOL     OW15589   3.040   4.073   2.529 -0.1805  0.0983  0.0773
 1376SOL    HW115590   3.098   4.002   2.557 -0.0898 -0.0977 -0.6162
 1376SOL    HW215591   3.016   4.034   2.445 -0.6506 -0.0100  0.2619
 1377SOL     OW15592   2.674   1.858   7.741  0.1708  0.2348  1.0519
 1377SOL    HW115593   2.725   1.804   7.801  2.5101  0.3991 -0.8092
 1377SOL    HW215594   2.649   1.928   7.802 -0.5601  0.7121  0.2184
 1378SOL     OW15595   3.115   0.889  16.173 -0.1213 -0.8043 -0.9743
 1378SOL    HW115596   3.099   0.890  16.267 -1.1836 -0.0449 -1.1656
 1378SOL    HW215597   3.030   0.855  16.144 -0.1155 -0.6936 -1.1216
 1379SOL     OW15598   2.163   3.457   7.207  0.2986 -0.6850 -0.1005
 1379SOL    HW115599   2.142   3.407   7.285  1.3921 -1.5349 -0.3591
 1379SOL    HW215600   2.218   3.398   7.156  0.4061 -1.5246  0.9824
 1380SOL     OW15601   3.230   2.573   7.462  0.1227  0.0838  0.7447
 1380SOL    HW115602   3.154   2.536   7.419  0.5237 -2.2365  2.0128
 1380SOL    HW215603   3.293   2.503   7.443 -2.6593 -2.6680  1.6956
 1381SOL     OW15604   1.921   0.271   3.125  0.7043  0.7800 -0.0876
 1381SOL    HW115605   1.909   0.227   3.209  0.5898 -1.2341 -1.1505
 1381SOL    HW215606   1.895   0.360   3.147 -2.3756  0.3946 -2.1429
 1382SOL     OW15607   2.287   1.070   2.932  0.0289 -0.1200 -0.1034
 1382SOL    HW115608   2.374   1.035   2.910 -0.1052 -0.4949 -0.0210
 1382SOL    HW215609   2.241   1.072   2.848  0.2382 -1.2212 -0.2466
 1383SOL     OW15610   1.259   2.799   3.927 -0.3662  0.1379 -0.3188
 1383SOL    HW115611   1.179   2.840   3.896 -0.7668  0.3635  1.0365
 1383SOL    HW215612   1.321   2.860   3.886  1.7695 -0.0497  2.6051
 1384SOL     OW15613   2.116   0.139   7.905  0.4812  0.2405  0.1209
 1384SOL    HW115614   2.093   0.057   7.860 -0.8445  0.2726  0.7558
 1384SOL    HW215615   2.064   0.128   7.984 -1.7659  1.9893 -1.1163
 1385SOL     OW15616   2.249   3.440  16.743  0.3081 -0.1471  0.1957
 1385SOL    HW115617   2.170   3.482  16.711 -0.1994  0.3703  2.1197
 1385SOL    HW215618   2.217   3.389  16.817 -0.1050 -0.2507 -0.0523
 1386SOL     OW15619   2.777   3.354   5.456  0.4911 -0.2463  1.0766
 1386SOL    HW115620   2.681   3.361   5.449  0.5530 -0.1846  0.2760
 1386SOL    HW215621   2.796   3.447   5.467  1.6596 -0.2883 -0.6981
 1387SOL     OW15622   4.628   0.257  15.574  0.0443 -0.4414  0.0340
 1387SOL    HW115623   4.587   0.318  15.513  2.2483  0.1885 -0.7868
 1387SOL    HW215624   4.618   0.296  15.661  2.1650 -0.0295  0.0798
 1388SOL     OW15625   3.116   2.259  15.863 -0.0617  0.0704 -0.1988
 1388SOL    HW115626   3.085   2.342  15.828  0.4483 -0.0249 -0.8611
 1388SOL    HW215627   3.162   2.288  15.942 -1.3562  0.9464  0.2505
 1389SOL     OW15628   0.027   3.205   8.102 -0.1213 -0.0929 -0.0517
 1389SOL    HW115629   0.032   3.220   8.197 -0.9029 -0.5652  0.0672
 1389SOL    HW215630   4.667   3.169   8.120 -1.2377  2.3316 -0.5365
 1390SOL     OW15631   1.954   3.282  14.919 -0.5878 -0.0004  0.0673
 1390SOL    HW115632   1.985   3.336  14.846 -0.0314  0.5123  0.6831
 1390SOL    HW215633   1.911   3.346  14.976  3.5510  0.8274  2.2545
 1391SOL     OW15634   4.039   1.530  12.320  0.5985  0.3988 -0.0708
 1391SOL    HW115635   3.966   1.515  12.260  0.0559 -1.5542  1.0760
 1391SOL    HW215636   4.062   1.437  12.331  0.4167  0.4840  1.0036
 1392SOL     OW15637   3.395   2.782   2.845  0.3678 -0.0488 -0.0736
 1392SOL    HW115638   3.473   2.833   2.867  0.2992  0.4533 -1.0145
 1392SOL    HW215639   3.428   2.725   2.776 -0.7812  1.9446 -2.2818
 1393SOL     OW15640   0.257   0.520   4.315  0.0222 -0.0327  0.3625
 1393SOL    HW115641   0.192   0.574   4.360  0.1920 -0.4978  1.1764
 1393SOL    HW215642   0.207   0.478   4.245  0.1801 -0.0861  0.2833
 1394SOL     OW15643   1.607   0.305   7.904 -0.0350  0.2449  0.0906
 1394SOL    HW115644   1.580   0.288   7.994  0.8969 -2.3512 -0.1219
 1394SOL    HW215645   1.522   0.329   7.867  0.0210  0.5502  0.1588
 1395SOL     OW15646   3.881   3.350   7.201  0.0485  0.0636 -0.3485
 1395SOL    HW115647   3.890   3.298   7.120 -2.3011 -0.3781 -0.3083
 1395SOL    HW215648   3.811   3.312   7.253 -0.4792 -0.6982 -1.6080
 1396SOL     OW15649   0.134   2.343   2.182 -0.1853  0.1382 -0.5857
 1396SOL    HW115650   0.144   2.256   2.144  3.9855 -0.1371  1.1372
 1396SOL    HW215651   0.045   2.335   2.214 -0.2864 -2.1882 -1.4598
 1397SOL     OW15652   0.926   2.872   3.308 -0.4121 -0.1860  0.1039
 1397SOL    HW115653   1.009   2.839   3.341 -0.0283  0.5953 -0.0811
 1397SOL    HW215654   0.936   2.855   3.214 -2.3268 -3.1327  0.4336
 1398SOL     OW15655   2.039   2.511   8.383 -0.1418  0.2276  0.2180
 1398SOL    HW115656   2.092   2.590   8.394  0.1780 -0.2834  2.3358
 1398SOL    HW215657   1.956   2.547   8.354 -0.3656 -0.4184  0.0522
 1399SOL     OW15658   1.240   1.959   2.135  0.0628  0.3969 -0.4140
 1399SOL    HW115659   1.173   1.922   2.078 -0.5433  1.3605 -0.3263
 1399SOL    HW215660   1.318   1.912   2.106 -1.5765 -2.5852  0.1068
 1400SOL     OW15661   0.477   0.782  16.316  0.3054 -0.5411 -0.3562
 1400SOL    HW115662   0.412   0.713  16.330 -2.9440  2.5574  0.0659
 1400SOL    HW215663   0.545   0.716  16.303  0.7916 -0.3728  1.4327
 1401SOL     OW15664   4.060   0.575   2.552 -0.5623 -0.3445  0.4773
 1401SOL    HW115665   4.019   0.490   2.571 -0.9491 -0.2061  0.2507
 1401SOL    HW215666   3.980   0.626   2.565 -0.2607 -0.8175  4.4433
 1402SOL     OW15667   3.787   3.461  10.455 -0.3864  0.0388 -0.3191
 1402SOL    HW115668   3.739   3.486  10.533  0.8230  0.6237  0.2345
 1402SOL    HW215669   3.834   3.384  10.485  0.2822  1.8880  3.3404
 1403SOL     OW15670   1.295   4.512   3.092  0.9823  0.0577  0.5699
 1403SOL    HW115671   1.317   4.436   3.037 -2.2138 -1.3791  1.2910
 1403SOL    HW215672   1.223   4.552   3.044  0.3516  1.5677  2.8205
 1404SOL     OW15673   1.263   0.916  14.321  0.4260 -0.1176 -0.0347
 1404SOL    HW115674   1.226   0.889  14.405 -0.3126  0.1526 -0.2703
 1404SOL    HW215675   1.310   0.996  14.346 -1.0027  0.5746  0.4393
 1405SOL     OW15676   4.114   1.599   9.097 -0.3273 -0.2248  0.0992
 1405SOL    HW115677   4.096   1.616   9.189 -1.4431 -0.3344 -0.0929
 1405SOL    HW215678   4.065   1.517   9.091 -1.3024  0.3089  0.6123
 1406SOL     OW15679   2.402   1.842   0.842 -0.0897  0.3456  0.2947
 1406SOL    HW115680   2.480   1.841   0.898  0.4865  1.1617 -0.4902
 1406SOL    HW215681   2.421   1.919   0.789 -0.1408  0.3710  0.3126
 1407SOL     OW15682   3.321   4.235   0.812 -0.0026 -0.5674 -0.4728
 1407SOL    HW115683   3.311   4.205   0.722 -0.4350  1.1477 -0.9953
 1407SOL    HW215684   3.336   4.329   0.809  1.1644 -0.7874 -1.4272
 1408SOL     OW15685   0.604   1.984   4.129  0.3169 -0.1662 -0.5309
 1408SOL    HW115686   0.590   1.911   4.190 -2.4680 -0.1449 -1.1613
 1408SOL    HW215687   0.576   2.056   4.185  0.5472 -0.0487 -0.5658
 1409SOL     OW15688   0.384   1.527   3.989 -0.1034  0.6236 -0.1319
 1409SOL    HW115689   0.322   1.509   3.918  0.2775  0.4681 -0.4229
 1409SOL    HW215690   0.458   1.556   3.937 -0.5995 -0.3740 -1.4147
 1410SOL     OW15691   0.858   1.248   1.124  0.2133  0.3578 -0.5156
 1410SOL    HW115692   0.792   1.229   1.058  0.8250 -0.0110 -1.0196
 1410SOL    HW215693   0.940   1.267   1.078 -0.1171 -1.3274 -1.7957
 1411SOL     OW15694   4.151   2.025  10.099  0.0582  0.0347 -0.2137
 1411SOL    HW115695   4.107   1.987  10.175  2.3854 -0.8489  0.6989
 1411SOL    HW215696   4.105   2.109  10.094  0.4012  0.3187  1.2646
 1412SOL     OW15697   1.291   1.535   3.146 -0.5633 -0.1773 -0.1673
 1412SOL    HW115698   1.353   1.583   3.092  0.3419  0.5617  1.5470
 1412SOL    HW215699   1.274   1.454   3.097 -0.5163 -0.6831  0.6543
 1413SOL     OW15700   2.394   4.307   6.463  0.4170 -0.2214 -0.1166
 1413SOL    HW115701   2.418   4.229   6.513 -0.4901 -1.8180 -2.1451
 1413SOL    HW215702   2.477   4.318   6.416  0.2879 -0.2716 -0.3578
 1414SOL     OW15703   2.654   3.524   8.955 -0.6207  0.4537  0.0370
 1414SOL    HW115704   2.700   3.501   9.036  0.3705  1.0573 -0.3585
 1414SOL    HW215705   2.611   3.441   8.936 -1.8077  1.6691 -2.6141
 1415SOL     OW15706   1.348   3.256   0.418  0.1230  0.6279 -0.3350
 1415SOL    HW115707   1.426   3.201   0.425  0.0856  0.6454  0.2430
 1415SOL    HW215708   1.278   3.203   0.455 -0.9252  0.8020 -2.0655
 1416SOL     OW15709   2.049   3.453  11.922 -0.1156 -0.3559 -0.0844
 1416SOL    HW115710   2.143   3.434  11.922 -0.4472 -2.0240 -1.0865
 1416SOL    HW215711   2.040   3.516  11.993 -0.4328 -1.2133  0.6441
 1417SOL     OW15712   3.961   0.065  16.987  0.0096  0.0704  0.0337
 1417SOL    HW115713   3.936   0.146  17.032  1.4118  0.7311 -0.3913
 1417SOL    HW215714   4.023   0.039  17.055  2.6234 -0.8642 -2.7116
 1418SOL     OW15715   4.205   2.317   7.671 -0.2300  0.2073 -0.5777
 1418SOL    HW115716   4.236   2.382   7.735  0.8565  0.1195 -1.0176
 1418SOL    HW215717   4.183   2.384   7.607 -1.7028  0.2003 -0.0932
 1419SOL     OW15718   2.039   0.673   4.121 -0.2127 -0.4998  0.4816
 1419SOL    HW115719   2.030   0.768   4.125 -3.9475 -0.7110 -3.3547
 1419SOL    HW215720   2.003   0.652   4.035  1.3706 -1.4753  0.0571
 1420SOL     OW15721   2.067   4.181   8.352  0.6287 -0.4233  0.4975
 1420SOL    HW115722   2.108   4.133   8.280  0.4290  0.0630  0.0637
 1420SOL    HW215723   1.996   4.227   8.309 -1.4827 -1.3581  2.9783
 1421SOL     OW15724   1.962   1.068   7.441  0.3007 -0.3353  0.0181
 1421SOL    HW115725   1.887   1.098   7.493 -1.8083 -1.0239 -2.6383
 1421SOL    HW215726   1.943   1.110   7.357 -3.1596  1.8970  1.8972
 1422SOL     OW15727   3.933   4.032   5.684  0.2202 -0.1370  0.2663
 1422SOL    HW115728   3.924   4.125   5.661 -0.4160 -1.4804 -4.7121
 1422SOL    HW215729   4.011   4.020   5.739  1.8489 -1.2131 -2.3302
 1423SOL     OW15730   4.688   0.882   5.074  0.2037 -0.3228 -0.0005
 1423SOL    HW115731   0.008   0.894   5.157 -0.2422  0.2822  0.1618
 1423SOL    HW215732   0.034   0.897   5.013  0.6905  1.9332  1.1054
 1424SOL     OW15733   2.172   1.693   0.339  0.0251  0.2518 -0.2593
 1424SOL    HW115734   2.083   1.726   0.351  0.6868  1.4492  1.3334
 1424SOL    HW215735   2.164   1.611   0.386 -0.1827  0.3022 -0.2061
 1425SOL     OW15736   2.510   3.393   5.566 -0.1879 -0.7757 -0.1693
 1425SOL    HW115737   2.422   3.423   5.588 -0.8426 -2.1850 -0.8318
 1425SOL    HW215738   2.551   3.388   5.652 -0.0821  0.6337 -0.1284
 1426SOL     OW15739   3.584   2.461  15.075  0.2091  0.5149 -0.5031
 1426SOL    HW115740   3.498   2.476  15.116  0.7274 -1.5882  1.3731
 1426SOL    HW215741   3.561   2.394  15.010  1.7164 -0.6390  0.1588
 1427SOL     OW15742   3.419   0.677   6.243 -0.3373 -0.6218  0.5655
 1427SOL    HW115743   3.498   0.726   6.220 -1.2388  0.8120  0.5109
 1427SOL    HW215744   3.429   0.599   6.188  1.6718  0.1503 -0.1883
 1428SOL     OW15745   4.577   1.005  16.514  0.8177  0.8446  0.3354
 1428SOL    HW115746   4.516   0.960  16.456  0.4131  0.0169  1.3850
 1428SOL    HW215747   4.521   1.065  16.564  1.2482  1.2796  0.2895
 1429SOL     OW15748   0.056   0.471  12.405 -0.3975 -0.3612 -0.5500
 1429SOL    HW115749   0.133   0.524  12.383  0.1066 -0.3008  1.3240
 1429SOL    HW215750   0.102   0.392  12.433  1.2089  0.7976  0.1036
 1430SOL     OW15751   1.711   0.593  13.800 -0.7650 -0.1696 -0.1613
 1430SOL    HW115752   1.647   0.618  13.735 -1.9755  1.4963  1.6889
 1430SOL    HW215753   1.665   0.592  13.884  0.1200  4.3296  0.3514
 1431SOL     OW15754   4.084   4.108   0.889  0.2041  0.0841  0.4886
 1431SOL    HW115755   4.042   4.022   0.891  3.2218 -1.4243 -0.9709
 1431SOL    HW215756   4.086   4.141   0.979  0.8219 -1.5780  1.0773
 1432SOL     OW15757   0.106   4.214   6.118 -0.4668 -0.2043  0.4467
 1432SOL    HW115758   0.101   4.152   6.191  0.9430 -2.0404 -1.0099
 1432SOL    HW215759   0.202   4.216   6.115 -0.5083  0.7890  0.1599
 1433SOL     OW15760   2.039   1.802   0.680 -0.5679  0.3260  0.0419
 1433SOL    HW115761   1.983   1.729   0.653  0.3207 -0.3324 -0.0393
 1433SOL    HW215762   2.126   1.761   0.686 -0.9663 -0.5278 -0.0203
 1434SOL     OW15763   3.066   3.057   6.173  0.9734  0.7281  0.1989
 1434SOL    HW115764   3.157   3.039   6.196  0.7760  0.8559  1.0624
 1434SOL    HW215765   3.022   3.026   6.251 -0.8844 -0.0066 -1.1572
 1435SOL     OW15766   0.420   3.206   4.047  0.1909 -0.2855  0.5975
 1435SOL    HW115767   0.504   3.239   4.078 -0.7266  1.7440  0.9335
 1435SOL    HW215768   0.348   3.239   4.100 -3.0394 -2.0964 -2.6488
 1436SOL     OW15769   2.606   3.029   3.749 -0.3478 -0.0997 -0.0115
 1436SOL    HW115770   2.556   3.090   3.804 -0.5576  0.8028 -1.1951
 1436SOL    HW215771   2.609   3.077   3.666 -0.9491 -1.5079 -0.8438
 1437SOL     OW15772   0.957   1.364   6.760 -0.9330  0.6771 -0.1233
 1437SOL    HW115773   0.994   1.294   6.707 -0.8612  0.1942  0.5676
 1437SOL    HW215774   1.001   1.440   6.721  0.7779 -0.5096 -0.4811
 1438SOL     OW15775   2.083   1.858  10.010 -0.0979  0.2944  0.0920
 1438SOL    HW115776   2.041   1.795   9.952 -1.5456 -0.5008  1.9879
 1438SOL    HW215777   2.088   1.807  10.091  1.8453  2.5127  1.3683
 1439SOL     OW15778   2.021   0.834   0.111 -0.4350  0.1413  0.1307
 1439SOL    HW115779   2.055   0.893   0.044 -2.5624  1.1657 -0.0403
 1439SOL    HW215780   1.940   0.882   0.128 -0.0310 -0.0925  2.6982
 1440SOL     OW15781   1.244   0.595  13.627 -0.3168 -0.4436 -0.7028
 1440SOL    HW115782   1.284   0.509  13.612 -0.6983 -0.3290 -2.4114
 1440SOL    HW215783   1.316   0.657  13.625  0.4822 -1.3620 -0.1483
 1441SOL     OW15784   0.172   0.914  10.687  0.3586 -0.4360  0.4891
 1441SOL    HW115785   0.127   0.929  10.771  0.5212 -0.3090  0.5524
 1441SOL    HW215786   0.252   0.965  10.691  0.9025 -1.1401 -1.5094
 1442SOL     OW15787   3.003   4.083   4.567 -0.0230 -0.3138  0.0429
 1442SOL    HW115788   2.965   4.144   4.630  2.6322 -1.0946  2.3625
 1442SOL    HW215789   2.937   4.014   4.575  0.8633 -1.1645 -0.0336
 1443SOL     OW15790   3.277   1.222  17.363  0.3144 -0.0204  0.2925
 1443SOL    HW115791   3.266   1.233  17.457 -0.2411  2.7304 -0.0831
 1443SOL    HW215792   3.187   1.229  17.331  0.1969  0.4606  0.7304
 1444SOL     OW15793   1.121   1.350   3.470 -0.2427  0.0294 -0.5211
 1444SOL    HW115794   1.155   1.267   3.437 -2.6276 -0.4265 -1.8390
 1444SOL    HW215795   1.201   1.387   3.506  0.0857 -0.8838 -0.3017
 1445SOL     OW15796   3.863   3.700   7.694 -0.6179  0.0529 -0.2706
 1445SOL    HW115797   3.920   3.721   7.621 -0.7526  1.6036  0.0734
 1445SOL    HW215798   3.925   3.716   7.765  0.5444 -1.0520 -1.0551
 1446SOL     OW15799   0.211   0.721   7.787  0.0526 -0.5725 -0.0423
 1446SOL    HW115800   0.139   0.663   7.763 -0.0160 -1.7658  3.1568
 1446SOL    HW215801   0.236   0.678   7.868 -1.8407 -1.3624  0.1152
 1447SOL     OW15802   0.977   4.691   4.163  0.0322 -0.5326 -0.1801
 1447SOL    HW115803   1.029   4.649   4.094 -0.7478 -0.5666 -0.7447
 1447SOL    HW215804   1.035   0.029   4.204 -1.4411 -0.4346  1.7092
 1448SOL     OW15805   4.205   1.274   8.414  0.8018  0.1960 -0.4816
 1448SOL    HW115806   4.208   1.337   8.342 -0.5252  1.0101  0.1885
 1448SOL    HW215807   4.253   1.316   8.486  1.1783  0.8675 -1.1242
 1449SOL     OW15808   3.895   1.682   3.729  0.8571  0.1865 -0.5448
 1449SOL    HW115809   3.810   1.681   3.684  0.6902  1.7912 -0.2513
 1449SOL    HW215810   3.956   1.644   3.667  2.3691  0.9889  0.4640
 1450SOL     OW15811   1.891   1.698   4.036  0.5414 -0.1026 -0.0178
 1450SOL    HW115812   1.855   1.640   4.103  1.3541 -0.7047 -0.1159
 1450SOL    HW215813   1.965   1.732   4.086  2.1287 -1.3326 -1.5266
 1451SOL     OW15814   1.465   1.635   7.730 -0.5984  0.6889  0.2501
 1451SOL    HW115815   1.375   1.604   7.729  0.5333 -2.5630 -0.7485
 1451SOL    HW215816   1.440   1.725   7.709  0.4779  0.3878 -2.2880
 1452SOL     OW15817   3.677   4.006   1.962 -0.5934  0.0992  0.0592
 1452SOL    HW115818   3.696   3.948   1.888  1.1041 -0.0015  0.5596
 1452SOL    HW215819   3.718   3.959   2.034  0.0882  0.8780  0.1749
 1453SOL     OW15820   2.515   4.397   3.236 -0.1313 -0.6250  0.0860
 1453SOL    HW115821   2.481   4.476   3.193 -0.1005 -0.5288  0.2402
 1453SOL    HW215822   2.553   4.345   3.165 -0.7663  1.4985 -1.8141
 1454SOL     OW15823   4.114   0.948   5.954 -0.0383  0.5593 -0.1466
 1454SOL    HW115824   4.045   0.883   5.941  2.0659 -2.0104  1.6044
 1454SOL    HW215825   4.191   0.913   5.911 -0.0148 -3.4130  3.1310
 1455SOL     OW15826   1.747   4.198   6.812 -0.0246 -0.3701 -0.7330
 1455SOL    HW115827   1.784   4.230   6.729  1.5298 -1.3642 -0.4348
 1455SOL    HW215828   1.652   4.194   6.805 -0.0534 -2.1684  0.6220
 1456SOL     OW15829   1.833   1.371   7.838  0.1719  0.5691 -0.1465
 1456SOL    HW115830   1.852   1.415   7.922  0.7726 -0.5194  0.2807
 1456SOL    HW215831   1.791   1.445   7.795 -0.8053  0.7768  1.1457
 1457SOL     OW15832   3.269   3.350   9.134 -0.1978  0.0744 -0.3443
 1457SOL    HW115833   3.308   3.384   9.215 -1.5813 -0.7552  0.6764
 1457SOL    HW215834   3.184   3.393   9.140 -0.4746 -0.3676 -1.0429
 1458SOL     OW15835   3.010   4.689   7.900 -0.1838 -0.1120  0.4174
 1458SOL    HW115836   2.999   0.016   7.979  3.9641  1.1033  0.1749
 1458SOL    HW215837   3.035   4.607   7.943  0.6272 -0.7270 -1.2639
 1459SOL     OW15838   2.117   3.995   2.408  0.1987  0.2291 -0.1416
 1459SOL    HW115839   2.130   4.048   2.487  0.7858  1.1388 -0.8401
 1459SOL    HW215840   2.079   4.058   2.347  1.6009 -0.0729 -1.3518
 1460SOL     OW15841   2.516   0.700   1.552  0.7697 -0.7526 -0.0165
 1460SOL    HW115842   2.468   0.619   1.567 -1.8410  0.5162 -1.5846
 1460SOL    HW215843   2.450   0.739   1.495  0.7192  0.1723  0.6785
 1461SOL     OW15844   3.239   2.655   6.760 -0.3448 -0.6908  0.5493
 1461SOL    HW115845   3.328   2.646   6.794 -0.3790 -0.2971  0.7456
 1461SOL    HW215846   3.245   2.652   6.664  3.0648  2.5193  0.6404
 1462SOL     OW15847   2.130   4.624  10.002  0.2399  0.2081 -0.1679
 1462SOL    HW115848   2.130   4.531   9.980  0.1867  0.5342 -1.5532
 1462SOL    HW215849   2.131   4.672   9.919 -1.1867  0.0287 -0.2925
 1463SOL     OW15850   0.711   0.001   5.354 -0.0485  0.2998  0.0550
 1463SOL    HW115851   0.793   4.693   5.319  0.0231  0.2712  0.2547
 1463SOL    HW215852   0.648   4.661   5.327  0.1274  1.2730 -2.8375
 1464SOL     OW15853   1.695   2.170   6.387  0.2441  0.5212  0.7368
 1464SOL    HW115854   1.600   2.176   6.381  0.1821 -0.5335  0.6908
 1464SOL    HW215855   1.725   2.084   6.359  0.7319  1.2729 -1.0776
 1465SOL     OW15856   1.745   0.056   2.224  0.2439  0.4325 -0.0174
 1465SOL    HW115857   1.759   0.087   2.135  1.9468 -1.3129 -0.3732
 1465SOL    HW215858   1.807   4.709   2.222 -1.6399 -1.1371 -1.3624
 1466SOL     OW15859   1.146   0.862   5.465  0.1432  0.4099 -0.3821
 1466SOL    HW115860   1.220   0.900   5.513 -0.1868  2.7992 -1.7825
 1466SOL    HW215861   1.102   0.944   5.441 -0.2631  0.4019  0.3359
 1467SOL     OW15862   3.405   4.050   6.711 -0.0066  0.2886  0.4030
 1467SOL    HW115863   3.381   4.086   6.797 -2.5933 -1.4032  0.3812
 1467SOL    HW215864   3.321   4.007   6.695  0.8526 -1.0838 -0.3497
 1468SOL     OW15865   0.499   1.242   3.380  0.2108 -0.2208  0.6083
 1468SOL    HW115866   0.490   1.147   3.368  1.3617 -0.2502 -0.0489
 1468SOL    HW215867   0.585   1.252   3.339  1.3526 -2.0378  2.5315
 1469SOL     OW15868   1.973   1.760   2.849 -0.4403  0.0978 -0.0605
 1469SOL    HW115869   1.955   1.690   2.912 -0.5881 -0.9585 -1.2815
 1469SOL    HW215870   2.065   1.738   2.839 -0.6479 -0.5273 -0.6106
 1470SOL     OW15871   1.622   2.220   0.744 -0.1288  0.2743  0.3382
 1470SOL    HW115872   1.611   2.135   0.787  1.6036  0.4059  1.0404
 1470SOL    HW215873   1.692   2.205   0.680 -1.2328 -1.6149 -0.4518
 1471SOL     OW15874   0.252   3.759   1.876  0.2226  0.0409 -0.4037
 1471SOL    HW115875   0.232   3.848   1.848 -0.8150 -0.5122 -1.4253
 1471SOL    HW215876   0.258   3.702   1.799  0.0240 -1.1481  0.4567
 1472SOL     OW15877   1.821   3.295   4.139  0.2868 -0.0007  0.1451
 1472SOL    HW115878   1.831   3.351   4.062 -3.0501  0.5807  0.1268
 1472SOL    HW215879   1.743   3.338   4.174  1.1483 -0.1045  2.1697
 1473SOL     OW15880   0.145   2.355   6.466  0.1180  0.4618 -0.8355
 1473SOL    HW115881   0.085   2.409   6.415  1.0793  1.0500 -1.3391
 1473SOL    HW215882   0.076   2.307   6.512  0.3609  2.9075  2.0905
 1474SOL     OW15883   0.166   2.040   2.890  0.1008  0.1980 -0.1213
 1474SOL    HW115884   0.175   1.984   2.967  3.0788  1.2017  0.2527
 1474SOL    HW215885   0.075   2.070   2.898 -0.3476 -1.7350  2.0222
 1475SOL     OW15886   2.560   2.151   2.625 -0.3911 -0.3314  0.2742
 1475SOL    HW115887   2.469   2.134   2.601  0.3007 -3.6883  0.0148
 1475SOL    HW215888   2.593   2.193   2.545  1.3142 -1.2309  0.4951
 1476SOL     OW15889   4.423   2.197   2.517  0.0969  0.1119  0.4355
 1476SOL    HW115890   4.492   2.134   2.538 -1.5916 -1.6912  0.6662
 1476SOL    HW215891   4.337   2.160   2.536  0.6827 -1.8407 -0.6651
 1477SOL     OW15892   3.830   4.414  15.437 -0.5258 -0.1947  0.6023
 1477SOL    HW115893   3.919   4.391  15.411 -0.2337  1.0740  0.4571
 1477SOL    HW215894   3.840   4.509  15.426 -2.4450 -0.0920 -0.2366
 1478SOL     OW15895   1.056   1.651  10.852 -0.5161 -0.0699 -0.3657
 1478SOL    HW115896   1.025   1.563  10.830  1.0756 -0.9124  0.7556
 1478SOL    HW215897   1.134   1.634  10.904 -0.4578 -1.9027 -1.0334
 1479SOL     OW15898   0.471   3.270   7.752 -0.0932 -0.3295  0.1235
 1479SOL    HW115899   0.492   3.187   7.797  0.7776 -0.5193 -0.6276
 1479SOL    HW215900   0.458   3.234   7.665 -0.0162  1.6662 -0.7050
 1480SOL     OW15901   2.188   0.863   7.461  0.0074 -0.2801  0.4337
 1480SOL    HW115902   2.131   0.938   7.472 -0.9948 -0.8228 -1.0756
 1480SOL    HW215903   2.189   0.830   7.551  1.6258  0.0522  0.5422
 1481SOL     OW15904   0.126   3.995   1.810  0.0490 -0.4092 -0.0885
 1481SOL    HW115905   0.051   3.979   1.868 -0.8591  0.5946 -1.0024
 1481SOL    HW215906   0.098   4.083   1.786 -0.8076 -0.1398  1.8778
 1482SOL     OW15907   4.405   4.416   9.717 -0.5956  0.6253  0.2365
 1482SOL    HW115908   4.433   4.356   9.786 -0.8728 -1.5879 -1.5755
 1482SOL    HW215909   4.314   4.432   9.739 -0.3826 -1.6496  2.8229
 1483SOL     OW15910   3.488   0.980  11.927  0.0580  0.3661 -0.0995
 1483SOL    HW115911   3.413   0.923  11.910 -0.8933  1.3743  0.7452
 1483SOL    HW215912   3.437   1.059  11.945  2.1519  1.2168  2.1130
 1484SOL     OW15913   0.682   4.466   7.535  0.5927 -0.1718  0.7006
 1484SOL    HW115914   0.622   4.529   7.496 -1.4544 -2.8097 -0.3779
 1484SOL    HW215915   0.685   4.489   7.628  0.9752 -3.1453  1.4375
 1485SOL     OW15916   1.836   1.123  11.252  1.1334  0.7486  0.0475
 1485SOL    HW115917   1.757   1.084  11.291  1.2675 -0.2938 -0.7285
 1485SOL    HW215918   1.901   1.094  11.316 -0.8367 -1.8140  0.8870
 1486SOL     OW15919   3.793   2.071  15.402 -0.1079  0.4930  0.2018
 1486SOL    HW115920   3.714   2.099  15.356  0.1780 -1.5894 -1.5551
 1486SOL    HW215921   3.857   2.110  15.342 -0.3459 -0.0116 -0.3763
 1487SOL     OW15922   2.918   2.738   8.171  0.3138  0.1753 -0.4139
 1487SOL    HW115923   2.889   2.657   8.129  2.0208 -1.4252  1.4935
 1487SOL    HW215924   3.012   2.723   8.161  0.4530 -0.2753  1.5236
 1488SOL     OW15925   2.470   0.925   2.473  0.4496 -0.4976 -0.0376
 1488SOL    HW115926   2.452   0.992   2.407  1.4679 -1.4951 -1.3500
 1488SOL    HW215927   2.512   0.860   2.416  1.2101 -0.2110  0.2004
 1489SOL     OW15928   1.442   2.398   6.293  0.5274 -0.3406  0.6139
 1489SOL    HW115929   1.376   2.329   6.301  0.5384 -0.4448 -0.1413
 1489SOL    HW215930   1.397   2.462   6.348 -0.0443 -0.3531  0.1660
 1490SOL     OW15931   4.041   4.089  15.466 -0.9491  0.6881 -0.4914
 1490SOL    HW115932   4.126   4.080  15.510 -2.1628 -1.0166  1.5128
 1490SOL    HW215933   4.058   4.044  15.383 -0.6534  0.0233 -0.0675
 1491SOL     OW15934   3.006   0.829  14.150 -0.1147 -0.0560 -0.6245
 1491SOL    HW115935   3.084   0.874  14.118 -0.8972  1.3433 -0.5820
 1491SOL    HW215936   2.949   0.901  14.179  2.2092  1.2960  0.5933
 1492SOL     OW15937   3.490   3.113   3.869 -0.1860 -0.2029  0.0222
 1492SOL    HW115938   3.459   3.055   3.800  1.3408  1.9164 -2.4674
 1492SOL    HW215939   3.410   3.157   3.897  0.3404 -0.0692  1.3432
 1493SOL     OW15940   1.414   3.567   8.583  0.3781  0.1083 -0.2225
 1493SOL    HW115941   1.479   3.560   8.653 -0.4022 -0.9064  0.3932
 1493SOL    HW215942   1.439   3.645   8.534  1.2132  0.8712  1.4003
 1494SOL     OW15943   0.666   3.878   1.890  0.4030 -0.3871  0.5621
 1494SOL    HW115944   0.728   3.890   1.818 -0.0186 -0.6230  0.1550
 1494SOL    HW215945   0.589   3.927   1.861  2.4012  2.2805 -0.1903
 1495SOL     OW15946   2.634   4.301   2.978 -0.0256  0.2147 -0.4258
 1495SOL    HW115947   2.719   4.320   2.938  1.0079 -1.2845  1.0768
 1495SOL    HW215948   2.583   4.375   2.947  0.5701  0.9299  0.2742
 1496SOL     OW15949   4.145   2.730   7.098 -0.3426 -0.3958  0.5299
 1496SOL    HW115950   4.162   2.771   7.013 -2.1858  2.4050  1.5247
 1496SOL    HW215951   4.196   2.777   7.163  0.4372  0.0991 -0.4443
 1497SOL     OW15952   3.998   3.051   2.352  0.3204 -0.0725  0.2295
 1497SOL    HW115953   3.937   3.116   2.387  1.2425  0.3258  1.0973
 1497SOL    HW215954   4.057   3.117   2.318 -1.5439  2.2942  1.6107
 1498SOL     OW15955   3.956   3.146   4.110 -0.0384  0.1938  0.2221
 1498SOL    HW115956   3.862   3.131   4.097  0.6213 -2.6706 -1.1081
 1498SOL    HW215957   3.964   3.225   4.057  0.4155 -0.5621 -0.8438
 1499SOL     OW15958   2.391   3.087   9.011 -1.0322 -0.2979  0.2194
 1499SOL    HW115959   2.303   3.066   8.980 -0.4162 -1.4086 -0.7889
 1499SOL    HW215960   2.412   3.026   9.081 -1.0508 -1.2533 -0.6056
 1500SOL     OW15961   2.191   3.459   1.254  0.1033 -0.2930 -0.0806
 1500SOL    HW115962   2.152   3.527   1.199 -1.8822  1.2954  3.2972
 1500SOL    HW215963   2.228   3.413   1.179  0.0118 -3.7867  2.0243
 1501SOL     OW15964   2.450   0.629   4.019 -0.3806 -0.1625 -0.0021
 1501SOL    HW115965   2.509   0.687   3.971  0.9877 -2.3184 -0.9442
 1501SOL    HW215966   2.391   0.585   3.958  1.4057 -0.9463 -1.1501
 1502SOL     OW15967   4.069   4.554   7.093  0.0863  0.2044 -0.1316
 1502SOL    HW115968   4.010   4.544   7.167  1.0122  0.1081  0.5918
 1502SOL    HW215969   4.070   4.463   7.062  3.1060 -0.5097  1.9505
 1503SOL     OW15970   4.435   3.089   3.631 -0.1047  0.4301 -0.0183
 1503SOL    HW115971   4.391   3.172   3.647  0.9537  1.0943 -0.5854
 1503SOL    HW215972   4.370   3.022   3.653  0.2791 -0.8302 -2.7651
 1504SOL     OW15973   0.728   1.395   0.534  0.1890  0.4377  0.4688
 1504SOL    HW115974   0.635   1.395   0.514  0.3981 -1.4042 -0.5256
 1504SOL    HW215975   0.755   1.315   0.488 -1.5219 -1.0337  2.0798
 1505SOL     OW15976   2.225   3.928  16.766  0.3701 -0.0698  0.0139
 1505SOL    HW115977   2.160   3.904  16.700  0.1603  1.4761 -0.3410
 1505SOL    HW215978   2.188   4.009  16.801 -0.4707  0.2497 -1.5827
 1506SOL     OW15979   0.497   3.967   1.537 -0.2598  0.5294  0.1340
 1506SOL    HW115980   0.488   3.872   1.526  3.8739  0.0500  0.7813
 1506SOL    HW215981   0.591   3.974   1.553 -0.2237 -0.9674  0.5637
 1507SOL     OW15982   2.567   0.505  15.030  0.2771  0.4669  0.3179
 1507SOL    HW115983   2.515   0.463  14.961  1.6391  2.0407 -1.6729
 1507SOL    HW215984   2.616   0.576  14.989 -0.7008 -0.1667 -1.9913
 1508SOL     OW15985   0.876   3.472  11.612  0.2572  0.6623 -0.3775
 1508SOL    HW115986   0.816   3.403  11.642 -0.1975  0.4417 -1.7947
 1508SOL    HW215987   0.959   3.424  11.615 -0.2721 -0.1034  2.0060
 1509SOL     OW15988   2.067   1.286   8.872 -0.1764 -0.0845 -0.5755
 1509SOL    HW115989   2.130   1.287   8.799  0.2986  0.0951 -0.1622
 1509SOL    HW215990   2.017   1.207   8.852 -0.9418  0.0302  0.9165
 1510SOL     OW15991   0.039   1.760  16.040  0.3749 -0.3667  0.1367
 1510SOL    HW115992   0.062   1.815  15.965 -0.9211 -1.7599 -1.2802
 1510SOL    HW215993   0.092   1.682  16.028  3.2024  1.6198 -0.2689
 1511SOL     OW15994   2.430   2.924  14.838  0.2156  0.4210 -0.2893
 1511SOL    HW115995   2.490   2.960  14.773  0.2548 -1.3320 -1.2374
 1511SOL    HW215996   2.453   2.997  14.896  0.0938  1.5358 -1.6700
 1512SOL     OW15997   3.571   1.488   9.562  0.2026  0.5587  0.2936
 1512SOL    HW115998   3.566   1.553   9.633 -0.9244  1.5501 -0.6921
 1512SOL    HW215999   3.555   1.543   9.485 -1.9584 -0.2830  0.1298
 1513SOL     OW16000   1.127   2.774  17.279  0.3156  0.0414  0.5619
 1513SOL    HW116001   1.075   2.696  17.261 -2.4867  2.0666 -0.2611
 1513SOL    HW216002   1.109   2.799  17.370  2.6783 -0.4251  1.1584
 1514SOL     OW16003   3.967   4.223   4.313 -0.4803 -0.2559  0.9833
 1514SOL    HW116004   3.941   4.142   4.268  1.5729 -1.1415  1.3785
 1514SOL    HW216005   3.890   4.279   4.306 -0.2295  0.0358  0.5678
 1515SOL     OW16006   4.660   4.616  13.856  0.5289  0.0279 -0.5742
 1515SOL    HW116007   4.673   4.524  13.832  2.1028  0.5405 -1.6382
 1515SOL    HW216008   4.725   4.653  13.798 -0.0160  0.9132 -0.6182
 1516SOL     OW16009   0.129   2.819   6.906 -0.1881 -0.3464 -0.1552
 1516SOL    HW116010   0.070   2.748   6.880 -0.5388 -0.0281 -0.2328
 1516SOL    HW216011   0.204   2.806   6.849  1.3221  0.5989  1.5947
 1517SOL     OW16012   0.419   2.770  10.123 -0.3138  0.5901 -0.1827
 1517SOL    HW116013   0.419   2.697  10.061  0.3843  0.6960 -0.3034
 1517SOL    HW216014   0.470   2.725  10.190 -1.1309 -1.8697 -1.2042
 1518SOL     OW16015   1.217   0.201   0.830 -0.2274 -0.1568  0.1439
 1518SOL    HW116016   1.239   0.177   0.740  1.0521  1.8767 -0.0894
 1518SOL    HW216017   1.174   0.118   0.852  1.1728 -1.0455 -0.4546
 1519SOL     OW16018   3.335   0.314   4.263 -0.2968  0.0244 -0.7464
 1519SOL    HW116019   3.259   0.257   4.254  0.6862 -1.2487 -0.9697
 1519SOL    HW216020   3.416   0.265   4.250 -1.4424 -2.2125  0.6930
 1520SOL     OW16021   2.773   2.445  12.511  0.0753 -0.9190 -0.8449
 1520SOL    HW116022   2.852   2.428  12.562  1.2419 -1.7144 -2.9526
 1520SOL    HW216023   2.749   2.535  12.533  0.4956 -0.7383 -1.1296
 1521SOL     OW16024   1.900   0.719   4.854  0.3185 -0.3557  0.4312
 1521SOL    HW116025   1.994   0.732   4.865  0.1312  1.6557 -0.3371
 1521SOL    HW216026   1.861   0.762   4.930 -1.7502  0.8585 -1.3023
 1522SOL     OW16027   3.907   1.183   7.750 -0.6604  0.4097 -0.1442
 1522SOL    HW116028   3.924   1.167   7.657 -1.6216 -1.8563  0.0861
 1522SOL    HW216029   3.902   1.094   7.784 -0.1299  1.3966  2.5186
 1523SOL     OW16030   2.231   1.609   3.938 -0.2830  0.1762  0.1982
 1523SOL    HW116031   2.217   1.699   3.908  0.4234 -0.1456 -1.1280
 1523SOL    HW216032   2.144   1.587   3.970 -0.6783  0.9571 -0.3506
 1524SOL     OW16033   0.060   4.599  14.607  0.0368  0.9207 -0.8818
 1524SOL    HW116034   0.044   4.675  14.551 -3.2324  1.2290  0.5048
 1524SOL    HW216035   0.067   4.636  14.696 -1.6346  0.9991 -0.7940
 1525SOL     OW16036   1.350   1.943  12.502 -0.2230  0.7342  0.0203
 1525SOL    HW116037   1.381   1.875  12.562  0.0043  1.1492  0.3768
 1525SOL    HW216038   1.379   2.018  12.554  2.0569 -0.8131  1.0123
 1526SOL     OW16039   3.978   0.251   6.376 -0.2360  0.0939 -0.2531
 1526SOL    HW116040   3.980   0.322   6.441 -2.4508 -0.3238  0.2605
 1526SOL    HW216041   3.883   0.243   6.376 -0.3466  1.0259  3.0718
 1527SOL     OW16042   0.621   2.633   6.291  0.0542  0.0478 -0.0638
 1527SOL    HW116043   0.701   2.686   6.290  0.2645 -0.2529  1.6447
 1527SOL    HW216044   0.631   2.568   6.221 -1.7559 -0.5422  0.2414
 1528SOL     OW16045   4.245   1.707  10.085  0.2213 -0.0179  0.3153
 1528SOL    HW116046   4.268   1.791  10.125  1.2509  1.3267 -3.0718
 1528SOL    HW216047   4.152   1.710  10.064  0.5727 -1.9626 -1.6095
 1529SOL     OW16048   4.534   3.741   5.198  0.3675  0.0634 -0.0882
 1529SOL    HW116049   4.572   3.710   5.116 -0.0775  0.6261 -0.5032
 1529SOL    HW216050   4.608   3.734   5.258  0.5078 -0.2395 -0.2948
 1530SOL     OW16051   4.246   1.767   7.394 -0.5555 -0.4611 -0.0950
 1530SOL    HW116052   4.237   1.794   7.302  1.3921 -1.5528 -0.6101
 1530SOL    HW216053   4.296   1.686   7.383 -3.4476 -1.9886 -2.0434
 1531SOL     OW16054   1.451   0.125   5.239  0.2952  0.6975  0.1732
 1531SOL    HW116055   1.373   0.072   5.220  1.4991 -1.5469  1.5152
 1531SOL    HW216056   1.412   0.188   5.300 -0.2035  0.4492  0.1093
 1532SOL     OW16057   0.998   1.780   1.015  0.1081 -0.1921  0.0114
 1532SOL    HW116058   1.028   1.752   0.929  0.0247 -1.9851  0.5714
 1532SOL    HW216059   0.936   1.844   0.979 -0.3021 -0.9981 -0.6872
 1533SOL     OW16060   0.536   0.643   5.452  0.0379 -0.6033  0.0741
 1533SOL    HW116061   0.606   0.676   5.396  0.0694  0.8449  0.9626
 1533SOL    HW216062   0.580   0.564   5.481  0.3396  0.5563  2.7615
 1534SOL     OW16063   4.352   4.516   2.634 -0.0299 -0.7186 -0.0340
 1534SOL    HW116064   4.416   4.453   2.602  1.3103 -0.5529  2.2799
 1534SOL    HW216065   4.319   4.553   2.553 -0.9132 -0.3938  0.4747
 1535SOL     OW16066   3.610   0.875   2.693 -0.0274  0.1576  0.3766
 1535SOL    HW116067   3.619   0.931   2.616  2.5412 -1.6421 -0.6582
 1535SOL    HW216068   3.588   0.939   2.760  3.1276 -0.1582  1.7289
 1536SOL     OW16069   3.519   3.442   2.414  0.1310 -0.0564  0.1602
 1536SOL    HW116070   3.474   3.373   2.366  0.3890 -0.4629  0.5126
 1536SOL    HW216071   3.474   3.519   2.379 -2.9085 -2.0710 -0.3264
 1537SOL     OW16072   1.896   0.077   0.017 -0.0066  0.1291 -0.5220
 1537SOL    HW116073   1.960   0.146  17.704 -0.9657  1.2599  0.3519
 1537SOL    HW216074   1.817   0.131   0.010 -2.3108 -3.1417  0.4050
 1538SOL     OW16075   1.794   3.668   2.472  0.1351  0.2491  0.0771
 1538SOL    HW116076   1.749   3.694   2.553  2.4531  1.7566  0.8927
 1538SOL    HW216077   1.880   3.633   2.495  0.1805  1.7626  2.2247
 1539SOL     OW16078   0.397   4.669  13.304  0.1600  0.2638  0.1143
 1539SOL    HW116079   0.416   4.656  13.211  1.5761 -1.7661  0.6791
 1539SOL    HW216080   0.366   4.582  13.331 -0.5109  0.3057 -0.5002
 1540SOL     OW16081   1.802   2.051   3.462  0.0266 -0.2401 -0.5582
 1540SOL    HW116082   1.791   2.072   3.370 -2.3022  1.0804  0.0125
 1540SOL    HW216083   1.865   2.119   3.485 -0.2778  0.3024 -1.3368
 1541SOL     OW16084   2.047   4.023   3.690  0.2196  0.3461 -0.0141
 1541SOL    HW116085   2.115   4.000   3.754 -0.5429 -4.6146 -0.9951
 1541SOL    HW216086   2.091   4.070   3.619 -0.8865 -1.1649 -1.6950
 1542SOL     OW16087   2.466   4.174   8.391  0.5229  0.1321  0.6587
 1542SOL    HW116088   2.401   4.244   8.387 -1.3007 -1.5841  0.3203
 1542SOL    HW216089   2.521   4.205   8.319  3.5774 -2.3938  1.8521
 1543SOL     OW16090   1.212   2.757   5.834  0.2622  0.2264  0.0619
 1543SOL    HW116091   1.286   2.780   5.891 -0.3260  0.1375  0.8527
 1543SOL    HW216092   1.230   2.800   5.750 -0.5999  1.3983  0.4712
 1544SOL     OW16093   0.108   0.243   3.621  0.1643  0.1964  0.5207
 1544SOL    HW116094   0.104   0.337   3.641  1.3968  0.7057 -1.6343
 1544SOL    HW216095   0.189   0.216   3.665 -0.6192 -2.1535  0.5088
 1545SOL     OW16096   4.030   3.849   8.588 -0.0698  0.2161 -0.4129
 1545SOL    HW116097   3.971   3.899   8.530 -0.4499  0.0021 -0.2129
 1545SOL    HW216098   4.111   3.878   8.547 -1.4973  1.5040 -2.3228
 1546SOL     OW16099   3.335   4.674   4.951  0.3401 -0.8958 -0.1288
 1546SOL    HW116100   3.392   4.681   5.028 -0.0496  0.2458  0.0642
 1546SOL    HW216101   3.273   0.019   4.962  0.6826 -0.4859 -0.9059
 1547SOL     OW16102   2.863   1.057   6.317 -0.2121  0.7145  0.6998
 1547SOL    HW116103   2.807   1.133   6.333 -0.2550  0.0243  3.7807
 1547SOL    HW216104   2.877   1.063   6.222 -0.1249 -0.2026  0.6597
 1548SOL     OW16105   0.172   1.205   3.602  0.3939  0.3373  0.8628
 1548SOL    HW116106   0.261   1.193   3.634  1.1572 -0.7398 -1.6921
 1548SOL    HW216107   0.199   1.167   3.518 -0.0947  1.6208  0.1136
 1549SOL     OW16108   0.004   3.664  16.767 -0.3863 -0.6845 -0.2895
 1549SOL    HW116109   0.069   3.731  16.790  0.3894 -1.3545 -0.5454
 1549SOL    HW216110   4.650   3.714  16.781  0.8270  1.0570  0.5624
 1550SOL     OW16111   2.495   2.853   6.931  0.6543  0.0295 -0.0555
 1550SOL    HW116112   2.431   2.906   6.885 -2.7038 -1.4758  2.9049
 1550SOL    HW216113   2.519   2.915   7.000  1.6012  0.1051 -0.4409
 1551SOL     OW16114   1.137   0.520   2.796  0.4623  0.7413 -0.1355
 1551SOL    HW116115   1.134   0.443   2.853  0.9053  0.2216 -0.8118
 1551SOL    HW216116   1.101   0.589   2.852 -1.8325  0.0307 -0.7528
 1552SOL     OW16117   2.602   4.082   4.450 -0.0400  0.1815  0.2113
 1552SOL    HW116118   2.511   4.093   4.477 -0.5408 -1.7122 -0.6806
 1552SOL    HW216119   2.592   4.133   4.370 -1.5811 -1.0268 -0.3755
 1553SOL     OW16120   2.566   0.175   6.433 -0.6876 -0.3111  0.3896
 1553SOL    HW116121   2.504   0.106   6.456  2.6718 -3.3994  0.1979
 1553SOL    HW216122   2.556   0.184   6.339 -0.2333  0.0213  0.3710
 1554SOL     OW16123   3.844   4.621   2.767  0.5571 -0.3681 -0.4578
 1554SOL    HW116124   3.902   4.687   2.805  0.4644 -0.0947 -0.7899
 1554SOL    HW216125   3.910   4.555   2.745  1.5031  0.5498 -0.3545
 1555SOL     OW16126   3.746   0.003   2.439 -0.2870 -0.0149  0.1869
 1555SOL    HW116127   3.661   4.722   2.396 -0.8608  0.3237  1.2806
 1555SOL    HW216128   3.741   4.703   2.531 -0.2606 -0.7740 -0.0271
 1556SOL     OW16129   3.587   0.650   0.437 -0.0138 -0.1071  0.5438
 1556SOL    HW116130   3.521   0.598   0.483 -1.5909  0.5022 -1.0482
 1556SOL    HW216131   3.664   0.603   0.469 -1.1690 -0.8131  2.2977
 1557SOL     OW16132   2.225   0.143   8.299  0.4261 -0.4586  0.4295
 1557SOL    HW116133   2.257   0.204   8.233 -0.6877  0.9943  1.2207
 1557SOL    HW216134   2.146   0.124   8.248 -0.0824  3.0434 -0.1322
 1558SOL     OW16135   0.518   3.254   2.134 -0.1971  0.5082 -0.2468
 1558SOL    HW116136   0.571   3.184   2.175  0.7472  0.3312 -1.7736
 1558SOL    HW216137   0.510   3.312   2.210  0.7580 -1.9723  1.7594
 1559SOL     OW16138   2.032   2.825  13.035  0.0809  0.2089 -0.2864
 1559SOL    HW116139   2.115   2.781  13.019  0.1481  1.2224 -2.6945
 1559SOL    HW216140   2.016   2.805  13.127  1.2400 -0.1697 -0.1668
 1560SOL     OW16141   1.907   0.011   4.257 -0.1252 -0.0097 -0.8287
 1560SOL    HW116142   1.851   4.708   4.329  0.8010 -0.0762 -0.1335
 1560SOL    HW216143   1.959   0.072   4.309 -0.7755 -0.4603  0.3515
 1561SOL     OW16144   4.372   3.734  17.600  0.3209 -0.1587 -0.1686
 1561SOL    HW116145   4.440   3.765  17.540 -0.3232 -0.0609 -0.8468
 1561SOL    HW216146   4.394   3.643  17.616  1.0216  0.4321  2.1454
 1562SOL     OW16147   3.783   1.836  13.249  0.0241  0.2892 -0.2484
 1562SOL    HW116148   3.744   1.902  13.306 -1.0546 -0.6991  0.1497
 1562SOL    HW216149   3.731   1.761  13.278  1.0977  0.4023  1.9462
 1563SOL     OW16150   4.614   0.699   5.488 -0.4239 -0.0878  0.6073
 1563SOL    HW116151   4.539   0.714   5.430  0.4629 -0.8654 -0.7457
 1563SOL    HW216152   4.593   0.738   5.572  0.3961  0.5044  0.5374
 1564SOL     OW16153   3.934   1.483   0.668  0.1440  0.1592  0.2287
 1564SOL    HW116154   3.987   1.547   0.716  0.3351 -0.2164  0.5216
 1564SOL    HW216155   3.863   1.541   0.643  0.1269 -0.5691 -1.4095
 1565SOL     OW16156   2.687   2.937   2.580  0.6723 -0.0527  0.3565
 1565SOL    HW116157   2.769   2.939   2.530 -0.3625 -1.1215 -1.3966
 1565SOL    HW216158   2.713   2.880   2.652 -1.2526 -2.1327 -0.6093
 1566SOL     OW16159   2.602   4.057   9.553 -0.5470 -0.1135 -0.3969
 1566SOL    HW116160   2.623   4.022   9.640  0.2281  1.0017 -0.1303
 1566SOL    HW216161   2.584   3.975   9.507 -0.8426  0.5715 -1.4943
 1567SOL     OW16162   3.668   3.923   2.482  0.0369 -0.3824 -0.2816
 1567SOL    HW116163   3.641   4.005   2.522 -1.1487 -0.8663 -0.0974
 1567SOL    HW216164   3.711   3.885   2.558 -0.5071 -0.6737 -0.1155
 1568SOL     OW16165   3.875   3.216   8.653 -0.7821  0.3545 -0.3934
 1568SOL    HW116166   3.847   3.158   8.725  1.5133  1.1487  1.1425
 1568SOL    HW216167   3.826   3.296   8.671 -1.0830  0.1199 -0.1603
 1569SOL     OW16168   1.789   4.248  13.165  0.0997  0.0277  0.1032
 1569SOL    HW116169   1.774   4.154  13.174  2.7219 -0.3918  0.3587
 1569SOL    HW216170   1.881   4.239  13.138 -0.0654  2.6998 -1.2861
 1570SOL     OW16171   1.786   2.109   1.213 -0.7861 -0.1895 -0.1109
 1570SOL    HW116172   1.790   2.055   1.134 -0.0437 -0.3359  0.0269
 1570SOL    HW216173   1.881   2.111   1.229 -0.5695  0.5848 -1.4990
 1571SOL     OW16174   2.876   3.608   5.486 -0.0747  0.4642  0.3372
 1571SOL    HW116175   2.828   3.606   5.402  0.5611 -0.8158  0.0092
 1571SOL    HW216176   2.829   3.683   5.522 -1.9842 -0.9080  0.7230
 1572SOL     OW16177   2.142   4.117  12.178  1.0392  0.3905  0.5086
 1572SOL    HW116178   2.064   4.086  12.133 -0.8399  2.9612  1.9933
 1572SOL    HW216179   2.179   4.043  12.226 -0.4299  0.3625  1.5713
 1573SOL     OW16180   4.583   3.658   6.790  0.1403 -0.7172  0.1426
 1573SOL    HW116181   4.514   3.699   6.739  0.2897 -0.5314  0.0898
 1573SOL    HW216182   4.638   3.611   6.727 -1.4300  0.1256 -1.8384
 1574SOL     OW16183   0.598   1.239   9.041  0.1463  0.1245  0.0076
 1574SOL    HW116184   0.562   1.299   9.107 -1.3359  1.0340 -1.6262
 1574SOL    HW216185   0.691   1.248   9.061 -0.1859  2.3210  0.5958
 1575SOL     OW16186   1.280   4.216   8.689  0.2853 -0.3633 -0.1959
 1575SOL    HW116187   1.223   4.140   8.704  0.6042 -0.6009 -0.1834
 1575SOL    HW216188   1.357   4.192   8.742 -0.5578  0.1712  1.2705
 1576SOL     OW16189   0.025   3.220  17.130  0.1356  0.7086 -0.3324
 1576SOL    HW116190   0.096   3.175  17.086 -0.3619  0.6366 -1.0515
 1576SOL    HW216191   4.723   3.287  17.068 -1.1972  1.3486  0.9431
 1577SOL     OW16192   4.009   0.006   2.114 -0.3011 -0.2225 -0.0287
 1577SOL    HW116193   3.921   4.709   2.084  0.1705 -0.8416 -0.9180
 1577SOL    HW216194   3.997   4.697   2.203  0.6232 -0.8754 -0.1600
 1578SOL     OW16195   2.542   0.799   0.866 -0.0056 -0.0374 -0.4135
 1578SOL    HW116196   2.526   0.893   0.861 -2.1810 -0.3602  0.3456
 1578SOL    HW216197   2.455   0.790   0.905 -1.1858  2.4082 -2.4609
 1579SOL     OW16198   3.713   3.959   5.423 -0.4710 -0.3309  0.5568
 1579SOL    HW116199   3.803   3.987   5.407 -0.5469 -1.8948 -2.6593
 1579SOL    HW216200   3.673   4.038   5.459  1.4074  1.1830 -0.7482
 1580SOL     OW16201   0.844   1.632   5.693  0.0217 -0.2520 -0.0189
 1580SOL    HW116202   0.921   1.650   5.639 -0.7813  0.7505 -0.8139
 1580SOL    HW216203   0.829   1.720   5.728 -1.1397 -2.7997  6.0329
 1581SOL     OW16204   2.386   2.147   6.062  0.0813 -0.2304  0.3926
 1581SOL    HW116205   2.440   2.221   6.034 -0.2966  0.6201  1.9048
 1581SOL    HW216206   2.422   2.114   6.144  1.1810 -0.9036 -0.3704
 1582SOL     OW16207   4.150   1.968   1.028 -0.3328  1.0802  0.0506
 1582SOL    HW116208   4.233   2.015   1.041 -1.5351  3.0003  0.8229
 1582SOL    HW216209   4.112   2.004   0.948  2.9012  1.3598 -1.3427
 1583SOL     OW16210   2.472   4.186   7.278  0.5032 -0.4339  0.0536
 1583SOL    HW116211   2.466   4.244   7.354 -0.0234 -0.4414  0.0190
 1583SOL    HW216212   2.380   4.168   7.256  0.6563  0.0663 -0.9573
 1584SOL     OW16213   1.197   2.549   6.451  0.2287 -0.0022 -0.3306
 1584SOL    HW116214   1.133   2.598   6.501  0.9069  0.5969 -0.0456
 1584SOL    HW216215   1.154   2.549   6.365  0.5860 -0.1840 -0.5125
 1585SOL     OW16216   1.878   4.427   8.351 -0.1288  0.1283  0.7226
 1585SOL    HW116217   1.845   4.515   8.331  0.6617  0.0055 -1.1121
 1585SOL    HW216218   1.948   4.456   8.409  1.5968 -1.0764 -0.7839
 1586SOL     OW16219   4.523   3.006   2.318  0.3528 -0.2903 -0.0118
 1586SOL    HW116220   4.511   3.036   2.408 -0.2842  2.1802 -0.9048
 1586SOL    HW216221   4.484   3.085   2.279  0.8742 -0.0225  0.0171
 1587SOL     OW16222   1.043   1.047  12.500  0.4294  0.3716 -0.1720
 1587SOL    HW116223   0.970   0.997  12.536  2.0301 -1.8766 -0.0601
 1587SOL    HW216224   1.111   1.051  12.567  0.0560  1.1245  0.1717
 1588SOL     OW16225   1.311   3.149   9.793  0.0353 -0.1869 -0.3126
 1588SOL    HW116226   1.296   3.058   9.821 -2.0126  0.8650  2.0365
 1588SOL    HW216227   1.392   3.137   9.744  0.4605  0.7374  0.1555
 1589SOL     OW16228   1.571   2.318  10.905  0.4676  0.1453  0.6910
 1589SOL    HW116229   1.502   2.308  10.970  0.0212 -1.4066 -0.0165
 1589SOL    HW216230   1.542   2.395  10.857 -0.8880 -0.2742  0.8612
 1590SOL     OW16231   0.258   4.056   6.784 -0.2050 -0.3139 -0.3800
 1590SOL    HW116232   0.261   3.972   6.738 -1.6568  0.1639 -1.3292
 1590SOL    HW216233   0.263   4.122   6.715  0.9649  0.0355  0.0317
 1591SOL     OW16234   4.228   3.357   4.628 -0.1069  0.0160 -0.1150
 1591SOL    HW116235   4.192   3.398   4.550  0.3768  0.4528 -0.1094
 1591SOL    HW216236   4.314   3.332   4.594  0.0727 -0.4648  0.6748
 1592SOL     OW16237   4.653   2.735   6.017  0.7182 -0.2372 -0.0702
 1592SOL    HW116238   4.676   2.748   5.925  0.2372  2.7925  0.2236
 1592SOL    HW216239   4.584   2.800   6.028 -0.1282 -1.0751 -0.4382
 1593SOL     OW16240   3.729   1.808   2.080 -0.1154 -0.0958 -0.3806
 1593SOL    HW116241   3.691   1.877   2.026  1.6533  2.5496  1.7628
 1593SOL    HW216242   3.824   1.819   2.077 -0.0437 -0.7601 -0.6571
 1594SOL     OW16243   3.535   3.581   1.733  0.1833  0.2326  0.3187
 1594SOL    HW116244   3.589   3.527   1.675  2.4346 -0.4875  3.0654
 1594SOL    HW216245   3.552   3.540   1.817  0.2548  0.3465  0.3608
 1595SOL     OW16246   2.208   2.949   3.272 -0.2503  0.0613 -0.3828
 1595SOL    HW116247   2.223   3.044   3.279  1.7241 -0.0678 -2.7520
 1595SOL    HW216248   2.122   2.946   3.229  0.3277  1.0802 -1.6379
 1596SOL     OW16249   0.130   3.554   2.523 -1.0980  0.0654 -0.1097
 1596SOL    HW116250   0.136   3.589   2.612  0.0527 -0.1398 -0.1102
 1596SOL    HW216251   0.221   3.574   2.501 -0.3234 -2.3513  0.9056
 1597SOL     OW16252   3.703   2.729   4.485 -0.2409 -0.2581  0.4274
 1597SOL    HW116253   3.747   2.770   4.559  0.3232  1.3591 -0.8211
 1597SOL    HW216254   3.615   2.752   4.517  0.8132 -0.0278  3.1621
 1598SOL     OW16255   0.162   2.904   2.141  0.6222 -0.1099  0.6381
 1598SOL    HW116256   0.145   2.814   2.115  1.3519 -0.0757  0.0348
 1598SOL    HW216257   0.138   2.907   2.233  0.7989  0.5582  0.6610
 1599SOL     OW16258   0.842   3.505   8.254 -0.1945 -0.2973  0.6531
 1599SOL    HW116259   0.816   3.588   8.215  0.9649  0.1369  0.8140
 1599SOL    HW216260   0.765   3.448   8.259 -0.3042 -0.1755  0.3331
 1600SOL     OW16261   1.086   0.977  13.576 -0.0995 -0.0377 -0.1904
 1600SOL    HW116262   1.039   0.986  13.659 -1.7826  0.2515 -1.1637
 1600SOL    HW216263   1.064   0.885  13.559  1.8880 -0.8720  1.6934
 1601SOL     OW16264   3.709   3.767  16.311 -0.0950  0.5823 -0.2416
 1601SOL    HW116265   3.630   3.772  16.365  0.2403 -1.1004  0.4141
 1601SOL    HW216266   3.755   3.846  16.338  1.4299  0.6465 -3.0191
 1602SOL     OW16267   0.164   4.444   8.363 -0.1573 -0.1557 -0.2301
 1602SOL    HW116268   0.073   4.471   8.353 -0.3471 -0.5345  0.4622
 1602SOL    HW216269   0.179   4.377   8.296 -0.8422  0.5072 -1.0401
 1603SOL     OW16270   4.405   0.520   9.632  0.2050  0.2311  0.2610
 1603SOL    HW116271   4.483   0.481   9.594  0.3114  0.7156 -0.0137
 1603SOL    HW216272   4.435   0.558   9.715 -0.0495 -1.7612  1.2678
 1604SOL     OW16273   3.018   4.276   2.704 -0.6722  0.2389  0.3751
 1604SOL    HW116274   3.060   4.354   2.667 -0.6896 -1.5426 -3.4469
 1604SOL    HW216275   3.047   4.206   2.644 -3.2608 -1.1434  0.7603
 1605SOL     OW16276   1.437   0.228   4.947 -0.5640  0.3077 -0.0087
 1605SOL    HW116277   1.426   0.316   4.983  1.3542  0.5347  0.0638
 1605SOL    HW216278   1.349   0.198   4.928 -1.4547  2.3477  0.8966
 1606SOL     OW16279   2.543   1.420  13.125  0.7333  0.7203 -0.3537
 1606SOL    HW116280   2.449   1.409  13.115  0.9557 -0.6696 -0.9236
 1606SOL    HW216281   2.554   1.505  13.083  0.8457  0.6958 -0.3729
 1607SOL     OW16282   1.761   1.992  14.467  0.0321 -0.4892 -0.2302
 1607SOL    HW116283   1.706   1.987  14.389 -0.8913 -3.8406  0.6292
 1607SOL    HW216284   1.745   2.084  14.487 -1.0589 -0.4652 -1.2111
 1608SOL     OW16285   4.039   2.237   5.508 -0.1771  0.1383 -0.1568
 1608SOL    HW116286   4.027   2.300   5.437  0.4454 -3.5771 -3.5569
 1608SOL    HW216287   3.952   2.221   5.544 -0.0350 -0.5049 -0.1010
 1609SOL     OW16288   0.243   1.166   8.185 -0.3509 -0.4426  0.4506
 1609SOL    HW116289   0.254   1.076   8.214  1.3120 -0.7628 -1.1425
 1609SOL    HW216290   0.157   1.193   8.218 -0.1798  0.8581 -0.1676
 1610SOL     OW16291   2.060   0.217   9.077  0.1609  0.3150 -0.3254
 1610SOL    HW116292   2.072   0.296   9.025  1.3690  0.5120  0.2508
 1610SOL    HW216293   2.147   0.177   9.085  0.2900  0.6797  0.0642
 1611SOL     OW16294   0.524   3.423  10.137 -0.2666  0.3460  0.2253
 1611SOL    HW116295   0.518   3.454  10.228  0.7171 -0.9150  0.7166
 1611SOL    HW216296   0.569   3.499  10.100  1.0208  0.3118  1.7296
 1612SOL     OW16297   2.652   4.352   6.295 -0.1634 -0.2995  0.0507
 1612SOL    HW116298   2.665   4.447   6.301 -3.3553  0.1393 -0.4835
 1612SOL    HW216299   2.600   4.343   6.215 -0.9110 -1.1470  0.6427
 1613SOL     OW16300   0.794   1.068  10.497  0.6511  0.3171  0.0909
 1613SOL    HW116301   0.704   1.044  10.518  0.7223  0.1310  0.1789
 1613SOL    HW216302   0.840   0.986  10.481 -0.6714 -0.5420  0.6714
 1614SOL     OW16303   2.420   3.684   9.100 -0.3890 -0.1608 -0.0461
 1614SOL    HW116304   2.469   3.766   9.093 -0.6105  0.0442  0.8486
 1614SOL    HW216305   2.492   3.634   9.138  1.6783  2.1410 -0.9127
 1615SOL     OW16306   4.062   0.757   3.734  0.1071  0.1167 -0.2405
 1615SOL    HW116307   4.011   0.680   3.712 -1.4489  0.5208  1.9013
 1615SOL    HW216308   4.127   0.769   3.665  2.5498 -1.3889  1.7906
 1616SOL     OW16309   0.147   3.191  10.997  0.1527 -0.3785 -0.7563
 1616SOL    HW116310   0.140   3.171  10.904  2.4784  1.3537 -1.3005
 1616SOL    HW216311   0.199   3.270  10.984  1.9834 -1.0832  2.1551
 1617SOL     OW16312   1.507   1.083   0.005 -0.3983  0.6255 -0.0279
 1617SOL    HW116313   1.445   1.067  17.639  0.4639 -0.6192 -0.4896
 1617SOL    HW216314   1.585   1.042  17.676 -0.2788  0.9268 -0.1143
 1618SOL     OW16315   4.111   3.470   3.794 -0.1103  0.1166 -0.4888
 1618SOL    HW116316   4.071   3.430   3.872 -0.0929 -1.3431 -1.2332
 1618SOL    HW216317   4.028   3.494   3.752 -0.2817 -1.2746 -0.9415
 1619SOL     OW16318   0.888   3.945   4.118  0.2245 -0.6120  0.3702
 1619SOL    HW116319   0.958   3.882   4.102  3.2341  3.1518 -1.1925
 1619SOL    HW216320   0.867   3.945   4.212  1.2625  0.1461  0.6044
 1620SOL     OW16321   1.168   0.170   2.865  0.1854 -1.1296  0.1378
 1620SOL    HW116322   1.246   0.224   2.855 -1.5033  0.7985 -2.5735
 1620SOL    HW216323   1.175   0.096   2.805 -1.5418  0.3141 -1.8171
 1621SOL     OW16324   3.191   2.290   7.693 -0.7181  0.1362  0.0025
 1621SOL    HW116325   3.106   2.309   7.732 -0.8419  2.1088 -1.2134
 1621SOL    HW216326   3.167   2.232   7.621 -0.9015 -1.5523  1.4395
 1622SOL     OW16327   3.727   3.171   6.217 -0.1530  0.2966 -0.0451
 1622SOL    HW116328   3.692   3.093   6.260  2.3500 -0.3451  0.8736
 1622SOL    HW216329   3.786   3.130   6.154 -1.7833 -1.4979 -0.4014
 1623SOL     OW16330   3.975   1.891   1.423  0.6889 -0.3705 -0.2247
 1623SOL    HW116331   3.981   1.877   1.328 -0.3458  1.4925 -0.5638
 1623SOL    HW216332   4.000   1.983   1.419  0.6588 -0.3521  0.0096
 1624SOL     OW16333   3.166   0.419   5.638  0.6297 -0.1849  0.2227
 1624SOL    HW116334   3.085   0.469   5.649  0.6248 -0.2550  0.5174
 1624SOL    HW216335   3.140   0.329   5.659  1.0206 -0.0337  1.3278
 1625SOL     OW16336   3.517   1.528   2.814  0.2203  1.3813  0.2654
 1625SOL    HW116337   3.511   1.573   2.898 -0.2573  0.6885  0.6027
 1625SOL    HW216338   3.432   1.543   2.774 -0.9382 -1.1264  1.7563
 1626SOL     OW16339   4.649   1.979   3.158  0.6705  0.2193 -0.2607
 1626SOL    HW116340   4.657   2.050   3.095  1.2316 -0.5883 -1.0999
 1626SOL    HW216341   4.611   1.918   3.094 -2.6954  1.1875  0.7812
 1627SOL     OW16342   2.013   3.096   1.811  0.4603 -0.0043  0.0094
 1627SOL    HW116343   1.926   3.122   1.784  2.0092  2.2915 -2.7558
 1627SOL    HW216344   2.001   3.001   1.816 -2.3693  0.3436 -0.5219
 1628SOL     OW16345   1.169   1.013   4.094 -0.2760 -0.5887  0.0423
 1628SOL    HW116346   1.091   0.968   4.063 -0.2584 -1.0352  0.6507
 1628SOL    HW216347   1.239   0.957   4.059  1.6932  1.9728 -0.1244
 1629SOL     OW16348   3.238   0.162   5.167  0.4745  0.4689  0.1593
 1629SOL    HW116349   3.198   0.094   5.220  0.2119  0.7543  0.3323
 1629SOL    HW216350   3.179   0.160   5.091  3.1072 -2.7039 -1.7689
 1630SOL     OW16351   3.934   1.939   4.279  0.1749  0.2864  0.2618
 1630SOL    HW116352   3.986   2.014   4.248 -0.6569 -0.0573 -2.0108
 1630SOL    HW216353   3.868   1.942   4.210  1.1590  0.2437 -0.6866
 1631SOL     OW16354   4.552   0.633   8.851  0.0334  0.0135  0.2123
 1631SOL    HW116355   4.624   0.682   8.890 -0.2242  1.0782 -0.6346
 1631SOL    HW216356   4.517   0.608   8.937  1.9655 -2.5100  0.2371
 1632SOL     OW16357   3.778   0.131   4.126  0.3779 -0.9301  0.0942
 1632SOL    HW116358   3.818   0.044   4.127  1.0320 -0.6233  0.4246
 1632SOL    HW216359   3.836   0.172   4.190  1.6760 -1.3037 -0.8564
 1633SOL     OW16360   0.277   4.061   7.051 -0.2345 -0.3543 -0.3107
 1633SOL    HW116361   0.224   3.981   7.045 -0.4956 -0.0738 -1.7647
 1633SOL    HW216362   0.281   4.076   6.957  1.4822  0.7758 -0.0588
 1634SOL     OW16363   4.100   3.119   4.628 -0.1346  0.0863 -0.5382
 1634SOL    HW116364   4.180   3.067   4.624  0.7540  1.4693 -0.6511
 1634SOL    HW216365   4.135   3.206   4.648 -1.8151  1.1613 -2.2129
 1635SOL     OW16366   1.990   1.230   3.295  0.3920  0.3019  0.0415
 1635SOL    HW116367   2.026   1.168   3.231 -1.9751 -0.2129 -0.7799
 1635SOL    HW216368   2.058   1.288   3.331 -0.4360  1.6689 -0.5793
 1636SOL     OW16369   3.461   0.846   8.423 -0.4886 -0.5632 -0.3147
 1636SOL    HW116370   3.486   0.798   8.502 -0.7765 -0.5131 -0.1950
 1636SOL    HW216371   3.493   0.779   8.362 -1.8770  0.4900 -2.2100
 1637SOL     OW16372   1.666   1.730   8.079 -0.1856 -0.4575  0.2285
 1637SOL    HW116373   1.689   1.746   8.170  1.2390 -1.1538 -0.0101
 1637SOL    HW216374   1.659   1.635   8.072 -1.4956 -0.4491  1.6168
 1638SOL     OW16375   2.585   1.639   2.618  0.7874  0.2216  0.1858
 1638SOL    HW116376   2.657   1.597   2.664  0.9104 -0.4746 -0.6507
 1638SOL    HW216377   2.547   1.672   2.699  0.2272 -0.9752  0.4102
 1639SOL     OW16378   2.808   0.421   7.871  0.4822  0.4438 -0.4486
 1639SOL    HW116379   2.803   0.410   7.966 -1.8059  0.7846 -0.5083
 1639SOL    HW216380   2.716   0.438   7.850  0.5332 -0.8805 -1.7096
 1640SOL     OW16381   4.165   1.635   8.848  0.1501  0.4424 -0.3174
 1640SOL    HW116382   4.163   1.586   8.930 -3.5456 -1.8863 -1.8156
 1640SOL    HW216383   4.217   1.713   8.869  0.2177  0.4856 -0.6435
 1641SOL     OW16384   4.011   3.368  11.716 -0.5706  0.0282 -0.0604
 1641SOL    HW116385   4.025   3.457  11.682 -0.8744  0.6134  1.3729
 1641SOL    HW216386   4.102   3.345  11.736 -0.6287  1.7488  2.1804
 1642SOL     OW16387   2.939   2.868  16.311  0.4130 -0.3657 -0.2438
 1642SOL    HW116388   2.917   2.789  16.262  1.1743 -0.8320  0.1701
 1642SOL    HW216389   2.861   2.922  16.298 -0.3265 -1.3629  0.0280
 1643SOL     OW16390   1.352   2.448   1.029 -0.2416  0.0968  0.1933
 1643SOL    HW116391   1.424   2.453   0.966 -1.0577 -0.1165 -0.7431
 1643SOL    HW216392   1.297   2.397   0.970  1.1233 -1.0239 -0.1338
 1644SOL     OW16393   2.921   3.020  15.201 -0.1307  0.6052  0.2778
 1644SOL    HW116394   2.989   2.968  15.245 -0.7225  0.2235  0.7399
 1644SOL    HW216395   2.843   2.979  15.238 -1.2393  0.9819 -1.6487
 1645SOL     OW16396   0.220   0.423   6.806  0.7261  0.1262 -0.2797
 1645SOL    HW116397   0.267   0.358   6.754  0.9589  0.7587 -0.8504
 1645SOL    HW216398   0.172   0.369   6.869  1.1853 -0.8451 -0.7654
 1646SOL     OW16399   2.491   2.518   8.599 -0.6495  0.4294  0.1856
 1646SOL    HW116400   2.479   2.440   8.545  1.0139  1.2728 -1.4260
 1646SOL    HW216401   2.405   2.553   8.622 -0.9240 -2.0125  2.8291
 1647SOL     OW16402   2.934   2.727   1.823 -0.7588  0.2288  0.0230
 1647SOL    HW116403   2.973   2.646   1.858 -1.2583 -0.0808 -0.1388
 1647SOL    HW216404   2.856   2.696   1.778 -0.2755 -3.1837  1.5225
 1648SOL     OW16405   2.143   0.428   8.938 -0.2723  0.5926 -0.1751
 1648SOL    HW116406   2.118   0.416   8.847 -1.9275 -0.6560  0.4315
 1648SOL    HW216407   2.178   0.517   8.936 -0.1478  0.6257  2.6383
 1649SOL     OW16408   3.916   4.308   5.644 -0.1348 -0.5319  0.2334
 1649SOL    HW116409   3.866   4.320   5.725  0.7740 -2.2961  1.0560
 1649SOL    HW216410   3.986   4.370   5.665  0.1687 -1.6689  2.6587
 1650SOL     OW16411   0.437   4.320   2.937  0.4222 -0.4265 -0.2339
 1650SOL    HW116412   0.389   4.287   3.014  0.4452  0.0563 -0.0128
 1650SOL    HW216413   0.376   4.381   2.895  2.7237  1.8451 -0.2638
 1651SOL     OW16414   2.986   0.714   3.492 -0.1486 -0.2169 -0.6092
 1651SOL    HW116415   2.915   0.756   3.541 -0.1589 -0.9041 -0.0199
 1651SOL    HW216416   3.019   0.783   3.435  0.2790  0.3623  0.3397
 1652SOL     OW16417   0.011   2.807   8.881 -0.7990  0.1930  0.6710
 1652SOL    HW116418   0.084   2.861   8.913  1.2335 -2.6188  0.8009
 1652SOL    HW216419   0.051   2.784   8.797  0.4130 -0.0871  1.3258
 1653SOL     OW16420   3.565   0.668   6.613  0.4622 -0.0257  0.2667
 1653SOL    HW116421   3.475   0.635   6.609  0.4544 -0.1246  1.3593
 1653SOL    HW216422   3.565   0.717   6.695 -0.8926  0.8680 -0.2774
 1654SOL     OW16423   1.688   0.682   3.429 -0.0892  0.1737  0.2092
 1654SOL    HW116424   1.684   0.757   3.489 -0.7919  0.8048 -0.6302
 1654SOL    HW216425   1.766   0.637   3.461 -1.3576 -1.9457  0.3517
 1655SOL     OW16426   1.255   1.675  17.199  0.8834 -0.6671 -0.8391
 1655SOL    HW116427   1.198   1.616  17.248  1.9054 -0.4047  0.6474
 1655SOL    HW216428   1.210   1.670  17.114 -0.0337 -0.7560 -0.3510
 1656SOL     OW16429   2.362   0.322   8.617 -0.0091 -0.1340 -0.2433
 1656SOL    HW116430   2.420   0.397   8.603  1.0473 -0.5038  2.1744
 1656SOL    HW216431   2.278   0.368   8.617 -0.4563 -0.9391  1.4793
 1657SOL     OW16432   2.457   0.300   0.414 -0.2387  0.2581  0.2793
 1657SOL    HW116433   2.361   0.302   0.423 -0.3509  1.0993 -1.1635
 1657SOL    HW216434   2.458   0.204   0.419  0.7358  0.2158 -1.0455
 1658SOL     OW16435   1.129   2.785   3.454  0.5001 -0.3425  0.2366
 1658SOL    HW116436   1.083   2.778   3.538  1.6182 -1.1443  0.7825
 1658SOL    HW216437   1.198   2.720   3.469 -1.0768 -1.9057  0.6979
 1659SOL     OW16438   0.730   4.075  11.494 -0.0785  0.1689 -0.6791
 1659SOL    HW116439   0.804   4.044  11.441 -2.8527 -1.6750 -3.5084
 1659SOL    HW216440   0.765   4.139  11.555 -0.0187 -1.5009  1.0491
 1660SOL     OW16441   2.737   0.247   6.922  0.2489 -0.3491 -0.0679
 1660SOL    HW116442   2.776   0.165   6.891  2.3152 -0.1820  2.1730
 1660SOL    HW216443   2.739   0.306   6.846 -1.0310  0.4028  0.4791
 1661SOL     OW16444   0.070   3.298   7.809 -0.1533  0.0363  0.3900
 1661SOL    HW116445   0.143   3.360   7.798 -0.4482  0.3014 -0.0821
 1661SOL    HW216446   0.080   3.247   7.889  1.3943 -1.2109 -0.6008
 1662SOL     OW16447   2.076   3.325   3.783 -0.0742  0.0746 -0.0505
 1662SOL    HW116448   1.995   3.340   3.833  1.2468 -1.3582  2.4658
 1662SOL    HW216449   2.132   3.387   3.829  1.5033 -1.4183  0.0357
 1663SOL     OW16450   3.267   1.638   4.570  0.1105 -0.1097 -0.0199
 1663SOL    HW116451   3.293   1.651   4.661 -0.1063  1.4764 -0.1805
 1663SOL    HW216452   3.308   1.554   4.550 -0.4365 -0.4238  0.1837
 1664SOL     OW16453   3.021   2.481  13.255  0.0568 -0.3359 -0.2987
 1664SOL    HW116454   3.016   2.576  13.259 -0.1998 -0.3392 -0.5526
 1664SOL    HW216455   3.066   2.473  13.171 -0.2922  1.6857 -0.6585
 1665SOL     OW16456   3.914   2.275  13.994 -0.3752  0.3690  0.0453
 1665SOL    HW116457   3.935   2.277  14.087 -1.1496 -0.7812  0.2585
 1665SOL    HW216458   3.846   2.341  13.979  0.2410  0.4535 -2.4106
 1666SOL     OW16459   1.268   4.625  11.265  0.6370 -0.3301 -0.7611
 1666SOL    HW116460   1.282   4.652  11.356  0.9821 -2.8301 -0.0682
 1666SOL    HW216461   1.333   4.558  11.244 -0.0346 -0.9380 -0.9142
 1667SOL     OW16462   0.538   4.121  14.198 -0.2119  0.5016 -0.1380
 1667SOL    HW116463   0.535   4.134  14.293 -2.3522 -0.1215 -0.1282
 1667SOL    HW216464   0.460   4.169  14.170  1.4153  3.6146  0.6340
 1668SOL     OW16465   1.436   0.011   4.588  0.3675  0.4630 -0.4808
 1668SOL    HW116466   1.454   4.654   4.632  1.3978  0.8028 -0.2556
 1668SOL    HW216467   1.384   4.706   4.514  0.2049 -0.0664 -0.1408
 1669SOL     OW16468   1.957   3.979   4.231 -0.3825 -0.0058 -0.3275
 1669SOL    HW116469   2.013   3.928   4.289 -0.9040  1.2085  1.2638
 1669SOL    HW216470   1.884   3.919   4.215  0.3184 -0.9745  0.1193
 1670SOL     OW16471   3.252   4.419   9.058 -0.3001  0.8050 -0.0165
 1670SOL    HW116472   3.280   4.510   9.061 -0.1199  0.8314 -2.2546
 1670SOL    HW216473   3.173   4.420   9.112 -0.9268 -0.5079 -0.8995
 1671SOL     OW16474   3.641   0.245   6.996  0.0548 -0.0048 -0.0316
 1671SOL    HW116475   3.661   0.170   7.053  1.4446  0.3551 -0.0345
 1671SOL    HW216476   3.677   0.224   6.910  0.9411  2.4927 -0.2562
 1672SOL     OW16477   4.633   3.049   6.579  0.3175  0.1161 -0.2208
 1672SOL    HW116478   4.622   3.099   6.660  1.1259  1.9871 -1.2514
 1672SOL    HW216479   4.725   3.069   6.559  0.4522 -0.8730 -0.5559
 1673SOL     OW16480   3.581   2.720   4.828  0.6279 -0.5642  0.4624
 1673SOL    HW116481   3.667   2.760   4.815  0.1031  0.7317  0.9951
 1673SOL    HW216482   3.555   2.741   4.738 -0.0662 -0.3478  0.7089
 1674SOL     OW16483   0.895   3.540   5.909 -0.1377 -0.3090  0.3773
 1674SOL    HW116484   0.914   3.633   5.898 -0.2083 -0.4739 -1.1922
 1674SOL    HW216485   0.952   3.502   5.842 -0.6625  1.6165 -1.1511
 1675SOL     OW16486   2.399   2.049   0.632  0.2509 -0.2541  0.1293
 1675SOL    HW116487   2.411   2.143   0.641 -2.2730  0.0989 -0.2411
 1675SOL    HW216488   2.318   2.048   0.582 -0.8344 -1.0999  1.9332
 1676SOL     OW16489   1.017   4.527   8.235 -0.2965  0.7629  0.5353
 1676SOL    HW116490   0.963   4.525   8.315 -0.4994 -0.1296  0.3731
 1676SOL    HW216491   0.965   4.464   8.186  1.3581 -0.1927  0.0303
 1677SOL     OW16492   4.506   3.874   3.081 -0.3051 -0.4349  0.2107
 1677SOL    HW116493   4.488   3.863   2.988  3.0991  0.5685 -0.5892
 1677SOL    HW216494   4.565   3.948   3.063 -1.1779  0.2209  0.0303
 1678SOL     OW16495   0.386   1.977  10.362 -0.5654 -0.4727 -0.1166
 1678SOL    HW116496   0.300   2.017  10.373 -0.7600 -1.1390  0.7130
 1678SOL    HW216497   0.411   1.941  10.447  0.6197  0.1351 -0.2051
 1679SOL     OW16498   0.398   0.598   3.009  0.5011 -0.2815  0.3066
 1679SOL    HW116499   0.397   0.550   2.926  2.1887  0.3891 -0.0896
 1679SOL    HW216500   0.306   0.619   3.028  0.5834  1.2477 -0.9712
 1680SOL     OW16501   1.983   3.919   6.630 -0.4563  0.4890  0.3727
 1680SOL    HW116502   1.917   3.979   6.594 -0.1318  0.4211 -0.3359
 1680SOL    HW216503   1.988   3.855   6.559  1.4944  1.9082 -0.7691
 1681SOL     OW16504   1.196   2.017   8.802  0.4080 -0.1887  0.3076
 1681SOL    HW116505   1.229   2.079   8.736 -0.0037 -0.9978 -0.6623
 1681SOL    HW216506   1.137   2.073   8.852  1.1946  1.3279 -0.4578
 1682SOL     OW16507   1.860   1.475   8.073 -0.2337  0.1929 -0.1705
 1682SOL    HW116508   1.908   1.558   8.078 -0.3035  0.2274 -0.0849
 1682SOL    HW216509   1.875   1.440   8.160  2.4259 -0.2745 -0.8170
 1683SOL     OW16510   3.282   4.586   8.387  0.2002 -0.4378  0.3981
 1683SOL    HW116511   3.227   4.592   8.466 -0.9047 -0.8115 -0.3391
 1683SOL    HW216512   3.224   4.526   8.340  0.7525  0.4837 -1.4341
 1684SOL     OW16513   1.696   4.134   2.366 -0.3852  0.2736 -0.0977
 1684SOL    HW116514   1.700   4.225   2.337 -0.1257  1.0906  2.4553
 1684SOL    HW216515   1.770   4.137   2.427 -0.1865  3.6405 -0.5064
 1685SOL     OW16516   1.199   4.328   2.689 -0.4824  0.8317 -0.1092
 1685SOL    HW116517   1.140   4.272   2.740 -0.1125 -1.1110 -1.8277
 1685SOL    HW216518   1.143   4.362   2.620  0.1357  0.3874 -0.8297
 1686SOL     OW16519   1.485   1.935   7.661  0.0499  0.1596 -0.1581
 1686SOL    HW116520   1.573   1.899   7.648 -0.2575 -0.8449  0.4881
 1686SOL    HW216521   1.464   1.941   7.568 -0.3285  1.9273  0.0447
 1687SOL     OW16522   3.868   2.693   5.913  0.7480  0.6236  0.0426
 1687SOL    HW116523   3.939   2.672   5.853  1.1488 -1.4045  1.2338
 1687SOL    HW216524   3.903   2.665   5.997  1.6286  0.1562 -0.4692
 1688SOL     OW16525   0.201   0.233  15.790 -0.2110 -0.1757  0.1388
 1688SOL    HW116526   0.202   0.176  15.867  1.9923 -0.5953 -0.2010
 1688SOL    HW216527   0.287   0.222  15.750 -1.7564 -1.3162 -2.8273
 1689SOL     OW16528   3.701   0.304   3.564  0.3255  0.3956  0.3524
 1689SOL    HW116529   3.622   0.276   3.610  0.8009 -0.8453  0.4139
 1689SOL    HW216530   3.777   0.268   3.610 -1.1602 -1.4282  1.3777
 1690SOL     OW16531   3.092   4.412   0.081 -0.6238  0.4767  0.3995
 1690SOL    HW116532   3.150   4.487   0.066  2.5520 -1.6595  1.8899
 1690SOL    HW216533   3.160   4.358   0.123 -0.3875  0.1645 -0.3787
 1691SOL     OW16534   2.759   4.210  14.127  0.4052  0.7502 -0.4621
 1691SOL    HW116535   2.785   4.295  14.093  0.8159  1.3587  1.3846
 1691SOL    HW216536   2.844   4.180  14.158 -0.0157 -0.5838 -0.6077
 1692SOL     OW16537   0.206   2.873   7.494 -0.0728  0.0398 -0.3499
 1692SOL    HW116538   0.189   2.954   7.541  0.6935  0.5910 -1.0208
 1692SOL    HW216539   0.121   2.843   7.463 -1.5715  1.7037  2.2029
 1693SOL     OW16540   2.381   2.937   7.905  0.5609 -0.7629 -0.1698
 1693SOL    HW116541   2.342   3.008   7.956 -0.1967  0.4234 -2.4120
 1693SOL    HW216542   2.420   2.891   7.979  1.3205  0.4986  0.2220
 1694SOL     OW16543   1.262   2.940   2.248 -0.0675 -1.1526  0.5162
 1694SOL    HW116544   1.200   2.936   2.320 -0.2952 -2.2160  0.2687
 1694SOL    HW216545   1.269   2.851   2.212 -0.1448 -1.6562  1.7616
 1695SOL     OW16546   3.839   3.873   1.493  0.2431  0.0449 -0.2211
 1695SOL    HW116547   3.771   3.871   1.560  0.5171 -0.6795  0.0308
 1695SOL    HW216548   3.920   3.892   1.539  0.2084  0.5639 -0.3637
 1696SOL     OW16549   1.160   3.744   6.450  0.5766 -0.0683 -0.1869
 1696SOL    HW116550   1.157   3.745   6.355  1.6258  0.4911 -0.2192
 1696SOL    HW216551   1.137   3.833   6.479 -2.0592 -1.8438  3.2151
 1697SOL     OW16552   3.266   0.982   8.246 -0.0153  0.3803 -1.0509
 1697SOL    HW116553   3.235   0.983   8.337  0.9576  1.1344 -0.7354
 1697SOL    HW216554   3.318   0.902   8.257  0.7070  1.3794  2.7879
 1698SOL     OW16555   4.437   3.828   3.991 -0.1855 -0.2551 -0.0639
 1698SOL    HW116556   4.383   3.753   4.016 -3.0365  0.6679 -3.5999
 1698SOL    HW216557   4.443   3.807   3.898  0.9748  3.4206 -0.8267
 1699SOL     OW16558   1.963   2.366   3.807  0.2974 -0.2001 -0.1273
 1699SOL    HW116559   1.880   2.383   3.761  0.1672  2.8266  1.2383
 1699SOL    HW216560   2.025   2.417   3.755  2.1004 -2.4543 -0.1877
 1700SOL     OW16561   1.840   4.013   2.585  0.3035 -0.0463  0.8311
 1700SOL    HW116562   1.770   3.959   2.620 -0.1324 -0.2226 -0.3126
 1700SOL    HW216563   1.899   3.942   2.562 -1.0728 -0.9118 -0.0428
 1701SOL     OW16564   1.718   3.246   2.907 -0.6175 -0.0480  0.9198
 1701SOL    HW116565   1.671   3.165   2.885 -2.2497  0.9977  0.5661
 1701SOL    HW216566   1.701   3.305   2.834 -0.3773 -0.1771  0.7554
 1702SOL     OW16567   2.974   1.714   5.008 -0.6780  0.4136 -0.0155
 1702SOL    HW116568   2.987   1.699   4.914 -1.3429 -2.2132  0.3079
 1702SOL    HW216569   2.936   1.802   5.003 -1.2181  0.2219  0.6696
 1703SOL     OW16570   3.487   4.452   6.689 -0.1544  0.0704  0.7868
 1703SOL    HW116571   3.553   4.395   6.651 -2.3099 -3.0365  1.7004
 1703SOL    HW216572   3.533   4.500   6.758  2.6264  0.3564 -1.2586
 1704SOL     OW16573   0.107   3.081  10.390  0.3075  0.3230  0.4507
 1704SOL    HW116574   0.090   3.163  10.343 -0.3389  0.8045  1.5289
 1704SOL    HW216575   0.200   3.095  10.411  0.0947  0.9969  0.9378
 1705SOL     OW16576   1.981   2.138  11.810  0.0709  0.0973 -0.2786
 1705SOL    HW116577   1.905   2.130  11.753  0.9910 -3.6058 -0.9817
 1705SOL    HW216578   2.037   2.071  11.772 -0.0479 -0.1551 -0.0070
 1706SOL     OW16579   2.817   0.804   4.551 -0.1052  0.8133 -0.1038
 1706SOL    HW116580   2.895   0.835   4.505 -0.6492 -0.8714 -2.2114
 1706SOL    HW216581   2.761   0.783   4.476  0.0410  1.5094 -0.4033
 1707SOL     OW16582   2.079   3.355   3.204  0.4802 -0.0102 -0.6498
 1707SOL    HW116583   2.103   3.376   3.114 -1.8818 -0.9950 -1.5271
 1707SOL    HW216584   1.997   3.306   3.209  1.4908 -1.4846  1.2696
 1708SOL     OW16585   3.967   3.735   8.285  0.1672  0.0585  0.2047
 1708SOL    HW116586   3.981   3.648   8.322 -0.2851 -0.6136 -1.1639
 1708SOL    HW216587   4.056   3.768   8.278  0.4263 -0.5542  0.6134
 1709SOL     OW16588   0.908   1.115   1.347  0.1454 -0.2370 -0.3671
 1709SOL    HW116589   0.879   1.170   1.274  3.7014  0.6704 -1.1033
 1709SOL    HW216590   0.954   1.178   1.404 -0.1892  1.3151 -1.8353
 1710SOL     OW16591   3.913   3.692   9.518  0.3376  0.8195  0.5288
 1710SOL    HW116592   4.000   3.665   9.488  0.6738  0.3227  1.9079
 1710SOL    HW216593   3.933   3.749   9.592  0.7661  1.6252 -0.2166
 1711SOL     OW16594   4.205   1.612   3.952 -1.1099  0.1618  0.0460
 1711SOL    HW116595   4.286   1.592   3.905 -2.0807 -0.3076 -1.4308
 1711SOL    HW216596   4.228   1.584   4.041 -2.8739  0.0669  0.4611
 1712SOL     OW16597   2.409   1.753   0.485  0.0965  0.1919 -0.3192
 1712SOL    HW116598   2.402   1.669   0.529  1.4480  0.0628 -0.3456
 1712SOL    HW216599   2.344   1.754   0.414 -1.4391  1.8968  1.1071
 1713SOL     OW16600   0.929   1.352   6.428  0.0249 -0.1147  0.3195
 1713SOL    HW116601   0.836   1.371   6.422 -0.0409 -0.1570  1.1290
 1713SOL    HW216602   0.933   1.274   6.484  0.3521 -0.4016 -0.0989
 1714SOL     OW16603   3.390   4.341   8.672  0.2546  0.5019 -0.1538
 1714SOL    HW116604   3.480   4.317   8.692 -0.5686  0.1033  2.9611
 1714SOL    HW216605   3.354   4.266   8.718 -0.4604  1.0834  0.2205
 1715SOL     OW16606   0.841   3.361   2.600 -0.3296  0.7297 -0.1193
 1715SOL    HW116607   0.884   3.417   2.536  0.7754  0.5016  0.4129
 1715SOL    HW216608   0.774   3.320   2.546  0.9135 -2.2860  0.6213
 1716SOL     OW16609   3.458   0.454   3.016 -0.6378  0.8728 -0.1837
 1716SOL    HW116610   3.430   0.477   3.105  2.9664  0.7576  0.9826
 1716SOL    HW216611   3.455   0.359   3.018  1.8385  0.7367 -3.2284
 1717SOL     OW16612   4.225   1.402   3.648 -0.2705  0.2153  0.1521
 1717SOL    HW116613   4.225   1.477   3.588  0.0213 -0.2684 -0.4624
 1717SOL    HW216614   4.274   1.339   3.595 -0.8087  0.8124 -1.0808
 1718SOL     OW16615   2.538   1.827   3.187  0.2568 -0.2489  0.2197
 1718SOL    HW116616   2.449   1.835   3.153 -0.1406 -0.9002  1.0881
 1718SOL    HW216617   2.596   1.865   3.121  0.1416 -0.6806 -0.1310
 1719SOL     OW16618   4.595   1.840   2.570  0.2294 -0.1616  0.0122
 1719SOL    HW116619   4.640   1.918   2.537 -0.6518  1.9538  3.8169
 1719SOL    HW216620   4.503   1.867   2.570  0.2312 -0.2370  2.9463
 1720SOL     OW16621   2.036   1.497   2.214  0.1734  0.8765 -0.0292
 1720SOL    HW116622   2.012   1.542   2.295  2.7163  0.7617  0.7695
 1720SOL    HW216623   1.966   1.528   2.155 -0.8286 -0.7312  0.3171
 1721SOL     OW16624   0.217   1.644   1.235 -0.3012 -0.0908 -0.5219
 1721SOL    HW116625   0.270   1.678   1.163 -2.3152  2.2659 -0.8935
 1721SOL    HW216626   0.154   1.716   1.246 -2.7750 -2.2375 -0.6383
 1722SOL     OW16627   2.241   4.045   8.192  0.2588 -0.0527  0.4344
 1722SOL    HW116628   2.282   3.998   8.119 -0.4753 -1.5368  0.9809
 1722SOL    HW216629   2.319   4.062   8.245 -0.5966  2.2682  0.9289
 1723SOL     OW16630   3.947   2.188   9.643 -0.0975 -0.1988 -0.5620
 1723SOL    HW116631   3.938   2.225   9.555  0.5031 -0.7822 -0.8717
 1723SOL    HW216632   3.857   2.173   9.669 -0.0867  0.0476 -0.3741
 1724SOL     OW16633   0.257   3.552   0.379 -0.1146 -0.2176  0.1363
 1724SOL    HW116634   0.229   3.626   0.324  1.8966  0.6450  0.2846
 1724SOL    HW216635   0.206   3.567   0.458  0.2426  1.3221  0.0694
 1725SOL     OW16636   0.676   2.683   0.960  0.0222  0.1485  0.1731
 1725SOL    HW116637   0.601   2.636   0.995 -1.0905  1.9238  0.1736
 1725SOL    HW216638   0.722   2.725   1.033 -2.6317  0.6201  1.5778
 1726SOL     OW16639   2.449   0.103   6.841 -0.0670  0.2710  0.3332
 1726SOL    HW116640   2.481   0.188   6.812 -1.6263  0.5668 -0.5340
 1726SOL    HW216641   2.425   0.059   6.759 -2.2457 -0.2976  1.2978
 1727SOL     OW16642   4.168   3.838   6.107  0.8931  0.3295  0.3231
 1727SOL    HW116643   4.167   3.921   6.156 -1.5375  0.0492  0.7861
 1727SOL    HW216644   4.085   3.804   6.141  0.8031  0.2253  0.0028
 1728SOL     OW16645   1.676   1.479   4.762 -0.9981  0.0861 -0.5331
 1728SOL    HW116646   1.689   1.393   4.723  1.3414  0.0490  0.3547
 1728SOL    HW216647   1.595   1.510   4.721 -1.3118  0.1718  0.1465
 1729SOL     OW16648   1.266   3.529   0.136 -0.2015  0.4553  0.5431
 1729SOL    HW116649   1.232   3.607   0.093 -0.2998 -0.5392 -1.2009
 1729SOL    HW216650   1.190   3.511   0.191  0.3918  0.1531  1.2648
 1730SOL     OW16651   0.576   2.552  12.424 -0.0232 -0.2330 -0.2395
 1730SOL    HW116652   0.651   2.492  12.421  0.8794  0.8694 -0.1072
 1730SOL    HW216653   0.571   2.568  12.330 -1.2958  1.7864  0.1963
 1731SOL     OW16654   2.038   1.850   3.597  0.0254 -0.0271 -0.5745
 1731SOL    HW116655   1.955   1.858   3.549  1.7586 -0.8529 -3.7044
 1731SOL    HW216656   2.010   1.808   3.678  0.0558 -0.2678 -0.6884
 1732SOL     OW16657   0.151   1.062   5.455  0.3029  0.1220  0.0762
 1732SOL    HW116658   0.086   1.129   5.435  1.5770  1.0047 -1.0799
 1732SOL    HW216659   0.108   0.982   5.424 -1.7872  1.6354 -0.9171
 1733SOL     OW16660   4.398   4.128   5.743  0.3954  0.0798  0.3445
 1733SOL    HW116661   4.401   4.221   5.764  1.1910  0.8959 -3.3921
 1733SOL    HW216662   4.321   4.130   5.686  1.3524 -0.8357 -0.9640
 1734SOL     OW16663   4.603   0.526   5.913 -0.3332  0.2462  0.4512
 1734SOL    HW116664   4.622   0.614   5.880 -0.2201 -0.6990 -1.9926
 1734SOL    HW216665   4.605   0.475   5.832  0.3424  1.3408 -0.2210
 1735SOL     OW16666   3.345   2.894  10.181 -0.1087 -0.0642 -0.0122
 1735SOL    HW116667   3.332   2.963  10.116 -2.1095 -0.3259  0.1278
 1735SOL    HW216668   3.380   2.940  10.258  0.3295  0.6851 -0.6588
 1736SOL     OW16669   3.606   3.747   5.563 -0.2101 -0.0772  0.1715
 1736SOL    HW116670   3.628   3.816   5.500  0.8760 -0.5101  0.0781
 1736SOL    HW216671   3.639   3.774   5.649  1.5837 -2.4142  0.2127
 1737SOL     OW16672   3.469   3.405  15.847 -0.4155  0.1538 -0.3266
 1737SOL    HW116673   3.432   3.357  15.772 -1.2636 -0.4467  0.4793
 1737SOL    HW216674   3.413   3.372  15.917 -0.4227  0.2637 -0.2816
 1738SOL     OW16675   4.653   3.705   0.918  0.1123 -0.1273  0.4220
 1738SOL    HW116676   0.011   3.689   0.959  0.8730 -1.7779 -1.7885
 1738SOL    HW216677   4.610   3.620   0.927 -0.8865  0.3277 -0.0357
 1739SOL     OW16678   3.652   1.107  17.196 -0.1625 -0.0456 -0.1797
 1739SOL    HW116679   3.594   1.181  17.176 -1.7173 -1.3963 -0.6119
 1739SOL    HW216680   3.633   1.044  17.127 -2.5237 -1.1258  1.4543
 1740SOL     OW16681   1.311   1.741  10.187  0.4152  0.5026  0.1294
 1740SOL    HW116682   1.255   1.694  10.248  1.0163 -3.2513 -2.2371
 1740SOL    HW216683   1.262   1.820  10.163 -0.8971 -0.5241 -0.5836
 1741SOL     OW16684   2.959   1.563   8.211 -0.3264  0.0959 -0.0877
 1741SOL    HW116685   3.017   1.508   8.264  1.3093  2.6862  0.8045
 1741SOL    HW216686   3.009   1.579   8.130  1.3988  0.5163  1.0575
 1742SOL     OW16687   4.221   4.146   5.550 -0.0618 -0.5001 -0.2913
 1742SOL    HW116688   4.199   4.185   5.465  1.3282  0.4262 -0.2202
 1742SOL    HW216689   4.146   4.161   5.607  0.2743  1.0506 -0.2623
 1743SOL     OW16690   4.059   0.828  14.738 -0.1543 -0.2366  0.0596
 1743SOL    HW116691   4.001   0.776  14.794 -0.5041 -2.7510 -2.6169
 1743SOL    HW216692   4.146   0.825  14.776 -0.1208 -3.1371 -0.2085
 1744SOL     OW16693   4.704   3.064  15.449  0.1014 -0.0894  0.2814
 1744SOL    HW116694   0.022   3.052  15.533  1.0540  1.8131  0.0419
 1744SOL    HW216695   4.622   3.016  15.456 -0.5557  0.9030 -0.6563
 1745SOL     OW16696   1.362   1.369   6.158  0.4902 -0.3841 -0.2156
 1745SOL    HW116697   1.276   1.389   6.194 -0.2264  1.0768 -2.6920
 1745SOL    HW216698   1.365   1.442   6.095 -0.4588  0.6106  0.8826
 1746SOL     OW16699   2.148   0.901   6.113  0.2108  0.4995  0.4141
 1746SOL    HW116700   2.143   0.963   6.040 -0.2690 -0.1888 -0.1326
 1746SOL    HW216701   2.164   0.821   6.063  2.7352 -0.3404  2.5910
 1747SOL     OW16702   3.552   3.803  10.003 -0.4497  0.2496  0.2208
 1747SOL    HW116703   3.627   3.793   9.944 -0.5767 -0.1579  0.1351
 1747SOL    HW216704   3.510   3.718   9.995 -1.5930  0.8222  0.0481
 1748SOL     OW16705   0.515   0.186   5.309 -0.0007 -0.0308 -0.5238
 1748SOL    HW116706   0.586   0.133   5.345 -0.6265 -1.4456 -1.3753
 1748SOL    HW216707   0.437   0.134   5.325  0.0571  0.3284  0.8544
 1749SOL     OW16708   4.092   4.200   6.982  0.2638  0.2760  0.2555
 1749SOL    HW116709   4.085   4.172   7.073  1.5856 -2.9179 -0.6275
 1749SOL    HW216710   4.009   4.174   6.942 -0.8662  2.6129  1.0347
 1750SOL     OW16711   1.676   2.098  13.748 -0.1343 -0.5444 -0.1245
 1750SOL    HW116712   1.621   2.023  13.726  2.1048 -1.5078 -2.3891
 1750SOL    HW216713   1.656   2.120  13.839 -0.3933  1.6743 -0.7215
 1751SOL     OW16714   2.943   2.243  14.794 -0.3595 -0.0643  0.2066
 1751SOL    HW116715   2.972   2.190  14.721 -3.5722 -0.6121 -0.6852
 1751SOL    HW216716   2.905   2.315  14.743  0.5804  0.7667  0.6920
 1752SOL     OW16717   1.139   1.008   8.222  0.1734 -0.4176  0.4374
 1752SOL    HW116718   1.150   1.074   8.291 -2.1105 -0.0807  0.4846
 1752SOL    HW216719   1.080   0.947   8.266  0.0578 -0.8050 -0.2684
 1753SOL     OW16720   3.946   3.762   5.623  0.8715 -0.6329  0.1665
 1753SOL    HW116721   3.927   3.854   5.640  1.0772 -1.0011  2.4786
 1753SOL    HW216722   3.951   3.749   5.528  2.1919  2.0545 -0.1307
 1754SOL     OW16723   0.148   1.786   3.701  0.1481 -0.7610  0.5339
 1754SOL    HW116724   0.152   1.785   3.605  0.5380  2.1030  0.5123
 1754SOL    HW216725   0.205   1.857   3.729 -0.6334 -0.1882  0.6891
 1755SOL     OW16726   3.746   4.363  13.586 -0.1549 -0.2704  0.1114
 1755SOL    HW116727   3.812   4.339  13.521 -1.1914 -1.0871 -0.6517
 1755SOL    HW216728   3.668   4.313  13.562  0.0295 -0.4483 -0.1130
 1756SOL     OW16729   4.461   1.937   9.464 -0.3588 -0.2709  0.2965
 1756SOL    HW116730   4.433   1.868   9.523  0.3802 -0.0936  0.8581
 1756SOL    HW216731   4.514   1.992   9.522  0.4533 -1.3995  0.6392
 1757SOL     OW16732   0.871   4.391   6.315  0.3314  0.1183  0.1304
 1757SOL    HW116733   0.907   4.312   6.274 -0.9200  0.4647 -1.6606
 1757SOL    HW216734   0.778   4.386   6.293  0.3523 -0.5227  0.2128
 1758SOL     OW16735   0.244   0.767  10.980 -0.0537 -0.0825 -0.1062
 1758SOL    HW116736   0.156   0.797  11.006 -0.6764 -0.3234 -1.9496
 1758SOL    HW216737   0.278   0.750  11.068  2.0587  0.3510 -0.8381
 1759SOL     OW16738   4.009   4.699  10.337 -0.3942 -0.8031  0.0242
 1759SOL    HW116739   4.053   4.641  10.399 -1.8690 -1.6203  0.3220
 1759SOL    HW216740   4.071   0.044  10.324 -0.4891 -0.3156  2.2287
 1760SOL     OW16741   4.275   3.751   6.431  0.0227 -0.2797 -0.5951
 1760SOL    HW116742   4.193   3.791   6.400 -0.5264  0.0301  1.2427
 1760SOL    HW216743   4.276   3.658   6.408 -2.2848 -0.7593  1.2813
 1761SOL     OW16744   4.716   4.024   2.978 -0.8879  0.1539 -0.1585
 1761SOL    HW116745   4.726   4.115   2.951 -0.9715  0.6591  1.4750
 1761SOL    HW216746   0.002   3.979   2.895 -2.9700 -2.3493  0.8651
 1762SOL     OW16747   3.877   2.728   3.381  0.4920 -0.2264 -0.3372
 1762SOL    HW116748   3.859   2.655   3.322 -1.6593 -0.6029  0.7865
 1762SOL    HW216749   3.962   2.696   3.412 -0.7402 -0.0559  3.2020
 1763SOL     OW16750   0.622   2.758  10.869 -0.6229 -0.9535 -0.6584
 1763SOL    HW116751   0.664   2.804  10.942 -1.5579 -0.9353 -0.1368
 1763SOL    HW216752   0.559   2.720  10.931 -1.8600  1.5925 -0.3701
 1764SOL     OW16753   1.166   2.971   0.397 -0.2436  0.2276  0.3775
 1764SOL    HW116754   1.117   2.900   0.354 -1.6748  1.0651  0.6524
 1764SOL    HW216755   1.250   2.961   0.352 -1.2700 -1.4588 -1.1508
 1765SOL     OW16756   3.699   4.280   8.632  0.3124  0.5788 -0.5135
 1765SOL    HW116757   3.728   4.242   8.715 -0.5735  2.3715  0.6249
 1765SOL    HW216758   3.731   4.366   8.660  1.3186  0.3621 -1.0079
 1766SOL     OW16759   3.753   2.031   6.399  0.0687  0.0079 -0.0847
 1766SOL    HW116760   3.766   2.124   6.382 -2.0752  1.0949  4.3336
 1766SOL    HW216761   3.770   1.999   6.310 -1.0929  1.2156 -0.7328
 1767SOL     OW16762   3.493   0.570   0.930  0.3203 -0.5705  0.4422
 1767SOL    HW116763   3.561   0.593   0.867  1.1545 -1.8465  0.8802
 1767SOL    HW216764   3.484   0.477   0.908  4.1005 -1.2857  1.9364
 1768SOL     OW16765   0.588   4.394   4.318 -0.0078  0.5529  0.0390
 1768SOL    HW116766   0.582   4.302   4.295 -0.7485 -0.0419  2.5913
 1768SOL    HW216767   0.652   4.385   4.389  0.2853  3.1222  0.1086
 1769SOL     OW16768   1.667   1.709  12.491 -0.4268 -0.2813 -0.3028
 1769SOL    HW116769   1.581   1.713  12.533  0.0230 -0.3311  0.6273
 1769SOL    HW216770   1.718   1.777  12.535  0.6532 -1.4378  0.2337
 1770SOL     OW16771   3.430   0.076   2.813 -0.1940 -0.4185  0.0293
 1770SOL    HW116772   3.508   0.037   2.853 -0.6142 -0.1915  1.0669
 1770SOL    HW216773   3.467   0.133   2.746  1.8617  0.7233  2.1307
 1771SOL     OW16774   3.979   1.513  10.266 -0.3794  0.2547 -0.0958
 1771SOL    HW116775   4.054   1.556  10.308  0.1821 -0.2448 -0.5986
 1771SOL    HW216776   3.973   1.566  10.186  0.1810  0.1262 -0.2223
 1772SOL     OW16777   2.585   3.477   4.645 -0.1915  0.3765  0.1761
 1772SOL    HW116778   2.628   3.430   4.717 -0.4475  0.5277  0.4242
 1772SOL    HW216779   2.656   3.534   4.613 -1.1531  1.3282 -0.2629
 1773SOL     OW16780   4.583   2.039   4.572  0.1729  0.1726  0.1548
 1773SOL    HW116781   4.500   2.078   4.545 -0.0907  0.8499  1.9601
 1773SOL    HW216782   4.636   2.118   4.584 -1.3224  1.2068 -0.0736
 1774SOL     OW16783   4.396   3.607   2.103  0.7186  0.6538 -0.7511
 1774SOL    HW116784   4.485   3.589   2.133 -0.8438  0.3150  3.7531
 1774SOL    HW216785   4.402   3.703   2.103  0.0029  0.7008  1.6592
 1775SOL     OW16786   3.341   4.324   9.599 -0.1422  0.0129  0.5706
 1775SOL    HW116787   3.406   4.277   9.652  0.3432  1.6913  1.4682
 1775SOL    HW216788   3.270   4.264   9.619  0.6372 -0.2125  2.5919
 1776SOL     OW16789   1.303   0.088   0.586 -0.5972 -0.5085  0.3081
 1776SOL    HW116790   1.380   0.139   0.564  0.2708 -0.6639  3.0290
 1776SOL    HW216791   1.349   0.009   0.614 -0.8849 -1.2454 -1.2731
 1777SOL     OW16792   3.202   4.365   5.237 -0.0980 -0.4263 -0.3704
 1777SOL    HW116793   3.298   4.367   5.245 -0.1716  1.2679  0.2005
 1777SOL    HW216794   3.172   4.331   5.321 -0.6375  2.1253  0.4809
 1778SOL     OW16795   1.701   3.970  11.674 -0.4175  0.4766 -0.2098
 1778SOL    HW116796   1.666   3.942  11.758  3.3688  1.7126  1.7854
 1778SOL    HW216797   1.623   3.958  11.620 -2.0291 -1.0974  2.4899
 1779SOL     OW16798   3.422   2.423  16.213 -0.7625 -0.2175  0.4492
 1779SOL    HW116799   3.399   2.464  16.297 -0.1369 -0.0944  0.5554
 1779SOL    HW216800   3.517   2.420  16.217 -0.7499 -0.5271 -0.1834
 1780SOL     OW16801   4.295   0.592   4.352  0.1676 -0.1651  0.3502
 1780SOL    HW116802   4.371   0.535   4.354 -0.4779 -1.1099 -1.5105
 1780SOL    HW216803   4.343   0.659   4.401  0.6551 -0.3935  0.1822
 1781SOL     OW16804   0.002   2.363  13.198 -0.2655  0.1031 -0.3090
 1781SOL    HW116805   4.662   2.416  13.154 -1.0019 -0.7673 -0.2559
 1781SOL    HW216806   0.083   2.396  13.161  0.0612 -1.0595 -0.6468
 1782SOL     OW16807   3.305   2.786   0.208  0.1743  0.1598 -0.0041
 1782SOL    HW116808   3.320   2.698   0.243  2.5170  1.3705  1.9679
 1782SOL    HW216809   3.233   2.814   0.263 -0.4694  0.8185 -1.1828
 1783SOL     OW16810   3.790   3.019   9.593 -0.1600  0.8235 -0.1883
 1783SOL    HW116811   3.722   3.074   9.633  0.0402  2.3003 -1.8714
 1783SOL    HW216812   3.843   3.001   9.670 -0.3655 -1.2169 -0.5250
 1784SOL     OW16813   0.346   1.221  16.755  0.3019  0.2868  0.3263
 1784SOL    HW116814   0.398   1.263  16.687 -2.1628 -0.3182 -1.9197
 1784SOL    HW216815   0.357   1.276  16.833 -1.8793 -0.0781  0.8895
 1785SOL     OW16816   1.997   2.501  13.386 -0.1174  0.1975  0.3968
 1785SOL    HW116817   1.965   2.411  13.380 -1.0174  0.5794 -0.5379
 1785SOL    HW216818   1.922   2.560  13.393 -0.5801 -0.6254  2.2720
 1786SOL     OW16819   2.079   0.745  13.196  0.2326 -0.8190 -0.3548
 1786SOL    HW116820   2.157   0.698  13.224  1.4425  2.3345  1.5746
 1786SOL    HW216821   2.107   0.804  13.126 -0.2710 -1.3515 -1.0043
 1787SOL     OW16822   0.067   0.695  17.435 -0.6377 -0.2418 -0.0782
 1787SOL    HW116823   0.036   0.772  17.482  0.2539  0.9290 -1.3812
 1787SOL    HW216824   0.014   0.693  17.355 -0.4692 -4.0908 -0.0918
 1788SOL     OW16825   2.112   0.146   3.838  0.3659 -0.2821 -0.2421
 1788SOL    HW116826   2.172   0.075   3.816  1.0629  0.4877 -0.8513
 1788SOL    HW216827   2.030   0.098   3.828  1.2628 -1.7466 -0.4558
 1789SOL     OW16828   1.278   3.595  11.253  0.1523  0.5610 -0.1514
 1789SOL    HW116829   1.234   3.598  11.169  0.6964 -2.0331 -0.5254
 1789SOL    HW216830   1.347   3.531  11.238  0.2578  0.6016  0.1523
 1790SOL     OW16831   1.037   0.116  13.591 -0.7188  0.0860  0.2152
 1790SOL    HW116832   1.093   0.094  13.516  3.9450 -1.5112  4.1017
 1790SOL    HW216833   1.105   0.116  13.659 -0.0131 -0.7897 -0.4763
 1791SOL     OW16834   0.373   2.052   2.053  0.1219 -0.1115  0.3739
 1791SOL    HW116835   0.441   1.984   2.043 -0.7412 -1.0331  0.7778
 1791SOL    HW216836   0.421   2.131   2.076 -0.3104  0.2460  0.0250
 1792SOL     OW16837   3.411   1.894  17.289 -0.1240 -0.5458  0.1161
 1792SOL    HW116838   3.504   1.917  17.291 -0.7520  1.9595  0.5100
 1792SOL    HW216839   3.377   1.973  17.332  2.8035 -0.1452  1.7033
 1793SOL     OW16840   2.327   2.476   1.973  0.2747  0.4767 -0.9270
 1793SOL    HW116841   2.384   2.534   1.922  1.4324 -1.1153 -1.4322
 1793SOL    HW216842   2.371   2.463   2.057 -1.6895 -0.1425 -0.0005
 1794SOL     OW16843   2.234   1.936   6.799 -0.0735 -0.2897 -0.4531
 1794SOL    HW116844   2.306   1.902   6.746 -0.1173 -0.3727 -0.4592
 1794SOL    HW216845   2.162   1.912   6.742 -0.9965  0.3592  0.4361
 1795SOL     OW16846   4.692   3.096   8.367 -0.4147 -0.5207  0.1044
 1795SOL    HW116847   4.616   3.041   8.350 -1.0450  0.9845 -1.8893
 1795SOL    HW216848   0.031   3.026   8.373  2.1805  1.8862 -0.4333
 1796SOL     OW16849   2.425   4.424   2.838  0.7360  0.2440 -0.0388
 1796SOL    HW116850   2.344   4.374   2.852  1.5993 -0.9357  0.7130
 1796SOL    HW216851   2.382   4.505   2.811 -0.1804 -0.4742 -0.7599
 1797SOL     OW16852   0.901   1.757  10.353  0.0352 -0.1261 -0.3713
 1797SOL    HW116853   0.901   1.776  10.447  0.3551  4.4671 -1.2875
 1797SOL    HW216854   0.806   1.750  10.347 -0.0431 -0.1507  0.8281
 1798SOL     OW16855   0.480   1.236  15.088  0.1998 -0.7480 -0.4724
 1798SOL    HW116856   0.415   1.291  15.132  1.0659  2.4526 -3.1873
 1798SOL    HW216857   0.495   1.287  15.009 -3.3931 -0.6917 -1.0921
 1799SOL     OW16858   0.608   2.578   5.763  0.3515  0.0657 -0.2381
 1799SOL    HW116859   0.674   2.639   5.732  1.6408 -2.2358 -1.9876
 1799SOL    HW216860   0.522   2.613   5.739 -0.4044 -1.3331  0.4276
 1800SOL     OW16861   0.718   4.714   6.983  0.2723 -0.1335  0.2269
 1800SOL    HW116862   0.791   0.021   7.035 -0.9847  0.3458  1.6794
 1800SOL    HW216863   0.650   4.714   7.050 -0.2983  0.0220 -0.3497
 1801SOL     OW16864   4.549   3.541   8.910 -0.4633 -0.2889  0.6440
 1801SOL    HW116865   4.563   3.633   8.890 -0.4624 -0.9051 -2.1905
 1801SOL    HW216866   4.516   3.506   8.828  1.4202 -2.2926  0.7143
 1802SOL     OW16867   1.380   3.635   1.450 -0.1323  0.6402 -0.3321
 1802SOL    HW116868   1.465   3.599   1.476 -0.5589  0.0465  0.2507
 1802SOL    HW216869   1.410   3.721   1.422  2.0751 -0.1085 -0.2627
 1803SOL     OW16870   2.512   3.206   3.548 -0.4622 -0.7321  0.2344
 1803SOL    HW116871   2.468   3.148   3.485 -0.4838  0.1261 -0.5355
 1803SOL    HW216872   2.465   3.201   3.631 -0.3259  0.0333  0.3536
 1804SOL     OW16873   2.291   1.411   2.304  0.3169  0.3544  0.2195
 1804SOL    HW116874   2.211   1.438   2.258  0.2855 -0.5206 -0.2563
 1804SOL    HW216875   2.333   1.496   2.302  1.1784 -0.1113 -1.1918
 1805SOL     OW16876   3.028   0.154   8.901  0.3211  0.1194 -0.4792
 1805SOL    HW116877   2.988   0.120   8.980 -0.1555  1.1326 -0.2810
 1805SOL    HW216878   2.962   0.220   8.880 -0.9756 -0.9258  0.3103
 1806SOL     OW16879   0.226   1.858   2.581 -0.1452 -0.0639  0.4443
 1806SOL    HW116880   0.144   1.843   2.629  0.0396  1.0930  1.1144
 1806SOL    HW216881   0.294   1.867   2.648  0.5863 -0.9032 -0.1835
 1807SOL     OW16882   3.996   2.682  10.591 -0.6856  0.0006 -0.2762
 1807SOL    HW116883   3.954   2.617  10.535 -1.9483 -0.3577  1.0911
 1807SOL    HW216884   3.934   2.668  10.662 -2.5482  0.0368 -1.8726
 1808SOL     OW16885   4.425   3.683   1.378  0.1014  0.5369 -0.1564
 1808SOL    HW116886   4.379   3.719   1.302 -1.2010 -0.0007  0.3782
 1808SOL    HW216887   4.359   3.625   1.418  2.6936 -2.4340 -0.1769
 1809SOL     OW16888   4.517   3.473  17.578 -0.3544  0.4039 -0.4036
 1809SOL    HW116889   4.560   3.479  17.492  0.3941 -0.7228 -0.1188
 1809SOL    HW216890   4.589   3.443  17.635 -0.1982  1.1192 -0.2302
 1810SOL     OW16891   4.263   4.065  17.569 -0.0848 -0.2189  0.5436
 1810SOL    HW116892   4.355   4.090  17.582 -0.0363  0.3644 -0.8752
 1810SOL    HW216893   4.210   4.095  17.643 -0.3448  2.6473 -0.8274
 1811SOL     OW16894   1.506   4.230   7.730  0.2257 -0.5605  0.5556
 1811SOL    HW116895   1.449   4.242   7.654  1.0660  0.4622  0.0962
 1811SOL    HW216896   1.534   4.139   7.718 -0.5148 -0.6616 -0.3639
 1812SOL     OW16897   0.289   4.026   1.012  0.3849  0.4681  0.3355
 1812SOL    HW116898   0.247   3.950   1.050  3.1328 -1.3826 -0.2873
 1812SOL    HW216899   0.219   4.089   0.997 -0.8534 -0.9996 -0.0114
 1813SOL     OW16900   1.441   0.712   6.237  0.0047 -0.4940 -0.8029
 1813SOL    HW116901   1.468   0.792   6.191 -0.9327 -1.2471 -2.6553
 1813SOL    HW216902   1.491   0.723   6.318 -1.5993  0.1690  0.1034
 1814SOL     OW16903   1.415   3.567   6.719 -0.1410  0.0790 -0.3266
 1814SOL    HW116904   1.408   3.496   6.784 -0.1490 -0.4729 -0.9343
 1814SOL    HW216905   1.473   3.629   6.764  1.1656 -1.4883  0.1599
 1815SOL     OW16906   3.383   2.236   7.933  0.1971 -0.3802 -0.6147
 1815SOL    HW116907   3.301   2.256   7.888  0.0630  0.8289  0.1479
 1815SOL    HW216908   3.422   2.317   7.966 -0.8966 -0.2445  0.3306
 1816SOL     OW16909   3.031   1.785   2.039 -0.6582 -0.0337  0.2795
 1816SOL    HW116910   3.090   1.713   2.017 -2.8938 -1.1819 -1.8573
 1816SOL    HW216911   3.017   1.787   2.134 -0.0683 -1.0723  0.3856
 1817SOL     OW16912   0.930   0.321   7.364 -0.4653 -0.3612 -0.4208
 1817SOL    HW116913   0.878   0.364   7.296 -0.4336  0.0731 -0.1742
 1817SOL    HW216914   0.991   0.394   7.374 -1.1172  0.0007  0.9439
 1818SOL     OW16915   2.851   0.420  14.334 -0.2140  0.4329  0.8473
 1818SOL    HW116916   2.761   0.428  14.364 -0.4459 -1.0117  0.5388
 1818SOL    HW216917   2.843   0.344  14.277 -2.3434  0.9666  0.4589
 1819SOL     OW16918   2.394   2.025   7.734  0.4087  0.1065 -0.3780
 1819SOL    HW116919   2.387   2.119   7.719 -0.9786  0.2653  1.2354
 1819SOL    HW216920   2.366   1.990   7.649 -0.2293 -1.2376  0.3868
 1820SOL     OW16921   1.399   1.899  15.497 -0.2826 -0.3284 -0.3769
 1820SOL    HW116922   1.481   1.948  15.495  0.0972 -0.9322  0.5476
 1820SOL    HW216923   1.406   1.835  15.426  1.4566 -0.7759  0.1980
 1821SOL     OW16924   3.659   0.256   6.040 -0.1212 -0.6662 -0.2263
 1821SOL    HW116925   3.677   0.212   5.957  1.0958  1.9519 -1.3479
 1821SOL    HW216926   3.712   0.204   6.100  2.3261 -0.2181 -2.0302
 1822SOL     OW16927   3.573   1.955   6.603 -0.3060 -0.4149  0.3306
 1822SOL    HW116928   3.592   1.862   6.592  2.4468  0.0247  1.2952
 1822SOL    HW216929   3.637   2.007   6.554 -0.6406  1.4952  1.9262
 1823SOL     OW16930   3.541   2.952   5.167 -0.0443 -0.0111 -0.1027
 1823SOL    HW116931   3.468   2.944   5.105 -0.5146 -1.1213  0.5978
 1823SOL    HW216932   3.587   3.021   5.119  3.3624 -0.4113  2.6469
 1824SOL     OW16933   2.480   3.247  16.809 -0.8991 -0.1595  0.1372
 1824SOL    HW116934   2.404   3.303  16.822  0.8392  1.7940  2.0144
 1824SOL    HW216935   2.535   3.274  16.883 -0.5824  1.5721 -0.7113
 1825SOL     OW16936   4.046   1.986   7.994 -0.4817  0.2758 -0.0638
 1825SOL    HW116937   3.960   2.008   8.031 -1.3747  1.3763 -2.7816
 1825SOL    HW216938   4.054   2.054   7.927  2.6661  0.2753  0.3452
 1826SOL     OW16939   1.032   4.373   8.699  0.0032  0.2651 -0.2008
 1826SOL    HW116940   0.973   4.299   8.685  0.9328 -0.4741 -0.2987
 1826SOL    HW216941   1.119   4.331   8.694 -0.5259 -0.5616 -2.7509
 1827SOL     OW16942   2.511   2.789  11.908  0.4799  0.1051 -0.0478
 1827SOL    HW116943   2.515   2.866  11.965 -1.0877 -1.5710  2.3508
 1827SOL    HW216944   2.578   2.733  11.946  0.0424 -0.7562 -0.5603
 1828SOL     OW16945   0.953   0.666   2.207 -0.2198  0.0088  0.1293
 1828SOL    HW116946   0.945   0.591   2.147  1.6998 -0.9555  1.0766
 1828SOL    HW216947   0.967   0.741   2.148  1.7031 -2.3433 -2.4426
 1829SOL     OW16948   4.698   4.588   4.831 -0.1127  0.2996  0.1290
 1829SOL    HW116949   4.718   4.598   4.738  4.6914  1.1373  1.2781
 1829SOL    HW216950   4.619   4.637   4.854  0.8003  2.2195 -0.7836
 1830SOL     OW16951   1.927   2.638   9.690 -0.2878  0.4811 -0.1964
 1830SOL    HW116952   1.986   2.660   9.762 -0.9904 -1.9276  1.1264
 1830SOL    HW216953   1.851   2.614   9.743 -0.2082  2.0321  0.5940
 1831SOL     OW16954   0.148   4.163   5.509 -0.7070  0.3174 -0.4932
 1831SOL    HW116955   0.099   4.226   5.563  0.4015 -0.7405  1.7589
 1831SOL    HW216956   0.213   4.131   5.572 -0.7886 -1.1512 -1.1660
 1832SOL     OW16957   1.931   3.576  10.932  0.5110 -0.5620 -0.6118
 1832SOL    HW116958   1.884   3.612  10.857  1.3253 -1.3569 -1.4883
 1832SOL    HW216959   1.861   3.524  10.971  1.4595 -1.8703 -0.6499
 1833SOL     OW16960   2.690   4.491  12.905 -0.0684 -0.4745  0.4625
 1833SOL    HW116961   2.656   4.411  12.946 -0.7210  0.6747  2.1795
 1833SOL    HW216962   2.775   4.503  12.949 -0.5616 -3.1039  2.1620
 1834SOL     OW16963   1.788   2.116  16.793  0.2641 -0.1060 -0.2601
 1834SOL    HW116964   1.855   2.185  16.803 -0.9234  0.7521  1.9226
 1834SOL    HW216965   1.844   2.038  16.796 -0.7860 -0.8741 -0.9763
 1835SOL     OW16966   1.133   0.881   2.926 -0.2241  0.5657  0.3455
 1835SOL    HW116967   1.139   0.856   3.018  1.5973 -1.9779 -0.4515
 1835SOL    HW216968   1.219   0.864   2.888 -0.6876  0.0734 -0.4922
 1836SOL     OW16969   0.316   4.038   7.981 -0.2983  0.1712 -0.1352
 1836SOL    HW116970   0.411   4.024   7.975 -0.4503  0.2826 -2.7279
 1836SOL    HW216971   0.276   4.004   7.901 -1.7578  0.3120  0.5527
 1837SOL     OW16972   1.341   0.432   7.649 -0.0700 -0.1655  0.4259
 1837SOL    HW116973   1.313   0.489   7.721  1.3629  1.6649 -0.4509
 1837SOL    HW216974   1.281   0.360   7.666 -1.4415  1.0025  0.5200
 1838SOL     OW16975   0.806   4.017   5.491  0.5288 -0.6012 -0.4506
 1838SOL    HW116976   0.719   3.992   5.462  0.4515 -0.8590 -0.0043
 1838SOL    HW216977   0.785   4.078   5.562  0.1068 -0.8238 -0.3904
 1839SOL     OW16978   1.221   2.471  11.664 -1.1055  0.2741  0.3338
 1839SOL    HW116979   1.244   2.540  11.727 -0.9114 -0.7090  1.3303
 1839SOL    HW216980   1.276   2.399  11.695 -0.9483  0.1037 -0.3453
 1840SOL     OW16981   0.830   3.461   9.137  0.6596 -0.2632 -0.0269
 1840SOL    HW116982   0.749   3.511   9.123  1.3745  1.0228  0.3805
 1840SOL    HW216983   0.848   3.417   9.054 -1.5862 -2.5904  0.7032
 1841SOL     OW16984   1.072   3.615   1.417  0.6048  0.0382  0.5974
 1841SOL    HW116985   1.163   3.630   1.439  0.9535 -1.9797  0.5453
 1841SOL    HW216986   1.068   3.637   1.324 -1.1973 -0.7500  0.4820
 1842SOL     OW16987   1.105   4.344   4.741 -0.5039 -0.2259 -0.0545
 1842SOL    HW116988   1.182   4.310   4.695 -0.9623  0.0035 -0.9852
 1842SOL    HW216989   1.124   4.334   4.834  1.0789  0.4131 -0.2951
 1843SOL     OW16990   1.462   4.575   6.796  0.6209 -0.6120  0.2789
 1843SOL    HW116991   1.498   4.553   6.882  1.1707 -1.2909 -0.1307
 1843SOL    HW216992   1.403   4.647   6.820 -0.5612 -1.1922 -0.9402
 1844SOL     OW16993   0.289   4.467   9.124 -0.1139 -0.2576  0.0205
 1844SOL    HW116994   0.344   4.488   9.200  0.1979 -0.4001 -0.1641
 1844SOL    HW216995   0.211   4.521   9.137 -0.7336 -1.4681  1.3636
 1845SOL     OW16996   3.563   0.901   0.608 -0.2542 -0.2119 -0.1814
 1845SOL    HW116997   3.607   0.829   0.653  0.8041  0.6667  0.2080
 1845SOL    HW216998   3.473   0.879   0.630 -0.8842  2.0266 -0.5068
 1846SOL     OW16999   2.815   4.514   1.037 -0.2209 -0.2797  1.0956
 1846SOL    HW117000   2.821   4.430   1.083  2.3375  0.1298  1.5399
 1846SOL    HW217001   2.742   4.539   1.093 -1.0499  0.8046 -0.4809
 1847SOL     OW17002   1.171   2.633   2.767  0.0705 -0.5090 -0.2088
 1847SOL    HW117003   1.208   2.622   2.680  0.0383 -0.3998 -0.2367
 1847SOL    HW217004   1.172   2.547   2.810  0.5299 -0.0712  0.6490
 1848SOL     OW17005   1.601   3.123   3.150  0.7675 -0.4973 -0.0050
 1848SOL    HW117006   1.588   3.095   3.059  2.0278 -2.6212  0.4726
 1848SOL    HW217007   1.590   3.041   3.198 -0.5659  0.0356  0.5936
 1849SOL     OW17008   1.829   2.950   7.507 -0.0874  0.1351  0.1147
 1849SOL    HW117009   1.867   3.006   7.575  0.1550  0.2860 -0.1441
 1849SOL    HW217010   1.849   3.001   7.428 -3.8032  0.1245 -0.8689
 1850SOL     OW17011   3.450   2.286   2.268  0.4683  0.1518 -0.4571
 1850SOL    HW117012   3.368   2.236   2.275  1.3333 -1.4694 -2.0099
 1850SOL    HW217013   3.467   2.290   2.174  1.7887  0.6545 -0.1968
 1851SOL     OW17014   3.338   3.397  16.490  0.0972  0.1635  0.2844
 1851SOL    HW117015   3.357   3.383  16.398 -2.2327  1.5382 -0.4228
 1851SOL    HW217016   3.243   3.410  16.494 -0.3219 -2.2989 -1.9772
 1852SOL     OW17017   1.744   2.602   7.426 -0.0004 -0.2649 -0.2029
 1852SOL    HW117018   1.680   2.673   7.429  0.8137  0.3785  2.5551
 1852SOL    HW217019   1.801   2.640   7.360  2.1721 -2.4082  0.4179
 1853SOL     OW17020   0.547   2.410  11.725  0.1382  1.3576 -0.1979
 1853SOL    HW117021   0.624   2.376  11.772  0.6269  2.3266 -0.2861
 1853SOL    HW217022   0.518   2.324  11.695  0.7722  0.1428  2.5744
 1854SOL     OW17023   4.449   3.997   0.380  0.4477  0.3124  0.4678
 1854SOL    HW117024   4.542   4.009   0.395  0.5455  0.1277  0.0052
 1854SOL    HW217025   4.422   4.089   0.382  0.2615  0.2407  1.0499
 1855SOL     OW17026   4.497   4.494   7.601  0.1857 -0.4839  0.1435
 1855SOL    HW117027   4.458   4.475   7.516 -0.0379 -1.1994  0.4044
 1855SOL    HW217028   4.523   4.585   7.607 -2.7129  0.5557 -2.9021
 1856SOL     OW17029   0.812   3.745   6.291  0.7469  0.4009 -0.0334
 1856SOL    HW117030   0.790   3.755   6.383 -0.7844  0.4744 -0.4026
 1856SOL    HW217031   0.860   3.827   6.278  0.4981  0.4399 -0.7263
 1857SOL     OW17032   1.524   1.072   3.982  0.1527 -0.3871  0.4616
 1857SOL    HW117033   1.456   1.005   3.995  0.9723 -1.5547 -1.2198
 1857SOL    HW217034   1.502   1.103   3.894 -0.8051  0.4857  1.0114
 1858SOL     OW17035   0.574   3.208  13.655  0.2119  0.6893  0.0962
 1858SOL    HW117036   0.662   3.241  13.638  0.2083  1.5090  1.7302
 1858SOL    HW217037   0.574   3.236  13.746  0.2986 -0.0338  0.3189
 1859SOL     OW17038   0.056   1.406   1.927 -0.5417  0.0484  0.2666
 1859SOL    HW117039   0.053   1.473   1.858 -2.2459 -1.2933 -0.9333
 1859SOL    HW217040   4.695   1.370   1.915 -0.6867  0.0470  1.3359
 1860SOL     OW17041   0.491   0.163   5.044  0.3203 -0.3204 -0.7704
 1860SOL    HW117042   0.438   0.083   5.045 -0.3089  0.1045 -0.1460
 1860SOL    HW217043   0.499   0.179   5.139 -5.3566  1.5768 -0.6527
 1861SOL     OW17044   2.736   2.287  11.237 -0.1097 -0.2963 -0.3688
 1861SOL    HW117045   2.723   2.369  11.189  3.2833 -0.3041 -1.2704
 1861SOL    HW217046   2.765   2.314  11.324 -1.4731  4.0701 -1.2816
 1862SOL     OW17047   1.165   3.204   8.070 -0.0535 -0.1065 -0.4356
 1862SOL    HW117048   1.199   3.118   8.044  0.6258 -0.5209  1.8086
 1862SOL    HW217049   1.086   3.209   8.016 -0.1179 -0.6879 -0.3995
 1863SOL     OW17050   1.626   3.480   8.346 -0.1092 -0.2778  0.1144
 1863SOL    HW117051   1.551   3.464   8.290  0.8780 -0.4754 -1.1447
 1863SOL    HW217052   1.684   3.418   8.302  1.6964  0.5958  1.2322
 1864SOL     OW17053   0.801   3.906   7.885 -0.2710  0.5947 -0.3894
 1864SOL    HW117054   0.819   3.841   7.817 -1.7603  0.8847 -1.0603
 1864SOL    HW217055   0.819   3.990   7.843 -0.8397  1.8409  1.8597
 1865SOL     OW17056   4.163   4.219   4.659  0.2771 -0.6675 -0.6216
 1865SOL    HW117057   4.237   4.171   4.622  1.4387 -0.0886  0.9507
 1865SOL    HW217058   4.086   4.175   4.621 -0.5006  0.7711 -0.7254
 1866SOL     OW17059   0.385   1.207  16.132  0.3967 -0.0240  0.1716
 1866SOL    HW117060   0.295   1.179  16.119  0.8240 -1.1319 -0.3696
 1866SOL    HW217061   0.410   1.154  16.207  0.9880 -0.3667 -0.2582
 1867SOL     OW17062   2.620   0.297   4.777 -0.3627  0.1678  0.0626
 1867SOL    HW117063   2.650   0.355   4.708 -3.8464 -0.2606 -1.8215
 1867SOL    HW217064   2.555   0.245   4.730  1.9353 -1.1117 -1.6778
 1868SOL     OW17065   2.054   3.561   5.249  0.4434  0.0959  0.0726
 1868SOL    HW117066   2.107   3.617   5.192  0.0490  0.4593  0.0649
 1868SOL    HW217067   1.966   3.565   5.210 -0.5102 -0.5175  2.1555
 1869SOL     OW17068   2.950   0.247   2.819  0.1325 -0.3312  0.2812
 1869SOL    HW117069   2.904   0.252   2.902 -0.8279  1.0138 -0.3266
 1869SOL    HW217070   3.036   0.217   2.849 -0.9381 -3.1765  0.4567
 1870SOL     OW17071   2.285   3.934   5.999 -0.0047 -0.4601 -0.0831
 1870SOL    HW117072   2.349   3.921   5.929 -0.1825 -1.0166 -0.1437
 1870SOL    HW217073   2.275   3.844   6.031  1.6196 -0.5960  0.0093
 1871SOL     OW17074   1.548   1.909  15.168 -0.0478 -0.0436  0.0163
 1871SOL    HW117075   1.537   1.818  15.198 -0.1087  0.6348  2.0827
 1871SOL    HW217076   1.631   1.908  15.121 -0.8319 -4.4634 -1.3241
 1872SOL     OW17077   0.856   3.871  17.490 -0.0222 -0.2574 -0.0553
 1872SOL    HW117078   0.797   3.939  17.458 -1.8248 -1.2001  1.2298
 1872SOL    HW217079   0.875   3.910  17.575 -1.4155  0.6597 -0.1683
 1873SOL     OW17080   1.971   1.856   1.985 -0.4030  0.0357 -0.0424
 1873SOL    HW117081   1.948   1.799   1.912 -1.3402 -1.2101  1.2337
 1873SOL    HW217082   1.887   1.903   1.985  0.1922  1.1119 -0.4333
 1874SOL     OW17083   2.536   1.707   8.597 -0.2004  0.1944 -0.3212
 1874SOL    HW117084   2.453   1.754   8.588 -0.7493 -0.4800  1.2234
 1874SOL    HW217085   2.542   1.722   8.691 -1.8147  0.4723 -0.2589
 1875SOL     OW17086   2.330   3.960   1.861  0.6426 -0.2607  0.3945
 1875SOL    HW117087   2.394   3.918   1.805  1.8360 -1.0302  2.3327
 1875SOL    HW217088   2.336   4.053   1.839  1.6418 -0.8304 -1.6971
 1876SOL     OW17089   2.220   2.256   3.280  0.3459  0.1887  0.5583
 1876SOL    HW117090   2.287   2.222   3.222  0.3490  0.7612  0.2304
 1876SOL    HW217091   2.179   2.328   3.232  0.2722 -0.8707 -0.9472
 1877SOL     OW17092   1.665   4.629  13.186 -0.3640 -0.3324  0.7442
 1877SOL    HW117093   1.598   4.698  13.190 -0.1924 -0.0701 -0.9241
 1877SOL    HW217094   1.619   4.578  13.119 -0.2752 -1.9921  1.9472
 1878SOL     OW17095   1.733   4.226   4.715 -0.3268 -0.2280  0.2802
 1878SOL    HW117096   1.807   4.286   4.707  0.6556 -1.3485  0.9420
 1878SOL    HW217097   1.772   4.152   4.761  0.3538  0.1678  0.3439
 1879SOL     OW17098   3.661   4.468   6.912  0.0706 -0.4597 -0.9820
 1879SOL    HW117099   3.742   4.463   6.861  0.5107  0.4914 -0.3721
 1879SOL    HW217100   3.679   4.410   6.985  2.2969 -0.2099 -1.3291
 1880SOL     OW17101   0.052   2.222   4.922 -0.0924 -0.3370  0.2269
 1880SOL    HW117102   0.134   2.249   4.882 -0.4858  0.2261 -0.1955
 1880SOL    HW217103   0.064   2.127   4.915 -0.1880 -0.4805  1.8939
 1881SOL     OW17104   1.252   2.692  13.118  0.0888  0.0122 -0.3243
 1881SOL    HW117105   1.320   2.726  13.059 -0.9326  1.5006 -0.6361
 1881SOL    HW217106   1.188   2.763  13.118  1.7094  1.4710  0.4969
 1882SOL     OW17107   0.922   4.481   4.327  0.6371 -0.3557  0.1667
 1882SOL    HW117108   0.880   4.449   4.247 -1.4838  0.6805  0.8672
 1882SOL    HW217109   0.940   4.569   4.295 -0.0035 -0.0321  0.6781
 1883SOL     OW17110   3.963   4.290   3.406  0.7667 -0.3375  0.7466
 1883SOL    HW117111   4.047   4.253   3.381  1.4578  2.2653 -0.8495
 1883SOL    HW217112   3.980   4.288   3.500  0.7721 -1.3306  0.7171
 1884SOL     OW17113   1.652   2.172  13.348 -0.0117 -0.5369  0.1298
 1884SOL    HW117114   1.607   2.240  13.399 -1.3246 -2.0922  1.0538
 1884SOL    HW217115   1.605   2.094  13.378 -0.9074 -0.4580 -1.0679
 1885SOL     OW17116   4.434   3.720   3.716 -0.7530  0.3939 -0.1560
 1885SOL    HW117117   4.494   3.674   3.774  0.2705 -0.7926 -2.1631
 1885SOL    HW217118   4.471   3.689   3.633 -2.2543 -0.6029 -0.4615
 1886SOL     OW17119   3.834   0.334   4.739 -0.0116 -0.2764 -0.8214
 1886SOL    HW117120   3.905   0.398   4.752 -0.2303 -0.0551 -0.7125
 1886SOL    HW217121   3.762   0.375   4.787  0.3176 -0.5622 -0.0673
 1887SOL     OW17122   0.321   2.856  16.347 -0.5460  0.0729  0.0720
 1887SOL    HW117123   0.305   2.769  16.310  3.8433 -0.8476  0.4249
 1887SOL    HW217124   0.244   2.868  16.404  0.3872 -0.3961  1.4445
 1888SOL     OW17125   4.144   1.267  11.704 -0.4171  0.5072  0.1151
 1888SOL    HW117126   4.206   1.223  11.645 -3.0839 -1.1942 -1.3759
 1888SOL    HW217127   4.088   1.297  11.634  1.6976  2.0956 -0.9022
 1889SOL     OW17128   1.203   3.963   3.244  0.1639 -0.2023  0.6817
 1889SOL    HW117129   1.204   4.055   3.219  0.2814 -0.2238  0.6122
 1889SOL    HW217130   1.141   3.921   3.185 -0.3166 -0.9258  1.6977
 1890SOL     OW17131   0.207   4.676   4.956  0.1073 -0.0062 -0.5068
 1890SOL    HW117132   0.171   0.038   4.959  0.2969  0.1522 -3.3139
 1890SOL    HW217133   0.130   4.621   4.941  0.0332 -0.4620  1.5993
 1891SOL     OW17134   1.284   0.637   5.718  0.3442  0.2124 -0.4961
 1891SOL    HW117135   1.198   0.677   5.730  0.7597  0.6794  0.9609
 1891SOL    HW217136   1.328   0.688   5.787  0.6761 -0.1542 -0.4367
 1892SOL     OW17137   1.789   3.961   4.578 -0.4918 -0.5102 -0.1575
 1892SOL    HW117138   1.740   3.880   4.591 -0.9694 -0.3415 -0.9082
 1892SOL    HW217139   1.847   3.969   4.654 -1.4502  0.2473  0.4975
 1893SOL     OW17140   2.637   3.971   3.086  0.0211 -0.3206 -0.1645
 1893SOL    HW117141   2.576   3.980   3.159  1.1588 -0.4866  0.7981
 1893SOL    HW217142   2.621   4.048   3.031  0.3043  0.1767  0.4522
 1894SOL     OW17143   2.157   4.293   4.332 -0.0770  0.1459 -0.2978
 1894SOL    HW117144   2.082   4.344   4.364  0.6052  0.9871 -0.0515
 1894SOL    HW217145   2.141   4.205   4.367 -0.1893 -0.4056 -1.7439
 1895SOL     OW17146   1.656   0.269  16.392 -0.5308  0.0387  0.0979
 1895SOL    HW117147   1.751   0.262  16.379 -0.7265 -3.2332  0.5245
 1895SOL    HW217148   1.635   0.280  16.485 -0.7578 -1.4016  0.2118
 1896SOL     OW17149   0.632   1.575   7.201  0.4382 -0.2194  0.3638
 1896SOL    HW117150   0.644   1.540   7.113  1.9554  1.3548 -0.0553
 1896SOL    HW217151   0.543   1.605   7.186  0.0305 -0.2894  2.5765
 1897SOL     OW17152   4.350   2.272  10.411 -0.1300  0.3049  1.0672
 1897SOL    HW117153   4.429   2.220  10.402  1.5095  2.5813  2.2364
 1897SOL    HW217154   4.303   2.231  10.483 -0.4806 -0.2586  0.5222
 1898SOL     OW17155   1.167   3.854  17.073  0.3177 -0.7890  0.2283
 1898SOL    HW117156   1.212   3.938  17.078  1.1792 -1.1504 -1.2420
 1898SOL    HW217157   1.242   3.794  17.079  0.7476 -0.0428  2.1444
 1899SOL     OW17158   2.805   0.141   3.337 -0.1399  0.0887 -0.3722
 1899SOL    HW117159   2.831   0.225   3.375 -1.0823  0.1193  0.2184
 1899SOL    HW217160   2.841   0.080   3.402  0.6410 -0.0050 -0.8979
 1900SOL     OW17161   3.314   1.310  13.101  0.3527  0.1175  0.8048
 1900SOL    HW117162   3.312   1.406  13.100  0.9971  0.0932 -2.5483
 1900SOL    HW217163   3.236   1.294  13.153  1.3998  1.8376  2.9373
 1901SOL     OW17164   0.412   0.447  12.648 -0.2420 -0.1375 -0.5094
 1901SOL    HW117165   0.376   0.454  12.559 -0.0306  0.2436 -0.5659
 1901SOL    HW217166   0.346   0.409  12.706 -1.0188 -0.1904 -1.4301
 1902SOL     OW17167   0.438   2.985  17.341 -0.2658  0.2822 -0.3450
 1902SOL    HW117168   0.502   2.952  17.405 -0.7501  0.1230  0.0606
 1902SOL    HW217169   0.496   3.053  17.308  1.1955 -1.4540 -1.3882
 1903SOL     OW17170   2.073   4.687  12.545  0.1139 -0.0282 -0.7111
 1903SOL    HW117171   2.043   0.019  12.475  1.5369  1.4475 -0.0762
 1903SOL    HW217172   2.093   4.602  12.505  0.3039  0.6642 -2.0962
 1904SOL     OW17173   3.242   1.148   7.291  0.3730 -0.4078 -0.1196
 1904SOL    HW117174   3.231   1.111   7.378 -2.7786  2.4576  0.7076
 1904SOL    HW217175   3.217   1.070   7.241  0.7379 -0.5203 -0.1254
 1905SOL     OW17176   0.524   4.204   8.207  0.3884  0.3693  0.7014
 1905SOL    HW117177   0.548   4.129   8.152  1.6639  1.0680  0.2927
 1905SOL    HW217178   0.433   4.227   8.185  0.5420  0.8389  0.5521
 1906SOL     OW17179   2.043   0.322   7.212  0.0128 -0.4047 -0.6685
 1906SOL    HW117180   1.973   0.362   7.161 -1.4171 -3.5330 -1.1353
 1906SOL    HW217181   2.119   0.361   7.169 -0.3428  1.0209 -0.0050
 1907SOL     OW17182   0.168   2.295   5.980 -0.0312  0.1259 -0.8383
 1907SOL    HW117183   0.249   2.289   6.031  0.7677 -2.7309 -2.4352
 1907SOL    HW217184   0.155   2.200   5.975  0.5380  0.0823 -1.5697
 1908SOL     OW17185   0.421   2.229  11.495  0.0763  0.1569  0.2210
 1908SOL    HW117186   0.423   2.287  11.418 -0.2740 -1.0452 -0.6905
 1908SOL    HW217187   0.333   2.239  11.531 -0.4656  0.5411 -1.2162
 1909SOL     OW17188   4.665   4.015  17.457  0.1643 -0.3567 -0.1197
 1909SOL    HW117189   4.606   4.089  17.473 -0.3823 -0.7711 -0.2245
 1909SOL    HW217190   4.722   4.026  17.533 -1.2147  3.4195  0.4048
 1910SOL     OW17191   1.595   1.099   6.904  0.3807  0.0714  0.5019
 1910SOL    HW117192   1.518   1.145   6.869  1.0722 -0.0068 -1.1158
 1910SOL    HW217193   1.634   1.166   6.960  3.1323 -0.8854 -0.2943
 1911SOL     OW17194   0.002   0.882   2.265  0.0735  0.4689  0.4447
 1911SOL    HW117195   4.661   0.821   2.235  0.9907 -1.5809  2.4939
 1911SOL    HW217196   4.704   0.963   2.222 -1.9435 -1.2993 -1.7473
 1912SOL     OW17197   0.950   2.716   3.060 -0.1207 -0.2203  0.0353
 1912SOL    HW117198   0.863   2.692   3.028  0.4968  0.8272 -2.4259
 1912SOL    HW217199   0.995   2.633   3.045  1.6400  0.4567  1.5692
 1913SOL     OW17200   3.733   0.479   6.720 -0.3172  0.0757  0.5041
 1913SOL    HW117201   3.728   0.518   6.807  1.5125  1.1572  0.1210
 1913SOL    HW217202   3.694   0.547   6.665 -1.5685 -0.1700  1.0995
 1914SOL     OW17203   1.371   3.530   3.281  0.4193 -0.0768 -0.0340
 1914SOL    HW117204   1.276   3.518   3.272  0.2043  1.9200 -0.4845
 1914SOL    HW217205   1.410   3.451   3.245 -0.5133 -0.0563 -1.0987
 1915SOL     OW17206   0.580   0.252   0.781  0.1578 -0.5326  0.2376
 1915SOL    HW117207   0.624   0.336   0.800 -0.5161  0.1706 -1.3013
 1915SOL    HW217208   0.619   0.222   0.699 -3.9179 -2.1356 -1.0766
 1916SOL     OW17209   3.365   1.810   6.210 -0.2379 -0.1410  0.0913
 1916SOL    HW117210   3.298   1.838   6.272 -0.7284 -0.2208 -0.3984
 1916SOL    HW217211   3.438   1.791   6.269  0.5468  3.2815  0.1842
 1917SOL     OW17212   3.878   1.215  10.261  0.2748  0.0203 -0.4539
 1917SOL    HW117213   3.939   1.154  10.301  0.3070 -0.1278 -0.7341
 1917SOL    HW217214   3.930   1.245  10.186 -0.6734 -0.4051 -1.2847
 1918SOL     OW17215   3.021   0.366   8.064  0.1161  0.3436 -0.3506
 1918SOL    HW117216   3.031   0.461   8.054  1.4700  0.2044 -0.3525
 1918SOL    HW217217   3.071   0.348   8.144  0.3645  1.4936 -0.2416
 1919SOL     OW17218   0.455   2.911   4.091 -0.7316 -0.4520  0.0145
 1919SOL    HW117219   0.389   2.842   4.092  0.2947 -1.4411 -0.7316
 1919SOL    HW217220   0.426   2.977   4.029 -0.1759 -0.5203 -0.3146
 1920SOL     OW17221   1.193   2.657   5.293  0.1845 -0.5120  0.0129
 1920SOL    HW117222   1.219   2.713   5.366  0.4781  0.4739 -0.8444
 1920SOL    HW217223   1.135   2.606   5.349 -0.2573 -1.1011 -0.9824
 1921SOL     OW17224   0.615   3.269   2.479 -0.7217  0.5739 -0.4894
 1921SOL    HW117225   0.544   3.328   2.455 -0.6729  0.7632 -0.1760
 1921SOL    HW217226   0.597   3.195   2.421  0.8192  0.5149 -0.8894
 1922SOL     OW17227   2.182   4.634   9.251 -0.6408 -0.1746 -0.2415
 1922SOL    HW117228   2.207   4.557   9.198  3.4894  0.7338  0.3896
 1922SOL    HW217229   2.153   4.691   9.180  0.8881  0.9267  0.0305
 1923SOL     OW17230   3.406   3.357   7.120  0.0599  0.0710 -0.0042
 1923SOL    HW117231   3.475   3.423   7.112  0.6678 -0.3405  1.7716
 1923SOL    HW217232   3.381   3.375   7.211  0.4361 -0.1801  0.1499
 1924SOL     OW17233   2.429   1.557  13.875 -0.4075  0.0192  0.1644
 1924SOL    HW117234   2.500   1.615  13.900 -1.0160 -0.6299  3.3481
 1924SOL    HW217235   2.435   1.542  13.781  0.8846  0.8988  0.1164
 1925SOL     OW17236   4.247   1.870  14.855  0.2904  0.3014 -0.2451
 1925SOL    HW117237   4.259   1.838  14.765 -1.8500 -0.6552 -0.1952
 1925SOL    HW217238   4.306   1.813  14.905  1.0781  1.4014  0.0739
 1926SOL     OW17239   2.668   3.982   2.125 -0.2368 -0.3210 -0.0279
 1926SOL    HW117240   2.680   3.963   2.219  0.1772 -0.3883 -0.0961
 1926SOL    HW217241   2.583   4.026   2.128 -0.5481 -0.9343  0.4004
 1927SOL     OW17242   3.601   1.121   2.260 -0.0254 -0.1365  0.1619
 1927SOL    HW117243   3.682   1.132   2.209 -0.0778  0.1424  0.1381
 1927SOL    HW217244   3.566   1.198   2.215  0.3962  0.0542  0.1560
 1928SOL     OW17245   3.673   1.122   8.590 -0.3530  0.5026  0.0962
 1928SOL    HW117246   3.622   1.151   8.665  0.2381  2.1103 -0.1158
 1928SOL    HW217247   3.758   1.164   8.602  0.1314 -0.6157  0.5112
 1929SOL     OW17248   3.472   3.946   0.165  0.7619  0.0391 -0.0396
 1929SOL    HW117249   3.428   4.020   0.207 -0.1915  0.2380 -1.3710
 1929SOL    HW217250   3.498   3.969   0.075  1.1830  1.3595  0.4055
 1930SOL     OW17251   3.731   3.998   2.944  1.2184 -0.5363 -0.0814
 1930SOL    HW117252   3.741   4.089   2.973  3.4066 -0.5856 -0.6816
 1930SOL    HW217253   3.637   3.992   2.957  1.1822 -0.3481 -0.2678
 1931SOL     OW17254   0.862   1.797   3.575  0.1741  0.4590 -0.3921
 1931SOL    HW117255   0.883   1.888   3.597  1.1256  0.6533 -2.1318
 1931SOL    HW217256   0.768   1.802   3.556 -0.1579 -2.1385  0.5785
 1932SOL     OW17257   3.924   2.999   0.478 -0.4789  0.3195 -0.0949
 1932SOL    HW117258   3.976   3.045   0.413  1.0186 -1.6003 -0.2676
 1932SOL    HW217259   3.872   2.940   0.423 -1.0022 -0.8246  1.6010
 1933SOL     OW17260   1.796   4.336   4.208 -0.0443  0.4220 -0.2257
 1933SOL    HW117261   1.879   4.354   4.163  0.5704  0.1796  0.8178
 1933SOL    HW217262   1.827   4.283   4.281  0.6781 -0.5144 -1.2130
 1934SOL     OW17263   1.732   3.314  12.178 -0.0606  0.1177  0.3920
 1934SOL    HW117264   1.706   3.394  12.134 -0.5561  0.0429  0.5439
 1934SOL    HW217265   1.744   3.256  12.103 -0.1916 -1.2163  1.3931
 1935SOL     OW17266   4.640   4.039   2.377 -0.0521 -0.3497 -0.0807
 1935SOL    HW117267   4.584   4.050   2.300 -0.2927  0.5636  0.2285
 1935SOL    HW217268   4.637   4.129   2.408 -2.3023 -1.2173  2.1728
 1936SOL     OW17269   2.520   1.878   9.328  0.5807  0.1472  0.5022
 1936SOL    HW117270   2.552   1.803   9.279  0.4641  0.3857  0.0639
 1936SOL    HW217271   2.485   1.941   9.265  0.3124 -1.5695 -1.0400
 1937SOL     OW17272   4.141   2.695   3.490 -0.0490 -0.5646  0.1286
 1937SOL    HW117273   4.164   2.604   3.470 -0.3597 -0.8475  1.0363
 1937SOL    HW217274   4.131   2.694   3.585  2.6121  2.1048  0.4086
 1938SOL     OW17275   2.089   0.986   5.241 -0.0788  0.6053  0.1459
 1938SOL    HW117276   2.025   0.997   5.312 -4.2791 -1.5623 -3.2426
 1938SOL    HW217277   2.042   0.911   5.204  0.6923 -0.7513  1.9649
 1939SOL     OW17278   2.162   1.223   7.582 -0.8746 -0.0005  0.0960
 1939SOL    HW117279   2.109   1.173   7.521 -0.0564 -3.1841  1.9863
 1939SOL    HW217280   2.251   1.220   7.545 -1.9043 -0.2046 -2.3532
 1940SOL     OW17281   1.757   3.386   5.364  0.2833  0.0058 -0.0087
 1940SOL    HW117282   1.747   3.303   5.318 -1.4242 -0.2680  0.8486
 1940SOL    HW217283   1.788   3.439   5.291 -0.1580  0.4983  0.1686
 1941SOL     OW17284   3.962   2.810  10.911  0.7210 -0.2292  0.0693
 1941SOL    HW117285   4.051   2.788  10.936  0.4523  0.7695  1.8589
 1941SOL    HW217286   3.915   2.817  10.994 -1.5525 -0.2791 -1.2083
 1942SOL     OW17287   2.286   1.263  10.521  0.0863  0.2083  0.0571
 1942SOL    HW117288   2.320   1.327  10.458 -0.1388  1.1018  0.8253
 1942SOL    HW217289   2.213   1.318  10.550 -0.8448 -1.6476  1.1990
 1943SOL     OW17290   4.497   3.798  16.844  0.3743 -0.3287 -0.6646
 1943SOL    HW117291   4.451   3.847  16.912 -2.5513 -1.8101 -1.5953
 1943SOL    HW217292   4.501   3.854  16.767  0.4591  2.1261  1.1205
 1944SOL     OW17293   1.473   2.561   2.905  0.7490 -0.2748 -0.1288
 1944SOL    HW117294   1.433   2.496   2.847  1.2430  0.5525 -1.3948
 1944SOL    HW217295   1.434   2.637   2.863 -1.8051 -1.9547 -0.7974
 1945SOL     OW17296   2.179   0.520   6.408 -0.3465 -0.1912  0.0425
 1945SOL    HW117297   2.222   0.504   6.492 -3.1203  2.2303  1.9358
 1945SOL    HW217298   2.242   0.574   6.360  0.1202  1.3286  2.3172
 1946SOL     OW17299   0.505   1.113   2.533 -0.6254 -0.1794  0.5890
 1946SOL    HW117300   0.464   1.041   2.580 -2.3583 -0.0968 -0.7575
 1946SOL    HW217301   0.513   1.076   2.445 -0.8594 -0.7688  0.8166
 1947SOL     OW17302   0.181   0.066   7.658  0.1719  0.0003 -0.4795
 1947SOL    HW117303   0.130   0.085   7.579 -2.1445 -0.6760  0.8462
 1947SOL    HW217304   0.226   0.149   7.672 -1.6538  0.4085  3.0867
 1948SOL     OW17305   3.782   1.092   4.386  0.1263  0.6203 -0.3116
 1948SOL    HW117306   3.725   1.027   4.344 -0.9179  0.4017  1.4602
 1948SOL    HW217307   3.839   1.040   4.443 -1.4384 -1.1786 -0.3843
 1949SOL     OW17308   1.159   3.295  16.129 -0.1268  1.0143 -0.2631
 1949SOL    HW117309   1.161   3.253  16.215  1.3093  0.9207 -0.3428
 1949SOL    HW217310   1.128   3.223  16.073 -1.4545  0.9159  0.5906
 1950SOL     OW17311   1.003   1.024   4.665 -0.4611  0.0769  0.0554
 1950SOL    HW117312   0.917   0.989   4.690 -0.2311  1.7518  3.2081
 1950SOL    HW217313   0.973   1.109   4.631 -1.9661  0.2555  1.8089
 1951SOL     OW17314   0.973   4.693  10.811  0.1970  0.1298  0.1149
 1951SOL    HW117315   0.929   4.608  10.808 -0.0304  0.3304 -2.1446
 1951SOL    HW217316   0.920   0.022  10.869  1.2277 -0.7059  1.8517
 1952SOL     OW17317   4.170   4.609   6.765  0.3662  0.1009 -0.2347
 1952SOL    HW117318   4.265   4.617   6.754  0.6667 -0.3420  2.0757
 1952SOL    HW217319   4.139   4.583   6.678  0.0904  0.9466 -0.3912
 1953SOL     OW17320   2.329   0.913   5.339 -0.3212 -0.1825 -0.0545
 1953SOL    HW117321   2.258   0.961   5.297  0.3795 -0.0446 -1.0787
 1953SOL    HW217322   2.295   0.869   5.417 -1.1617  1.9528  0.7739
 1954SOL     OW17323   4.498   3.668   7.978  0.1590  0.1806  0.4408
 1954SOL    HW117324   4.416   3.627   8.006  0.7196 -0.7473  0.7271
 1954SOL    HW217325   4.539   3.588   7.945 -2.1437 -0.7198 -0.2591
 1955SOL     OW17326   2.037   2.838   1.130  0.2159  0.1894  0.3676
 1955SOL    HW117327   2.008   2.877   1.047  1.4911 -1.2889 -0.7690
 1955SOL    HW217328   1.976   2.764   1.121 -1.4728  1.4816  1.1455
 1956SOL     OW17329   3.677   0.277  12.840  0.0230 -0.3054 -0.1985
 1956SOL    HW117330   3.596   0.328  12.845  1.0028  1.2585 -0.3178
 1956SOL    HW217331   3.713   0.301  12.755 -1.6064  1.7306 -0.3183
 1957SOL     OW17332   1.066   4.075   1.654 -0.0248  0.1802  0.0486
 1957SOL    HW117333   1.049   4.080   1.748  0.6657  2.1642  0.0683
 1957SOL    HW217334   1.150   4.120   1.642  1.0849 -1.1153  3.0013
 1958SOL     OW17335   3.949   2.107  10.574 -0.6531  0.3795  0.5658
 1958SOL    HW117336   4.044   2.117  10.587 -0.7521  0.8694  0.9123
 1958SOL    HW217337   3.927   2.039  10.638 -1.6235 -0.0724 -0.2712
 1959SOL     OW17338   4.164   2.322   9.365  0.6024  0.8635 -0.6517
 1959SOL    HW117339   4.178   2.257   9.434 -1.4605  0.5660 -0.5119
 1959SOL    HW217340   4.251   2.362   9.373  1.1962 -0.5250 -0.2456
 1960SOL     OW17341   1.441   3.264   5.815 -0.5064  0.2544  0.8702
 1960SOL    HW117342   1.374   3.258   5.884 -0.8650  0.5553  0.5445
 1960SOL    HW217343   1.504   3.200   5.846  0.3059  1.1356  1.0484
 1961SOL     OW17344   2.907   2.295   9.420  0.5770  0.3860  0.5932
 1961SOL    HW117345   2.915   2.363   9.487 -0.8108  0.9310  0.2079
 1961SOL    HW217346   2.900   2.216   9.473  0.0941  0.3863  0.5313
 1962SOL     OW17347   2.253   3.260   5.688 -0.0932  0.1835 -0.1659
 1962SOL    HW117348   2.226   3.267   5.596 -2.7710 -0.2549  0.5823
 1962SOL    HW217349   2.187   3.202   5.727 -0.5956 -0.1238 -1.4682
 1963SOL     OW17350   2.259   3.561   3.270 -0.3471  0.0301  0.3189
 1963SOL    HW117351   2.191   3.508   3.228  0.4118  0.3409 -1.2730
 1963SOL    HW217352   2.218   3.597   3.349  2.4003  1.0704  1.2535
 1964SOL     OW17353   3.354   2.936  14.272  0.1655 -0.4369  0.2564
 1964SOL    HW117354   3.376   2.968  14.184  1.1557  1.6612  1.2547
 1964SOL    HW217355   3.294   3.007  14.296  0.9136  0.3265 -0.1167
 1965SOL     OW17356   1.352   1.134  14.461 -0.6204 -0.3952  0.1073
 1965SOL    HW117357   1.285   1.202  14.463 -1.4771 -1.1911 -1.0439
 1965SOL    HW217358   1.378   1.130  14.553 -0.7708 -1.4765  0.1052
 1966SOL     OW17359   2.162   0.616  14.023 -0.4050  0.2737 -0.6085
 1966SOL    HW117360   2.214   0.557  13.968  0.9228 -1.8004  2.8987
 1966SOL    HW217361   2.088   0.629  13.964 -0.8819  0.3501  0.0071
 1967SOL     OW17362   2.535   1.522  14.841  0.4234  0.1123  0.0623
 1967SOL    HW117363   2.442   1.507  14.859  0.6898 -2.3677 -0.6950
 1967SOL    HW217364   2.562   1.449  14.896 -0.9186 -1.0305 -0.7903
 1968SOL     OW17365   4.680   1.537  16.859 -0.3233 -0.0597 -0.2007
 1968SOL    HW117366   4.717   1.513  16.774 -0.6652 -1.5463  0.0840
 1968SOL    HW217367   4.623   1.463  16.877 -0.7924  0.5248  0.7337
 1969SOL     OW17368   0.725   4.699   9.366 -0.3010  0.0771 -0.7167
 1969SOL    HW117369   0.718   0.065   9.341  1.9923  0.6755  0.8394
 1969SOL    HW217370   0.733   4.663   9.278  1.2189  0.3392 -0.6788
 1970SOL     OW17371   2.126   3.380   5.039 -0.3017  0.0166 -0.1934
 1970SOL    HW117372   2.078   3.434   5.102 -0.0835  0.3876 -0.3422
 1970SOL    HW217373   2.071   3.304   5.025 -2.2012  1.4457 -0.4798
 1971SOL     OW17374   4.590   2.178   1.566 -0.0925 -0.2758 -0.6504
 1971SOL    HW117375   4.547   2.106   1.612 -0.2789 -0.5015 -1.1853
 1971SOL    HW217376   4.681   2.180   1.598 -0.0276 -4.6435 -0.5986
 1972SOL     OW17377   4.118   3.044   4.364 -0.4575 -0.7530 -0.2791
 1972SOL    HW117378   4.104   3.055   4.457 -0.1806 -1.6729 -0.1277
 1972SOL    HW217379   4.060   3.104   4.317 -0.6677  0.2501  1.2695
 1973SOL     OW17380   1.618   1.399   5.272 -0.3996 -0.1174 -0.3319
 1973SOL    HW117381   1.681   1.471   5.267  0.3980 -0.7169  1.3218
 1973SOL    HW217382   1.670   1.332   5.315 -2.4347  0.7027  3.4009
 1974SOL     OW17383   2.791   0.567   6.454  1.1328  0.1345 -0.8077
 1974SOL    HW117384   2.741   0.613   6.522 -1.7073 -1.5035 -1.8135
 1974SOL    HW217385   2.834   0.641   6.412  0.8372  1.4879  1.2451
 1975SOL     OW17386   1.163   2.140   5.584 -0.4939  0.1565 -0.9826
 1975SOL    HW117387   1.100   2.120   5.515 -2.4570  1.1106  0.5437
 1975SOL    HW217388   1.185   2.234   5.584  2.8291 -0.6174 -1.0437
 1976SOL     OW17389   1.495   3.383   5.473  0.2781 -0.5134 -0.1405
 1976SOL    HW117390   1.527   3.449   5.535 -2.0407 -1.4758  2.0625
 1976SOL    HW217391   1.580   3.351   5.443  0.2208 -0.4598 -0.3606
 1977SOL     OW17392   2.234   4.696   5.451  0.2727  0.9231  0.1243
 1977SOL    HW117393   2.254   0.033   5.382 -0.2829  0.9718  0.0042
 1977SOL    HW217394   2.210   0.021   5.528  0.4352 -1.3081  1.6665
 1978SOL     OW17395   2.250   3.383  12.666  0.5804  0.7646 -0.7120
 1978SOL    HW117396   2.232   3.472  12.697 -0.5606  0.2173  0.1695
 1978SOL    HW217397   2.226   3.336  12.745 -0.8407  0.6456 -1.2106
 1979SOL     OW17398   3.550   0.752  12.979  0.2663 -0.2303 -0.3554
 1979SOL    HW117399   3.477   0.763  12.918  0.1631  0.2876 -0.1390
 1979SOL    HW217400   3.576   0.664  12.953 -0.7272  0.0485 -2.2890
 1980SOL     OW17401   1.757   0.738   5.111 -0.3405 -0.1992 -0.0780
 1980SOL    HW117402   1.843   0.728   5.152  0.0335  3.1393  0.0290
 1980SOL    HW217403   1.706   0.678   5.164  0.7621  0.3557  1.6049
 1981SOL     OW17404   3.638   1.878   4.182 -0.6379  0.5564 -0.5293
 1981SOL    HW117405   3.699   1.915   4.119 -1.2431 -0.0178 -1.4467
 1981SOL    HW217406   3.684   1.797   4.203 -0.8933  0.9127  1.4202
 1982SOL     OW17407   1.933   3.986  12.069 -0.3083  0.4602 -0.6053
 1982SOL    HW117408   1.879   3.924  12.119  0.8444  1.1290  1.4921
 1982SOL    HW217409   1.982   3.934  12.005  0.0609 -0.5792  0.5121
 1983SOL     OW17410   2.561   1.171   6.456 -0.3224  0.3607 -0.3723
 1983SOL    HW117411   2.470   1.187   6.481  0.0411 -1.7399  2.2228
 1983SOL    HW217412   2.594   1.260   6.468 -1.0104  0.5361  0.2252
 1984SOL     OW17413   0.863   1.308  16.798 -0.4906  0.0720  0.1111
 1984SOL    HW117414   0.837   1.243  16.863  0.8811 -0.5824  0.0128
 1984SOL    HW217415   0.784   1.361  16.799 -1.5288 -1.4719  0.6637
 1985SOL     OW17416   2.089   1.450   2.695  0.0480 -0.1162 -0.4628
 1985SOL    HW117417   2.133   1.510   2.756  1.3177 -2.2486  0.7491
 1985SOL    HW217418   2.037   1.397   2.755  1.1396  0.4663  1.0268
 1986SOL     OW17419   0.399   1.495   4.953 -0.0777 -0.1056  0.0415
 1986SOL    HW117420   0.450   1.424   4.916  2.1788  1.7316 -0.3247
 1986SOL    HW217421   0.445   1.519   5.033 -1.2907 -2.1902  1.3851
 1987SOL     OW17422   1.752   1.463   9.432  0.5072 -0.1084 -0.3566
 1987SOL    HW117423   1.816   1.418   9.488 -0.7599 -0.9089  0.4644
 1987SOL    HW217424   1.692   1.511   9.489  1.8809 -0.8847  1.7244
 1988SOL     OW17425   0.559   0.680  10.053  0.0206  0.1858 -0.4932
 1988SOL    HW117426   0.590   0.606  10.002 -0.2735 -0.5794  0.4438
 1988SOL    HW217427   0.604   0.664  10.137 -1.0196 -1.4695 -0.2573
 1989SOL     OW17428   0.394   0.989   1.975  0.0473  0.2823 -0.6881
 1989SOL    HW117429   0.484   1.022   1.976  0.5556 -1.1215  0.2309
 1989SOL    HW217430   0.377   0.990   1.881  4.9505  1.0798 -1.5336
 1990SOL     OW17431   4.341   0.054   2.499  0.4449  0.0165  0.2291
 1990SOL    HW117432   4.357   0.131   2.445 -1.7915  0.6689  0.4946
 1990SOL    HW217433   4.333   0.100   2.583 -0.3254 -0.4098  0.3802
 1991SOL     OW17434   2.690   3.863  13.281 -0.0350  0.7023  0.0264
 1991SOL    HW117435   2.632   3.910  13.340 -0.6405 -1.2885  1.0081
 1991SOL    HW217436   2.769   3.847  13.333  0.2985 -1.5856 -1.1845
 1992SOL     OW17437   0.605   2.843   5.340  0.8113 -0.0400 -0.5691
 1992SOL    HW117438   0.626   2.781   5.270 -1.6836  0.6514 -1.9387
 1992SOL    HW217439   0.534   2.896   5.303  0.8162 -0.3459 -1.0148
 1993SOL     OW17440   1.064   0.389   4.215  0.2479  0.3517  0.2089
 1993SOL    HW117441   1.015   0.423   4.141 -0.5188 -0.9679  0.1114
 1993SOL    HW217442   1.105   0.311   4.176 -1.2601  0.5989 -1.8881
 1994SOL     OW17443   3.240   1.354   6.013 -0.0699 -0.2425  0.4790
 1994SOL    HW117444   3.313   1.336   5.954 -0.3281  0.1509  0.0314
 1994SOL    HW217445   3.218   1.447   6.004 -0.5321 -0.4666 -0.6607
 1995SOL     OW17446   1.007   4.090  14.876 -0.6050 -0.0868  0.4183
 1995SOL    HW117447   0.962   4.041  14.808  0.5418 -1.0900  0.3826
 1995SOL    HW217448   0.992   4.182  14.854 -0.6823  0.2694  1.9267
 1996SOL     OW17449   2.779   0.397  16.503  0.2171 -0.3616 -0.2364
 1996SOL    HW117450   2.828   0.461  16.555 -2.1645  2.2890 -1.1901
 1996SOL    HW217451   2.769   0.329  16.569  1.9033  0.9433  1.3816
 1997SOL     OW17452   1.846   2.149   6.613  0.4352 -0.0424 -0.0838
 1997SOL    HW117453   1.926   2.148   6.561  0.8304 -0.8814  0.5232
 1997SOL    HW217454   1.777   2.151   6.548  0.0416 -1.3103  0.2967
 1998SOL     OW17455   1.580   3.624  11.644  0.4139 -0.3274  0.4833
 1998SOL    HW117456   1.631   3.619  11.725  1.4320  2.0942  0.0121
 1998SOL    HW217457   1.531   3.705  11.661 -0.8290 -1.2263  1.2047
 1999SOL     OW17458   3.476   2.482   8.012  0.5860 -0.5690 -0.0228
 1999SOL    HW117459   3.444   2.501   8.100  1.4198 -2.4679  0.7004
 1999SOL    HW217460   3.566   2.514   8.011  0.4044 -0.1019 -1.7579
 2000SOL     OW17461   3.108   0.656   8.192  0.2087  0.0390 -0.4497
 2000SOL    HW117462   3.187   0.611   8.161  0.4435  0.0846  0.0880
 2000SOL    HW217463   3.100   0.644   8.286  1.7643  3.5199  0.0964
 2001SOL     OW17464   4.142   4.161  15.757 -0.2032  0.4376 -0.1476
 2001SOL    HW117465   4.091   4.086  15.787 -0.2992 -0.3294 -2.1991
 2001SOL    HW217466   4.162   4.138  15.666  1.3935 -2.5218  0.9789
 2002SOL     OW17467   0.063   0.518   7.687 -0.0333  0.1016 -0.5882
 2002SOL    HW117468   0.005   0.512   7.611 -0.3220 -0.4894 -0.3193
 2002SOL    HW217469   0.009   0.507   7.765  0.5566 -1.1094 -0.3575
 2003SOL     OW17470   0.037   4.233   2.644 -0.2115 -0.4819  0.0239
 2003SOL    HW117471   0.129   4.256   2.630 -0.1212 -0.5038  0.5753
 2003SOL    HW217472   0.015   4.263   2.732  0.2579  0.5111 -0.1934
 2004SOL     OW17473   1.779   0.509   6.568  0.1566  0.0592  0.1926
 2004SOL    HW117474   1.836   0.551   6.633 -0.6704  0.0049  0.9478
 2004SOL    HW217475   1.700   0.518   6.622 -0.0230 -2.1429  0.2960
 2005SOL     OW17476   3.299   2.382  12.480 -0.5764 -0.0760  0.1300
 2005SOL    HW117477   3.244   2.346  12.410 -1.0417 -1.2220  1.1095
 2005SOL    HW217478   3.357   2.307  12.492 -0.3575  0.1440  0.4301
 2006SOL     OW17479   0.795   2.373   1.765 -0.3891 -0.9080  0.2017
 2006SOL    HW117480   0.831   2.288   1.790  0.6165 -0.3652  0.5862
 2006SOL    HW217481   0.712   2.336   1.737 -0.6381 -0.7931  0.7998
 2007SOL     OW17482   4.693   4.632   6.412  0.4052  0.8172 -0.1686
 2007SOL    HW117483   4.682   4.544   6.377 -1.0713  0.1381  2.0287
 2007SOL    HW217484   4.620   4.650   6.472 -0.5608  1.2668 -1.4627
 2008SOL     OW17485   2.788   1.119  12.061 -0.0066 -0.2480  0.6244
 2008SOL    HW117486   2.745   1.191  12.014  2.2127  2.4429  2.7425
 2008SOL    HW217487   2.714   1.082  12.109 -1.6378  1.5661 -0.5006
 2009SOL     OW17488   2.987   1.216   1.752  0.4955 -0.2820  0.6314
 2009SOL    HW117489   2.960   1.179   1.836  0.3442 -0.2434  0.5996
 2009SOL    HW217490   2.931   1.170   1.690 -1.4492  2.8372  0.0483
 2010SOL     OW17491   2.912   0.348   9.219  0.3051  0.3332 -0.2263
 2010SOL    HW117492   2.854   0.389   9.283 -1.2447 -0.7897 -0.9096
 2010SOL    HW217493   2.843   0.293   9.182  0.1920  0.4397 -0.1723
 2011SOL     OW17494   1.740   1.789   3.421 -0.2036  0.1599 -0.5335
 2011SOL    HW117495   1.750   1.881   3.444  1.5842  0.6380 -3.1564
 2011SOL    HW217496   1.644   1.779   3.416  0.0028 -2.3810  0.6479
 2012SOL     OW17497   4.705   1.258   8.228  0.1437  0.0465 -0.1035
 2012SOL    HW117498   4.642   1.207   8.279 -0.2567 -0.5028 -1.1465
 2012SOL    HW217499   4.649   1.255   8.150  0.1989  0.5621 -0.1675
 2013SOL     OW17500   3.060   2.191   2.885  0.2686 -0.6320  0.5060
 2013SOL    HW117501   3.014   2.152   2.960  1.8521 -1.9236  0.8033
 2013SOL    HW217502   2.993   2.259   2.875  0.2380 -0.6735  0.4324
 2014SOL     OW17503   1.467   0.647  14.884 -0.6925  0.2965  0.3914
 2014SOL    HW117504   1.376   0.618  14.882 -0.8246  0.6538  1.0862
 2014SOL    HW217505   1.456   0.721  14.945 -2.2865  0.4131 -0.0617
 2015SOL     OW17506   1.404   3.565   4.929  0.6023  0.6412  0.2707
 2015SOL    HW117507   1.423   3.564   5.023  0.1301  1.6796  0.3777
 2015SOL    HW217508   1.434   3.653   4.907 -1.2638  1.8513  2.4538
 2016SOL     OW17509   2.341   2.907   8.356 -0.2122 -0.9475  0.1169
 2016SOL    HW117510   2.381   2.965   8.422 -1.2634 -2.2230  1.8802
 2016SOL    HW217511   2.418   2.874   8.309 -1.8387 -2.0411 -1.7795
 2017SOL     OW17512   4.438   3.063   5.333 -0.3829  0.5304  0.3040
 2017SOL    HW117513   4.511   3.038   5.390 -0.5541 -2.5409 -0.8039
 2017SOL    HW217514   4.382   3.115   5.390 -0.2841 -0.1005  0.9785
 2018SOL     OW17515   2.449   1.859  11.373  0.6282 -0.1455  0.4143
 2018SOL    HW117516   2.502   1.931  11.340 -1.5496  0.3817 -1.9890
 2018SOL    HW217517   2.493   1.794  11.318  1.1180 -0.4608  1.1802
 2019SOL     OW17518   2.427   2.426  14.817 -0.0255 -0.1237  0.1087
 2019SOL    HW117519   2.350   2.417  14.873 -0.7736 -0.9277 -1.0500
 2019SOL    HW217520   2.419   2.348  14.762 -1.1675 -1.7819  2.6234
 2020SOL     OW17521   2.580   1.376   3.021 -0.3108 -0.0871 -0.2097
 2020SOL    HW117522   2.545   1.357   2.934 -1.2654 -0.9463  0.3714
 2020SOL    HW217523   2.663   1.421   3.002 -1.0800  1.1988 -0.4908
 2021SOL     OW17524   1.038   2.972   1.819 -0.0188 -0.2617 -0.1233
 2021SOL    HW117525   1.092   2.896   1.796 -1.8577 -1.0806 -1.7527
 2021SOL    HW217526   0.961   2.968   1.763  0.2795 -0.7086 -0.4947
 2022SOL     OW17527   0.489   3.304   7.035  0.2095  0.0216 -0.1363
 2022SOL    HW117528   0.485   3.396   7.008 -3.4621  0.4529  1.8655
 2022SOL    HW217529   0.453   3.260   6.959  0.0149 -2.6859  1.5202
 2023SOL     OW17530   1.026   1.034  11.789  0.2391  0.2518  0.3735
 2023SOL    HW117531   1.093   0.966  11.793 -0.4151 -0.2738  2.0560
 2023SOL    HW217532   0.952   0.998  11.838  0.9130  1.7614  2.4784
 2024SOL     OW17533   1.197   0.704  17.429  0.9419  0.0214 -0.3796
 2024SOL    HW117534   1.238   0.758  17.361 -1.4155  1.6024 -0.5598
 2024SOL    HW217535   1.211   0.617  17.392  2.1195  0.4920 -1.0365
 2025SOL     OW17536   4.241   2.348  11.218  0.0549 -0.1604  0.0940
 2025SOL    HW117537   4.277   2.323  11.132 -4.2985 -1.1671 -1.4164
 2025SOL    HW217538   4.303   2.401  11.268 -1.0485  1.7760 -0.5727
 2026SOL     OW17539   0.975   2.200  13.593  0.1013  0.3329 -0.1289
 2026SOL    HW117540   1.031   2.163  13.662 -1.2807 -1.3352  0.0980
 2026SOL    HW217541   1.040   2.252  13.546 -1.2468  1.7352 -0.4130
 2027SOL     OW17542   1.813   2.228  16.475  0.4928 -0.0158  0.4541
 2027SOL    HW117543   1.901   2.253  16.449  1.0232 -0.4424  1.8732
 2027SOL    HW217544   1.771   2.311  16.499  0.6077 -0.1125  0.9832
 2028SOL     OW17545   1.746   1.083   3.639  0.3790 -0.1866 -0.1003
 2028SOL    HW117546   1.698   1.163   3.661 -0.2977 -1.3671  2.6844
 2028SOL    HW217547   1.703   1.049   3.560  0.0076 -2.5490  1.1174
 2029SOL     OW17548   0.736   3.196   6.735  0.4672  0.1122 -0.3821
 2029SOL    HW117549   0.771   3.253   6.804  0.5443 -1.6135  0.9970
 2029SOL    HW217550   0.714   3.249   6.659  1.2384 -0.9281 -1.3159
 2030SOL     OW17551   3.342   1.073   9.448  0.1476  0.0809 -0.1898
 2030SOL    HW117552   3.273   1.012   9.422  0.5712 -0.8319  0.8543
 2030SOL    HW217553   3.317   1.121   9.527  0.2985  0.5908 -0.4466
 2031SOL     OW17554   2.305   1.645  16.950 -0.1792 -0.3876  0.1398
 2031SOL    HW117555   2.226   1.699  16.946 -0.4333 -0.7122  1.0273
 2031SOL    HW217556   2.269   1.585  17.015 -0.9085  2.1418  2.0770
 2032SOL     OW17557   2.971   3.861   4.819 -0.3824 -0.8975 -0.1734
 2032SOL    HW117558   2.895   3.809   4.847 -0.6664 -0.6203 -0.4389
 2032SOL    HW217559   2.921   3.934   4.784  0.7741  0.3285  0.7145
 2033SOL     OW17560   0.785   3.442   3.176 -0.2316 -0.3290 -0.0787
 2033SOL    HW117561   0.733   3.521   3.186  0.2080  0.2018 -2.2470
 2033SOL    HW217562   0.793   3.426   3.082  1.5654  1.1124 -0.1723
 2034SOL     OW17563   0.137   4.665  12.608  0.5338  0.3359 -0.1303
 2034SOL    HW117564   0.188   4.712  12.542 -0.8333  0.1747 -1.3029
 2034SOL    HW217565   0.204   4.639  12.671 -1.2144  0.0196  1.6068
 2035SOL     OW17566   4.484   0.921   9.691  0.0150  0.1885  0.2610
 2035SOL    HW117567   4.544   0.934   9.617 -1.1520 -1.4065 -0.9617
 2035SOL    HW217568   4.533   0.858   9.743  2.0401  2.5116  1.1620
 2036SOL     OW17569   1.133   0.129   8.354 -0.0440 -0.1683  0.7823
 2036SOL    HW117570   1.088   0.206   8.318 -1.0098 -0.0544  2.2437
 2036SOL    HW217571   1.055   0.078   8.377 -0.9071  0.9707  0.3956
 2037SOL     OW17572   4.179   0.179   8.234  0.1354 -0.8772 -0.0826
 2037SOL    HW117573   4.212   0.253   8.184 -1.0023 -0.9024 -0.8741
 2037SOL    HW217574   4.162   0.116   8.164  1.6354 -0.7908 -0.5278
 2038SOL     OW17575   0.255   3.402  12.528  0.1400  0.0356 -0.1429
 2038SOL    HW117576   0.334   3.355  12.555 -0.8297 -2.1217 -1.0396
 2038SOL    HW217577   0.282   3.492  12.544 -1.2650  0.5911 -0.9299
 2039SOL     OW17578   4.087   0.613   6.191 -0.3855  0.3406  0.2814
 2039SOL    HW117579   4.136   0.686   6.154 -1.8967  0.8445 -0.7233
 2039SOL    HW217580   4.162   0.583   6.242  1.6692  1.2896 -2.1629
 2040SOL     OW17581   3.304   3.286   5.693 -0.0040 -0.4008  0.2957
 2040SOL    HW117582   3.284   3.377   5.716  0.7998  0.1851 -1.3648
 2040SOL    HW217583   3.234   3.236   5.734 -0.3221  0.1172  0.3743
 2041SOL     OW17584   3.942   0.459  11.365  0.4280  0.0689  0.2896
 2041SOL    HW117585   3.966   0.523  11.297  1.3728  1.7197  2.1894
 2041SOL    HW217586   3.856   0.426  11.337  1.4288 -1.4405 -1.0230
 2042SOL     OW17587   3.089   2.426   3.599 -0.3407  0.3542 -0.1726
 2042SOL    HW117588   3.011   2.460   3.643  0.2524 -0.7926  1.7969
 2042SOL    HW217589   3.161   2.478   3.634 -0.5282  0.5953 -0.1462
 2043SOL     OW17590   0.104   2.598   3.532 -1.0173  0.1747 -0.1725
 2043SOL    HW117591   0.163   2.603   3.457 -2.4981  1.4348 -1.2501
 2043SOL    HW217592   0.169   2.607   3.602 -1.5427 -2.4545  0.6454
 2044SOL     OW17593   3.554   0.354   8.157  0.2443  0.2884 -0.5103
 2044SOL    HW117594   3.580   0.263   8.170 -2.2324 -0.4778 -1.0259
 2044SOL    HW217595   3.635   0.389   8.194 -0.0395 -0.4316  0.7844
 2045SOL     OW17596   2.426   4.395  12.730 -0.9279  0.1002 -0.3920
 2045SOL    HW117597   2.469   4.372  12.812  1.3027  1.0363 -1.3043
 2045SOL    HW217598   2.493   4.376  12.665 -0.0651  0.2483  0.4563
 2046SOL     OW17599   1.888   0.709  16.768  0.2912 -0.0652 -0.1175
 2046SOL    HW117600   1.884   0.711  16.673  0.6396 -1.4136 -0.1469
 2046SOL    HW217601   1.975   0.748  16.782  0.7152 -0.5899 -1.3371
 2047SOL     OW17602   0.795   4.022   2.350 -0.5675  0.1865  0.2944
 2047SOL    HW117603   0.719   3.972   2.379 -0.1644 -0.4838  0.1905
 2047SOL    HW217604   0.770   4.038   2.259  0.3278 -2.1678 -0.3819
 2048SOL     OW17605   4.673   3.923   6.848  0.5303  0.6400 -0.1394
 2048SOL    HW117606   4.648   3.831   6.836  1.9919  0.2114  0.1188
 2048SOL    HW217607   0.014   3.921   6.916  0.0393 -1.4328  0.3012
 2049SOL     OW17608   4.263   0.904  16.644  0.1222  0.1338  0.2031
 2049SOL    HW117609   4.239   0.812  16.642 -0.4301  0.2900 -0.5161
 2049SOL    HW217610   4.197   0.944  16.700  1.8542  0.6609  1.8835
 2050SOL     OW17611   3.558   0.670   4.421  0.2488  0.3607 -0.0297
 2050SOL    HW117612   3.552   0.765   4.421 -3.0859  0.1480  1.5626
 2050SOL    HW217613   3.521   0.649   4.506  0.0213  1.5366  0.1540
 2051SOL     OW17614   3.834   0.437   8.215  0.0072  0.1386 -0.3885
 2051SOL    HW117615   3.844   0.347   8.244  1.0927  0.7907  1.2842
 2051SOL    HW217616   3.920   0.447   8.174  0.0855  1.0593 -0.0070
 2052SOL     OW17617   2.253   2.212   6.770 -0.0919  0.1143 -0.0421
 2052SOL    HW117618   2.222   2.126   6.797 -0.9747  0.5824  0.4348
 2052SOL    HW217619   2.332   2.225   6.823  0.2893  2.3366 -1.1696
 2053SOL     OW17620   1.959   3.474   9.661  0.1915 -0.1782 -0.1672
 2053SOL    HW117621   2.037   3.528   9.667  0.7939 -1.0870  0.0999
 2053SOL    HW217622   1.910   3.488   9.580 -1.5740  0.2012  0.9556
 2054SOL     OW17623   0.961   1.544   5.225  0.3965 -0.5300 -0.1092
 2054SOL    HW117624   0.939   1.636   5.239  2.4782 -0.2033  1.0228
 2054SOL    HW217625   0.897   1.501   5.282 -1.3967  0.2584 -1.5330
 2055SOL     OW17626   0.394   4.631   1.030 -0.1745  0.2508  0.1703
 2055SOL    HW117627   0.422   4.722   1.038  1.0545 -0.1493  0.3444
 2055SOL    HW217628   0.306   4.644   1.067 -0.5293  1.3706 -1.0453
 2056SOL     OW17629   3.531   4.723   3.717  0.1017  0.0314  0.9021
 2056SOL    HW117630   3.466   0.004   3.787 -1.1258 -1.3728 -0.0960
 2056SOL    HW217631   3.607   0.034   3.763 -0.6770  0.7396  1.6319
 2057SOL     OW17632   4.508   2.396   5.542  0.0435 -0.2579 -0.3162
 2057SOL    HW117633   4.512   2.306   5.576 -1.0709 -0.2498 -0.1408
 2057SOL    HW217634   4.536   2.389   5.451  0.4533 -1.6752 -0.0892
 2058SOL     OW17635   2.961   1.220   8.521 -0.0414 -0.0806  0.5889
 2058SOL    HW117636   2.917   1.279   8.460  1.9380  0.2077 -0.5756
 2058SOL    HW217637   3.046   1.263   8.528  0.2398  0.0585 -3.6614
 2059SOL     OW17638   0.432   1.712   9.201  0.3467  0.2997 -0.0836
 2059SOL    HW117639   0.371   1.778   9.169  1.5097  0.9270 -1.0197
 2059SOL    HW217640   0.478   1.757   9.272  0.0341  1.4008 -0.5910
 2060SOL     OW17641   3.976   3.719   9.043  0.2638  0.1084  0.1570
 2060SOL    HW117642   3.913   3.783   9.077 -0.1849  1.0790 -2.4535
 2060SOL    HW217643   4.049   3.781   9.035 -1.0232  1.8396  1.9017
 2061SOL     OW17644   2.915   4.336   3.183  0.0919  0.2459  0.3912
 2061SOL    HW117645   2.868   4.352   3.102 -0.2986 -1.1371  0.3372
 2061SOL    HW217646   2.855   4.380   3.243 -0.6148 -1.5685  1.0228
 2062SOL     OW17647   1.805   1.794  14.982 -0.2984  0.4934  0.4118
 2062SOL    HW117648   1.759   1.714  14.957  3.7072 -1.7411  0.3355
 2062SOL    HW217649   1.817   1.834  14.896  0.8479 -3.6299 -1.2958
 2063SOL     OW17650   4.608   2.881  17.613  0.1276  0.0661  0.0702
 2063SOL    HW117651   4.623   2.798  17.568  0.4625 -0.0538  0.3999
 2063SOL    HW217652   4.585   2.839  17.696  1.0626 -1.4142 -0.4158
 2064SOL     OW17653   1.790   2.326   6.801  0.2379  0.4298 -0.8687
 2064SOL    HW117654   1.873   2.359   6.837  0.7453  0.7564 -2.3244
 2064SOL    HW217655   1.823   2.245   6.761 -1.4325 -0.6659 -0.0029
 2065SOL     OW17656   3.413   0.926  14.209 -0.0970 -0.4848  0.2066
 2065SOL    HW117657   3.478   0.905  14.143  0.1911  0.4866  0.1848
 2065SOL    HW217658   3.412   0.844  14.257  1.6376 -0.4723  0.2530
 2066SOL     OW17659   2.127   1.748  15.982 -0.4496 -0.1037 -0.7228
 2066SOL    HW117660   2.075   1.713  15.909 -1.2755  1.9253 -1.1197
 2066SOL    HW217661   2.169   1.669  16.015 -1.0010  1.0382  2.7494
 2067SOL     OW17662   0.746   0.373  13.571  0.1876 -0.6534  0.5240
 2067SOL    HW117663   0.739   0.292  13.521  2.0615 -1.2648  1.2708
 2067SOL    HW217664   0.791   0.434  13.511  0.8118 -0.5936  1.0627
 2068SOL     OW17665   3.397   1.126  12.919 -0.2393 -0.0033 -0.1289
 2068SOL    HW117666   3.493   1.128  12.915 -0.2487  0.3446 -0.1986
 2068SOL    HW217667   3.386   1.185  12.993 -0.1777  0.4721 -0.5003
 2069SOL     OW17668   0.006   1.345  13.281 -0.2929 -0.8874 -0.4976
 2069SOL    HW117669   4.640   1.369  13.273 -0.4348 -0.6936  1.7481
 2069SOL    HW217670   0.032   1.341  13.189  0.5655  0.3637 -0.3154
 2070SOL     OW17671   2.624   2.500   4.517 -0.1708  0.5543 -0.0087
 2070SOL    HW117672   2.531   2.481   4.514  0.5265 -2.9983  0.4499
 2070SOL    HW217673   2.649   2.534   4.431  0.8352  3.4675  1.3971
 2071SOL     OW17674   2.247   1.314  15.344  0.4745 -0.0896 -0.4493
 2071SOL    HW117675   2.190   1.376  15.391  0.4512 -1.0540  0.7885
 2071SOL    HW217676   2.229   1.339  15.254  0.1305  1.1319 -0.0426
 2072SOL     OW17677   3.669   3.148   4.070  0.2306 -0.0303 -0.0369
 2072SOL    HW117678   3.632   3.067   4.107 -1.0687  0.4458 -0.2801
 2072SOL    HW217679   3.636   3.138   3.980  3.1130 -0.6994 -1.0155
 2073SOL     OW17680   1.028   1.421   2.301 -0.3258 -0.1556 -0.5386
 2073SOL    HW117681   1.024   1.485   2.372 -0.4321 -2.1298  1.2359
 2073SOL    HW217682   1.114   1.382   2.312 -0.3131 -0.3005 -1.1633
 2074SOL     OW17683   0.397   2.435   3.107 -0.0434 -0.1734  0.2795
 2074SOL    HW117684   0.305   2.428   3.081  0.2839  0.2143 -1.0012
 2074SOL    HW217685   0.394   2.485   3.188 -0.2742 -0.8089  0.6602
 2075SOL     OW17686   2.485   0.217   0.095  0.4496 -0.1138 -0.6910
 2075SOL    HW117687   2.448   0.305   0.093  0.4133 -0.0977  0.9563
 2075SOL    HW217688   2.530   0.212   0.179  2.1038  2.6010 -1.4220
 2076SOL     OW17689   0.667   0.416   6.824  0.4442 -0.2707  0.1145
 2076SOL    HW117690   0.617   0.359   6.882 -0.6512  0.1207 -0.4677
 2076SOL    HW217691   0.739   0.355   6.805  0.6973 -0.2231  0.8996
 2077SOL     OW17692   2.345   3.781   6.785 -0.3249 -0.6759 -0.0389
 2077SOL    HW117693   2.356   3.748   6.874 -2.7937  0.0142  0.5378
 2077SOL    HW217694   2.438   3.788   6.763 -0.1638  0.4522  0.9897
 2078SOL     OW17695   2.002   3.141   5.008  0.3475  0.2258  0.2258
 2078SOL    HW117696   1.976   3.080   5.077  1.2434  1.5774  1.7531
 2078SOL    HW217697   1.987   3.095   4.925 -1.1400  1.4716 -0.1960
 2079SOL     OW17698   4.098   3.398   5.070  0.5740  0.0782 -0.2949
 2079SOL    HW117699   4.075   3.326   5.010  2.3537 -1.7311  1.1806
 2079SOL    HW217700   4.117   3.470   5.011  0.7304 -0.4692 -0.9083
 2080SOL     OW17701   0.855   3.996  10.159 -0.0509  0.6813 -0.2484
 2080SOL    HW117702   0.944   3.989  10.193 -0.7421 -0.5984  1.3009
 2080SOL    HW217703   0.868   4.062  10.091  1.2709  0.5538 -0.1209
 2081SOL     OW17704   1.281   4.242   1.346  0.0313  0.4275  0.3720
 2081SOL    HW117705   1.223   4.177   1.305 -0.3563 -0.2210  1.9256
 2081SOL    HW217706   1.360   4.212   1.301 -0.9340 -0.6239 -0.6320
 2082SOL     OW17707   1.645   0.186   7.331 -0.3770  0.5282 -0.1128
 2082SOL    HW117708   1.605   0.257   7.381  1.4944  0.8546  0.9110
 2082SOL    HW217709   1.663   0.112   7.389  0.8853  1.3689  0.5663
 2083SOL     OW17710   4.713   1.841   0.721 -0.3059  0.2848  0.3759
 2083SOL    HW117711   0.002   1.755   0.760  2.8831 -0.0391 -1.6538
 2083SOL    HW217712   4.622   1.855   0.748 -1.1178 -2.6375 -0.8786
 2084SOL     OW17713   2.903   0.948   9.465 -0.1236  0.1213 -0.2620
 2084SOL    HW117714   2.907   0.982   9.554  0.2039 -1.4451  0.3233
 2084SOL    HW217715   2.833   0.883   9.466 -0.0194 -0.0893 -3.8696
 2085SOL     OW17716   0.632   1.430   3.187 -0.5752 -0.7417 -0.5787
 2085SOL    HW117717   0.669   1.344   3.207 -0.4126 -0.7441 -0.8951
 2085SOL    HW217718   0.648   1.472   3.271 -0.4390 -2.5380  0.2935
 2086SOL     OW17719   0.212   2.551   5.865 -0.0227  0.9776  0.2710
 2086SOL    HW117720   0.230   2.526   5.774  0.1013 -1.7640  1.0478
 2086SOL    HW217721   0.172   2.477   5.910  1.8236  0.5917  1.2829
 2087SOL     OW17722   1.889   4.215   2.967 -0.0116  0.2002  0.1988
 2087SOL    HW117723   1.952   4.277   2.932 -0.9894  0.6911 -0.6864
 2087SOL    HW217724   1.944   4.137   2.964 -1.0271 -0.4850 -0.4521
 2088SOL     OW17725   2.623   4.526   8.964  0.6049 -0.4014 -0.2686
 2088SOL    HW117726   2.678   4.537   8.886  2.5916  0.1106  1.2052
 2088SOL    HW217727   2.538   4.496   8.932  0.5253 -1.1190  0.6420
 2089SOL     OW17728   3.058   2.236   7.935  0.4354 -0.3134  0.2408
 2089SOL    HW117729   2.963   2.245   7.939  0.5429  0.5645  0.6519
 2089SOL    HW217730   3.065   2.140   7.935  1.6920 -0.1963  3.3970
 2090SOL     OW17731   0.825   2.903   2.318  0.0727 -0.0233 -0.1952
 2090SOL    HW117732   0.769   2.864   2.385  1.7402 -0.9123  0.7123
 2090SOL    HW217733   0.906   2.880   2.364 -0.4668 -1.7574 -0.1308
 2091SOL     OW17734   4.377   0.945   1.689 -0.2222  0.4670 -0.0856
 2091SOL    HW117735   4.344   0.880   1.627  0.5556 -0.1844  0.1763
 2091SOL    HW217736   4.468   0.917   1.701 -0.2761  0.7236  0.8895
 2092SOL     OW17737   3.086   0.204   7.037  0.2974 -0.3702 -0.2747
 2092SOL    HW117738   3.158   0.156   6.999 -0.2793 -0.3352 -1.4048
 2092SOL    HW217739   3.125   0.287   7.065 -1.2200 -0.7196  2.9478
 2093SOL     OW17740   1.554   4.609  13.790 -0.8202 -0.9946  0.3010
 2093SOL    HW117741   1.645   4.602  13.761 -1.5609 -0.7146 -2.0641
 2093SOL    HW217742   1.566   4.659  13.870  0.9240  1.7036 -1.6394
 2094SOL     OW17743   0.784   3.675   3.900 -0.0242 -0.3325  0.2899
 2094SOL    HW117744   0.789   3.592   3.854 -3.6016 -0.4739  0.1470
 2094SOL    HW217745   0.808   3.738   3.832 -0.5383  0.8730  1.2226
 2095SOL     OW17746   2.996   1.760   8.926 -0.4233  0.1332  0.2314
 2095SOL    HW117747   3.026   1.836   8.976 -3.2388  0.7502  0.9594
 2095SOL    HW217748   2.925   1.795   8.873 -0.4649  1.1868  0.9893
 2096SOL     OW17749   1.044   1.591   4.458  0.0549 -0.1274 -0.0485
 2096SOL    HW117750   1.110   1.550   4.403 -2.3223 -1.4351 -1.9338
 2096SOL    HW217751   0.969   1.555   4.410  0.3851 -2.5797  1.2599
 2097SOL     OW17752   1.460   1.008   6.489 -0.2568  0.0393  0.1172
 2097SOL    HW117753   1.406   0.930   6.478  0.2699 -0.3954  0.6616
 2097SOL    HW217754   1.402   1.049   6.554  0.3677  2.3126 -0.7764
 2098SOL     OW17755   0.554   2.036   8.912  0.6099  0.0972  0.4446
 2098SOL    HW117756   0.640   2.063   8.880  0.0066  0.4426 -0.8436
 2098SOL    HW217757   0.521   2.118   8.949  1.8752  1.0011 -0.4636
 2099SOL     OW17758   1.413   1.512  12.834  0.0924  0.0003  1.3738
 2099SOL    HW117759   1.481   1.515  12.901  1.4806  0.3075 -0.0236
 2099SOL    HW217760   1.345   1.456  12.870 -2.1402  2.5869  1.1577
 2100SOL     OW17761   3.528   3.179   6.872  0.4261 -0.3259 -0.5488
 2100SOL    HW117762   3.491   3.125   6.941 -0.4408  1.9060  0.7318
 2100SOL    HW217763   3.568   3.117   6.811  0.3316 -3.7772  2.8722
 2101SOL     OW17764   2.044   0.705   5.136 -0.4454 -0.4264 -0.1548
 2101SOL    HW117765   2.052   0.610   5.146 -0.2984 -0.5098 -1.0430
 2101SOL    HW217766   2.110   0.713   5.066 -0.8060  0.7235 -0.3469
 2102SOL     OW17767   0.874   4.471  16.896 -0.2458 -0.5988  0.2287
 2102SOL    HW117768   0.814   4.464  16.822 -0.3892  0.6254  0.2288
 2102SOL    HW217769   0.957   4.465  16.848 -0.8603 -2.4445 -0.5861
 2103SOL     OW17770   2.009   1.199   6.818 -0.8530 -0.0335 -0.4008
 2103SOL    HW117771   2.019   1.219   6.725 -0.8222  1.0360 -0.1671
 2103SOL    HW217772   1.971   1.278   6.855 -1.8213  0.0184 -1.5088
 2104SOL     OW17773   1.429   4.104   5.542  0.5570  0.2793 -0.3652
 2104SOL    HW117774   1.515   4.073   5.572  0.3788 -2.1796 -2.4252
 2104SOL    HW217775   1.459   4.190   5.511  1.0769  0.4208  0.5171
 2105SOL     OW17776   4.397   2.317   6.549  0.1921 -0.2740  0.1967
 2105SOL    HW117777   4.392   2.366   6.467 -0.4796 -0.3480  0.1967
 2105SOL    HW217778   4.360   2.386   6.604 -0.5129 -1.4483  1.1858
 2106SOL     OW17779   0.069   4.361  14.878 -0.0714  0.4003  0.0946
 2106SOL    HW117780   0.145   4.304  14.865 -1.6530 -1.2830 -1.6038
 2106SOL    HW217781   0.016   4.330  14.805 -1.0227  0.5995  0.6951
 2107SOL     OW17782   4.076   2.626   7.705 -0.1672  0.2825  0.3110
 2107SOL    HW117783   4.029   2.543   7.700 -0.7390  0.5117  1.6073
 2107SOL    HW217784   4.030   2.682   7.642  0.1290  1.9619  1.5543
 2108SOL     OW17785   3.541   4.562   4.779  0.3106 -0.3989 -1.0578
 2108SOL    HW117786   3.592   4.616   4.839 -0.8717 -0.5226  0.0529
 2108SOL    HW217787   3.497   4.628   4.726 -0.5618 -2.0812 -2.4283
 2109SOL     OW17788   2.559   3.712   8.418 -0.3130  0.6594 -0.2330
 2109SOL    HW117789   2.641   3.686   8.376 -1.3112 -1.5902 -0.8154
 2109SOL    HW217790   2.538   3.800   8.386 -0.6830  0.0572 -1.6500
 2110SOL     OW17791   0.811   3.693  11.258  0.3525 -0.3058 -0.1145
 2110SOL    HW117792   0.727   3.690  11.212  0.4659  1.6860 -0.4338
 2110SOL    HW217793   0.846   3.609  11.229  0.1358 -0.7008  0.7761
 2111SOL     OW17794   2.249   2.308   7.082  0.2640  0.3472 -0.1744
 2111SOL    HW117795   2.335   2.296   7.041 -0.8249 -1.6496 -1.8766
 2111SOL    HW217796   2.267   2.357   7.163 -0.2651 -1.2247  0.9027
 2112SOL     OW17797   0.944   4.000  16.955 -0.6196 -0.8738 -0.2383
 2112SOL    HW117798   0.870   3.978  17.012  0.5606  1.2137  2.1193
 2112SOL    HW217799   1.014   3.947  16.993  1.0030  1.3057 -0.2149
 2113SOL     OW17800   0.743   4.247   0.288  0.0465  0.1535 -0.1481
 2113SOL    HW117801   0.706   4.323   0.243  1.2228 -0.2581 -1.8325
 2113SOL    HW217802   0.701   4.173   0.245  1.1268 -0.8999  0.6145
 2114SOL     OW17803   4.466   1.062   7.432  0.0167 -0.1277  0.2640
 2114SOL    HW117804   4.410   1.096   7.501  0.6620 -0.6714  1.0515
 2114SOL    HW217805   4.543   1.033   7.480  2.6849  1.6782 -2.9844
 2115SOL     OW17806   1.664   2.173   8.715 -0.2570 -0.3979  0.0509
 2115SOL    HW117807   1.724   2.123   8.660 -0.9145 -2.0594  0.8726
 2115SOL    HW217808   1.722   2.189   8.789 -0.3998  0.9162 -0.1219
 2116SOL     OW17809   4.400   2.508  16.906 -0.0134 -0.9196 -0.0589
 2116SOL    HW117810   4.388   2.530  16.813 -1.0800 -0.3982  0.2004
 2116SOL    HW217811   4.352   2.425  16.912  1.8397 -2.0109 -0.2936
 2117SOL     OW17812   1.832   3.160   9.679  0.0210  0.3072  0.4153
 2117SOL    HW117813   1.789   3.185   9.761 -1.4958  1.7069 -0.7867
 2117SOL    HW217814   1.824   3.065   9.671 -0.8870  0.2798  1.5597
 2118SOL     OW17815   2.850   3.088   6.667  0.3850 -0.7009 -0.2916
 2118SOL    HW117816   2.927   3.139   6.691 -0.9688  2.0811 -1.6806
 2118SOL    HW217817   2.813   3.065   6.752  0.5320  1.3774  0.3395
 2119SOL     OW17818   2.534   4.156   0.893 -0.3564 -0.0619 -0.0726
 2119SOL    HW117819   2.594   4.230   0.886 -2.6756  1.5330 -3.1089
 2119SOL    HW217820   2.492   4.169   0.809  0.3440  0.0524 -0.4047
 2120SOL     OW17821   0.909   2.006   0.749  0.5649 -0.1350 -0.4040
 2120SOL    HW117822   0.937   1.917   0.773 -0.7395 -0.0375  1.4469
 2120SOL    HW217823   0.996   2.046   0.741  0.3629 -0.0000 -1.8570
 2121SOL     OW17824   4.245   1.844   1.590  0.4172 -0.4659  0.5137
 2121SOL    HW117825   4.248   1.854   1.495 -0.8739 -0.5998  0.4643
 2121SOL    HW217826   4.335   1.868   1.613  1.2550 -2.2148 -0.9457
 2122SOL     OW17827   1.223   3.718   2.770  0.1418  0.1507  0.0578
 2122SOL    HW117828   1.176   3.721   2.687  0.6676  0.8519 -0.2185
 2122SOL    HW217829   1.271   3.801   2.767 -1.4090  1.0021 -1.2011
 2123SOL     OW17830   2.294   2.319   8.734 -0.2849  0.4195  0.4061
 2123SOL    HW117831   2.300   2.333   8.829 -0.3824  0.7166  0.3685
 2123SOL    HW217832   2.297   2.408   8.698  1.9272  0.5420  0.8469
 2124SOL     OW17833   2.266   1.808   8.594 -0.1954  0.1803  0.2035
 2124SOL    HW117834   2.220   1.892   8.597 -0.5518  0.0014 -0.2257
 2124SOL    HW217835   2.275   1.770   8.681  0.0995  0.1899  0.1766
 2125SOL     OW17836   1.390   2.253  13.972  0.5375  0.0171  0.7539
 2125SOL    HW117837   1.469   2.294  14.007  0.5365 -0.3346  1.1693
 2125SOL    HW217838   1.402   2.165  14.008 -0.5294 -0.6299 -0.4967
 2126SOL     OW17839   2.256   2.975   3.533  0.3573 -0.8250 -0.7546
 2126SOL    HW117840   2.238   2.949   3.443  1.3376  0.6786 -1.3929
 2126SOL    HW217841   2.196   3.049   3.541  0.7125 -0.7322  1.0054
 2127SOL     OW17842   3.630   0.359  12.180  0.4100 -0.7321 -0.1123
 2127SOL    HW117843   3.629   0.264  12.163 -1.3908 -0.8375  0.6173
 2127SOL    HW217844   3.538   0.383  12.185  0.7152  0.6689 -1.0814
 2128SOL     OW17845   1.694   2.336   5.334  0.0600 -0.0144 -0.1707
 2128SOL    HW117846   1.648   2.265   5.289 -1.5602  0.4408  0.7951
 2128SOL    HW217847   1.704   2.299   5.421 -0.5522  0.5852  0.1528
 2129SOL     OW17848   2.771   0.948  16.287  0.4882  0.2796 -0.6292
 2129SOL    HW117849   2.736   0.905  16.209  3.2950 -1.8218 -0.7271
 2129SOL    HW217850   2.858   0.911  16.305  1.8371  1.3795 -4.7846
 2130SOL     OW17851   0.164   0.541  14.146 -0.4740 -0.2041 -0.3032
 2130SOL    HW117852   0.111   0.535  14.226  0.3105 -2.0244  0.0891
 2130SOL    HW217853   0.114   0.613  14.108 -2.3692 -2.2855 -1.7173
 2131SOL     OW17854   3.937   1.572   8.738  0.5927  0.6898  0.1513
 2131SOL    HW117855   3.953   1.583   8.644 -0.2356  2.5743  0.2398
 2131SOL    HW217856   4.022   1.600   8.771 -1.6555  4.3883  2.6748
 2132SOL     OW17857   3.635   2.115   8.682 -0.1883  0.3159 -0.8097
 2132SOL    HW117858   3.672   2.030   8.658 -0.1091  0.5708 -1.5816
 2132SOL    HW217859   3.658   2.117   8.775 -0.7561  1.4221 -0.6962
 2133SOL     OW17860   1.067   1.525  14.689  0.4633 -0.6532 -0.1220
 2133SOL    HW117861   1.136   1.563  14.634  1.6831  0.0630  1.8903
 2133SOL    HW217862   1.069   1.573  14.772 -1.0327 -1.9229  0.6457
 2134SOL     OW17863   0.383   4.358   5.520 -0.2509  0.4737  0.2915
 2134SOL    HW117864   0.449   4.384   5.456  1.3300 -1.8449  0.9919
 2134SOL    HW217865   0.440   4.335   5.594 -1.1897 -0.3874  0.7571
 2135SOL     OW17866   3.503   3.399  16.713  0.5988 -0.0040 -0.5439
 2135SOL    HW117867   3.458   3.376  16.632 -1.2462  0.0529  0.4731
 2135SOL    HW217868   3.523   3.490  16.693 -0.2749  0.3855  0.3737
 2136SOL     OW17869   2.349   1.363   2.563 -0.0023  0.4801  0.0077
 2136SOL    HW117870   2.351   1.419   2.485 -0.8048 -0.8006 -0.9403
 2136SOL    HW217871   2.276   1.400   2.613 -1.8312 -2.9898 -0.0570
 2137SOL     OW17872   4.327   2.215   1.778 -0.1692 -0.3565  0.3110
 2137SOL    HW117873   4.295   2.295   1.820 -2.8027 -0.3310 -1.7763
 2137SOL    HW217874   4.423   2.220   1.784 -0.1161  0.0362 -0.9030
 2138SOL     OW17875   2.332   0.683   6.997 -1.0339 -0.0705  0.3271
 2138SOL    HW117876   2.279   0.721   7.067 -1.5048 -0.0268 -0.0492
 2138SOL    HW217877   2.396   0.753   6.981 -2.2753  1.1090  0.4915
 2139SOL     OW17878   2.499   0.700   2.065 -0.0755  0.3776  0.2470
 2139SOL    HW117879   2.592   0.702   2.040 -0.4435 -0.7111 -1.2129
 2139SOL    HW217880   2.495   0.675   2.157 -0.4362 -1.3858 -0.2449
 2140SOL     OW17881   3.245   1.337   7.537 -0.4041 -0.2607 -0.3121
 2140SOL    HW117882   3.287   1.311   7.619  1.1741 -0.4358 -1.1911
 2140SOL    HW217883   3.162   1.306   7.573 -0.0331 -0.8214  0.0591
 2141SOL     OW17884   3.934   2.962  10.558 -0.1440 -0.4966  0.6687
 2141SOL    HW117885   3.892   2.911  10.489  0.0926 -0.6717  0.6555
 2141SOL    HW217886   3.979   2.890  10.603  2.0158 -0.6775 -1.8245
 2142SOL     OW17887   3.746   0.025   9.050  0.3595  0.5068 -0.1062
 2142SOL    HW117888   3.742   0.096   8.987 -0.6632  2.2213  1.8836
 2142SOL    HW217889   3.838   4.724   9.048 -0.0777 -1.0357  0.6378
 2143SOL     OW17890   3.961   1.912  10.777 -0.8306  0.0278 -0.1293
 2143SOL    HW117891   3.922   1.907  10.864 -1.6239  0.9439 -0.4483
 2143SOL    HW217892   4.048   1.877  10.799 -0.7575  1.6017  2.0491
 2144SOL     OW17893   2.506   1.980  16.646  0.6448  0.0359  0.1399
 2144SOL    HW117894   2.473   2.069  16.635  0.2266 -0.0527  0.6905
 2144SOL    HW217895   2.582   1.991  16.588  2.3935 -0.9751  2.2059
 2145SOL     OW17896   2.779   3.322   7.129 -0.1840 -0.7822  0.3517
 2145SOL    HW117897   2.774   3.318   7.034  0.6409  0.2354  0.2592
 2145SOL    HW217898   2.688   3.351   7.135 -0.7305 -1.8668 -2.7450
 2146SOL     OW17899   4.647   4.484   3.474 -0.1467 -0.0139  0.0101
 2146SOL    HW117900   4.639   4.466   3.567 -2.2168  2.2718  0.3017
 2146SOL    HW217901   4.706   4.559   3.476  0.2066 -0.2649 -0.8959
 2147SOL     OW17902   0.483   1.944   8.308  0.4543  0.0088 -0.1497
 2147SOL    HW117903   0.449   1.894   8.234  0.4698 -2.6026  1.6093
 2147SOL    HW217904   0.415   2.007   8.331  0.3099 -0.2357  0.0934
 2148SOL     OW17905   1.602   4.049   8.230  0.0800  0.5709  0.1975
 2148SOL    HW117906   1.666   3.990   8.192 -0.0972  0.4837  0.0343
 2148SOL    HW217907   1.655   4.086   8.301  1.1259 -2.9626  1.2308
 2149SOL     OW17908   4.078   3.469   0.191  0.6848  0.4277 -0.2836
 2149SOL    HW117909   4.050   3.540   0.249 -2.9587 -0.7940 -0.5025
 2149SOL    HW217910   4.168   3.454   0.219  0.4821  0.5511  0.4431
 2150SOL     OW17911   2.724   2.386   9.222 -0.2711 -0.0501 -0.0675
 2150SOL    HW117912   2.675   2.438   9.286  0.0546  0.5428 -0.3017
 2150SOL    HW217913   2.780   2.338   9.283  2.0631  3.2562  0.3572
 2151SOL     OW17914   0.123   3.066   1.216  0.4711  0.0331  0.4448
 2151SOL    HW117915   0.061   3.136   1.195  1.7194  0.2130 -2.6586
 2151SOL    HW217916   0.145   3.090   1.306  0.3197 -0.7227  0.6834
 2152SOL     OW17917   0.015   1.009   4.733  0.5606 -0.1828 -0.0717
 2152SOL    HW117918   0.050   1.031   4.647 -0.0999  1.3078  0.0372
 2152SOL    HW217919   4.715   1.096   4.762  0.1107 -0.5348  0.5781
 2153SOL     OW17920   2.594   3.538   1.061  0.2036 -0.4501  0.5293
 2153SOL    HW117921   2.681   3.521   1.027 -0.6391 -1.9222 -0.8781
 2153SOL    HW217922   2.538   3.476   1.014  0.7485 -0.3898 -0.1985
 2154SOL     OW17923   0.352   3.322   2.398 -0.2386  0.2336 -1.2364
 2154SOL    HW117924   0.316   3.369   2.322  0.4959 -2.0257 -2.9719
 2154SOL    HW217925   0.291   3.257   2.431 -1.8959  1.1073 -2.6012
 2155SOL     OW17926   1.781   0.948  13.176 -0.2909  0.2598  0.6136
 2155SOL    HW117927   1.709   1.000  13.142 -0.9027  0.2734  1.9181
 2155SOL    HW217928   1.777   0.870  13.121  0.0504  0.3608  0.4476
 2156SOL     OW17929   4.347   4.312   6.941 -0.1997 -0.0050  0.2688
 2156SOL    HW117930   4.369   4.226   6.977  0.6973 -0.3802 -1.1655
 2156SOL    HW217931   4.252   4.298   6.942 -0.1225 -0.6162 -0.8228
 2157SOL     OW17932   4.152   0.444  17.679 -0.2316 -0.0909 -0.1127
 2157SOL    HW117933   4.132   0.435   0.066  1.3086  0.6382  0.3014
 2157SOL    HW217934   4.137   0.538  17.670  3.0415  0.5760  1.1406
 2158SOL     OW17935   3.786   2.872  10.337  0.5072  0.0449  0.2667
 2158SOL    HW117936   3.719   2.940  10.341 -0.4271 -0.9869  2.1209
 2158SOL    HW217937   3.789   2.844  10.246 -0.2399  0.9596 -0.0405
 2159SOL     OW17938   1.182   0.801  10.381 -0.6333 -0.1805 -0.3712
 2159SOL    HW117939   1.190   0.895  10.362 -1.3196 -0.7128 -3.2412
 2159SOL    HW217940   1.090   0.784  10.403 -0.5096  0.2626  0.4968
 2160SOL     OW17941   4.018   3.827   6.359  0.3820 -0.0314  0.2106
 2160SOL    HW117942   3.945   3.822   6.421 -1.1237  2.6211 -1.3716
 2160SOL    HW217943   3.995   3.770   6.286  0.2393 -0.1408  0.3411
 2161SOL     OW17944   1.813   1.271   4.240  0.0711 -0.0455 -0.1619
 2161SOL    HW117945   1.767   1.212   4.300 -1.9611  2.1552  0.4225
 2161SOL    HW217946   1.902   1.237   4.243  0.4054  0.8790  0.3167
 2162SOL     OW17947   1.981   3.787  11.877  0.0002  0.2357  0.8722
 2162SOL    HW117948   1.952   3.763  11.789 -0.7186  2.1508  0.5969
 2162SOL    HW217949   2.043   3.855  11.850  0.1405 -0.0839  0.3769
 2163SOL     OW17950   4.284   2.755   9.607  0.1358 -0.8661 -0.3485
 2163SOL    HW117951   4.353   2.718   9.552 -0.4032  0.2729 -1.8096
 2163SOL    HW217952   4.228   2.792   9.539 -1.9566 -2.9552  0.2569
 2164SOL     OW17953   2.096   2.474   6.192  0.3862  0.3810  0.0004
 2164SOL    HW117954   2.136   2.417   6.258  2.5985 -1.0934 -2.5994
 2164SOL    HW217955   2.126   2.555   6.235  1.4220 -1.5693  2.9411
 2165SOL     OW17956   0.765   1.145  16.989  0.2868  0.4576  0.1092
 2165SOL    HW117957   0.678   1.105  16.994 -0.2705  1.9897  3.0827
 2165SOL    HW217958   0.757   1.221  17.048 -2.0791 -1.3553  2.1503
 2166SOL     OW17959   2.792   1.965   4.156 -0.0483 -0.9163  0.4370
 2166SOL    HW117960   2.722   1.947   4.093  1.5562 -2.5690 -0.9069
 2166SOL    HW217961   2.768   1.911   4.231  1.2506  0.5492  1.9115
 2167SOL     OW17962   4.059   2.231  14.960  0.8641  0.2555 -0.2539
 2167SOL    HW117963   4.034   2.323  14.951  0.0594 -0.0314 -1.0346
 2167SOL    HW217964   4.055   2.213  15.054 -0.0357 -0.7200 -0.4774
 2168SOL     OW17965   0.377   2.839  13.402 -0.1967 -0.6052 -0.2537
 2168SOL    HW117966   0.366   2.791  13.485 -0.3278 -1.5237 -0.8018
 2168SOL    HW217967   0.342   2.772  13.343  0.4046 -1.5020  0.4019
 2169SOL     OW17968   3.093   2.925   6.857 -0.0782  0.3360  0.2318
 2169SOL    HW117969   3.134   2.888   6.779  0.2088  0.4175  0.3402
 2169SOL    HW217970   3.001   2.912   6.836  0.7153 -3.5656 -0.8485
 2170SOL     OW17971   0.746   2.429  11.466  0.2554  0.0825  0.0944
 2170SOL    HW117972   0.782   2.514  11.493  0.2634 -0.8438  3.0432
 2170SOL    HW217973   0.657   2.448  11.497 -0.4019  0.6800 -2.1715
 2171SOL     OW17974   2.149   1.111   8.018  0.2728  0.2870 -0.0545
 2171SOL    HW117975   2.168   1.188   7.965  1.1279  0.3684  0.3772
 2171SOL    HW217976   2.060   1.087   7.990  0.4712  2.7086 -2.6919
 2172SOL     OW17977   1.166   3.619  14.125 -0.1602  0.4516  0.2748
 2172SOL    HW117978   1.187   3.599  14.034 -0.4335 -0.1536  0.3412
 2172SOL    HW217979   1.083   3.663  14.108  1.2883  1.6505 -3.5212
 2173SOL     OW17980   0.076   2.300   4.550  0.7410 -0.2191  0.1417
 2173SOL    HW117981   0.072   2.355   4.471 -0.6121  0.6317  0.7962
 2173SOL    HW217982   0.159   2.253   4.543  0.5535 -0.1305 -2.6700
 2174SOL     OW17983   4.000   2.977   3.563 -0.5957  0.6747 -0.7526
 2174SOL    HW117984   3.971   2.928   3.486  2.0442 -0.8041 -0.7927
 2174SOL    HW217985   3.929   2.957   3.624  1.5773 -2.1612  0.8336
 2175SOL     OW17986   1.408   1.294   6.776 -0.0321 -0.4031 -0.4487
 2175SOL    HW117987   1.381   1.338   6.696 -1.5931 -1.4180 -0.4811
 2175SOL    HW217988   1.401   1.364   6.842 -1.4670  0.4228 -1.4989
 2176SOL     OW17989   3.949   0.507   1.472 -0.0433  0.1147 -0.5173
 2176SOL    HW117990   3.877   0.462   1.427  0.8118 -1.7741  0.0025
 2176SOL    HW217991   4.004   0.529   1.397 -1.5060  0.6122 -1.4511
 2177SOL     OW17992   0.922   3.405   5.459 -0.0021 -0.3250  0.3481
 2177SOL    HW117993   0.948   3.372   5.374 -0.0983 -1.4906  0.7722
 2177SOL    HW217994   0.926   3.497   5.433 -2.3118  0.1006  1.4559
 2178SOL     OW17995   2.882   3.712   3.868  0.0529 -0.6203  0.3278
 2178SOL    HW117996   2.935   3.753   3.936  4.5876 -0.6947 -3.1663
 2178SOL    HW217997   2.792   3.709   3.899  0.4353 -2.2999  1.3003
 2179SOL     OW17998   4.428   4.304   6.083 -0.8372 -0.7945 -0.4169
 2179SOL    HW117999   4.422   4.396   6.110  0.2485 -0.3313 -1.7710
 2179SOL    HW218000   4.357   4.298   6.020 -1.4610 -1.4379  0.3616
 2180SOL     OW18001   1.692   3.464   0.539 -0.2126  0.2069  0.1152
 2180SOL    HW118002   1.695   3.394   0.604  0.8905  0.0484 -0.1049
 2180SOL    HW218003   1.754   3.519   0.586 -1.5559  0.7906  1.2238
 2181SOL     OW18004   4.530   4.555  13.591 -0.6653  0.2982 -0.3817
 2181SOL    HW118005   4.591   4.495  13.634 -1.7929 -2.2211 -2.2756
 2181SOL    HW218006   4.564   4.569  13.502  0.8238 -1.5991 -0.1214
 2182SOL     OW18007   2.874   2.683   5.658  0.1791  0.0558  0.2322
 2182SOL    HW118008   2.831   2.711   5.577 -0.3971  0.3519  0.6456
 2182SOL    HW218009   2.962   2.658   5.629  0.7709  1.1963  1.0158
 2183SOL     OW18010   4.502   4.508   0.101  0.2710  0.6898  0.2877
 2183SOL    HW118011   4.446   4.531   0.027  1.3503  0.6898 -0.5190
 2183SOL    HW218012   4.450   4.534   0.177 -2.3355 -0.3029 -1.1550
 2184SOL     OW18013   2.873   2.372   6.498  0.2057 -0.0265  0.2558
 2184SOL    HW118014   2.875   2.276   6.489 -0.6742  0.2936 -3.5067
 2184SOL    HW218015   2.911   2.384   6.585 -1.6701  1.0713  0.9137
 2185SOL     OW18016   2.799   2.526   7.072  0.0054 -0.3086  0.3405
 2185SOL    HW118017   2.840   2.449   7.112  2.8123  1.5496  1.0151
 2185SOL    HW218018   2.856   2.546   6.998 -1.0046  1.4454  0.0419
 2186SOL     OW18019   4.096   1.738  13.487  0.1096  0.0425  0.0973
 2186SOL    HW118020   4.154   1.668  13.518 -2.6465 -1.7556  1.1333
 2186SOL    HW218021   4.086   1.787  13.568 -0.4921  0.2698 -0.1188
 2187SOL     OW18022   1.959   1.892   8.534 -0.0550  0.0256 -0.3616
 2187SOL    HW118023   1.953   1.797   8.524 -0.9161  0.1676 -1.1591
 2187SOL    HW218024   1.963   1.896   8.630  0.7664 -2.9733 -0.2886
 2188SOL     OW18025   4.531   0.341   7.178 -0.2863  0.5135 -0.4309
 2188SOL    HW118026   4.450   0.374   7.217 -0.2014 -1.2144  1.2199
 2188SOL    HW218027   4.497   0.258   7.144  0.5770 -0.6348  1.5374
 2189SOL     OW18028   1.293   3.341   8.445 -0.3076 -0.2087 -0.0023
 2189SOL    HW118029   1.202   3.345   8.473 -0.2449 -1.6332  0.4239
 2189SOL    HW218030   1.337   3.396   8.511 -0.8319  1.1155 -0.7626
 2190SOL     OW18031   3.755   4.428   7.528 -0.3176  0.1643  0.9349
 2190SOL    HW118032   3.677   4.482   7.539 -0.3681  0.3337 -0.3035
 2190SOL    HW218033   3.783   4.432   7.620 -0.1813  2.0664  0.8070
 2191SOL     OW18034   0.606   0.413   6.318  0.4823  0.6201 -0.0484
 2191SOL    HW118035   0.641   0.330   6.349 -1.6787  0.3815  1.7855
 2191SOL    HW218036   0.520   0.381   6.291  0.0644  1.1982  0.5745
 2192SOL     OW18037   1.986   2.462   5.541  0.3860 -0.1531 -0.5916
 2192SOL    HW118038   2.058   2.485   5.600  0.8035 -1.3844 -0.6275
 2192SOL    HW218039   2.007   2.526   5.473  0.2456 -1.9343 -2.3002
 2193SOL     OW18040   4.434   4.006   4.724  0.6801 -0.1219 -0.5743
 2193SOL    HW118041   4.486   3.925   4.728 -0.5526 -0.9024 -0.4743
 2193SOL    HW218042   4.370   3.987   4.656 -0.0998 -0.8850  0.3779
 2194SOL     OW18043   2.970   2.662  10.484 -0.4784  0.4944  0.2483
 2194SOL    HW118044   2.944   2.643  10.575 -1.6071  1.6302  0.1585
 2194SOL    HW218045   3.022   2.743  10.488  1.5531 -1.0076  4.5156
 2195SOL     OW18046   2.084   1.440   4.404  0.2229 -0.1547 -0.0209
 2195SOL    HW118047   2.176   1.468   4.404  1.2643 -3.5359 -0.2870
 2195SOL    HW218048   2.055   1.481   4.485  0.5997 -0.6073  0.3456
 2196SOL     OW18049   3.237   4.723   9.045  0.2000 -0.1551  0.3405
 2196SOL    HW118050   3.232   0.063   9.114  1.4561  0.4054 -0.1005
 2196SOL    HW218051   3.143   4.708   9.034  0.2567  0.5752 -1.0887
 2197SOL     OW18052   0.920   1.696   4.764 -0.0903  0.4072 -0.2795
 2197SOL    HW118053   0.919   1.603   4.742  1.7589  0.4400 -0.4397
 2197SOL    HW218054   0.951   1.732   4.682  0.3145 -1.5265 -0.9709
 2198SOL     OW18055   0.132   0.998   8.471 -0.3138 -0.0988  0.5745
 2198SOL    HW118056   0.186   0.966   8.399 -0.0146  0.6057  0.4838
 2198SOL    HW218057   0.191   0.988   8.546  0.6885  1.5212 -0.0001
 2199SOL     OW18058   0.220   0.500   5.613 -0.0541 -0.3832 -0.3101
 2199SOL    HW118059   0.139   0.449   5.602 -1.0117  0.8559  1.0593
 2199SOL    HW218060   0.260   0.490   5.527 -0.0263 -1.3874 -0.1873
 2200SOL     OW18061   1.490   2.437   5.543  0.8094 -0.1935  0.2514
 2200SOL    HW118062   1.479   2.524   5.505 -1.9640  0.0715  1.6248
 2200SOL    HW218063   1.576   2.453   5.581  1.2226 -0.2706 -0.6572
 2201SOL     OW18064   0.591   4.611   4.734 -0.1965 -0.0092  0.7256
 2201SOL    HW118065   0.629   4.673   4.673  1.7735 -0.6534  1.2843
 2201SOL    HW218066   0.500   4.630   4.714 -1.1528 -2.1395  2.9765
 2202SOL     OW18067   1.678   0.855   8.980 -0.8771  0.5878  0.2209
 2202SOL    HW118068   1.741   0.794   9.018  0.1738  1.1639 -0.5937
 2202SOL    HW218069   1.696   0.921   9.048  0.2463  0.7342 -0.2202
 2203SOL     OW18070   0.503   0.680   7.056 -0.3681 -0.2288 -0.6097
 2203SOL    HW118071   0.423   0.639   7.024  0.8407 -2.2574 -1.0335
 2203SOL    HW218072   0.464   0.739   7.120  1.0894 -0.0340  0.1061
 2204SOL     OW18073   0.568   1.363  14.875 -0.4373  0.0146  0.1907
 2204SOL    HW118074   0.637   1.428  14.891 -1.7825  1.3566  0.5227
 2204SOL    HW218075   0.602   1.318  14.798  1.5112  0.5333  0.7441
 2205SOL     OW18076   3.526   2.119  10.082 -0.0232  0.5524  0.4689
 2205SOL    HW118077   3.474   2.195  10.054  1.4560  1.5826  0.5649
 2205SOL    HW218078   3.616   2.134  10.053  0.7299 -1.0209  2.0061
 2206SOL     OW18079   0.762   0.150  13.419 -0.8807  0.2498  0.4182
 2206SOL    HW118080   0.853   0.137  13.447 -0.7247 -0.4704 -0.4008
 2206SOL    HW218081   0.769   0.111  13.331  2.2686 -0.2622  0.8902
 2207SOL     OW18082   2.488   4.226   8.095 -0.3205 -0.2823  0.5834
 2207SOL    HW118083   2.415   4.219   8.034 -0.7422  0.2524  1.0350
 2207SOL    HW218084   2.560   4.278   8.057 -0.6479 -0.2708 -0.0254
 2208SOL     OW18085   1.861   3.660   8.574  0.1697 -0.1894 -0.6914
 2208SOL    HW118086   1.813   3.736   8.608 -3.0585 -2.4610 -0.2126
 2208SOL    HW218087   1.929   3.653   8.641 -1.1493  1.4399  0.8379
 2209SOL     OW18088   1.645   1.272   7.092  0.4927 -0.2862  0.2947
 2209SOL    HW118089   1.606   1.226   7.166  2.4563 -1.7955  0.3844
 2209SOL    HW218090   1.573   1.331   7.068 -0.7093 -2.1095 -0.6286
 2210SOL     OW18091   2.437   2.293   7.627 -0.2315 -0.3524  0.1355
 2210SOL    HW118092   2.348   2.328   7.633  0.2694  0.6027  2.2672
 2210SOL    HW218093   2.488   2.374   7.635 -1.0502  0.4160 -2.4834
 2211SOL     OW18094   3.902   2.332   9.409  0.0072 -0.4673 -0.2503
 2211SOL    HW118095   3.850   2.338   9.329  0.8744 -0.2712 -0.7998
 2211SOL    HW218096   3.989   2.315   9.373  0.8988  0.6971  1.3379
 2212SOL     OW18097   0.411   4.445   0.821  0.5475 -0.0797  0.7326
 2212SOL    HW118098   0.456   4.494   0.753 -0.6951 -1.0915 -0.8358
 2212SOL    HW218099   0.377   4.504   0.888 -0.8868 -0.1142  0.0459
 2213SOL     OW18100   0.591   3.377  17.451  0.1097  0.5808 -0.2551
 2213SOL    HW118101   0.508   3.343  17.486  1.2225  0.6718  2.4378
 2213SOL    HW218102   0.610   3.297  17.401  1.7019  0.7354  0.1018
 2214SOL     OW18103   1.161   0.884  12.104  0.1286 -0.5774 -0.0137
 2214SOL    HW118104   1.076   0.925  12.118 -1.2416 -2.6535 -2.3980
 2214SOL    HW218105   1.208   0.905  12.185 -3.0953 -0.5416  1.8503
 2215SOL     OW18106   3.325   0.869   7.749 -0.5963 -0.0649 -0.0225
 2215SOL    HW118107   3.235   0.901   7.756  0.0431  1.5073  1.1846
 2215SOL    HW218108   3.311   0.784   7.791 -2.6034  0.5302  0.5135
 2216SOL     OW18109   4.403   1.597   5.074 -0.4453 -0.6010 -0.3024
 2216SOL    HW118110   4.346   1.639   5.010  0.5298 -0.5129 -1.1088
 2216SOL    HW218111   4.358   1.625   5.154  0.8978  0.2184  0.1762
 2217SOL     OW18112   0.786   3.562   8.621  0.4650  0.2844  0.4519
 2217SOL    HW118113   0.879   3.578   8.631  0.5771 -0.6439  0.8468
 2217SOL    HW218114   0.750   3.647   8.596  1.6925  0.2928 -1.2877
 2218SOL     OW18115   4.145   1.204  11.338  0.0173 -0.0821  0.6586
 2218SOL    HW118116   4.211   1.195  11.407 -1.0819 -0.0483  1.7313
 2218SOL    HW218117   4.083   1.270  11.373 -3.1484 -1.3927 -2.4763
 2219SOL     OW18118   1.297   1.832  13.310 -0.5915  0.0659 -0.1232
 2219SOL    HW118119   1.220   1.840  13.367  1.2681  1.0475  2.2381
 2219SOL    HW218120   1.259   1.877  13.235 -3.9368  0.6272  1.9048
 2220SOL     OW18121   1.257   3.187   1.849  0.2114  0.1142  0.1229
 2220SOL    HW118122   1.305   3.168   1.930  1.2447 -2.4104 -1.1025
 2220SOL    HW218123   1.192   3.118   1.835 -1.6411  1.7378  0.7619
 2221SOL     OW18124   0.048   1.873  17.126 -0.7138  0.5557  0.3371
 2221SOL    HW118125   4.704   1.848  17.065 -0.1682  0.9349 -0.4432
 2221SOL    HW218126   0.016   1.837  17.209 -0.0890  3.1254  1.6929
 2222SOL     OW18127   0.131   1.515   8.317 -0.5960  0.2521  0.1990
 2222SOL    HW118128   0.148   1.449   8.384 -0.3033 -0.6866 -0.8155
 2222SOL    HW218129   0.100   1.451   8.254 -0.8683  0.2922  0.2939
 2223SOL     OW18130   2.273   0.763  13.022 -0.9111  0.1721  0.6012
 2223SOL    HW118131   2.367   0.743  13.021 -0.9702  0.0640 -2.2562
 2223SOL    HW218132   2.245   0.671  13.020  0.0404 -0.1376  1.0878
 2224SOL     OW18133   4.329   1.755   6.421 -0.3656  0.1270  0.2511
 2224SOL    HW118134   4.248   1.757   6.371  0.3995  0.8464 -0.9815
 2224SOL    HW218135   4.369   1.672   6.393 -0.7295 -0.0026  0.1162
 2225SOL     OW18136   1.285   2.297  13.707  0.0022 -0.0855 -0.1917
 2225SOL    HW118137   1.345   2.244  13.759 -0.5038 -0.7486 -0.2808
 2225SOL    HW218138   1.238   2.340  13.779 -1.9989  1.1896 -2.2368
 2226SOL     OW18139   4.503   4.156   5.275 -0.0056 -0.6120  0.2780
 2226SOL    HW118140   4.418   4.113   5.270  0.0731 -0.4949 -2.0337
 2226SOL    HW218141   4.536   4.123   5.191 -1.1426 -0.1094 -0.3593
 2227SOL     OW18142   4.295   4.462   8.549  0.4502 -0.6510 -0.1139
 2227SOL    HW118143   4.271   4.501   8.633  0.6129 -1.1276  0.1495
 2227SOL    HW218144   4.338   4.379   8.569  1.1667 -0.1525  0.3770
 2228SOL     OW18145   2.264   4.639   4.865  0.3894  0.5768  0.4491
 2228SOL    HW118146   2.225   4.660   4.950  0.6782  0.1253  0.6968
 2228SOL    HW218147   2.357   4.643   4.888  0.9868  2.9035 -2.4361
 2229SOL     OW18148   3.618   3.393  12.306 -0.2338  0.3198 -0.0966
 2229SOL    HW118149   3.674   3.390  12.383  1.5843 -0.0107 -1.4456
 2229SOL    HW218150   3.649   3.472  12.262 -0.3939  0.6335  0.3545
 2230SOL     OW18151   3.740   1.071   7.160  0.0523 -1.2377 -0.1713
 2230SOL    HW118152   3.763   1.126   7.235  1.1039 -3.4472  1.1299
 2230SOL    HW218153   3.815   1.107   7.112 -1.5127  3.1134  0.7101
 2231SOL     OW18154   0.176   2.635   2.176 -0.0766 -0.0224  0.8389
 2231SOL    HW118155   0.186   2.557   2.121  1.4854 -2.1549  4.2098
 2231SOL    HW218156   0.137   2.588   2.249 -2.8011  0.2568 -0.4119
 2232SOL     OW18157   0.641   0.237  11.590 -0.4299  0.4679  0.6840
 2232SOL    HW118158   0.666   0.183  11.515 -0.2107 -0.2316  1.2607
 2232SOL    HW218159   0.725   0.277  11.613  1.1451 -1.6778 -1.3564
 2233SOL     OW18160   4.209   3.389   8.245 -0.3361 -0.5332  0.2096
 2233SOL    HW118161   4.201   3.294   8.250 -1.1070 -0.4062  1.4824
 2233SOL    HW218162   4.147   3.418   8.313 -2.1302  0.1875 -1.7396
 2234SOL     OW18163   2.608   2.909  17.400 -0.0748  0.1299  0.2734
 2234SOL    HW118164   2.578   2.821  17.377 -0.8579  0.2235  0.9281
 2234SOL    HW218165   2.688   2.917  17.348 -1.5615  0.5986 -1.9096
 2235SOL     OW18166   3.932   2.129  16.312 -0.0340 -0.2038  0.2797
 2235SOL    HW118167   3.839   2.144  16.331 -0.2103 -1.0146  0.0934
 2235SOL    HW218168   3.920   2.100  16.221 -0.4897 -1.3534  0.7110
 2236SOL     OW18169   2.935   2.898   2.314  0.8234 -0.2177  0.0129
 2236SOL    HW118170   2.901   2.808   2.309  3.4091 -1.2225  0.6017
 2236SOL    HW218171   2.919   2.914   2.221 -2.2288 -1.1797  0.3637
 2237SOL     OW18172   2.041   1.865   4.678  0.1318  0.1116  0.3778
 2237SOL    HW118173   1.952   1.894   4.695  0.3894  1.4672 -0.5745
 2237SOL    HW218174   2.034   1.842   4.586  1.5608 -0.1285  0.3273
 2238SOL     OW18175   0.336   2.045   1.776 -0.2626 -0.3534  0.8218
 2238SOL    HW118176   0.312   2.045   1.869 -0.4976 -3.4825  0.7399
 2238SOL    HW218177   0.346   1.951   1.764  0.5647  0.2189 -2.8573
 2239SOL     OW18178   4.313   1.595   9.841  0.1580  0.1592 -0.0710
 2239SOL    HW118179   4.282   1.661   9.904  2.4129  0.6276  0.5402
 2239SOL    HW218180   4.231   1.560   9.807  0.3983 -1.1690  0.6864
 2240SOL     OW18181   4.432   1.951  13.266  0.3556 -0.2415 -0.3222
 2240SOL    HW118182   4.511   2.006  13.266 -0.3088  0.7261 -1.1847
 2240SOL    HW218183   4.447   1.901  13.346  0.9348 -0.0864 -0.3307
 2241SOL     OW18184   3.825   3.265  11.518 -0.4077 -0.2488  0.3113
 2241SOL    HW118185   3.881   3.288  11.592 -1.1694  0.8650  0.5443
 2241SOL    HW218186   3.746   3.295  11.563 -0.1086  0.5871  0.2804
 2242SOL     OW18187   2.887   4.237  17.697  0.5814  0.4100  0.0092
 2242SOL    HW118188   2.974   4.276  17.703  0.4254  1.3712 -3.5848
 2242SOL    HW218189   2.860   4.243   0.082 -1.9777  3.4228 -0.9159
 2243SOL     OW18190   4.185   0.260   6.188 -0.1449  0.6571 -0.0311
 2243SOL    HW118191   4.117   0.270   6.254 -0.4454  2.5123 -0.6158
 2243SOL    HW218192   4.249   0.327   6.211  0.6618 -0.4934  1.1025
 2244SOL     OW18193   2.452   4.006   3.285 -0.1459  0.3051 -0.9022
 2244SOL    HW118194   2.407   3.927   3.257  1.9587 -0.6919 -1.5214
 2244SOL    HW218195   2.394   4.054   3.344 -0.5885 -1.1290 -0.1712
 2245SOL     OW18196   1.138   0.174   6.644 -0.0476  0.3201 -0.5663
 2245SOL    HW118197   1.160   0.139   6.558 -0.0641 -1.5302  0.1708
 2245SOL    HW218198   1.136   0.269   6.633 -0.4954  0.5144  1.1188
 2246SOL     OW18199   3.128   2.778   1.014  0.2625 -0.9788  1.0251
 2246SOL    HW118200   3.165   2.850   0.962 -0.7151 -0.4616  1.0476
 2246SOL    HW218201   3.083   2.734   0.943 -1.1599  0.9898  0.6927
 2247SOL     OW18202   3.101   4.443   0.833  0.3533  0.1030 -0.5805
 2247SOL    HW118203   3.055   4.464   0.914  2.0987  0.8950  0.1909
 2247SOL    HW218204   3.192   4.464   0.854 -0.3332 -0.3164  2.8348
 2248SOL     OW18205   4.023   3.863   2.921 -0.0689  0.1831  0.5475
 2248SOL    HW118206   4.058   3.943   2.882  1.2214 -0.9191 -0.5552
 2248SOL    HW218207   3.935   3.895   2.943 -0.4763 -0.6957  0.1971
 2249SOL     OW18208   3.080   1.515   1.579 -1.0270  0.3489 -0.0523
 2249SOL    HW118209   3.144   1.460   1.624 -1.9859  0.3109  1.2429
 2249SOL    HW218210   3.028   1.541   1.655 -2.4110 -0.3133 -0.7846
 2250SOL     OW18211   3.709   2.313   3.283 -0.4080 -0.1322 -0.4551
 2250SOL    HW118212   3.640   2.376   3.306  0.4624  0.8452 -0.5328
 2250SOL    HW218213   3.769   2.375   3.241  1.3462 -2.5074 -1.4117
 2251SOL     OW18214   3.557   2.081   3.244 -0.0289  0.3442  0.2420
 2251SOL    HW118215   3.605   2.161   3.267  2.2481 -0.1448 -2.8372
 2251SOL    HW218216   3.523   2.096   3.156  0.3150 -0.2077  0.0102
 2252SOL     OW18217   1.335   2.683   0.725  0.3992 -0.2612 -0.0044
 2252SOL    HW118218   1.424   2.716   0.717  0.5791 -0.8355 -0.3614
 2252SOL    HW218219   1.306   2.717   0.809  2.7994 -0.6235  0.9685
 2253SOL     OW18220   2.642   1.463   6.973  0.3254 -0.4655 -0.6457
 2253SOL    HW118221   2.737   1.455   6.960  0.2599  0.3258 -1.6391
 2253SOL    HW218222   2.622   1.402   6.902  0.4405 -0.1824 -0.9214
 2254SOL     OW18223   4.585   3.401  14.221  0.6380  0.4004  0.0844
 2254SOL    HW118224   4.639   3.373  14.148  0.3204  1.2344 -0.4740
 2254SOL    HW218225   4.628   3.480  14.255  0.8357  0.2389  0.2072
 2255SOL     OW18226   1.299   1.945  14.047 -0.3771  0.4092 -0.8881
 2255SOL    HW118227   1.328   2.000  14.121 -4.5518  0.0595  1.0125
 2255SOL    HW218228   1.335   1.863  14.083 -0.4614  0.1072 -1.5003
 2256SOL     OW18229   3.579   0.455   1.827  0.3195 -0.2207 -0.2441
 2256SOL    HW118230   3.504   0.515   1.830 -0.3899 -1.0934 -0.7036
 2256SOL    HW218231   3.596   0.447   1.733 -2.6993 -2.2523 -0.6096
 2257SOL     OW18232   2.239   2.985   2.342 -0.0751  0.4005 -0.1548
 2257SOL    HW118233   2.235   3.048   2.270 -1.9168  0.6870  0.1973
 2257SOL    HW218234   2.306   2.923   2.314 -0.6080 -0.2719  0.0509
 2258SOL     OW18235   3.679   0.806   2.022  1.0988  0.0322 -0.6905
 2258SOL    HW118236   3.768   0.823   2.052  1.8210 -1.4485 -1.9522
 2258SOL    HW218237   3.673   0.853   1.939  0.3958 -0.1204 -0.7263
 2259SOL     OW18238   0.289   1.396   7.067 -0.4031 -0.3273  0.3889
 2259SOL    HW118239   0.341   1.474   7.088  1.7058 -0.6559 -3.5476
 2259SOL    HW218240   0.204   1.435   7.047 -0.2325 -0.9236 -1.4463
 2260SOL     OW18241   4.153   1.332   1.607 -0.0122 -0.3892  0.1313
 2260SOL    HW118242   4.209   1.384   1.663 -3.1260  2.2761  0.7257
 2260SOL    HW218243   4.118   1.267   1.667 -1.3192  3.0380  3.0282
 2261SOL     OW18244   0.742   3.330  13.319  0.2705  0.0635  0.3174
 2261SOL    HW118245   0.748   3.366  13.230  3.0278 -0.3959  0.3110
 2261SOL    HW218246   0.837   3.333  13.327  0.1106  0.7115  1.8792
 2262SOL     OW18247   1.159   2.016   4.727 -0.0187  0.7603 -0.0875
 2262SOL    HW118248   1.177   1.973   4.811  0.9250 -0.3463 -0.8620
 2262SOL    HW218249   1.103   1.952   4.683 -0.4848  1.8005 -0.9983
 2263SOL     OW18250   2.582   3.672  12.662 -0.6150  0.1788  0.3814
 2263SOL    HW118251   2.586   3.757  12.618  2.6384  1.1437  2.4988
 2263SOL    HW218252   2.582   3.687  12.757  0.6373  1.4323  0.1941
 2264SOL     OW18253   2.887   2.976  12.680 -0.3755 -0.7321 -0.3412
 2264SOL    HW118254   2.867   2.957  12.772 -1.6996 -0.6332 -0.6060
 2264SOL    HW218255   2.931   3.060  12.692 -1.1032 -0.0397 -2.6136
 2265SOL     OW18256   4.029   4.716  13.917 -0.1691 -0.2139 -0.4448
 2265SOL    HW118257   4.067   0.074  13.893  1.3521  0.3277  3.8633
 2265SOL    HW218258   4.013   4.679  13.830 -2.0554 -1.2854  0.3419
 2266SOL     OW18259   3.131   1.078   7.878 -0.2419 -0.2402  0.2916
 2266SOL    HW118260   3.095   1.035   7.955  0.2890 -1.6931 -0.2656
 2266SOL    HW218261   3.059   1.111   7.823 -0.2785  1.4756  1.3673
 2267SOL     OW18262   3.260   0.002  10.137  0.2934  0.4732  0.0048
 2267SOL    HW118263   3.348   0.005  10.174 -0.0480 -0.2912  0.8905
 2267SOL    HW218264   3.240   0.095  10.134 -0.8730  0.2517  0.8046
 2268SOL     OW18265   4.722   0.027   2.518 -0.1529 -0.2782 -0.1391
 2268SOL    HW118266   4.655   0.082   2.556  1.1823 -0.2084  2.0922
 2268SOL    HW218267   4.686   0.000   2.433 -2.3614  0.5358  0.5559
 2269SOL     OW18268   2.792   3.711   8.222 -0.4026  0.3693  0.2211
 2269SOL    HW118269   2.803   3.795   8.177 -0.6829  1.0647  1.4442
 2269SOL    HW218270   2.791   3.647   8.151  0.2451  1.4120 -0.7215
 2270SOL     OW18271   0.383   2.765  15.882 -0.2980  0.0141 -0.5065
 2270SOL    HW118272   0.423   2.843  15.843 -0.2368  1.0114  1.5313
 2270SOL    HW218273   0.396   2.787  15.974 -2.0923 -1.7246  0.1802
 2271SOL     OW18274   0.711   4.414  16.688 -0.6476  0.4137 -0.2137
 2271SOL    HW118275   0.720   4.509  16.675  0.1762  0.1239 -1.8382
 2271SOL    HW218276   0.625   4.398  16.650  0.4588  2.7977 -3.8534
 2272SOL     OW18277   0.890   1.197   2.199  0.7594 -0.0622 -0.1436
 2272SOL    HW118278   0.957   1.168   2.138  1.9806  1.8125  0.3054
 2272SOL    HW218279   0.905   1.291   2.214 -1.3104  0.1648  0.5544
 2273SOL     OW18280   2.997   0.697   2.086  0.1344 -0.4378 -0.6532
 2273SOL    HW118281   2.986   0.679   2.179  0.5064  2.0719 -0.1155
 2273SOL    HW218282   3.071   0.757   2.095 -0.6884  0.5477 -0.4860
 2274SOL     OW18283   3.484   4.373  13.235 -0.0167 -0.0283  0.2648
 2274SOL    HW118284   3.538   4.452  13.241 -1.4606  0.8586  1.8060
 2274SOL    HW218285   3.522   4.310  13.297 -0.0463  1.3019  1.6529
 2275SOL     OW18286   3.482   3.251   8.995 -0.1898  0.0442  0.2805
 2275SOL    HW118287   3.423   3.297   9.054  0.4472  0.7906  0.3278
 2275SOL    HW218288   3.551   3.317   8.993 -0.5360  0.3390 -1.7806
 2276SOL     OW18289   3.201   2.727   4.940 -0.6477 -0.4116  0.1748
 2276SOL    HW118290   3.113   2.728   4.902 -1.0983 -0.5216  1.2223
 2276SOL    HW218291   3.184   2.713   5.033  2.7756 -1.2286  0.6840
 2277SOL     OW18292   3.864   0.424   1.882 -0.4619  0.2518 -0.2990
 2277SOL    HW118293   3.779   0.444   1.843 -1.3243  1.6418  2.3080
 2277SOL    HW218294   3.915   0.504   1.870 -1.4072  1.0781  1.2265
 2278SOL     OW18295   3.757   2.282  14.360 -0.5105 -0.0220 -0.1224
 2278SOL    HW118296   3.775   2.190  14.340 -0.0491  0.3923 -1.6247
 2278SOL    HW218297   3.805   2.299  14.441  0.5615  0.3652 -0.8357
 2279SOL     OW18298   2.239   1.233   5.500 -0.4564  1.1089  0.2324
 2279SOL    HW118299   2.162   1.229   5.556  1.5484 -0.3623  2.9305
 2279SOL    HW218300   2.205   1.284   5.427 -0.3346  1.2531  0.2763
 2280SOL     OW18301   0.414   1.649   0.240  0.2937  0.0801  0.4168
 2280SOL    HW118302   0.406   1.727   0.294  1.8134  1.6426 -1.6170
 2280SOL    HW218303   0.450   1.688   0.160 -1.3102 -0.1280 -0.4029
 2281SOL     OW18304   2.522   1.297   6.782 -0.2040  0.5069  0.2187
 2281SOL    HW118305   2.547   1.358   6.712 -1.6007 -1.4711 -1.9844
 2281SOL    HW218306   2.570   1.219   6.755 -0.4873  0.5437 -0.4048
 2282SOL     OW18307   2.566   4.251   2.329  0.1682  0.7498  0.6337
 2282SOL    HW118308   2.582   4.322   2.267  0.0548 -0.3593 -0.6688
 2282SOL    HW218309   2.638   4.271   2.389 -0.0416 -0.7652  1.3984
 2283SOL     OW18310   4.668   2.745   9.741 -0.4130  0.3662  1.3168
 2283SOL    HW118311   4.594   2.754   9.801 -0.3452 -1.1479  1.6176
 2283SOL    HW218312   4.701   2.835   9.745  0.8746 -0.0097 -0.8198
 2284SOL     OW18313   4.088   1.917   2.390 -0.5909 -0.5325  0.3087
 2284SOL    HW118314   4.038   1.959   2.460 -0.5815 -0.2108  0.1260
 2284SOL    HW218315   4.028   1.922   2.315 -0.3304  0.5850  0.1720
 2285SOL     OW18316   4.403   2.725   7.921  0.7098 -0.3640  0.0953
 2285SOL    HW118317   4.476   2.663   7.928  2.0717  1.1851 -0.2244
 2285SOL    HW218318   4.381   2.712   7.828  0.1972  2.4244 -0.1756
 2286SOL     OW18319   2.980   4.442  13.012  0.1759 -0.1147 -0.1853
 2286SOL    HW118320   2.940   4.462  13.097  2.1554  2.9978 -0.0215
 2286SOL    HW218321   3.068   4.479  13.018  0.6339 -1.1179 -0.7080
 2287SOL     OW18322   3.700   0.287   6.363  0.4395 -0.3969 -0.7009
 2287SOL    HW118323   3.635   0.249   6.422  0.0646  1.1053 -0.1338
 2287SOL    HW218324   3.686   0.380   6.378  0.0574 -0.0772 -3.0223
 2288SOL     OW18325   0.484   4.379  16.562 -0.3139  0.2640  0.3624
 2288SOL    HW118326   0.507   4.286  16.572  0.5551  0.5032  0.5919
 2288SOL    HW218327   0.405   4.365  16.509  0.5836  0.3818 -1.0155
 2289SOL     OW18328   3.696   1.212   5.858  0.8811 -0.2951 -0.1813
 2289SOL    HW118329   3.711   1.223   5.952 -0.4906  0.7641 -0.1008
 2289SOL    HW218330   3.786   1.205   5.826 -0.0049 -0.1091 -2.7362
 2290SOL     OW18331   3.595   0.661   3.625 -0.0944 -0.4385  0.0817
 2290SOL    HW118332   3.634   0.575   3.610 -0.5512 -0.5148 -0.6724
 2290SOL    HW218333   3.595   0.676   3.719 -1.1162 -0.2606  0.0576
 2291SOL     OW18334   1.619   4.278   3.957  0.0720  0.4357  0.3207
 2291SOL    HW118335   1.705   4.251   3.988  0.5319  0.7765 -0.6937
 2291SOL    HW218336   1.613   4.373   3.945  0.6629  0.0475 -2.9291
 2292SOL     OW18337   4.591   0.508   2.866 -0.3462 -0.2879 -0.5461
 2292SOL    HW118338   4.593   0.421   2.825 -0.8682 -0.5609 -0.0029
 2292SOL    HW218339   4.638   0.563   2.804 -1.3137  1.1128 -0.0408
 2293SOL     OW18340   0.230   0.455   8.546  0.8979 -0.4542  0.0036
 2293SOL    HW118341   0.319   0.464   8.511 -0.3830  1.9666 -2.6226
 2293SOL    HW218342   0.210   0.543   8.576 -2.2829 -0.6307 -1.5865
 2294SOL     OW18343   0.998   1.845   4.540 -0.0281 -0.2889  0.0081
 2294SOL    HW118344   0.972   1.889   4.459 -1.8014 -0.3312  0.5624
 2294SOL    HW218345   1.035   1.763   4.506 -0.3968 -0.1342 -0.7758
 2295SOL     OW18346   2.458   1.777   4.315 -0.6196 -0.6772  0.2975
 2295SOL    HW118347   2.486   1.733   4.235  1.0043 -0.1326  0.5678
 2295SOL    HW218348   2.544   1.801   4.350 -1.6860  2.3618  0.8561
 2296SOL     OW18349   1.323   2.290   5.854  0.1967  0.0623  0.1323
 2296SOL    HW118350   1.397   2.350   5.862 -0.6774  1.0749  0.6844
 2296SOL    HW218351   1.310   2.271   5.947 -2.2617 -0.5673 -0.3368
 2297SOL     OW18352   3.296   2.908   5.991 -0.0906  0.5267 -0.3256
 2297SOL    HW118353   3.229   2.853   5.950  0.5482 -0.9554  0.6038
 2297SOL    HW218354   3.278   2.883   6.082 -1.6647  3.3181  0.1035
 2298SOL     OW18355   2.845   2.360   2.832  0.1060 -0.5961  0.1317
 2298SOL    HW118356   2.862   2.413   2.910 -0.4816 -0.3819  0.1115
 2298SOL    HW218357   2.811   2.435   2.783 -0.0172 -1.4978 -1.1406
 2299SOL     OW18358   2.972   0.137   7.705 -0.4763 -0.3350  0.3385
 2299SOL    HW118359   2.983   0.058   7.758  0.3762 -0.5559 -0.1681
 2299SOL    HW218360   2.895   0.168   7.752  0.9577  2.4403  0.8596
 2300SOL     OW18361   2.772   0.050   6.566 -0.3781  0.2970 -0.1220
 2300SOL    HW118362   2.698   0.093   6.523  1.4689  2.4394 -1.1325
 2300SOL    HW218363   2.821   0.128   6.592  1.0997 -0.4824 -0.5419
 2301SOL     OW18364   1.762   4.307   6.560 -0.1585  0.6294 -0.3234
 2301SOL    HW118365   1.749   4.345   6.473  0.8766 -0.3040 -0.9006
 2301SOL    HW218366   1.715   4.371   6.613  0.9661  1.7271 -0.6704
 2302SOL     OW18367   1.590   2.868   5.080 -0.0083 -0.3423  0.0594
 2302SOL    HW118368   1.508   2.849   5.035 -0.8762  0.7950  1.1956
 2302SOL    HW218369   1.565   2.912   5.161 -1.2515 -0.4907 -0.2395
 2303SOL     OW18370   0.858   3.768  11.539 -0.0740 -0.1706  0.1898
 2303SOL    HW118371   0.927   3.706  11.515  0.0440  1.0182 -2.5792
 2303SOL    HW218372   0.818   3.762  11.452 -1.0520  0.2223  0.6162
 2304SOL     OW18373   2.411   3.974   6.390  0.2995  0.5384 -0.4993
 2304SOL    HW118374   2.450   4.028   6.459  0.9172  1.3405 -1.4804
 2304SOL    HW218375   2.345   3.920   6.434 -0.9617  1.9853 -0.6121
 2305SOL     OW18376   0.772   0.892   7.539  0.7274  0.0060  0.6851
 2305SOL    HW118377   0.758   0.877   7.446  4.1318  3.0817 -0.3112
 2305SOL    HW218378   0.799   0.983   7.525 -0.0964  0.1053 -0.2439
 2306SOL     OW18379   3.787   2.872   5.700 -0.0023  0.0633  0.5050
 2306SOL    HW118380   3.768   2.956   5.742 -1.0470  1.0249 -1.8878
 2306SOL    HW218381   3.797   2.811   5.773  0.2893 -0.9581 -0.3793
 2307SOL     OW18382   0.021   1.607   9.617  0.4111  0.4885 -0.6274
 2307SOL    HW118383   4.679   1.604   9.684  3.2191 -0.2046  2.1628
 2307SOL    HW218384   0.044   1.515   9.603 -1.7689 -0.2270  0.4493
 2308SOL     OW18385   1.705   3.475   0.866 -0.0434  0.2078  0.0957
 2308SOL    HW118386   1.659   3.525   0.933 -1.1714 -1.8313  0.8411
 2308SOL    HW218387   1.740   3.396   0.907  1.1478  1.2255  1.0291
 2309SOL     OW18388   4.087   1.075   2.098  0.9164  0.7104  0.0160
 2309SOL    HW118389   4.161   1.017   2.078  0.8755  1.4960 -2.4570
 2309SOL    HW218390   4.024   1.049   2.031  0.9041  0.9380 -0.0596
 2310SOL     OW18391   3.971   2.428  11.282 -0.0054 -0.5436  0.1740
 2310SOL    HW118392   3.976   2.518  11.251 -1.7952  0.6654  3.3970
 2310SOL    HW218393   4.052   2.396  11.242 -1.3216 -1.9213 -1.4020
 2311SOL     OW18394   2.343   3.274  16.424  0.1570  0.3524  0.2746
 2311SOL    HW118395   2.319   3.184  16.400 -1.8126  0.8921  0.1854
 2311SOL    HW218396   2.304   3.327  16.354  0.4561  0.5097  0.2312
 2312SOL     OW18397   4.103   2.677  15.406 -0.1859  0.1176  0.1545
 2312SOL    HW118398   4.148   2.755  15.372  0.1083 -0.4225 -0.7131
 2312SOL    HW218399   4.114   2.703  15.497  0.8595 -2.4786  0.7775
 2313SOL     OW18400   1.218   0.881  11.252 -0.7394  0.6140 -0.2115
 2313SOL    HW118401   1.285   0.819  11.227 -2.0245  0.1978 -2.6428
 2313SOL    HW218402   1.213   0.923  11.167  1.7672  0.0790 -0.6043
 2314SOL     OW18403   3.463   0.249   1.473  0.0193 -0.2537  0.2884
 2314SOL    HW118404   3.530   0.255   1.404 -1.3265 -0.9549 -1.0754
 2314SOL    HW218405   3.482   0.163   1.511 -1.4908 -0.5646  0.3399
 2315SOL     OW18406   1.809   2.319   5.905  0.6433 -0.3276  0.5882
 2315SOL    HW118407   1.765   2.234   5.899 -2.0196  1.0454  0.7927
 2315SOL    HW218408   1.777   2.344   5.992 -2.0204 -3.4800  0.5195
 2316SOL     OW18409   0.211   1.103   3.251 -0.3696  0.3343 -0.0474
 2316SOL    HW118410   0.122   1.119   3.220  0.2485  1.4449 -1.2408
 2316SOL    HW218411   0.261   1.080   3.172  0.5321  0.5423  0.4737
 2317SOL     OW18412   0.382   0.499   7.939 -0.0832  0.3073  0.6990
 2317SOL    HW118413   0.426   0.414   7.944  0.2996  0.5047  0.7043
 2317SOL    HW218414   0.314   0.489   8.005  0.6833 -0.2368  1.4007
 2318SOL     OW18415   0.357   4.366   6.703 -0.9803 -0.0057 -0.3123
 2318SOL    HW118416   0.382   4.302   6.636 -0.9651 -0.2404 -0.0817
 2318SOL    HW218417   0.437   4.369   6.757 -0.4355 -0.8709 -1.0772
 2319SOL     OW18418   0.320   2.874   3.608 -0.3673  0.5794 -0.4968
 2319SOL    HW118419   0.367   2.873   3.525  0.1747 -2.2391 -0.1330
 2319SOL    HW218420   0.372   2.941   3.653 -0.3359 -0.4495  1.0198
 2320SOL     OW18421   4.515   0.853   4.177 -0.7053  0.0419 -0.2271
 2320SOL    HW118422   4.573   0.887   4.109 -1.9293 -0.4629 -1.5388
 2320SOL    HW218423   4.431   0.885   4.143 -0.1291  2.4420  0.6314
 2321SOL     OW18424   1.746   1.237  14.550  0.0703 -0.0044 -0.4574
 2321SOL    HW118425   1.806   1.258  14.622  0.8595 -1.8586 -0.5847
 2321SOL    HW218426   1.732   1.144  14.566 -3.7981  0.6962  0.0362
 2322SOL     OW18427   4.498   2.929   5.785 -0.6214 -0.2779  0.3940
 2322SOL    HW118428   4.454   2.884   5.713 -1.3012 -0.8308  1.1619
 2322SOL    HW218429   4.582   2.939   5.739  0.1722 -1.3042  1.5973
 2323SOL     OW18430   0.739   3.926   7.264  0.2437 -0.2096 -0.8340
 2323SOL    HW118431   0.792   3.846   7.270 -0.5186 -0.5506  1.2737
 2323SOL    HW218432   0.701   3.931   7.352 -0.3186  1.1000 -1.1547
 2324SOL     OW18433   4.192   0.408   2.099  0.1088  0.0412 -0.1022
 2324SOL    HW118434   4.268   0.389   2.153  0.4917  1.3662 -0.1658
 2324SOL    HW218435   4.176   0.325   2.056 -1.2540 -0.5914  1.6256
 2325SOL     OW18436   4.166   0.075   9.415 -0.3872  0.0487 -0.6026
 2325SOL    HW118437   4.216   0.153   9.392  0.1473  0.1630  0.9056
 2325SOL    HW218438   4.081   0.090   9.374 -0.7180 -1.4254 -0.4631
 2326SOL     OW18439   0.963   3.727   0.791 -0.3099  0.5551 -0.0897
 2326SOL    HW118440   1.058   3.715   0.789 -0.3133  1.0453 -2.6378
 2326SOL    HW218441   0.960   3.817   0.761 -2.3738  0.3695 -0.4115
 2327SOL     OW18442   1.963   3.482   1.971 -0.4594  1.0034  0.3779
 2327SOL    HW118443   2.036   3.521   1.923  0.8001 -0.3299  1.2343
 2327SOL    HW218444   1.977   3.516   2.059  1.0793 -0.0010  0.5173
 2328SOL     OW18445   4.166   2.605   2.645  0.1151  0.1116 -0.0889
 2328SOL    HW118446   4.155   2.698   2.662  0.9528 -0.1019  1.5893
 2328SOL    HW218447   4.113   2.602   2.565 -1.0296 -1.3722  0.7104
 2329SOL     OW18448   4.694   1.061  10.584  0.0595  0.2296 -0.2540
 2329SOL    HW118449   0.051   1.078  10.541 -0.2007  1.4323 -0.2602
 2329SOL    HW218450   4.717   1.025  10.670  0.4089 -0.0919 -0.4812
 2330SOL     OW18451   3.926   0.305   2.713 -0.5740 -0.1667 -0.0352
 2330SOL    HW118452   3.970   0.234   2.761 -1.8780 -1.1689 -0.3294
 2330SOL    HW218453   3.969   0.381   2.753  0.3743  1.6342 -4.5452
 2331SOL     OW18454   0.744   3.590   2.406  0.3268  0.4458 -0.1533
 2331SOL    HW118455   0.699   3.593   2.490  0.9662 -2.9991  0.3080
 2331SOL    HW218456   0.665   3.565   2.357  0.8422 -1.8170  0.2097
 2332SOL     OW18457   0.731   2.757  16.201  0.5027 -0.1332 -0.1878
 2332SOL    HW118458   0.826   2.749  16.194  0.3835 -1.0434 -0.8202
 2332SOL    HW218459   0.726   2.783  16.293  0.4021 -0.6938 -0.0332
 2333SOL     OW18460   2.092   3.432  14.710 -0.0816 -0.0068 -0.1159
 2333SOL    HW118461   2.088   3.504  14.773  1.7958 -0.2879  0.3161
 2333SOL    HW218462   2.095   3.485  14.630 -1.4368 -0.9382 -0.7795
 2334SOL     OW18463   1.126   3.573   7.314  0.0977  0.0586 -0.0889
 2334SOL    HW118464   1.141   3.508   7.246  4.9632  0.2072  0.8836
 2334SOL    HW218465   1.140   3.523   7.394 -3.6356  0.9172  1.1382
 2335SOL     OW18466   0.460   2.395   4.450 -0.1598 -0.2272 -0.1470
 2335SOL    HW118467   0.490   2.468   4.505  0.1347  0.9298 -1.8189
 2335SOL    HW218468   0.421   2.443   4.377  2.3816  2.2232  0.0593
 2336SOL     OW18469   4.685   4.305   0.522 -0.2347  0.2727 -0.1593
 2336SOL    HW118470   4.681   4.255   0.604  0.3861 -0.3091 -0.4933
 2336SOL    HW218471   4.603   4.355   0.523 -0.1405  0.4290 -0.3872
 2337SOL     OW18472   1.052   4.443   1.833  0.2813  0.4748  0.4971
 2337SOL    HW118473   0.978   4.482   1.880 -1.0957  0.2689 -1.4698
 2337SOL    HW218474   1.001   4.409   1.759 -0.4560 -0.6658  1.5336
 2338SOL     OW18475   2.907   0.504   5.565  0.0221  0.0142 -0.1621
 2338SOL    HW118476   2.907   0.414   5.532 -1.1877  0.3362 -1.0151
 2338SOL    HW218477   2.874   0.549   5.487 -0.6245 -1.5176 -0.7694
 2339SOL     OW18478   3.718   3.613   3.003  0.2542  0.4648 -0.2502
 2339SOL    HW118479   3.662   3.616   3.081  0.1993 -0.7070 -0.2461
 2339SOL    HW218480   3.775   3.688   3.018  0.4729  0.2499  0.0155
 2340SOL     OW18481   1.681   0.801  16.907  0.0061  0.0024 -0.5712
 2340SOL    HW118482   1.738   0.742  16.857  2.1899  0.4597  1.3760
 2340SOL    HW218483   1.639   0.847  16.834  3.5963  1.2996 -1.8587
 2341SOL     OW18484   0.856   1.483  10.174  0.2981  0.4794  0.3018
 2341SOL    HW118485   0.788   1.423  10.205  0.2857 -0.1983 -1.0786
 2341SOL    HW218486   0.804   1.562  10.158 -3.0447 -0.9681  4.0139
 2342SOL     OW18487   3.901   2.464   9.879  0.1648 -0.5877 -0.5640
 2342SOL    HW118488   3.831   2.430   9.824 -2.1480  0.4262  1.7250
 2342SOL    HW218489   3.967   2.488   9.815 -0.2303  1.2448 -0.2683
 2343SOL     OW18490   1.460   1.740   5.598 -0.2645  0.7449  0.1258
 2343SOL    HW118491   1.432   1.830   5.615 -2.2914 -0.6067  3.8993
 2343SOL    HW218492   1.526   1.752   5.529 -1.3278 -2.0198 -1.3731
 2344SOL     OW18493   1.040   3.649   4.807 -0.0041 -0.2717  0.1164
 2344SOL    HW118494   1.118   3.705   4.805 -2.4604  3.1270 -1.2179
 2344SOL    HW218495   1.068   3.575   4.861 -1.3670 -0.1620  0.9807
 2345SOL     OW18496   0.234   2.487  16.413  0.3397  0.0836  0.5202
 2345SOL    HW118497   0.204   2.506  16.501 -1.2866 -2.0127  0.4129
 2345SOL    HW218498   0.189   2.402  16.410  0.5594  0.0043 -0.6224
 2346SOL     OW18499   0.634   2.780  14.092 -0.4462 -0.4078  0.2620
 2346SOL    HW118500   0.710   2.833  14.115 -0.9073 -0.0333  0.9159
 2346SOL    HW218501   0.639   2.774  13.997 -0.6320  1.5852  0.1243
 2347SOL     OW18502   1.082   3.396   3.870 -0.7583 -0.2011 -0.6781
 2347SOL    HW118503   1.051   3.335   3.937  2.9967 -0.5908  0.7237
 2347SOL    HW218504   0.998   3.429   3.840 -0.8984  0.6834  0.7196
 2348SOL     OW18505   4.364   0.417   2.456 -0.0454 -0.2731 -0.4239
 2348SOL    HW118506   4.282   0.399   2.410 -0.4325  1.7345 -0.5233
 2348SOL    HW218507   4.339   0.375   2.538  3.1170 -1.3102 -0.0174
 2349SOL     OW18508   4.147   2.074   6.320  0.1344 -0.1083  0.2767
 2349SOL    HW118509   4.111   1.990   6.291  0.9686 -0.0906 -0.8242
 2349SOL    HW218510   4.223   2.048   6.373 -1.9641 -1.2667  2.7073
 2350SOL     OW18511   4.067   0.459   5.354  0.1938 -0.3441 -0.1805
 2350SOL    HW118512   3.974   0.478   5.340  0.1051  0.9643  2.0585
 2350SOL    HW218513   4.084   0.391   5.289  1.9369  0.7875 -0.9017
 2351SOL     OW18514   3.804   3.089   8.869 -0.5972  0.0261 -0.1704
 2351SOL    HW118515   3.862   3.140   8.926 -0.1766  0.3918 -0.9204
 2351SOL    HW218516   3.835   3.004   8.901 -4.1893 -1.4515 -0.7323
 2352SOL     OW18517   4.093   2.048  13.964  0.0190 -0.6376  0.7904
 2352SOL    HW118518   4.107   2.104  14.040  1.1310  0.7852 -0.4605
 2352SOL    HW218519   4.051   2.115  13.910  1.7520  0.3093  0.6336
 2353SOL     OW18520   0.652   1.379   6.379 -0.3437 -0.4406 -0.0801
 2353SOL    HW118521   0.576   1.375   6.321  0.9464  0.0607 -1.7989
 2353SOL    HW218522   0.615   1.355   6.463 -0.4916 -1.4677 -0.4424
 2354SOL     OW18523   3.382   1.632   2.452  0.2531 -0.2377 -0.1331
 2354SOL    HW118524   3.420   1.686   2.521 -1.4564 -0.1311  0.7286
 2354SOL    HW218525   3.460   1.582   2.430  1.0991  1.1788 -0.3277
 2355SOL     OW18526   2.156   1.560   6.151 -0.1229 -0.2146 -0.4481
 2355SOL    HW118527   2.229   1.594   6.100 -0.4766 -0.6136 -1.2303
 2355SOL    HW218528   2.095   1.623   6.114 -1.1023 -1.9083 -1.7271
 2356SOL     OW18529   2.332   1.783   5.307 -0.3651 -0.3159  0.2391
 2356SOL    HW118530   2.394   1.713   5.287  0.5233 -0.0067  1.9165
 2356SOL    HW218531   2.350   1.847   5.237 -0.7092  1.3620  1.6955
 2357SOL     OW18532   0.550   2.166   7.584 -0.4313 -0.3946 -0.2184
 2357SOL    HW118533   0.555   2.160   7.488  0.5449 -1.3683 -0.1056
 2357SOL    HW218534   0.544   2.076   7.616  0.6743 -0.3896 -0.0000
 2358SOL     OW18535   2.526   2.378  11.939 -0.2898 -0.1822  0.1299
 2358SOL    HW118536   2.477   2.306  11.899  1.0408 -1.0554  0.0827
 2358SOL    HW218537   2.497   2.451  11.885  1.8867  2.2300  2.2215
 2359SOL     OW18538   1.383   0.878   2.840  0.0459 -0.2659  0.3743
 2359SOL    HW118539   1.461   0.825   2.856 -0.1675 -0.1724  1.7569
 2359SOL    HW218540   1.408   0.956   2.790 -0.0923 -0.3262  0.2128
 2360SOL     OW18541   2.323   4.642   7.029  0.6098 -0.0857 -0.1318
 2360SOL    HW118542   2.357   4.698   6.958 -0.8418  1.1798  0.1593
 2360SOL    HW218543   2.236   4.678   7.049 -0.2029 -1.7304 -0.7209
 2361SOL     OW18544   0.965   2.044   2.046 -0.4544  0.5045  0.3170
 2361SOL    HW118545   0.930   2.131   2.062 -2.1907 -0.6255  2.7589
 2361SOL    HW218546   0.902   1.985   2.087  0.2717 -0.9924 -0.7098
 2362SOL     OW18547   0.134   0.730   5.697  0.1911 -0.7808  0.1759
 2362SOL    HW118548   0.187   0.652   5.684  0.6942 -0.4463  0.2241
 2362SOL    HW218549   0.188   0.806   5.677  2.5796 -1.6892  3.1963
 2363SOL     OW18550   2.642   0.554   3.498 -0.2029 -0.1847 -0.9019
 2363SOL    HW118551   2.645   0.476   3.554 -0.0170 -0.2230 -0.9670
 2363SOL    HW218552   2.696   0.613   3.550 -0.0853  0.3958 -1.6734
 2364SOL     OW18553   3.480   1.620   1.440  0.2318  0.6126  0.3102
 2364SOL    HW118554   3.473   1.594   1.348  0.4696 -0.8474  0.7061
 2364SOL    HW218555   3.539   1.695   1.445  0.1442  0.6497  0.7777
 2365SOL     OW18556   2.240   2.903  11.790 -0.3723  0.4336 -1.1998
 2365SOL    HW118557   2.310   2.855  11.835 -1.5677 -0.4743 -0.3143
 2365SOL    HW218558   2.188   2.823  11.782 -0.3981  0.1938  1.3415
 2366SOL     OW18559   4.715   0.719  14.015  0.6273 -0.0346 -0.3041
 2366SOL    HW118560   4.646   0.667  13.976  1.7171 -0.8418 -1.1382
 2366SOL    HW218561   4.656   0.764  14.076  3.3378  0.4617  1.9859
 2367SOL     OW18562   1.402   2.985   6.646 -0.2911  0.2518  0.5971
 2367SOL    HW118563   1.401   2.891   6.624 -2.8674  1.0010 -2.5906
 2367SOL    HW218564   1.456   2.994   6.724  0.6538 -1.4372  0.1389
 2368SOL     OW18565   3.741   4.451   9.079 -0.0325 -0.0436  0.3291
 2368SOL    HW118566   3.667   4.505   9.105  0.8785  1.8096 -0.9033
 2368SOL    HW218567   3.812   4.494   9.128 -3.5836  3.4191  2.3944
 2369SOL     OW18568   2.431   1.698   7.870  0.4072  0.6526  1.1280
 2369SOL    HW118569   2.471   1.644   7.937  1.1688 -1.7596 -1.3086
 2369SOL    HW218570   2.453   1.789   7.891 -2.8037  1.5753  0.6172
 2370SOL     OW18571   3.977   1.167   7.001  0.1696 -0.7120  1.1253
 2370SOL    HW118572   4.044   1.103   6.976  1.1002  1.6437 -2.5001
 2370SOL    HW218573   3.944   1.168   6.911  1.1411 -1.5912  0.7583
 2371SOL     OW18574   3.467   1.335   2.171 -0.2331  0.5392 -0.2825
 2371SOL    HW118575   3.379   1.355   2.204  0.1241 -0.5443  1.3489
 2371SOL    HW218576   3.489   1.421   2.137  0.1650  0.2591 -0.7194
 2372SOL     OW18577   2.137   1.169   9.561 -0.1422 -0.2548 -0.0595
 2372SOL    HW118578   2.154   1.138   9.650  3.1772  2.7382  0.3633
 2372SOL    HW218579   2.227   1.168   9.527  0.0689 -0.2083  0.5004
 2373SOL     OW18580   3.720   4.621   6.038 -0.5775 -0.5764 -0.1494
 2373SOL    HW118581   3.631   4.586   6.039 -0.6228 -0.4275  2.3291
 2373SOL    HW218582   3.726   4.684   6.111 -0.3754 -0.5295 -0.2059
 2374SOL     OW18583   0.787   3.825  10.442  0.5366 -0.3187 -0.3761
 2374SOL    HW118584   0.767   3.838  10.349 -1.1818 -1.3169 -0.1592
 2374SOL    HW218585   0.786   3.919  10.458  0.2421 -0.2257 -0.9349
 2375SOL     OW18586   3.368   1.015   4.142  0.4472  0.1441  0.3235
 2375SOL    HW118587   3.349   0.923   4.126 -0.8199  0.5069 -0.2430
 2375SOL    HW218588   3.366   1.056   4.056  1.1524 -1.5071 -0.4604
 2376SOL     OW18589   0.994   0.923  11.374  0.3212 -0.2358  0.0479
 2376SOL    HW118590   1.022   0.995  11.431 -1.5736  0.3352  0.2665
 2376SOL    HW218591   1.062   0.918  11.308  2.0763 -1.5295  1.9551
 2377SOL     OW18592   1.563   1.615   5.808  0.0864 -0.1697  0.7064
 2377SOL    HW118593   1.512   1.641   5.731  1.4916 -4.4075 -1.6766
 2377SOL    HW218594   1.541   1.522   5.808  1.0142 -0.3913  0.9514
 2378SOL     OW18595   0.673   0.473   4.371 -0.2156  0.2115  0.4358
 2378SOL    HW118596   0.629   0.399   4.413 -0.0091  2.0265  3.8270
 2378SOL    HW218597   0.763   0.481   4.403 -0.3216  2.7731  0.1162
 2379SOL     OW18598   1.573   3.506   5.696 -0.8237  0.1413 -0.2342
 2379SOL    HW118599   1.599   3.532   5.784 -2.4829 -0.2590  0.3636
 2379SOL    HW218600   1.517   3.432   5.719  0.4113 -0.6569  0.1891
 2380SOL     OW18601   1.961   3.145   2.628  0.4328  0.0847  0.4441
 2380SOL    HW118602   2.029   3.086   2.595  2.2072  0.6771  3.0575
 2380SOL    HW218603   1.981   3.141   2.721  1.5354 -0.1192  0.2028
 2381SOL     OW18604   3.202   2.733   8.788 -0.6916  0.1179 -0.2675
 2381SOL    HW118605   3.285   2.771   8.759 -1.0256  0.6073 -0.5706
 2381SOL    HW218606   3.234   2.697   8.871  0.2343  2.2526  0.2935
 2382SOL     OW18607   3.799   3.395  10.983  0.1301  0.0417  0.1411
 2382SOL    HW118608   3.724   3.378  11.040  2.5820 -0.9124  3.0738
 2382SOL    HW218609   3.830   3.308  10.954  0.6291 -0.4564  2.1951
 2383SOL     OW18610   3.859   1.486   5.728  0.5103 -0.1854 -0.2065
 2383SOL    HW118611   3.836   1.395   5.745 -1.3450  0.2589 -0.3864
 2383SOL    HW218612   3.866   1.517   5.818 -0.4972  2.0002 -0.8825
 2384SOL     OW18613   1.301   0.306   2.489  0.2956  0.3986  0.2303
 2384SOL    HW118614   1.335   0.390   2.521  1.5021  0.2345 -0.5889
 2384SOL    HW218615   1.213   0.306   2.526  1.1785  0.8990  2.3335
 2385SOL     OW18616   2.103   3.434   2.908 -0.2077 -0.3944 -0.0489
 2385SOL    HW118617   2.140   3.363   2.856  0.4787  0.4661 -0.7275
 2385SOL    HW218618   2.179   3.490   2.897 -0.4378 -0.2279 -0.7722
 2386SOL     OW18619   4.240   1.995   1.331  0.6276  0.3789 -0.3946
 2386SOL    HW118620   4.306   2.032   1.272  1.5230  0.9308  0.9677
 2386SOL    HW218621   4.161   2.048   1.317 -0.4315 -1.1759 -0.3826
 2387SOL     OW18622   3.236   0.690   5.577  0.3846  0.5064 -0.1850
 2387SOL    HW118623   3.200   0.602   5.585  0.4910  0.4256 -0.5679
 2387SOL    HW218624   3.233   0.716   5.669  1.9183  0.6804 -0.1795
 2388SOL     OW18625   2.426   4.508   5.365 -0.3203 -0.6841  0.1938
 2388SOL    HW118626   2.484   4.502   5.441  1.8250 -0.5798 -1.4436
 2388SOL    HW218627   2.349   4.549   5.403 -0.9948 -2.7876  1.1066
 2389SOL     OW18628   1.690   2.278   4.051 -0.1230  0.0530  0.4325
 2389SOL    HW118629   1.640   2.218   3.997 -1.8624  3.0686 -1.3426
 2389SOL    HW218630   1.626   2.291   4.121 -0.9258 -2.0139  0.0743
 2390SOL     OW18631   0.719   1.424   1.987  0.2186  0.2547 -0.0813
 2390SOL    HW118632   0.641   1.441   2.040  1.7358  0.4093  2.0877
 2390SOL    HW218633   0.674   1.384   1.913 -0.2854  1.5204 -0.4598
 2391SOL     OW18634   4.011   1.809   3.909  0.1328  0.0483 -0.4076
 2391SOL    HW118635   4.072   1.736   3.917 -1.0398 -1.1379 -2.2542
 2391SOL    HW218636   3.950   1.774   3.843  0.3358  0.6089 -0.8903
 2392SOL     OW18637   3.955   3.054   6.128  0.5501 -0.3960  0.4533
 2392SOL    HW118638   4.017   3.119   6.096  0.3658  0.1484  1.1847
 2392SOL    HW218639   4.011   2.977   6.132 -0.9104 -1.4097  1.1979
 2393SOL     OW18640   2.752   0.035   8.586  0.6077  0.0375  0.0697
 2393SOL    HW118641   2.767   4.710   8.665  0.0295 -2.0667 -1.1916
 2393SOL    HW218642   2.773   4.699   8.517  0.1703 -0.7740  0.6732
 2394SOL     OW18643   1.550   4.561   9.927  0.2641 -0.0498  0.4171
 2394SOL    HW118644   1.545   4.474   9.887  2.1067  0.4107 -0.8097
 2394SOL    HW218645   1.642   4.579   9.907  0.4520 -2.2398 -0.7362
 2395SOL     OW18646   0.632   2.531  14.221 -0.2768 -0.1529 -0.5312
 2395SOL    HW118647   0.710   2.542  14.275  0.9592 -0.3260 -2.3049
 2395SOL    HW218648   0.598   2.619  14.206 -0.0366  0.3315  1.7569
 2396SOL     OW18649   4.531   2.649  13.317  0.1930 -0.0840 -0.5233
 2396SOL    HW118650   4.458   2.629  13.376  1.0313  2.3380  1.3221
 2396SOL    HW218651   4.585   2.571  13.305  1.6365  0.3455  3.2117
 2397SOL     OW18652   3.896   1.337  13.817  0.1268 -0.1089  0.2072
 2397SOL    HW118653   3.823   1.356  13.758  0.7634 -0.1412 -0.5966
 2397SOL    HW218654   3.932   1.425  13.825 -0.3917 -0.0881  2.3435
 2398SOL     OW18655   2.922   4.248   4.782  0.6300 -0.2210 -0.4318
 2398SOL    HW118656   2.975   4.215   4.854 -0.5941 -2.2677 -0.4564
 2398SOL    HW218657   2.863   4.308   4.827 -1.4601 -1.0118 -2.0986
 2399SOL     OW18658   3.145   4.632  13.120  0.1736 -0.2138  0.0630
 2399SOL    HW118659   3.091   4.654  13.196 -0.3023  1.7724 -0.8577
 2399SOL    HW218660   3.230   4.646  13.163  0.3602 -0.0515 -0.3588
 2400SOL     OW18661   2.059   4.548   8.534  0.2391  0.0638 -0.4101
 2400SOL    HW118662   2.022   4.545   8.622  0.8869  0.5466 -0.1282
 2400SOL    HW218663   2.117   4.623   8.540  0.2984  0.0701 -1.0536
 2401SOL     OW18664   1.035   2.662   2.475 -0.0393 -0.3904 -0.8527
 2401SOL    HW118665   0.988   2.662   2.559  0.6541 -0.7221 -0.4725
 2401SOL    HW218666   1.064   2.753   2.466 -0.1529 -0.0335  2.5262
 2402SOL     OW18667   4.204   1.256   2.874 -0.3527 -0.0894  0.0927
 2402SOL    HW118668   4.128   1.265   2.931 -1.4780 -1.9411 -1.1497
 2402SOL    HW218669   4.174   1.227   2.788  0.0583  0.7725 -0.3358
 2403SOL     OW18670   1.711   3.903  14.209 -0.0331  0.1764 -0.1217
 2403SOL    HW118671   1.765   3.980  14.192 -1.2074  1.4827  2.0980
 2403SOL    HW218672   1.731   3.844  14.136 -0.3621 -1.9566  1.5031
 2404SOL     OW18673   3.862   1.585  10.946 -0.2469  0.0606 -0.1431
 2404SOL    HW118674   3.825   1.666  10.982  0.8318  0.9372 -1.0126
 2404SOL    HW218675   3.857   1.524  11.019 -1.5503  0.4517  0.0910
 2405SOL     OW18676   1.496   2.766  14.909 -0.0638 -0.4556 -0.7562
 2405SOL    HW118677   1.503   2.705  14.836 -1.7839  0.3250 -1.5924
 2405SOL    HW218678   1.542   2.840  14.871 -1.3423  2.1855  2.7617
 2406SOL     OW18679   4.634   0.254   2.737  0.0379 -0.1113  0.5527
 2406SOL    HW118680   4.718   0.277   2.697 -0.9943  1.8906 -0.4413
 2406SOL    HW218681   4.655   0.173   2.784  3.0906  0.8966  0.9729
 2407SOL     OW18682   0.197   2.933  17.437  0.0304 -0.1670  0.1442
 2407SOL    HW118683   0.147   2.998  17.388  1.9708  1.1607 -0.0792
 2407SOL    HW218684   0.284   2.952  17.401  0.5672 -0.0873  1.5024
 2408SOL     OW18685   3.912   2.950  15.321  0.4857  0.0794 -0.6784
 2408SOL    HW118686   3.886   2.860  15.297 -1.4822  0.7340 -0.9993
 2408SOL    HW218687   4.000   2.953  15.283  0.1669 -1.4740 -1.5480
 2409SOL     OW18688   2.926   2.565   9.525 -0.3193  0.0365 -0.5059
 2409SOL    HW118689   3.011   2.575   9.483 -0.3433 -0.5454 -0.7024
 2409SOL    HW218690   2.939   2.593   9.615 -3.0448  0.3162 -0.1917
 2410SOL     OW18691   4.335   3.954   1.338  0.4577 -1.0227  0.1663
 2410SOL    HW118692   4.240   3.960   1.334  0.3870 -0.9481  1.7549
 2410SOL    HW218693   4.362   4.004   1.261  0.2907 -2.2559 -0.6927
 2411SOL     OW18694   2.315   0.338   2.204 -0.0503 -0.2505 -0.7144
 2411SOL    HW118695   2.379   0.287   2.152 -0.5033 -2.1147  0.5609
 2411SOL    HW218696   2.373   0.357   2.278  0.2109  0.2684 -1.0457
 2412SOL     OW18697   0.107   1.426   7.959 -0.7826  0.7643  0.3056
 2412SOL    HW118698   0.077   1.335   7.951  1.0317  0.3106 -1.3141
 2412SOL    HW218699   0.026   1.473   7.977  0.2965  1.8193  2.4129
 2413SOL     OW18700   2.252   0.139  16.614  0.1422  0.6586  0.1200
 2413SOL    HW118701   2.192   0.191  16.560 -0.5101 -1.2024 -0.9475
 2413SOL    HW218702   2.195   0.102  16.682  0.8234 -0.2076  0.2172
 2414SOL     OW18703   3.222   1.873  10.186  0.5763 -0.1307 -0.4027
 2414SOL    HW118704   3.183   1.801  10.236  0.7137 -0.7700 -1.2075
 2414SOL    HW218705   3.198   1.841  10.099  0.8539  0.1590 -0.5846
 2415SOL     OW18706   1.563   0.538   5.961  0.0170  0.1493 -0.2967
 2415SOL    HW118707   1.635   0.531   6.025 -0.7832 -0.5005  0.5247
 2415SOL    HW218708   1.538   0.449   5.937 -0.1162  0.2481 -0.5213
 2416SOL     OW18709   1.288   3.977   7.981 -0.5588  0.3126  0.8630
 2416SOL    HW118710   1.336   3.917   7.923 -0.6270  0.6669  0.4428
 2416SOL    HW218711   1.315   3.955   8.070 -0.8263  1.9846  1.3571
 2417SOL     OW18712   3.945   0.607   9.030  0.2004  0.1765 -0.1806
 2417SOL    HW118713   4.023   0.655   9.002 -1.1565  1.4198 -1.8808
 2417SOL    HW218714   3.967   0.580   9.119 -1.9735  1.7087  0.8190
 2418SOL     OW18715   0.624   4.470   7.808  0.8151  0.2975  0.2812
 2418SOL    HW118716   0.697   4.431   7.856 -0.3306  0.0541  1.8258
 2418SOL    HW218717   0.639   4.563   7.829  4.2424  0.1897 -1.6199
 2419SOL     OW18718   4.491   3.095   2.608 -0.0661 -0.4695 -0.2929
 2419SOL    HW118719   4.569   3.149   2.617 -1.2572  1.3764 -1.1213
 2419SOL    HW218720   4.482   3.050   2.692 -0.7680  1.7804  0.8521
 2420SOL     OW18721   4.453   4.002  15.203  0.0548  1.1138  0.3865
 2420SOL    HW118722   4.471   4.024  15.294 -1.1209  1.0488  0.6277
 2420SOL    HW218723   4.539   3.974  15.170 -2.8801 -2.8523 -3.8571
 2421SOL     OW18724   1.751   2.622   2.158  0.5814 -0.1631 -0.2370
 2421SOL    HW118725   1.659   2.638   2.178  0.8560  1.3533 -0.1394
 2421SOL    HW218726   1.762   2.565   2.234 -0.8773 -0.9799 -0.6398
 2422SOL     OW18727   3.616   0.961   4.238 -0.0745  0.4943 -0.1215
 2422SOL    HW118728   3.636   0.911   4.159  1.1701  0.1395  0.4288
 2422SOL    HW218729   3.533   0.999   4.207 -1.1210 -0.7380  1.1673
 2423SOL     OW18730   1.687   0.304   5.165 -0.4759 -0.2424  0.3737
 2423SOL    HW118731   1.668   0.393   5.195  1.4013  1.0323 -2.2890
 2423SOL    HW218732   1.596   0.276   5.167 -0.0354 -1.6900 -0.1776
 2424SOL     OW18733   4.432   3.038   9.125 -0.3507 -0.2699  0.3523
 2424SOL    HW118734   4.476   3.013   9.044 -4.5653 -1.1757 -1.6693
 2424SOL    HW218735   4.456   3.130   9.121 -1.7510 -0.0278 -2.7648
 2425SOL     OW18736   0.432   0.472   5.796 -0.0045  0.2624 -0.1916
 2425SOL    HW118737   0.443   0.559   5.835  1.5505 -0.1571  0.3201
 2425SOL    HW218738   0.354   0.486   5.743 -0.0686 -3.4537 -1.1024
 2426SOL     OW18739   3.257   2.166  11.455  0.2050 -0.1627 -0.0034
 2426SOL    HW118740   3.194   2.237  11.467  0.1267 -0.6511  2.3089
 2426SOL    HW218741   3.205   2.093  11.421 -1.3576  1.9430 -2.1233
 2427SOL     OW18742   3.912   2.571   8.218 -0.1494  0.4722 -0.2051
 2427SOL    HW118743   3.910   2.656   8.173 -0.0244  0.7940  0.3916
 2427SOL    HW218744   3.933   2.607   8.304  0.9474  1.2681 -0.8156
 2428SOL     OW18745   2.941   3.706   6.889 -0.4275  0.2643 -0.0341
 2428SOL    HW118746   2.977   3.777   6.941 -0.0700 -1.0845  1.5749
 2428SOL    HW218747   2.848   3.715   6.907 -0.9165 -2.9152 -0.9556
 2429SOL     OW18748   0.243   2.912   8.982  0.5043  0.2484 -0.2976
 2429SOL    HW118749   0.284   2.992   9.012 -3.2638  0.5383  4.0981
 2429SOL    HW218750   0.316   2.866   8.940 -1.1588 -2.0686 -0.7244
 2430SOL     OW18751   1.305   1.743   6.464  0.7136 -0.5181  0.1373
 2430SOL    HW118752   1.397   1.736   6.440  1.0840  2.4517  0.6680
 2430SOL    HW218753   1.259   1.745   6.380 -0.1799  1.8373  0.6681
 2431SOL     OW18754   0.814   4.358   4.114  0.2070  0.1214 -0.1299
 2431SOL    HW118755   0.742   4.299   4.135  1.7201 -1.6140  0.2004
 2431SOL    HW218756   0.854   4.322   4.035  1.0199 -0.8156  0.7046
 2432SOL     OW18757   2.392   3.820   5.453 -0.0530  0.3518 -0.2901
 2432SOL    HW118758   2.311   3.777   5.481  0.2220  0.1622  0.2136
 2432SOL    HW218759   2.373   3.913   5.451 -0.8538  0.2246  1.5014
 2433SOL     OW18760   4.201   3.493   2.252 -0.2439 -0.0549 -0.3769
 2433SOL    HW118761   4.273   3.524   2.198 -0.4347  0.4897 -0.3147
 2433SOL    HW218762   4.233   3.519   2.339 -1.4952 -2.9460  0.9463
 2434SOL     OW18763   2.272   1.031   1.961 -0.3752 -0.2318 -0.7193
 2434SOL    HW118764   2.324   1.110   1.945  1.0875 -0.9877  0.2580
 2434SOL    HW218765   2.334   0.965   1.928 -0.3023 -2.0114  2.9484
 2435SOL     OW18766   1.925   2.776   6.415 -0.0138  0.2466 -0.0516
 2435SOL    HW118767   1.912   2.687   6.449  0.2131  0.9765  1.9251
 2435SOL    HW218768   2.014   2.775   6.379 -0.2855  0.0716 -0.7176
 2436SOL     OW18769   0.729   1.892  11.517  0.3019 -0.7236 -0.6267
 2436SOL    HW118770   0.814   1.923  11.485  1.6661 -2.1475  1.6133
 2436SOL    HW218771   0.751   1.877  11.609 -0.2359 -1.0033 -0.5471
 2437SOL     OW18772   0.302   0.254   1.361 -0.5679  0.0442 -0.1278
 2437SOL    HW118773   0.225   0.290   1.405 -0.9868 -0.8648 -0.1128
 2437SOL    HW218774   0.368   0.254   1.431 -1.4236  0.5308  0.6800
 2438SOL     OW18775   1.866   3.936   6.858 -0.1030  0.2373  0.7519
 2438SOL    HW118776   1.908   3.911   6.776 -0.6699  0.9892  0.2310
 2438SOL    HW218777   1.791   3.985   6.824 -0.3015 -2.5944 -2.8999
 2439SOL     OW18778   2.356   4.420   9.111  0.3041 -0.3753 -0.0262
 2439SOL    HW118779   2.397   4.337   9.132  0.1756 -0.3868  0.1814
 2439SOL    HW218780   2.280   4.383   9.066 -0.6466 -1.1857  2.2553
 2440SOL     OW18781   2.061   1.975   9.069  0.6337  0.1757 -0.6014
 2440SOL    HW118782   2.083   2.066   9.089  0.6607 -0.6128  2.9762
 2440SOL    HW218783   2.088   1.930   9.149 -0.6051 -0.0113 -0.2953
 2441SOL     OW18784   3.027   1.106   4.177 -0.7348 -0.1616 -0.0161
 2441SOL    HW118785   3.081   1.181   4.153  1.0342 -1.5499 -0.3595
 2441SOL    HW218786   3.091   1.042   4.145 -0.9505 -0.3451 -0.0828
 2442SOL     OW18787   0.638   3.455   5.574  0.3478  0.0769 -0.5496
 2442SOL    HW118788   0.607   3.546   5.581  0.0772  0.0911 -1.9524
 2442SOL    HW218789   0.731   3.477   5.576  0.3746  0.0559 -1.8263
 2443SOL     OW18790   1.257   2.147   4.339 -0.2275  0.5459  0.2306
 2443SOL    HW118791   1.242   2.067   4.289  1.9009  0.7932 -0.8495
 2443SOL    HW218792   1.182   2.204   4.327 -0.7237  0.1364  1.4593
 2444SOL     OW18793   1.901   2.350  10.450  0.5540  0.0195  0.3242
 2444SOL    HW118794   1.942   2.308  10.374  1.7425 -2.7064  2.4621
 2444SOL    HW218795   1.920   2.287  10.519 -0.4846 -1.7972 -1.0524
 2445SOL     OW18796   3.040   2.643  11.374 -0.0561 -0.3836 -0.2446
 2445SOL    HW118797   3.006   2.622  11.287  3.4792  1.8488 -2.1900
 2445SOL    HW218798   3.078   2.729  11.352 -0.5239  0.0470  0.6334
 2446SOL     OW18799   3.355   1.960   8.883 -0.1589 -0.1998  0.1894
 2446SOL    HW118800   3.425   1.896   8.872  1.1328  1.1822  0.2894
 2446SOL    HW218801   3.389   2.035   8.931 -1.3646 -0.1903  1.0418
 2447SOL     OW18802   0.552   2.252   2.063  0.3518  0.0034  0.8682
 2447SOL    HW118803   0.505   2.334   2.054 -1.2998 -1.2775 -2.1183
 2447SOL    HW218804   0.586   2.246   1.974 -0.7508 -0.6255  0.4961
 2448SOL     OW18805   4.198   2.015   8.285  0.0477 -0.3533 -0.3913
 2448SOL    HW118806   4.285   2.010   8.324 -0.0572  0.8117  0.0044
 2448SOL    HW218807   4.181   2.106   8.307 -0.2485 -0.7020  0.8003
 2449SOL     OW18808   0.130   0.427  13.862 -0.3894 -0.1436  0.4771
 2449SOL    HW118809   0.216   0.397  13.834 -1.0821 -0.7681 -0.9926
 2449SOL    HW218810   0.142   0.467  13.949 -0.6655  0.2571  0.3336
 2450SOL     OW18811   2.532   0.698  17.483  0.0774 -0.2901  0.0244
 2450SOL    HW118812   2.486   0.758  17.425  0.3897 -0.2715 -0.2085
 2450SOL    HW218813   2.487   0.712  17.566  0.9728  0.1244  0.4401
 2451SOL     OW18814   1.414   1.099   5.964 -0.2215  0.3686  0.0880
 2451SOL    HW118815   1.332   1.135   5.928 -1.0040 -0.8972  0.5828
 2451SOL    HW218816   1.481   1.141   5.911 -0.4487  0.2850 -0.2638
 2452SOL     OW18817   0.351   2.660   6.341  0.2275 -0.3559  0.4345
 2452SOL    HW118818   0.444   2.657   6.318  0.5604  2.5993  1.4344
 2452SOL    HW218819   0.319   2.649   6.252  0.5630 -0.2034  0.2939
 2453SOL     OW18820   1.405   2.176   6.491  0.1026 -0.6668 -0.3025
 2453SOL    HW118821   1.425   2.246   6.554 -2.7054 -0.2675  0.1211
 2453SOL    HW218822   1.334   2.128   6.532  1.3460 -1.1980  1.2260
 2454SOL     OW18823   1.314   3.488  16.021  0.2176 -0.0930 -0.5640
 2454SOL    HW118824   1.270   3.574  16.024 -1.1932 -0.8005 -0.8677
 2454SOL    HW218825   1.246   3.427  16.050  0.2645 -0.3365 -0.9715
 2455SOL     OW18826   1.470   0.261  15.521 -0.0394  0.3327  0.2513
 2455SOL    HW118827   1.562   0.286  15.529  0.2592 -1.0186  1.0049
 2455SOL    HW218828   1.456   0.185  15.577 -1.3850  0.6531  0.3456
 2456SOL     OW18829   3.251   1.629  10.041 -0.5727  0.1667  0.3205
 2456SOL    HW118830   3.340   1.639  10.075  0.3854 -0.8660 -1.8436
 2456SOL    HW218831   3.264   1.688   9.966 -0.0671 -0.9105 -0.4421
 2457SOL     OW18832   3.320   3.702   5.572  0.0359 -0.2897 -0.6427
 2457SOL    HW118833   3.309   3.749   5.489  2.5012 -0.8340 -1.3050
 2457SOL    HW218834   3.414   3.686   5.580 -0.0591 -0.5669 -0.1144
 2458SOL     OW18835   3.657   2.272  17.368  0.0853  0.2354  0.6154
 2458SOL    HW118836   3.678   2.333  17.439  0.0632 -0.1450  0.9472
 2458SOL    HW218837   3.708   2.316  17.300  0.4416  0.3236  0.9385
 2459SOL     OW18838   3.481   1.028   1.629 -0.0924 -0.2254 -0.7275
 2459SOL    HW118839   3.411   1.074   1.675  1.4559  1.9309 -0.4642
 2459SOL    HW218840   3.543   1.092   1.593 -1.1348 -0.0920 -2.2659
 2460SOL     OW18841   1.609   0.655  15.680 -0.3734  0.0861  0.4362
 2460SOL    HW118842   1.630   0.698  15.763 -1.8201  2.0819 -0.2434
 2460SOL    HW218843   1.541   0.592  15.705  0.4782 -0.6256  0.9582
 2461SOL     OW18844   4.567   2.683   4.810 -0.4099  0.8782 -0.1271
 2461SOL    HW118845   4.629   2.612   4.825 -0.8198  1.5774  4.8462
 2461SOL    HW218846   4.499   2.634   4.765  2.1124 -1.2619 -1.6183
 2462SOL     OW18847   1.504   1.763  14.440 -0.0089  0.8775  0.1180
 2462SOL    HW118848   1.558   1.842  14.442  0.5109  0.5357 -0.3448
 2462SOL    HW218849   1.584   1.713  14.455 -0.1833  1.3432  2.6117
 2463SOL     OW18850   1.979   1.518   3.665 -0.0638  0.4417 -0.2364
 2463SOL    HW118851   1.901   1.572   3.681  0.9161  1.3917  1.3564
 2463SOL    HW218852   1.986   1.532   3.570  1.0664 -0.4756 -0.2912
 2464SOL     OW18853   2.296   3.411   6.305 -0.6247 -0.4423 -0.0061
 2464SOL    HW118854   2.298   3.331   6.252 -1.8527 -0.9980  0.7827
 2464SOL    HW218855   2.206   3.439   6.287  0.3021  2.1421 -0.6697
 2465SOL     OW18856   2.678   1.789   0.651  0.3213  0.0888 -0.1737
 2465SOL    HW118857   2.663   1.694   0.653  0.3870  0.0820  0.0115
 2465SOL    HW218858   2.675   1.808   0.745 -2.2369 -0.8704 -0.0604
 2466SOL     OW18859   1.273   3.909  14.016  0.4441  0.6095 -0.1155
 2466SOL    HW118860   1.324   3.832  13.992 -2.1947 -0.2015 -3.0694
 2466SOL    HW218861   1.323   3.937  14.093  0.1843  1.5323 -0.2803
 2467SOL     OW18862   2.374   1.204   7.430 -0.0626 -0.8114 -0.0526
 2467SOL    HW118863   2.363   1.235   7.340  1.1917  1.6579  0.6582
 2467SOL    HW218864   2.434   1.131   7.412 -0.7801 -0.9103 -2.1024
 2468SOL     OW18865   0.817   2.034   3.974 -0.0978 -0.1648  0.0512
 2468SOL    HW118866   0.841   1.945   3.948 -2.6300  0.0958 -3.1598
 2468SOL    HW218867   0.744   2.024   4.036 -0.5309 -3.8361 -1.0438
 2469SOL     OW18868   3.784   1.012   3.678 -0.4880 -0.1892 -0.5878
 2469SOL    HW118869   3.809   0.988   3.767  0.2958 -4.7986 -2.0182
 2469SOL    HW218870   3.869   1.048   3.652 -0.5245 -0.2052 -0.7330
 2470SOL     OW18871   2.855   3.139   5.126  0.0985 -0.7484  0.8689
 2470SOL    HW118872   2.851   3.223   5.080  1.1475 -0.5081  1.2228
 2470SOL    HW218873   2.882   3.164   5.215  0.4155 -0.4526  0.6897
 2471SOL     OW18874   3.865   0.666   1.685 -0.5816  0.5073 -0.1912
 2471SOL    HW118875   3.775   0.691   1.664 -0.7908 -1.6965 -1.8238
 2471SOL    HW218876   3.877   0.596   1.622  0.3599  0.8570 -0.3985
 2472SOL     OW18877   1.490   4.134   7.273  0.4050  0.1782  0.9528
 2472SOL    HW118878   1.579   4.128   7.308  0.5228  0.3950  0.7000
 2472SOL    HW218879   1.443   4.177   7.344 -0.6500  2.7470 -1.3002
 2473SOL     OW18880   2.378   0.816  17.703 -0.5956 -0.2724 -0.2386
 2473SOL    HW118881   2.363   0.908   0.020  1.5918 -0.0890  0.4407
 2473SOL    HW218882   2.336   0.779   0.074 -0.3251 -0.0324  0.0286
 2474SOL     OW18883   0.816   4.612   4.894  0.2227  0.0581  0.1465
 2474SOL    HW118884   0.739   4.586   4.844  0.0919  0.1763  0.2852
 2474SOL    HW218885   0.832   4.542   4.957 -0.8318 -0.4708 -0.1599
 2475SOL     OW18886   0.073   2.446  15.528 -0.3475 -0.2047 -0.1794
 2475SOL    HW118887   0.049   2.387  15.457 -0.2858  0.0329 -0.3990
 2475SOL    HW218888   0.015   2.523  15.531 -1.1331 -0.8723  1.8607
 2476SOL     OW18889   4.345   2.578  14.461  0.1265 -0.2388 -0.2176
 2476SOL    HW118890   4.348   2.673  14.475  2.3984 -0.0118 -2.0663
 2476SOL    HW218891   4.298   2.567  14.379 -1.0835 -2.3206  0.7662
 2477SOL     OW18892   1.227   2.949   7.148  0.5685  0.6244 -0.1166
 2477SOL    HW118893   1.208   2.953   7.241 -0.5517 -1.6944 -0.2493
 2477SOL    HW218894   1.280   3.029   7.148  1.7940 -0.1828 -2.2148
 2478SOL     OW18895   1.993   3.104   2.917 -0.6985 -0.2872 -0.0256
 2478SOL    HW118896   1.904   3.122   2.946 -0.5072 -1.1374  1.0816
 2478SOL    HW218897   1.994   3.009   2.903 -2.9293 -0.4511  0.8638
 2479SOL     OW18898   2.228   3.366   0.138  0.3462  0.6646  0.0100
 2479SOL    HW118899   2.266   3.344   0.053 -2.1620  0.9377 -1.1777
 2479SOL    HW218900   2.137   3.389   0.119  0.1805  0.8511  0.9939
 2480SOL     OW18901   0.189   2.488   9.381 -0.4387  0.2375 -0.4790
 2480SOL    HW118902   0.138   2.548   9.434  1.6726  2.1503 -0.6064
 2480SOL    HW218903   0.182   2.541   9.301 -0.2209  1.4429  0.3017
 2481SOL     OW18904   0.295   0.819   6.786 -0.5612  0.4212  0.0341
 2481SOL    HW118905   0.348   0.740   6.781  0.3493  1.2294 -2.5814
 2481SOL    HW218906   0.305   0.840   6.694 -0.1386  0.4309  0.0824
 2482SOL     OW18907   3.102   4.239  10.962 -0.5582 -0.0884 -1.0347
 2482SOL    HW118908   3.041   4.260  11.033 -2.3721 -1.7399 -2.1019
 2482SOL    HW218909   3.184   4.285  10.980 -0.0228 -0.6869 -1.9160
 2483SOL     OW18910   0.634   1.699  10.437  0.3235 -0.0673  0.1823
 2483SOL    HW118911   0.712   1.721  10.489  0.8258 -1.3911 -0.0239
 2483SOL    HW218912   0.568   1.733  10.497  0.6757 -1.2527  1.2359
 2484SOL     OW18913   1.976   2.083   8.347  0.0453 -0.0488 -0.0286
 2484SOL    HW118914   1.885   2.096   8.321  0.1313  0.7471  0.0486
 2484SOL    HW218915   1.967   2.017   8.416 -3.3329  0.4274 -0.0308
 2485SOL     OW18916   3.809   0.753   1.067 -0.2286  0.5678  0.0313
 2485SOL    HW118917   3.837   0.833   1.112 -3.6165  2.8423 -1.9883
 2485SOL    HW218918   3.892   0.708   1.050 -0.8991  0.0725 -1.8759
 2486SOL     OW18919   2.904   4.656   3.493  0.1084  0.7072 -0.0465
 2486SOL    HW118920   2.869   4.567   3.484  0.6039  0.2606  2.5720
 2486SOL    HW218921   2.905   4.667   3.588  2.4716 -0.3473  0.0630
 2487SOL     OW18922   2.769   0.158   3.760  0.0418 -0.1407  0.5810
 2487SOL    HW118923   2.828   0.165   3.834  1.3250 -2.1830 -0.2793
 2487SOL    HW218924   2.795   0.071   3.732  0.2716 -0.2043  0.9957
 2488SOL     OW18925   3.268   4.347   7.151  0.0406  0.2204 -0.2600
 2488SOL    HW118926   3.265   4.368   7.245  0.7625  4.4475 -1.1503
 2488SOL    HW218927   3.211   4.420   7.127 -0.4137  0.3128  1.1129
 2489SOL     OW18928   2.816   2.887   5.841 -0.5695  0.0203  0.6189
 2489SOL    HW118929   2.830   2.847   5.755 -3.3713 -0.6710  0.4909
 2489SOL    HW218930   2.721   2.884   5.845 -0.5618  0.0791  0.8057
 2490SOL     OW18931   3.383   2.288   6.521  0.3918 -0.0118  0.3190
 2490SOL    HW118932   3.387   2.219   6.455  2.6819 -1.1053  1.6002
 2490SOL    HW218933   3.324   2.351   6.480  0.2373 -0.1375  0.3508
 2491SOL     OW18934   1.076   4.552  12.113  0.3009  0.0143  0.7086
 2491SOL    HW118935   1.034   4.466  12.117  0.1462 -0.0356 -1.7056
 2491SOL    HW218936   1.150   4.522  12.165  0.1513 -0.0200  0.9001
 2492SOL     OW18937   1.932   1.445   1.413 -0.0232 -0.5991  0.2029
 2492SOL    HW118938   1.915   1.524   1.362  1.2940 -1.1097 -1.0077
 2492SOL    HW218939   1.898   1.479   1.496 -0.4443 -1.8375  0.5359
 2493SOL     OW18940   3.069   3.274   2.071 -0.0526  0.0865  0.0045
 2493SOL    HW118941   2.987   3.226   2.084 -1.3423  2.1057 -0.7938
 2493SOL    HW218942   3.049   3.308   1.984 -1.7512  0.9310  0.7476
 2494SOL     OW18943   3.942   0.456   3.440 -0.5412 -0.2545 -0.1348
 2494SOL    HW118944   4.006   0.388   3.461  0.0434  0.2412 -0.3028
 2494SOL    HW218945   3.922   0.485   3.529 -2.3253 -0.8088 -0.3697
 2495SOL     OW18946   3.670   1.614  12.266 -0.1827 -0.0115 -0.0636
 2495SOL    HW118947   3.695   1.532  12.224  2.2527  1.6155 -1.7633
 2495SOL    HW218948   3.642   1.673  12.197 -1.9692  3.0866  3.3187
 2496SOL     OW18949   4.279   1.865  13.072  0.0721  0.1539 -0.0763
 2496SOL    HW118950   4.204   1.858  13.131 -1.0346 -1.2987 -1.6591
 2496SOL    HW218951   4.343   1.902  13.133 -1.1985  2.2384 -0.0069
 2497SOL     OW18952   0.350   3.107   5.742 -0.1322  0.2324  0.1955
 2497SOL    HW118953   0.376   3.016   5.727 -1.1464 -0.0103 -0.0551
 2497SOL    HW218954   0.282   3.113   5.675  1.0137  0.0807 -0.9924
 2498SOL     OW18955   1.443   0.104   5.563 -0.1813  0.3055 -0.1178
 2498SOL    HW118956   1.421   0.190   5.527  0.0115  0.8117  0.9815
 2498SOL    HW218957   1.412   0.110   5.653  2.3607  0.0986  0.7871
 2499SOL     OW18958   2.643   0.386   5.277  0.3156 -0.1657  0.1094
 2499SOL    HW118959   2.585   0.364   5.350 -0.9983 -0.1492 -0.9259
 2499SOL    HW218960   2.626   0.313   5.216  2.1385  1.3150 -2.1534
 2500SOL     OW18961   1.448   2.413   8.330 -0.3858 -0.9101  0.0601
 2500SOL    HW118962   1.541   2.427   8.318 -0.3186 -1.2453  0.1788
 2500SOL    HW218963   1.421   2.427   8.239  3.3426  0.6031 -0.7859
 2501SOL     OW18964   1.745   4.683   6.997  0.8627 -0.2242 -0.3500
 2501SOL    HW118965   1.763   0.007   6.917  2.9884  1.8712  1.4417
 2501SOL    HW218966   1.701   0.033   7.036  2.0088 -0.5821  1.6406
 2502SOL     OW18967   3.411   2.479   3.081  0.0014 -0.1662 -0.2437
 2502SOL    HW118968   3.481   2.544   3.079  0.0449 -0.2638 -1.4848
 2502SOL    HW218969   3.337   2.539   3.071 -0.3818 -0.3718  1.2851
 2503SOL     OW18970   3.224   3.531   2.752 -0.0741  0.2485  0.3834
 2503SOL    HW118971   3.167   3.546   2.827  2.5262 -0.0905  2.4516
 2503SOL    HW218972   3.152   3.521   2.690 -0.7582  0.9391  1.0785
 2504SOL     OW18973   2.386   3.599   1.958 -0.0621 -0.2949 -0.6272
 2504SOL    HW118974   2.294   3.612   1.931 -0.5838  0.6593  1.6533
 2504SOL    HW218975   2.381   3.602   2.053 -0.2794 -0.9632 -0.6138
 2505SOL     OW18976   3.380   2.549   7.024 -0.0575 -0.1804 -0.3985
 2505SOL    HW118977   3.474   2.532   7.034 -0.0668  0.9127  1.6074
 2505SOL    HW218978   3.367   2.508   6.939 -1.8087 -1.5494  0.5077
 2506SOL     OW18979   1.580   2.597   3.361  0.5150 -0.1277  0.6221
 2506SOL    HW118980   1.666   2.575   3.325 -0.4155 -1.4760 -0.8117
 2506SOL    HW218981   1.524   2.544   3.303  2.2670  0.2582 -1.4259
 2507SOL     OW18982   2.871   0.274   8.623  0.1633  0.6938 -0.1884
 2507SOL    HW118983   2.849   0.181   8.616  0.4114  0.8012 -2.5705
 2507SOL    HW218984   2.825   0.313   8.697  1.2085 -0.5774  1.1294
 2508SOL     OW18985   2.995   2.046   2.652 -0.2692 -0.3920 -0.1196
 2508SOL    HW118986   2.993   1.957   2.687  0.3935 -0.2873  0.1893
 2508SOL    HW218987   2.981   2.091   2.735  1.1234  1.5049 -0.9242
 2509SOL     OW18988   0.522   1.223  14.439  0.6494 -0.0358 -0.1221
 2509SOL    HW118989   0.468   1.300  14.453  1.3085  0.4218 -0.0961
 2509SOL    HW218990   0.559   1.217  14.527  3.6957  1.3126 -1.2998
 2510SOL     OW18991   2.526   0.302   5.930 -0.1600 -0.5298  0.3917
 2510SOL    HW118992   2.606   0.251   5.939  0.2314 -0.2574 -1.5289
 2510SOL    HW218993   2.545   0.350   5.849 -0.1755 -1.6018 -0.2443
 2511SOL     OW18994   2.161   0.867  14.475 -0.0160  0.5192 -0.2785
 2511SOL    HW118995   2.108   0.907  14.544  0.2568 -0.1998  0.3605
 2511SOL    HW218996   2.128   0.895  14.390 -0.8978 -3.2102 -1.1545
 2512SOL     OW18997   2.652   4.431  11.842 -0.1903 -0.0024  0.5680
 2512SOL    HW118998   2.736   4.475  11.835 -1.4850  1.5910 -4.8344
 2512SOL    HW218999   2.626   4.468  11.926 -0.1320  1.5424 -0.0973
 2513SOL     OW19000   1.941   2.438  15.223 -0.2024  0.1622  0.3179
 2513SOL    HW119001   1.963   2.472  15.136  2.7147 -0.0832  0.9912
 2513SOL    HW219002   1.935   2.520  15.272 -0.2153 -0.4503  1.3298
 2514SOL     OW19003   3.967   2.393   4.452 -0.1437 -0.5062 -0.4064
 2514SOL    HW119004   4.006   2.355   4.373 -0.3941 -0.1752 -0.6859
 2514SOL    HW219005   3.896   2.442   4.411 -0.0692 -0.7187 -0.7916
 2515SOL     OW19006   3.642   1.726   3.623  0.9971  0.4027  0.2351
 2515SOL    HW119007   3.632   1.789   3.552  0.8118  0.6147  0.4540
 2515SOL    HW219008   3.581   1.767   3.684  1.5169  1.6997 -0.1184
 2516SOL     OW19009   0.652   3.322   4.165 -0.3247 -1.1038  0.0441
 2516SOL    HW119010   0.740   3.305   4.200  1.0341  3.1725 -1.2033
 2516SOL    HW219011   0.605   3.352   4.242 -0.4969  0.5831 -0.7196
 2517SOL     OW19012   0.675   1.124   7.023 -0.5087 -0.0182 -0.3044
 2517SOL    HW119013   0.593   1.077   7.033 -0.5500 -0.2733 -1.8729
 2517SOL    HW219014   0.736   1.050   7.017  0.2445  0.6285 -0.7668
 2518SOL     OW19015   2.083   4.631   7.788 -0.2565 -0.2509  0.3263
 2518SOL    HW119016   2.066   4.664   7.700 -0.8496  1.2692  1.0213
 2518SOL    HW219017   2.021   4.558   7.791  0.4816 -0.7841  2.8054
 2519SOL     OW19018   1.914   0.575  17.036  0.5019  0.2814 -0.2418
 2519SOL    HW119019   1.819   0.567  17.025  0.8158 -0.5692 -2.2699
 2519SOL    HW219020   1.930   0.550  16.946 -3.1327 -2.7413 -0.0511
 2520SOL     OW19021   0.451   4.589  10.346  0.0923  0.2145 -0.0706
 2520SOL    HW119022   0.369   4.578  10.394  0.5080 -2.7466 -0.0515
 2520SOL    HW219023   0.468   4.683  10.355 -0.5256  0.6258 -3.2184
 2521SOL     OW19024   3.473   4.708   4.455  0.3969  0.4285 -0.0318
 2521SOL    HW119025   3.517   0.052   4.408  3.2465 -2.5275 -1.8165
 2521SOL    HW219026   3.406   4.681   4.393  1.0229 -0.9249 -0.1170
 2522SOL     OW19027   4.375   2.092   1.117 -0.2260 -0.0991 -0.7572
 2522SOL    HW119028   4.420   2.168   1.153  0.9666 -0.9663 -0.4081
 2522SOL    HW219029   4.439   2.057   1.055  0.8199  1.2221 -0.4280
 2523SOL     OW19030   0.031   4.244   1.713  0.3231  0.4819 -1.0057
 2523SOL    HW119031   4.724   4.301   1.782  1.4593  1.0273 -0.9148
 2523SOL    HW219032   0.085   4.303   1.661  2.0968  0.7681  1.1938
 2524SOL     OW19033   4.054   1.156  14.683 -0.5680 -0.2630  0.1930
 2524SOL    HW119034   3.995   1.151  14.758  0.0120  2.1261  0.7928
 2524SOL    HW219035   4.131   1.141  14.739  0.2884 -0.2995 -0.9912
 2525SOL     OW19036   3.987   0.061   0.864  0.5885  0.5076  0.7794
 2525SOL    HW119037   3.920   0.002   0.828 -0.0798  1.5829  0.2439
 2525SOL    HW219038   3.948   0.093   0.946 -1.1558  1.1864 -0.3206
 2526SOL     OW19039   1.578   2.239   2.764  0.4140  0.1592  0.2345
 2526SOL    HW119040   1.635   2.283   2.827  2.3574 -0.4294 -1.1284
 2526SOL    HW219041   1.500   2.295   2.757  0.1687 -0.3122 -0.6865
 2527SOL     OW19042   3.361   3.852  17.348 -0.3235  0.0235 -1.1479
 2527SOL    HW119043   3.388   3.891  17.265  1.8407  2.2993  0.6240
 2527SOL    HW219044   3.266   3.856  17.335 -0.3768  0.1515 -0.7072
 2528SOL     OW19045   4.166   3.247   8.593  0.2855  0.4234  0.0385
 2528SOL    HW119046   4.094   3.228   8.653  1.6449  0.6231  1.7335
 2528SOL    HW219047   4.182   3.160   8.557 -0.0824  0.0659  0.7497
 2529SOL     OW19048   3.866   4.194   9.533  0.0149  0.2306  0.2664
 2529SOL    HW119049   3.821   4.140   9.468  1.0409  0.0740 -0.2983
 2529SOL    HW219050   3.956   4.181   9.506 -0.6144 -0.0672 -1.6781
 2530SOL     OW19051   0.601   1.654  11.564  0.0804 -0.1726  0.0546
 2530SOL    HW119052   0.682   1.604  11.576 -0.0964 -0.7006 -0.9610
 2530SOL    HW219053   0.637   1.737  11.534 -0.8801 -0.4013 -1.7319
 2531SOL     OW19054   1.316   2.493  11.168 -0.0951 -0.0343 -0.4160
 2531SOL    HW119055   1.287   2.410  11.130  1.2643  0.2618 -2.1591
 2531SOL    HW219056   1.256   2.512  11.239 -1.3342  0.3294 -1.5562
 2532SOL     OW19057   3.228   2.650   2.978 -0.7194  0.3413  0.6625
 2532SOL    HW119058   3.283   2.707   2.924  3.4602 -1.6783  2.7947
 2532SOL    HW219059   3.155   2.647   2.916  0.2487  0.6025 -0.4969
 2533SOL     OW19060   4.215   3.383   2.786  0.0231  0.1487  0.3158
 2533SOL    HW119061   4.119   3.385   2.784  0.0105 -0.0951  0.6796
 2533SOL    HW219062   4.221   3.288   2.795  0.7768  0.2265  0.5728
 2534SOL     OW19063   3.163   2.867   4.639 -0.1672 -0.0979 -0.1505
 2534SOL    HW119064   3.222   2.857   4.714 -0.6000 -1.3757  0.0217
 2534SOL    HW219065   3.172   2.957   4.608  2.0213 -0.3065 -0.0993
 2535SOL     OW19066   2.540   0.336   1.489 -0.0971  0.0630 -0.2800
 2535SOL    HW119067   2.610   0.276   1.515 -0.6848 -0.2835  0.4876
 2535SOL    HW219068   2.539   0.317   1.395 -0.6160 -0.0288 -0.2535
 2536SOL     OW19069   3.287   3.272   8.167 -0.0619 -0.0173 -0.4062
 2536SOL    HW119070   3.228   3.331   8.121  0.0199  0.5652  0.2388
 2536SOL    HW219071   3.261   3.280   8.259  1.4160  1.5841 -0.1251
 2537SOL     OW19072   1.945   2.461   9.285  0.3210  0.2438  0.4721
 2537SOL    HW119073   2.000   2.487   9.359  2.7435  0.9755 -1.6081
 2537SOL    HW219074   1.872   2.420   9.332  0.0779  1.3950  1.1012
 2538SOL     OW19075   2.988   0.612   2.344 -0.3086 -0.1428 -0.2034
 2538SOL    HW119076   3.059   0.561   2.383 -2.3597 -0.9830  2.4463
 2538SOL    HW219077   3.018   0.701   2.362 -0.6769 -0.5387  2.3373
 2539SOL     OW19078   2.196   4.117   1.255 -0.1031  0.0044 -0.2495
 2539SOL    HW119079   2.186   4.053   1.185 -0.4426  0.5397 -0.6918
 2539SOL    HW219080   2.235   4.191   1.208 -0.2794  0.6872  0.6639
 2540SOL     OW19081   0.492   2.184   9.498 -0.6364 -0.3580 -0.8589
 2540SOL    HW119082   0.566   2.220   9.449 -0.4083  0.8748  0.3649
 2540SOL    HW219083   0.425   2.206   9.434 -0.2595  0.9386 -0.8124
 2541SOL     OW19084   4.420   3.064   4.337  0.0668 -0.0158 -0.5635
 2541SOL    HW119085   4.422   3.069   4.241 -0.0120 -2.3104 -0.6870
 2541SOL    HW219086   4.326   3.055   4.352  0.3921  1.3903  2.2020
 2542SOL     OW19087   4.261   3.670   3.340 -0.2826 -0.6178  0.5728
 2542SOL    HW119088   4.225   3.605   3.280  1.0126 -0.7363 -0.0596
 2542SOL    HW219089   4.193   3.738   3.346  0.5899  0.4675 -2.2160
 2543SOL     OW19090   2.454   2.948   6.588  0.3346  0.1665 -0.1710
 2543SOL    HW119091   2.402   3.022   6.619 -0.4176  0.4179 -2.0022
 2543SOL    HW219092   2.398   2.875   6.613  0.6028 -0.6669 -2.0304
 2544SOL     OW19093   2.906   0.407   3.709 -0.1993  0.1949 -0.1252
 2544SOL    HW119094   2.864   0.475   3.761  0.6877  1.2647 -0.8071
 2544SOL    HW219095   2.853   0.327   3.714 -1.2436  0.7601 -2.1577
 2545SOL     OW19096   3.346   1.216   0.574 -0.8313  0.3350  0.0794
 2545SOL    HW119097   3.286   1.226   0.649 -1.1382  0.7128 -0.2146
 2545SOL    HW219098   3.323   1.130   0.538  1.7399 -0.2140 -0.2340
 2546SOL     OW19099   2.609   4.650   5.223  0.0705  0.3851  0.2396
 2546SOL    HW119100   2.626   4.573   5.168  0.6561  1.0756 -0.5359
 2546SOL    HW219101   2.529   4.617   5.266  0.1753 -2.0955 -1.4473
 2547SOL     OW19102   0.445   2.359   0.290 -0.7261 -0.3609 -0.4397
 2547SOL    HW119103   0.416   2.450   0.298  1.5259  0.2396  0.9187
 2547SOL    HW219104   0.404   2.332   0.209 -1.5101  0.0266 -0.1781
 2548SOL     OW19105   3.054   0.409   9.931 -0.2541 -0.1432 -0.5577
 2548SOL    HW119106   3.083   0.475   9.867 -0.4761  0.4406 -0.0485
 2548SOL    HW219107   3.042   0.469  10.005 -3.4165 -2.5727  0.8590
 2549SOL     OW19108   1.614   2.233   5.038 -0.3053  0.0370 -0.4926
 2549SOL    HW119109   1.594   2.327   5.043 -0.7276 -0.1076  0.6387
 2549SOL    HW219110   1.667   2.230   4.958  0.4405  0.0556  0.0013
 2550SOL     OW19111   4.652   0.903   4.391  0.1954 -0.0459 -0.1936
 2550SOL    HW119112   4.610   0.988   4.406  0.6511 -0.1208  1.4513
 2550SOL    HW219113   4.605   0.877   4.311  0.4901 -1.2097  0.0079
 2551SOL     OW19114   4.083   1.772   8.188 -0.2703  0.4918  0.0065
 2551SOL    HW119115   4.075   1.832   8.113 -1.2217  2.6374  1.8380
 2551SOL    HW219116   4.129   1.836   8.242  0.5654  0.2126 -0.3818
 2552SOL     OW19117   3.063   0.113  11.347  0.0097 -0.5794 -0.1893
 2552SOL    HW119118   3.014   0.187  11.382 -0.8884  0.0314 -2.7464
 2552SOL    HW219119   2.996   0.047  11.365 -1.2273  0.9330  0.6955
 2553SOL     OW19120   1.004   2.787   0.113 -0.3767 -0.3121 -0.2648
 2553SOL    HW119121   1.041   2.739   0.187 -2.2313 -0.4574  0.5610
 2553SOL    HW219122   0.931   2.836   0.149  1.1011 -0.9459  3.5755
 2554SOL     OW19123   2.730   2.822   9.085  0.3927  0.2530  0.2117
 2554SOL    HW119124   2.821   2.831   9.057  0.1129 -0.7936 -1.0334
 2554SOL    HW219125   2.745   2.789   9.173  1.2288  0.2710  0.0832
 2555SOL     OW19126   0.047   4.470   8.943  0.2040 -0.1585  0.3790
 2555SOL    HW119127   0.008   4.397   8.990  0.7839  0.2541  1.4892
 2555SOL    HW219128   4.700   4.531   8.936  0.4868  0.2014  0.5446
 2556SOL     OW19129   2.221   2.802  15.219  0.1236  0.2678 -0.1587
 2556SOL    HW119130   2.248   2.721  15.175  2.5092  0.9127  0.1320
 2556SOL    HW219131   2.213   2.856  15.141  0.2134  0.5368  0.0170
 2557SOL     OW19132   1.154   0.037   2.609 -0.2850  0.6195  0.2981
 2557SOL    HW119133   1.189   4.700   2.547  0.7136  1.0474  0.4301
 2557SOL    HW219134   1.083   0.077   2.558 -1.1123 -0.9353  0.2210
 2558SOL     OW19135   4.345   2.168  14.906  0.1826  0.2512 -0.1699
 2558SOL    HW119136   4.406   2.188  14.976 -0.8622  0.9227  0.5388
 2558SOL    HW219137   4.350   2.072  14.908 -1.2432  0.2572  2.5280
 2559SOL     OW19138   2.251   0.783   7.933 -0.4182 -0.1158 -0.1394
 2559SOL    HW119139   2.271   0.869   7.970 -0.7703  0.7948 -2.0391
 2559SOL    HW219140   2.264   0.724   8.007  0.3481  1.9976  1.4007
 2560SOL     OW19141   3.270   4.185   3.892  0.7015  0.5159 -0.4848
 2560SOL    HW119142   3.343   4.153   3.945 -1.0500 -2.7985 -0.0427
 2560SOL    HW219143   3.196   4.131   3.919  0.8899  0.3648 -0.2715
 2561SOL     OW19144   1.476   3.309   1.704 -0.1800  0.7452 -0.2972
 2561SOL    HW119145   1.511   3.224   1.678  0.5827  1.2374 -0.8721
 2561SOL    HW219146   1.419   3.272   1.771  0.4789 -2.4414 -1.4910
 2562SOL     OW19147   0.961   3.832   3.103  0.0026  0.2026  0.1447
 2562SOL    HW119148   0.879   3.868   3.069  0.4052  0.2576 -0.7621
 2562SOL    HW219149   0.945   3.830   3.198  0.1421 -0.3404  0.1536
 2563SOL     OW19150   0.878   4.643   2.956  0.6444  0.5892 -0.1590
 2563SOL    HW119151   0.898   4.665   3.047  1.0386 -1.3129  0.2171
 2563SOL    HW219152   0.855   0.004   2.925  1.7124 -0.5523 -4.0969
 2564SOL     OW19153   0.178   1.052   0.087  0.1672  0.5587 -0.1869
 2564SOL    HW119154   0.131   0.969   0.071  0.2985  0.3388  0.5826
 2564SOL    HW219155   0.168   1.060   0.182 -0.8437 -0.0269 -0.2465
 2565SOL     OW19156   3.669   1.407  14.676  0.6967 -0.1159  0.5136
 2565SOL    HW119157   3.711   1.403  14.761 -2.6574 -0.8763  2.1153
 2565SOL    HW219158   3.713   1.342  14.620 -1.7330 -2.5710  1.4779
 2566SOL     OW19159   2.750   2.732   8.738  0.9312 -0.0287  0.1228
 2566SOL    HW119160   2.678   2.675   8.767  0.7334  0.1560 -0.0039
 2566SOL    HW219161   2.810   2.713   8.810 -0.7393 -0.3539  1.4296
 2567SOL     OW19162   4.157   0.349   0.559  0.3958  0.3178 -0.1492
 2567SOL    HW119163   4.070   0.328   0.524  0.1865  4.1511 -1.9361
 2567SOL    HW219164   4.165   0.437   0.523  0.8615  0.1085 -0.5415
 2568SOL     OW19165   2.789   1.701  17.487 -0.0909 -0.2857 -0.0299
 2568SOL    HW119166   2.735   1.773  17.455 -0.3952  0.0965  1.3389
 2568SOL    HW219167   2.853   1.700  17.417 -0.0433  1.0314 -0.0084
 2569SOL     OW19168   3.834   3.752   2.318  0.2302 -0.4009  0.0100
 2569SOL    HW119169   3.769   3.788   2.379 -0.1639  1.1010 -1.3140
 2569SOL    HW219170   3.907   3.736   2.379 -1.1755 -0.7142  1.6206
 2570SOL     OW19171   1.777   3.388   3.883  0.1672  0.2092  0.1158
 2570SOL    HW119172   1.774   3.472   3.837 -1.2114  0.7054  1.1410
 2570SOL    HW219173   1.709   3.339   3.837 -0.3456 -0.1829  1.3134
 2571SOL     OW19174   4.591   2.380  10.037  0.1852 -0.8553  0.0136
 2571SOL    HW119175   4.601   2.287  10.055 -2.1723 -1.2153 -0.5097
 2571SOL    HW219176   4.669   2.418  10.078  0.2219  1.0851 -1.8442
 2572SOL     OW19177   4.037   4.107   6.433 -0.4625  0.2170  0.3928
 2572SOL    HW119178   4.043   4.013   6.416  0.3248 -0.1074  2.5361
 2572SOL    HW219179   4.017   4.124   6.341  1.8264  0.7124 -0.0229
 2573SOL     OW19180   3.816   1.804  10.252  0.5464  0.4200 -0.7016
 2573SOL    HW119181   3.910   1.810  10.267  0.5428 -2.2714  0.3518
 2573SOL    HW219182   3.797   1.888  10.295 -1.1059 -1.6287  2.6063
 2574SOL     OW19183   1.621   4.701   5.403  0.6909  0.0613 -0.2868
 2574SOL    HW119184   1.572   0.010   5.477  0.1421  0.1077 -0.6747
 2574SOL    HW219185   1.588   0.039   5.341 -1.4047  0.9685  1.7574
 2575SOL     OW19186   1.484   0.196  10.098  0.0730  0.1494  0.0823
 2575SOL    HW119187   1.570   0.172  10.131  0.2212  0.0138 -0.4009
 2575SOL    HW219188   1.474   0.282  10.138 -1.6831 -0.1048  0.1941
 2576SOL     OW19189   4.332   1.181  10.809  0.2451  0.0643 -0.2028
 2576SOL    HW119190   4.387   1.220  10.876 -1.5909  2.3704 -0.0182
 2576SOL    HW219191   4.376   1.200  10.726  0.3159 -0.0849 -0.1980
 2577SOL     OW19192   0.636   0.092   4.512 -0.0289 -0.0903 -0.3855
 2577SOL    HW119193   0.619   0.166   4.571 -1.7952  0.0585 -1.0826
 2577SOL    HW219194   0.730   0.091   4.496  0.0644 -1.0756  0.2124
 2578SOL     OW19195   1.887   1.762   0.306  0.0614 -0.5268  0.2572
 2578SOL    HW119196   1.915   1.830   0.244 -0.4417 -0.7711 -0.2384
 2578SOL    HW219197   1.797   1.781   0.330 -0.0097  0.9233 -1.1259
 2579SOL     OW19198   1.066   3.993   6.490 -0.0357  0.2249 -0.1479
 2579SOL    HW119199   1.013   4.064   6.526 -0.2432  0.2723 -0.5496
 2579SOL    HW219200   1.127   3.983   6.563 -0.7277 -2.0075  0.1224
 2580SOL     OW19201   0.183   3.646   8.115 -0.1083  0.1186 -0.2637
 2580SOL    HW119202   0.115   3.593   8.156 -1.6035  2.4692  0.2922
 2580SOL    HW219203   0.186   3.611   8.026  2.9406 -1.6137  0.5132
 2581SOL     OW19204   2.104   1.579   3.006 -0.0467  0.2488  0.1119
 2581SOL    HW119205   2.055   1.520   3.063  0.3285 -1.5627 -1.4626
 2581SOL    HW219206   2.193   1.558   3.037 -0.0420  2.1082  1.3802
 2582SOL     OW19207   4.527   0.820  16.743  0.4530 -0.6870  0.5506
 2582SOL    HW119208   4.438   0.855  16.750  0.6564 -0.3063  1.2127
 2582SOL    HW219209   4.555   0.868  16.665  0.7085  2.6963  2.7354
 2583SOL     OW19210   2.650   2.670   6.758  0.1034  0.7144  0.0214
 2583SOL    HW119211   2.734   2.709   6.734  0.6113 -0.4045  0.0034
 2583SOL    HW219212   2.616   2.736   6.819 -0.5338 -1.1074  1.6524
 2584SOL     OW19213   2.587   1.055   1.852  0.2312  0.7939  0.0358
 2584SOL    HW119214   2.662   1.024   1.902 -0.2985  1.7690  1.4571
 2584SOL    HW219215   2.554   1.125   1.908  2.8539  0.9608  1.3760
 2585SOL     OW19216   2.819   1.364  14.627  0.0992  0.5137  0.8749
 2585SOL    HW119217   2.800   1.280  14.670  1.0719 -0.0077  0.2944
 2585SOL    HW219218   2.890   1.340  14.567 -1.6132  2.0342 -1.7781
 2586SOL     OW19219   4.310   0.747   8.503 -0.8238 -0.1396  0.0003
 2586SOL    HW119220   4.389   0.800   8.504 -0.6649 -0.4053  2.4360
 2586SOL    HW219221   4.249   0.821   8.506  0.0587  0.5753  0.1697
 2587SOL     OW19222   4.095   4.534   6.511 -0.0656 -0.1752  0.7307
 2587SOL    HW119223   4.108   4.627   6.492  1.6672  0.0216  2.9363
 2587SOL    HW219224   4.047   4.508   6.432 -0.6764  0.9171  0.7378
 2588SOL     OW19225   3.360   0.696  16.899  0.0971  0.2999 -0.1213
 2588SOL    HW119226   3.455   0.700  16.893 -0.0119  0.6068 -1.8147
 2588SOL    HW219227   3.341   0.685  16.992  1.0079  0.7248  0.1085
 2589SOL     OW19228   3.616   1.915   0.287  0.0862  0.3183 -0.1579
 2589SOL    HW119229   3.548   1.919   0.354 -0.5240 -1.6100 -0.6586
 2589SOL    HW219230   3.688   1.873   0.333  0.2970  1.5268  0.6281
 2590SOL     OW19231   4.604   3.132   3.850  0.9776 -0.0004 -0.6637
 2590SOL    HW119232   4.558   3.117   3.767  0.1987  0.8436 -0.3937
 2590SOL    HW219233   4.690   3.158   3.817  1.0518 -0.8113 -1.0999
 2591SOL     OW19234   1.315   2.501   5.056  0.5437 -0.3709 -0.2900
 2591SOL    HW119235   1.260   2.429   5.023  1.1827 -1.3084  0.6968
 2591SOL    HW219236   1.278   2.511   5.144 -0.2389 -0.3111 -0.6235
 2592SOL     OW19237   1.817   1.632   7.437 -0.3083  0.7453  0.8267
 2592SOL    HW119238   1.745   1.574   7.409 -0.2682  0.5281  1.1624
 2592SOL    HW219239   1.873   1.568   7.481  0.7856 -0.2205 -1.9461
 2593SOL     OW19240   0.274   3.840   2.608 -0.1363  0.4455 -0.7827
 2593SOL    HW119241   0.204   3.848   2.543 -1.8768  0.1169  1.0599
 2593SOL    HW219242   0.324   3.764   2.579  0.3722 -1.0822  4.1503
 2594SOL     OW19243   3.183   0.266  10.133  0.0591 -0.2469 -0.1865
 2594SOL    HW119244   3.247   0.263  10.063  1.7576 -2.1186  1.4640
 2594SOL    HW219245   3.111   0.292  10.076 -1.1792  1.7274  2.2817
 2595SOL     OW19246   4.020   2.040   8.628 -0.4041  0.3192 -0.0142
 2595SOL    HW119247   4.003   2.031   8.722 -1.5509  0.6797 -0.1763
 2595SOL    HW219248   4.110   2.008   8.630 -0.9154 -1.0784  0.7354
 2596SOL     OW19249   4.080   3.845   6.853  0.3682  0.2405 -0.0356
 2596SOL    HW119250   3.993   3.846   6.812 -0.4551 -2.9510  1.6046
 2596SOL    HW219251   4.142   3.889   6.796 -1.3941 -0.7347 -2.7108
 2597SOL     OW19252   3.670   0.062   5.443  0.1754  0.1172  0.2654
 2597SOL    HW119253   3.678   4.726   5.372 -0.0181  1.7724 -1.2172
 2597SOL    HW219254   3.629   0.009   5.512 -0.1530 -2.0275 -1.5977
 2598SOL     OW19255   0.716   3.766   2.161  0.2819 -0.0797  0.1659
 2598SOL    HW119256   0.677   3.796   2.080  0.6268  2.4358  0.9212
 2598SOL    HW219257   0.661   3.809   2.227 -1.4738 -0.1032 -1.2951
 2599SOL     OW19258   2.893   1.420   2.089  0.0948  0.1691 -0.0203
 2599SOL    HW119259   2.813   1.374   2.115 -0.6659  1.0568 -0.7971
 2599SOL    HW219260   2.869   1.513   2.089  1.4400  0.5161  1.0695
 2600SOL     OW19261   1.820   4.711   8.387 -0.1507 -0.0154 -0.1084
 2600SOL    HW119262   1.769   0.060   8.419 -2.9039 -1.8921 -0.0750
 2600SOL    HW219263   1.888   4.718   8.454  0.3018  0.8652 -0.6621
 2601SOL     OW19264   4.236   1.560   2.413 -0.2610  0.5960 -0.0893
 2601SOL    HW119265   4.151   1.526   2.441 -0.1917 -0.0102 -0.6099
 2601SOL    HW219266   4.231   1.554   2.317 -0.8498  2.8935 -0.2144
 2602SOL     OW19267   4.224   2.058  15.354 -0.3361  0.4943 -0.0115
 2602SOL    HW119268   4.275   1.978  15.347  2.1817  2.1179 -0.0713
 2602SOL    HW219269   4.283   2.111  15.406 -0.5407  2.5065 -1.8132
 2603SOL     OW19270   1.871   3.659   0.773  0.1014  0.8327 -0.3002
 2603SOL    HW119271   1.805   3.608   0.820  1.2022  2.2487  2.7709
 2603SOL    HW219272   1.814   3.732   0.748 -2.2441 -0.2323  2.0008
 2604SOL     OW19273   0.545   0.115  10.843 -0.1032 -0.2691  0.0827
 2604SOL    HW119274   0.481   0.181  10.815 -0.2880  0.0671  1.2793
 2604SOL    HW219275   0.533   0.053  10.771 -0.8669  0.2955 -0.2797
 2605SOL     OW19276   1.508   2.700   2.265 -0.7096 -0.1892 -0.2722
 2605SOL    HW119277   1.497   2.677   2.358  0.4165 -1.5665 -0.4809
 2605SOL    HW219278   1.418   2.704   2.231 -1.0958 -1.0636  0.6132
 2606SOL     OW19279   3.223   2.189   2.542 -0.4184 -0.2780 -0.5586
 2606SOL    HW119280   3.146   2.138   2.567 -1.4634  1.2376 -0.7547
 2606SOL    HW219281   3.191   2.278   2.554  1.9297  0.6235 -0.9848
 2607SOL     OW19282   2.517   3.623   6.006 -0.0966  0.1565 -0.1072
 2607SOL    HW119283   2.491   3.663   5.923 -0.9857  2.1211  1.1378
 2607SOL    HW219284   2.488   3.532   5.996 -1.1931  0.5222 -0.1944
 2608SOL     OW19285   2.608   0.354  15.389  0.2318 -0.3193 -0.3153
 2608SOL    HW119286   2.654   0.310  15.317  0.7280  0.0431 -0.2167
 2608SOL    HW219287   2.657   0.436  15.396 -0.3784 -0.2179  2.5206
 2609SOL     OW19288   2.487   0.775   8.443  0.6320  0.2064 -0.2832
 2609SOL    HW119289   2.419   0.841   8.455 -1.8354 -2.5410  0.8831
 2609SOL    HW219290   2.564   0.820   8.407  0.9161 -1.3053 -1.5940
 2610SOL     OW19291   1.441   3.015  15.217 -0.5612  0.2092 -0.0832
 2610SOL    HW119292   1.453   3.097  15.265 -2.7147  0.2788  0.3384
 2610SOL    HW219293   1.348   3.014  15.198 -1.1938  0.5323  2.9755
 2611SOL     OW19294   0.267   2.852   1.107 -0.2144 -0.2054 -0.4583
 2611SOL    HW119295   0.202   2.909   1.148  1.0336  0.6833  0.2676
 2611SOL    HW219296   0.258   2.772   1.158 -1.2383 -0.0543 -0.3970
 2612SOL     OW19297   3.043   1.446  14.197  0.5925 -0.6058 -0.2881
 2612SOL    HW119298   3.045   1.359  14.158 -1.4946 -1.2305  0.9499
 2612SOL    HW219299   3.115   1.496  14.160  0.5310 -2.1238 -2.4402
 2613SOL     OW19300   2.079   3.985   3.356  0.5249  0.0012 -0.5059
 2613SOL    HW119301   1.993   3.961   3.391 -0.8880  1.1782 -3.1370
 2613SOL    HW219302   2.062   3.984   3.262 -1.6633 -0.9299 -0.1043
 2614SOL     OW19303   3.146   1.402   5.566  0.4414 -0.0123  0.0374
 2614SOL    HW119304   3.081   1.365   5.507  0.9832  1.7856 -1.6664
 2614SOL    HW219305   3.097   1.481   5.590 -0.2032 -0.3413 -0.2243
 2615SOL     OW19306   1.672   0.029   3.776 -0.2789  0.0722 -0.1756
 2615SOL    HW119307   1.758   0.067   3.789  0.0017 -1.5649  2.7031
 2615SOL    HW219308   1.608   0.086   3.819 -1.7561 -0.8163 -1.1668
 2616SOL     OW19309   0.192   1.099   2.173  0.8330  0.5663 -0.4379
 2616SOL    HW119310   0.257   1.047   2.125 -0.5648 -2.6536  1.1219
 2616SOL    HW219311   0.157   1.032   2.232 -2.2630  3.1659  0.6784
 2617SOL     OW19312   2.310   1.260   5.992 -0.5334 -0.0985  0.1361
 2617SOL    HW119313   2.400   1.246   6.024 -1.4226 -0.6609  2.4125
 2617SOL    HW219314   2.261   1.252   6.074 -0.3439 -1.7791  0.0932
 2618SOL     OW19315   3.875   3.488   9.164  0.3001 -0.1882  0.3521
 2618SOL    HW119316   3.922   3.565   9.132 -0.3671 -0.2406 -0.7491
 2618SOL    HW219317   3.886   3.514   9.255  0.2896  0.4655  0.1665
 2619SOL     OW19318   2.691   0.362   2.164  0.6406 -0.2549  0.1083
 2619SOL    HW119319   2.705   0.456   2.154  0.3952 -0.1533  0.7003
 2619SOL    HW219320   2.617   0.349   2.105  0.2482  2.0378  0.0944
 2620SOL     OW19321   2.715   0.959   4.113 -0.4766  0.2612 -0.2014
 2620SOL    HW119322   2.635   0.927   4.155  0.9977 -0.3960  2.1007
 2620SOL    HW219323   2.671   1.040   4.085 -0.9599 -0.0280 -0.2678
 2621SOL     OW19324   3.871   1.431   9.238 -0.2615 -0.6772 -0.0762
 2621SOL    HW119325   3.929   1.405   9.166  0.8435 -0.3986  0.6999
 2621SOL    HW219326   3.844   1.347   9.273  0.7948 -0.7527  0.5702
 2622SOL     OW19327   2.275   1.592  10.928 -0.9728  0.1737 -0.0101
 2622SOL    HW119328   2.281   1.519  10.866  0.5152  0.2517  0.0384
 2622SOL    HW219329   2.319   1.547  11.001  0.2700 -1.0823 -1.5268
 2623SOL     OW19330   3.286   1.127   4.957  0.1746 -0.7699 -0.0403
 2623SOL    HW119331   3.198   1.102   4.986 -0.4526 -0.0742 -1.3073
 2623SOL    HW219332   3.336   1.046   4.943  0.5998 -0.4583 -0.3110
 2624SOL     OW19333   0.888   0.601   7.906  0.4368  0.6212 -0.2350
 2624SOL    HW119334   0.916   0.639   7.823  0.3694 -0.9403 -0.9738
 2624SOL    HW219335   0.888   0.683   7.956 -1.7743  1.5674 -1.8024
 2625SOL     OW19336   0.667   3.885   3.380 -0.1756  0.9949  0.1757
 2625SOL    HW119337   0.626   3.961   3.339  1.3722  1.3818 -0.6478
 2625SOL    HW219338   0.627   3.879   3.467  1.4508 -0.4870  0.8300
 2626SOL     OW19339   3.578   4.612   9.242 -0.0087 -0.0198  0.4996
 2626SOL    HW119340   3.638   4.682   9.215 -0.7661  0.5187  0.2107
 2626SOL    HW219341   3.508   4.672   9.268 -0.1920 -0.0341  0.0365
 2627SOL     OW19342   3.899   0.868  13.916 -0.3251 -0.0869 -0.2472
 2627SOL    HW119343   3.821   0.915  13.887  0.1586  1.0586  0.3103
 2627SOL    HW219344   3.908   0.800  13.849  0.8058 -0.3450  0.1715
 2628SOL     OW19345   0.526   4.250   7.487 -0.1008 -1.4042  0.2193
 2628SOL    HW119346   0.568   4.332   7.513 -1.7625 -0.4871  0.0314
 2628SOL    HW219347   0.456   4.276   7.427  1.0461  1.4733  0.1641
 2629SOL     OW19348   3.379   3.402  11.451  0.1101  0.3505  0.0386
 2629SOL    HW119349   3.302   3.458  11.455  1.4027  2.1109  0.1781
 2629SOL    HW219350   3.442   3.460  11.409 -0.3096  0.5251 -0.3379
 2630SOL     OW19351   3.367   4.525   1.306 -1.1370  0.1240  0.2902
 2630SOL    HW119352   3.371   4.433   1.330  1.4545 -0.4772 -2.3778
 2630SOL    HW219353   3.285   4.555   1.344 -0.0246  1.6639  1.4606
 2631SOL     OW19354   4.158   4.039   3.975  0.1183  0.1739  0.1488
 2631SOL    HW119355   4.101   4.036   3.898  2.2004  0.2308 -1.3942
 2631SOL    HW219356   4.226   3.975   3.953 -0.5886  0.1709 -2.0129
 2632SOL     OW19357   2.317   1.463   3.698  0.7536 -0.5644  0.0796
 2632SOL    HW119358   2.398   1.514   3.696  1.8857 -2.4030 -0.7903
 2632SOL    HW219359   2.259   1.521   3.748  0.3511  0.8277 -2.0233
 2633SOL     OW19360   4.494   1.995   5.516 -0.2529  0.0765  0.0080
 2633SOL    HW119361   4.507   2.049   5.595  1.1901 -1.4799  0.8361
 2633SOL    HW219362   4.426   2.041   5.467  0.4616 -0.3200 -1.3581
 2634SOL     OW19363   0.678   1.970   0.532  0.3654  0.0336  0.1243
 2634SOL    HW119364   0.684   1.875   0.543  1.1853 -0.2771 -2.8750
 2634SOL    HW219365   0.767   1.983   0.564  0.0938  0.6111  0.6284
 2635SOL     OW19366   4.596   4.700   5.307  0.3127  0.2536  0.1250
 2635SOL    HW119367   4.595   4.604   5.306 -0.0344  0.2693 -0.8271
 2635SOL    HW219368   4.524   4.724   5.249  1.3727  0.2463 -1.1974
 2636SOL     OW19369   3.910   4.093  15.136 -0.8323  0.3834 -0.6265
 2636SOL    HW119370   3.973   4.025  15.109 -3.6649 -2.1259 -0.8802
 2636SOL    HW219371   3.950   4.129  15.216  0.1461 -1.1259 -0.4185
 2637SOL     OW19372   2.119   3.311   4.690  0.4814 -0.3528 -0.3750
 2637SOL    HW119373   2.167   3.232   4.712 -1.7265 -2.6904 -3.9902
 2637SOL    HW219374   2.108   3.308   4.595  1.2105 -0.5475 -0.4491
 2638SOL     OW19375   0.688   3.962   4.333 -0.1127  0.0382  0.0923
 2638SOL    HW119376   0.753   3.971   4.402  1.2587  0.7261 -1.2881
 2638SOL    HW219377   0.644   3.883   4.365  0.7468 -0.3713  0.2665
 2639SOL     OW19378   1.710   2.129  11.619 -0.0340 -0.1137  0.2949
 2639SOL    HW119379   1.674   2.069  11.684  2.8298 -0.8423  1.2286
 2639SOL    HW219380   1.760   2.073  11.560 -0.5338  0.1702 -0.4068
 2640SOL     OW19381   2.075   1.178   4.285 -0.2325 -0.3041 -0.2477
 2640SOL    HW119382   2.170   1.184   4.277 -0.3813 -0.0464 -1.8912
 2640SOL    HW219383   2.049   1.259   4.327 -1.9822 -0.9094 -0.1438
 2641SOL     OW19384   1.311   3.337   7.431  0.3199 -0.3423 -0.0994
 2641SOL    HW119385   1.331   3.391   7.508 -0.9580 -1.0558  0.7370
 2641SOL    HW219386   1.357   3.255   7.447  0.3578  0.1349  2.2587
 2642SOL     OW19387   2.886   4.609   8.800  0.0501  0.0715  0.1891
 2642SOL    HW119388   2.899   4.627   8.894 -0.0538  0.0211  0.2133
 2642SOL    HW219389   2.966   4.574   8.761 -0.5119  1.2361 -1.9821
 2643SOL     OW19390   4.280   3.867   7.151  0.1488  0.3022 -0.5707
 2643SOL    HW119391   4.186   3.875   7.136  0.5497  1.3477 -2.4559
 2643SOL    HW219392   4.290   3.785   7.101  2.2205 -0.5052  1.1896
 2644SOL     OW19393   4.253   1.097   5.107 -0.5072 -0.1623 -0.3331
 2644SOL    HW119394   4.332   1.065   5.065 -0.1661 -0.5082  0.5641
 2644SOL    HW219395   4.190   1.040   5.062 -0.2928  0.6592 -1.6705
 2645SOL     OW19396   0.614   2.705   3.787 -0.0601 -0.1362 -0.0409
 2645SOL    HW119397   0.682   2.719   3.853 -0.9816  0.6395  0.7411
 2645SOL    HW219398   0.649   2.751   3.711  1.0100 -0.7979  0.0564
 2646SOL     OW19399   0.731   4.360   2.070 -0.1252 -0.2765 -0.1116
 2646SOL    HW119400   0.818   4.390   2.098 -0.0011  0.3335 -1.1832
 2646SOL    HW219401   0.711   4.422   2.001  0.7607  0.4433  0.2696
 2647SOL     OW19402   3.125   2.911   1.531 -0.3574 -0.0279  0.6791
 2647SOL    HW119403   3.099   2.915   1.622 -0.3495 -1.9479  0.7606
 2647SOL    HW219404   3.188   2.983   1.536 -0.7464  0.4544 -1.1496
 2648SOL     OW19405   1.736   3.697   3.828 -0.1446  0.0391  0.0691
 2648SOL    HW119406   1.740   3.789   3.802 -0.8777  0.3249  0.9751
 2648SOL    HW219407   1.734   3.673   3.735  0.3309 -2.4617  0.7117
 2649SOL     OW19408   0.493   1.486   5.856 -0.6781 -0.3067  0.0382
 2649SOL    HW119409   0.475   1.461   5.766 -2.7593 -1.3573  0.7398
 2649SOL    HW219410   0.426   1.431   5.898  0.6186 -0.6724  1.6472
 2650SOL     OW19411   4.241   1.144   6.556  0.2682  0.3690  0.0515
 2650SOL    HW119412   4.190   1.064   6.564  0.4943  0.1759 -0.4520
 2650SOL    HW219413   4.323   1.102   6.580  0.5445  0.9181  0.0680
 2651SOL     OW19414   3.363   3.062  11.721  0.2813 -0.6248 -0.2037
 2651SOL    HW119415   3.455   3.041  11.702 -0.6925 -2.4652 -2.8165
 2651SOL    HW219416   3.344   3.011  11.800 -0.9696 -0.3161 -0.3074
 2652SOL     OW19417   0.868   1.895   4.300 -0.0291 -0.1733  0.1212
 2652SOL    HW119418   0.860   1.821   4.240 -3.0039  1.8476 -1.9576
 2652SOL    HW219419   0.867   1.979   4.253 -0.2716  0.6165  1.5430
 2653SOL     OW19420   3.788   2.042  10.358 -0.0518 -0.2531 -0.7826
 2653SOL    HW119421   3.804   2.113  10.295  1.3685  0.6754  0.6171
 2653SOL    HW219422   3.854   2.060  10.425  0.8166 -1.7459 -1.2413
 2654SOL     OW19423   0.286   1.690  10.529  0.3967 -0.0050 -0.4149
 2654SOL    HW119424   0.352   1.754  10.555 -0.2892 -0.4127  2.3003
 2654SOL    HW219425   0.247   1.721  10.447 -0.1923  2.8715  0.9536
 2655SOL     OW19426   0.951   2.126   7.481 -0.0285  0.4310 -0.2042
 2655SOL    HW119427   0.883   2.147   7.545 -0.4763  0.0696 -0.5586
 2655SOL    HW219428   1.035   2.118   7.526 -0.7534 -0.0766  1.0502
 2656SOL     OW19429   2.043   3.076   1.281 -0.2294  0.2792 -0.2645
 2656SOL    HW119430   2.042   3.025   1.200  1.6840 -0.6440  0.3054
 2656SOL    HW219431   2.074   3.004   1.336  0.8171 -0.7957 -2.2441
 2657SOL     OW19432   1.038   1.890  13.086 -0.3293 -0.2531  0.6504
 2657SOL    HW119433   1.016   1.968  13.136 -0.0236  0.5074 -0.3988
 2657SOL    HW219434   1.127   1.916  13.063 -0.1102 -1.1256  0.5078
 2658SOL     OW19435   1.690   0.934   1.976 -0.2684  0.1006  0.8480
 2658SOL    HW119436   1.735   0.901   1.899 -0.2259 -0.8708  1.2928
 2658SOL    HW219437   1.602   0.933   1.937  1.1614 -0.1010 -2.4019
 2659SOL     OW19438   0.672   4.017   3.975 -0.1414  0.0311 -0.1099
 2659SOL    HW119439   0.718   3.996   3.894 -2.5562 -1.0415 -1.2048
 2659SOL    HW219440   0.739   4.004   4.043  1.5759 -2.1538 -2.2257
 2660SOL     OW19441   3.728   3.126   5.780 -0.0392  0.4427  0.1302
 2660SOL    HW119442   3.717   3.189   5.851  0.2159 -2.0755  2.4158
 2660SOL    HW219443   3.655   3.139   5.719  0.2078  1.2769  0.0173
 2661SOL     OW19444   2.997   1.653   7.076 -0.1531 -0.1926  0.2648
 2661SOL    HW119445   2.927   1.719   7.083  0.2877  0.3490 -0.3956
 2661SOL    HW219446   3.051   1.680   7.150 -1.3928 -0.5920  1.3130
 2662SOL     OW19447   3.465   4.341   5.201  0.4806  0.4605  0.0264
 2662SOL    HW119448   3.419   4.264   5.168  0.1441  1.0812 -0.9507
 2662SOL    HW219449   3.556   4.312   5.194 -0.1326 -1.5093  0.2139
 2663SOL     OW19450   0.546   2.677   5.079 -0.5819 -0.0751  0.3160
 2663SOL    HW119451   0.617   2.621   5.047  1.8743  2.1331  1.9715
 2663SOL    HW219452   0.550   2.748   5.014  0.0862  1.0364  1.5770
 2664SOL     OW19453   1.060   1.086   2.618 -0.3602  0.5402  0.3244
 2664SOL    HW119454   1.085   0.995   2.634  0.7710  0.1197 -3.6579
 2664SOL    HW219455   0.999   1.072   2.546  0.6098 -1.8671 -0.0607
 2665SOL     OW19456   1.915   2.343  15.488 -0.0413  0.1377 -0.5106
 2665SOL    HW119457   1.827   2.378  15.473 -0.9360 -1.6513  0.5935
 2665SOL    HW219458   1.960   2.357  15.405 -1.0834 -0.6470 -1.2060
 2666SOL     OW19459   3.882   0.508   3.716 -0.3040 -0.2890 -0.4742
 2666SOL    HW119460   3.918   0.421   3.734  1.4632  0.8588  1.6063
 2666SOL    HW219461   3.844   0.539   3.798 -2.2409  3.5320 -2.8500
 2667SOL     OW19462   1.078   1.511   4.979  0.0642  0.0351  0.3083
 2667SOL    HW119463   1.045   1.538   5.065  1.0521  0.8630  0.4289
 2667SOL    HW219464   0.996   1.486   4.938 -0.7790  1.2912  1.2155
 2668SOL     OW19465   0.476   3.899   6.549  0.2771 -0.2237 -0.3958
 2668SOL    HW119466   0.506   3.831   6.609  1.0314  1.5629  1.2672
 2668SOL    HW219467   0.385   3.867   6.545  0.4344 -0.6862 -0.2531
 2669SOL     OW19468   2.080   2.907   8.185 -0.4809 -0.0163 -0.1068
 2669SOL    HW119469   2.164   2.932   8.223  1.2178 -4.0672 -1.2922
 2669SOL    HW219470   2.027   2.929   8.262 -0.0844  1.4185 -0.2365
 2670SOL     OW19471   0.898   0.701   2.465 -0.2491  0.1281  0.9343
 2670SOL    HW119472   0.805   0.724   2.463  0.4565  3.2169  2.9794
 2670SOL    HW219473   0.912   0.697   2.370  1.8510 -0.9209  1.2897
 2671SOL     OW19474   1.845   4.193   5.448 -0.1238 -0.4211 -0.5165
 2671SOL    HW119475   1.886   4.168   5.531  1.9196 -1.9872 -2.0128
 2671SOL    HW219476   1.928   4.222   5.410 -0.3320  3.2333  1.8140
 2672SOL     OW19477   3.294   3.111   6.306 -0.4862  0.5528 -0.5846
 2672SOL    HW119478   3.319   3.048   6.374 -1.5761 -0.6233 -1.2698
 2672SOL    HW219479   3.267   3.177   6.370 -0.7595  1.8973 -2.0899
 2673SOL     OW19480   2.250   1.362  17.123 -0.2356  0.2126 -0.3227
 2673SOL    HW119481   2.194   1.325  17.191 -1.2169 -0.4228 -1.4580
 2673SOL    HW219482   2.292   1.432  17.171  0.1488 -0.7677  0.7608
 2674SOL     OW19483   1.898   4.564   7.211 -0.3219  0.1551 -0.1453
 2674SOL    HW119484   1.856   4.481   7.234 -1.2381  0.7374  0.2987
 2674SOL    HW219485   1.850   4.594   7.134  1.0624 -0.9732 -1.4573
 2675SOL     OW19486   2.638   1.305   8.529  0.0532  0.6267  0.0090
 2675SOL    HW119487   2.681   1.390   8.524  1.2645 -0.0912 -1.6883
 2675SOL    HW219488   2.678   1.255   8.600 -1.7963 -0.6036  0.1913
 2676SOL     OW19489   1.999   3.128   0.970 -0.1808  0.3559 -0.4339
 2676SOL    HW119490   1.983   3.053   0.913  1.9110 -0.0717 -0.4695
 2676SOL    HW219491   2.094   3.140   0.969 -0.0707 -0.8195 -4.5883
 2677SOL     OW19492   2.811   0.014   9.357  0.4524  0.4347  0.0012
 2677SOL    HW119493   2.902   0.008   9.386  0.1574 -2.7852  0.2972
 2677SOL    HW219494   2.765   4.667   9.398  1.9748  0.3444  1.5394
 2678SOL     OW19495   4.674   3.467   8.529  0.0908 -0.4697  0.1299
 2678SOL    HW119496   4.709   3.533   8.468 -1.8641 -0.8546 -1.4135
 2678SOL    HW219497   4.595   3.511   8.562  1.4143  2.0723 -0.0667
 2679SOL     OW19498   3.969   4.358  15.887  0.1216  0.3836 -0.4206
 2679SOL    HW119499   3.975   4.372  15.982 -1.1312 -2.8739  0.1481
 2679SOL    HW219500   4.033   4.289  15.870 -1.0713 -1.0714  0.9937
 2680SOL     OW19501   3.027   2.426   4.983  0.3324  0.0817  0.5357
 2680SOL    HW119502   3.006   2.508   4.940  2.2109 -1.1668 -2.8021
 2680SOL    HW219503   2.956   2.407   5.044 -0.5414 -2.4147 -1.2652
 2681SOL     OW19504   3.214   1.527   3.762  0.1646  0.6865  0.8112
 2681SOL    HW119505   3.190   1.589   3.694 -0.7256 -0.5032  0.0435
 2681SOL    HW219506   3.262   1.457   3.717  0.2348  1.6916 -0.6649
 2682SOL     OW19507   0.331   2.073   3.256 -0.6543 -0.0439 -0.1164
 2682SOL    HW119508   0.257   2.017   3.237  0.6919 -1.6043 -0.7987
 2682SOL    HW219509   0.368   2.093   3.170 -4.3000 -0.1548 -1.6943
 2683SOL     OW19510   4.684   1.554  17.199  0.3401  0.2741  0.2992
 2683SOL    HW119511   4.687   1.618  17.271 -0.8685  0.5941  0.0605
 2683SOL    HW219512   4.630   1.602  17.136 -2.2109 -1.7916  0.9481
 2684SOL     OW19513   0.600   4.638  10.998 -0.2847  0.2501 -0.2404
 2684SOL    HW119514   0.588   4.715  10.942  0.0594 -0.6871 -1.5946
 2684SOL    HW219515   0.635   4.689  11.071 -0.4017 -0.3655  0.2374
 2685SOL     OW19516   1.656   2.952  11.369  0.8670 -0.5664 -0.2214
 2685SOL    HW119517   1.662   2.914  11.457 -0.8111 -3.7635 -1.4544
 2685SOL    HW219518   1.580   2.907  11.332  0.0837  0.0697  0.6291
 2686SOL     OW19519   1.071   3.063  17.496 -0.5491  0.1045 -0.4335
 2686SOL    HW119520   0.995   3.041  17.443 -1.5071 -0.3671  1.1594
 2686SOL    HW219521   1.115   3.132  17.446  0.8668 -0.1431  0.4652
 2687SOL     OW19522   1.636   4.569   6.279  0.0647  0.5422 -0.0865
 2687SOL    HW119523   1.592   4.594   6.361  1.2603  0.4303  0.6016
 2687SOL    HW219524   1.570   4.529   6.223 -2.0175  3.5274  0.2683
 2688SOL     OW19525   2.672   2.373  17.573  0.1531 -0.2457 -0.3399
 2688SOL    HW119526   2.661   2.307  17.504 -3.6154 -0.1359  0.1488
 2688SOL    HW219527   2.707   2.452  17.533  1.2234 -1.5155 -1.8937
 2689SOL     OW19528   3.856   4.033   4.149  0.1333 -0.0097  0.3118
 2689SOL    HW119529   3.831   4.027   4.056  1.7270  0.4885 -0.1464
 2689SOL    HW219530   3.841   3.941   4.172 -1.1802 -0.4905 -2.4393
 2690SOL     OW19531   3.646   0.225   3.873 -0.5773  0.1761 -0.1768
 2690SOL    HW119532   3.671   0.274   3.951 -0.2018 -1.6850  0.8627
 2690SOL    HW219533   3.719   0.234   3.812  0.7703 -1.4522  1.2068
 2691SOL     OW19534   0.881   2.768   6.330 -0.3296  0.2528  0.7160
 2691SOL    HW119535   0.844   2.840   6.381 -0.4854 -0.9271  2.2726
 2691SOL    HW219536   0.922   2.718   6.401 -1.4808  0.5812  1.6003
 2692SOL     OW19537   2.946   4.198   3.877  0.4308  0.1242  0.0071
 2692SOL    HW119538   2.991   4.245   3.807 -0.5368 -1.9690 -1.9956
 2692SOL    HW219539   2.958   4.108   3.848 -1.1388 -0.7222  1.9438
 2693SOL     OW19540   3.999   2.849   2.173  0.3318 -0.6576  0.3026
 2693SOL    HW119541   3.936   2.894   2.116  1.0270  0.1979  0.2131
 2693SOL    HW219542   4.014   2.908   2.246  1.8543  0.1983 -0.7086
 2694SOL     OW19543   1.319   2.506  15.158  0.0807  0.2677 -0.3388
 2694SOL    HW119544   1.346   2.596  15.141 -0.9864  0.3528 -1.6234
 2694SOL    HW219545   1.332   2.496  15.252 -1.7255 -1.4071 -0.2727
 2695SOL     OW19546   0.310   0.390   8.194 -0.2121 -0.3518 -0.5927
 2695SOL    HW119547   0.221   0.385   8.229  0.5331  1.8895  1.6531
 2695SOL    HW219548   0.340   0.299   8.194  0.3242 -0.1571 -4.0688
 2696SOL     OW19549   0.067   0.080  10.692 -0.4848  0.1744 -0.0768
 2696SOL    HW119550   0.099   0.170  10.692 -2.8151  0.9994  2.2185
 2696SOL    HW219551   4.698   0.088  10.693 -0.4529  0.4964  0.5549
 2697SOL     OW19552   2.630   0.576   5.483 -0.0054  0.0893 -0.3105
 2697SOL    HW119553   2.692   0.649   5.490 -0.9086  1.0198 -1.9113
 2697SOL    HW219554   2.649   0.545   5.395 -1.2423  1.5976 -1.1028
 2698SOL     OW19555   1.111   4.215  11.877  0.3235 -0.1540  0.3534
 2698SOL    HW119556   1.087   4.197  11.786 -3.0695  1.3661  0.9717
 2698SOL    HW219557   1.126   4.126  11.908  0.0157 -0.6803 -0.9878
 2699SOL     OW19558   4.313   2.463  15.292  0.1534  0.0272 -0.5100
 2699SOL    HW119559   4.237   2.492  15.243  0.8196  1.7000 -0.5517
 2699SOL    HW219560   4.338   2.551  15.319  1.5664 -0.5884  0.2217
 2700SOL     OW19561   0.344   4.329   2.121  0.3042  0.2493 -0.0594
 2700SOL    HW119562   0.318   4.418   2.097  0.9054  0.2228 -0.8176
 2700SOL    HW219563   0.420   4.343   2.177  0.1010  2.4757 -0.3446
 2701SOL     OW19564   1.635   4.330   4.490 -0.0210 -0.0949  0.2895
 2701SOL    HW119565   1.598   4.273   4.424 -1.0344  0.6922  0.1749
 2701SOL    HW219566   1.646   4.269   4.563  1.3797  0.0338  0.1817
 2702SOL     OW19567   3.049   2.682   2.785  0.2161  0.0615  0.0633
 2702SOL    HW119568   2.958   2.713   2.780  0.1778  0.0465  0.5712
 2702SOL    HW219569   3.083   2.737   2.715 -0.6088  1.2484  0.5856
 2703SOL     OW19570   3.969   1.420   2.486  0.8375  0.0353  0.0120
 2703SOL    HW119571   3.926   1.503   2.463 -0.3073 -1.5501 -3.4496
 2703SOL    HW219572   3.890   1.372   2.510  1.8786 -0.1368  3.1047
 2704SOL     OW19573   3.541   0.093   5.713 -0.5862  0.5560  0.3542
 2704SOL    HW119574   3.631   0.096   5.744 -0.5471 -2.3489  0.5066
 2704SOL    HW219575   3.525   0.187   5.708 -0.4861  0.5706  0.3178
 2705SOL     OW19576   1.540   0.696   3.192  0.1384 -0.4979 -0.0520
 2705SOL    HW119577   1.615   0.670   3.246  0.2719  0.0460  0.0258
 2705SOL    HW219578   1.578   0.769   3.142 -2.4567  2.0199  1.6159
 2706SOL     OW19579   1.886   3.570   3.040  0.8191  0.3404 -0.5401
 2706SOL    HW119580   1.950   3.557   2.969 -0.2453 -0.6113 -1.3238
 2706SOL    HW219581   1.874   3.482   3.076  0.0617  0.5905 -0.1928
 2707SOL     OW19582   3.154   0.297  14.656  0.0209  0.4744 -0.2399
 2707SOL    HW119583   3.192   0.269  14.739  0.1077 -0.0754 -0.4593
 2707SOL    HW219584   3.145   0.392  14.661 -0.4432  0.3707  0.7563
 2708SOL     OW19585   2.960   0.413  11.395 -0.0702  0.6434 -0.4071
 2708SOL    HW119586   2.980   0.488  11.339 -1.5418  0.5876 -1.0101
 2708SOL    HW219587   2.960   0.460  11.479  2.9407  1.1578 -0.7200
 2709SOL     OW19588   1.261   0.940  12.354  0.2476 -0.1414  0.1456
 2709SOL    HW119589   1.239   0.933  12.447  1.4753  0.8016  0.4991
 2709SOL    HW219590   1.250   1.035  12.355  1.6648  0.0081  1.2130
 2710SOL     OW19591   3.895   3.242  10.600 -1.0308 -0.7880 -0.5549
 2710SOL    HW119592   3.916   3.243  10.694  0.2488  0.4124 -0.8501
 2710SOL    HW219593   3.917   3.151  10.584  2.1123 -0.4805  2.0158
 2711SOL     OW19594   1.183   2.036   5.846  0.3609  0.3412  0.1293
 2711SOL    HW119595   1.235   2.104   5.889  1.4093 -1.5644  1.8487
 2711SOL    HW219596   1.171   2.076   5.760 -0.6847 -0.4658 -0.1057
 2712SOL     OW19597   4.141   4.052  11.168  0.4214  0.3084 -0.1440
 2712SOL    HW119598   4.208   4.091  11.111  0.3372  0.5356 -0.0895
 2712SOL    HW219599   4.092   3.990  11.115 -0.0265  0.4023  0.1599
 2713SOL     OW19600   2.387   0.577   5.847  0.2096  0.2323 -0.5748
 2713SOL    HW119601   2.446   0.595   5.920  0.1814  1.6638 -0.9143
 2713SOL    HW219602   2.411   0.639   5.779  0.5794  2.3117  1.4683
 2714SOL     OW19603   4.726   2.427   4.295 -0.3160  0.2419  0.0497
 2714SOL    HW119604   4.676   2.353   4.261  0.7335  0.3540 -1.7052
 2714SOL    HW219605   0.069   2.428   4.230  0.1224  1.2748  0.5233
 2715SOL     OW19606   3.029   2.078   4.334  0.7624 -0.1885 -0.3296
 2715SOL    HW119607   3.004   1.986   4.323  0.1897 -0.1358  0.5620
 2715SOL    HW219608   3.056   2.082   4.425 -1.7045  0.9258  0.3455
 2716SOL     OW19609   1.484   4.588   7.690 -0.3723 -0.5265 -0.2819
 2716SOL    HW119610   1.412   4.650   7.704  0.6005  0.6986 -0.6682
 2716SOL    HW219611   1.450   4.522   7.750 -3.7284 -0.8356 -2.4856
 2717SOL     OW19612   1.742   2.998   1.875 -0.4315  0.4065 -0.3552
 2717SOL    HW119613   1.714   3.042   1.795  1.9512 -0.2933 -1.5692
 2717SOL    HW219614   1.755   2.910   1.841 -1.2780 -0.6484  2.0510
 2718SOL     OW19615   1.850   3.271  15.293  0.1189 -0.1372 -0.3812
 2718SOL    HW119616   1.787   3.207  15.260  0.9848 -1.6521  0.9027
 2718SOL    HW219617   1.792   3.326  15.347  0.1863 -0.2627 -0.1811
 2719SOL     OW19618   1.456   1.673   2.907 -0.1349 -0.5660  0.4782
 2719SOL    HW119619   1.464   1.706   2.817  0.5975  1.1287  1.1722
 2719SOL    HW219620   1.505   1.739   2.956 -0.3889  1.3767 -1.8942
 2720SOL     OW19621   1.824   2.614   4.545  0.5138  0.4217  0.1702
 2720SOL    HW119622   1.910   2.654   4.548  0.2362  1.1596 -1.5722
 2720SOL    HW219623   1.765   2.682   4.513  0.0662 -0.7457 -1.5224
 2721SOL     OW19624   0.902   0.437   6.238 -1.1092  0.4068  0.3461
 2721SOL    HW119625   0.921   0.391   6.156  3.4779  1.1664  0.9984
 2721SOL    HW219626   0.808   0.454   6.232 -1.0937  0.6149  0.7235
 2722SOL     OW19627   4.458   4.029   6.243 -0.2665 -0.6325 -0.0987
 2722SOL    HW119628   4.456   4.114   6.198  1.5802 -2.0355 -2.8281
 2722SOL    HW219629   4.463   4.056   6.335 -0.5878 -0.7181 -0.0575
 2723SOL     OW19630   4.482   1.479   6.649  0.1518 -0.0943  0.4868
 2723SOL    HW119631   4.401   1.455   6.605  1.1653 -1.6000 -0.5589
 2723SOL    HW219632   4.508   1.389   6.668 -1.7192 -0.7966 -0.3883
 2724SOL     OW19633   4.160   2.153   6.615 -0.7358 -0.3649  0.1157
 2724SOL    HW119634   4.188   2.078   6.667 -1.9879 -0.1889  1.0479
 2724SOL    HW219635   4.235   2.173   6.559 -0.4669  2.8529  1.5686
 2725SOL     OW19636   2.158   2.643   2.287  0.0312  0.0285 -0.1832
 2725SOL    HW119637   2.096   2.685   2.346  1.3754  0.9433  0.5806
 2725SOL    HW219638   2.224   2.712   2.281  0.8240 -0.5735  1.4580
 2726SOL     OW19639   3.972   3.541   5.887 -0.6428 -0.3771  0.4613
 2726SOL    HW119640   3.965   3.487   5.809  1.6554  0.5170 -0.3830
 2726SOL    HW219641   4.066   3.536   5.904 -0.5063 -0.4794 -0.3277
 2727SOL     OW19642   1.119   0.937   4.948  0.3320 -0.3483 -0.7030
 2727SOL    HW119643   1.131   1.032   4.948  0.4397 -0.3621 -0.4237
 2727SOL    HW219644   1.165   0.917   5.029 -1.0567 -2.3632 -0.4114
 2728SOL     OW19645   4.602   2.536   7.915 -0.2743  0.4687  0.6143
 2728SOL    HW119646   4.644   2.452   7.936 -0.2125  0.4989  0.6118
 2728SOL    HW219647   4.678   2.573   7.870 -0.1476  0.1508  0.5697
 2729SOL     OW19648   2.840   1.013  15.140  0.4850  0.3226 -0.6765
 2729SOL    HW119649   2.841   0.925  15.102 -1.4451  1.4406 -3.2926
 2729SOL    HW219650   2.915   1.013  15.200 -0.8199 -1.6510  0.9734
 2730SOL     OW19651   2.977   0.569  10.127 -0.2404 -0.2293  0.4014
 2730SOL    HW119652   2.940   0.656  10.112  2.1390  0.7723  0.4407
 2730SOL    HW219653   2.958   0.565  10.221 -0.9376  0.3758  0.2871
 2731SOL     OW19654   1.777   3.077   1.595 -0.1407 -0.4831 -0.7590
 2731SOL    HW119655   1.818   2.997   1.563  1.6787  0.3955 -0.6357
 2731SOL    HW219656   1.696   3.078   1.543 -0.0146  0.8479 -0.9386
 2732SOL     OW19657   3.333   0.531   2.785  0.0918  0.1121 -0.3507
 2732SOL    HW119658   3.380   0.512   2.866  0.8476  1.1411 -0.5504
 2732SOL    HW219659   3.259   0.473   2.803 -0.1325  0.6269  0.4014
 2733SOL     OW19660   0.192   2.175   5.398 -0.0479 -0.2556 -0.6210
 2733SOL    HW119661   0.216   2.115   5.469 -0.7123  1.5813  1.1701
 2733SOL    HW219662   0.108   2.135   5.375 -0.3603 -1.2219  2.1718
 2734SOL     OW19663   4.445   2.009  13.584  0.2294  0.4209  0.1865
 2734SOL    HW119664   4.466   2.091  13.539 -0.5667  0.8292  0.5575
 2734SOL    HW219665   4.352   2.021  13.565  0.3758  1.3401  0.0597
 2735SOL     OW19666   3.386   1.954   4.454  0.1827 -0.1812  0.1369
 2735SOL    HW119667   3.325   1.990   4.518 -0.2023  0.5729 -0.6448
 2735SOL    HW219668   3.332   1.929   4.378  0.3338 -0.9668  0.2815
 2736SOL     OW19669   1.902   3.951   3.094  0.2434 -0.1182 -0.0353
 2736SOL    HW119670   1.833   4.009   3.064 -0.0662 -0.4886 -0.0425
 2736SOL    HW219671   1.860   3.873   3.131  0.0232  1.4975  3.1601
 2737SOL     OW19672   4.322   1.688   6.922  0.4913  0.4117  0.5506
 2737SOL    HW119673   4.357   1.599   6.933 -0.5603 -0.1814 -0.8532
 2737SOL    HW219674   4.357   1.710   6.836 -3.0408  2.1045 -0.4311
 2738SOL     OW19675   2.342   1.777  16.665 -0.2420 -0.1284  0.5582
 2738SOL    HW119676   2.378   1.714  16.602  1.4916  1.3722  0.0658
 2738SOL    HW219677   2.418   1.833  16.674  1.6941 -2.5626 -0.4980
 2739SOL     OW19678   0.715   0.600   4.114 -0.0864 -0.6757  0.1433
 2739SOL    HW119679   0.681   0.565   4.197  1.2595 -2.0410  0.1192
 2739SOL    HW219680   0.792   0.545   4.099  0.0092 -0.0223 -1.6527
 2740SOL     OW19681   2.136   1.797  14.917  0.0106  0.4499  0.0692
 2740SOL    HW119682   2.076   1.726  14.895 -2.0471  2.0354  0.5901
 2740SOL    HW219683   2.096   1.832  14.997  0.0104  1.9126 -0.5695
 2741SOL     OW19684   2.342   4.442   0.618  0.5797  0.5111 -0.6284
 2741SOL    HW119685   2.383   4.356   0.616  1.7960  1.1398 -2.3648
 2741SOL    HW219686   2.300   4.436   0.533  1.0475 -1.1465 -0.7378
 2742SOL     OW19687   3.549   3.955   1.060  0.5635 -0.0495 -0.1022
 2742SOL    HW119688   3.592   4.036   1.088 -1.0521  0.1686  1.7638
 2742SOL    HW219689   3.496   3.996   0.991 -0.2977 -0.0520  0.5532
 2743SOL     OW19690   1.836   2.706   3.724 -0.2205  0.2847  0.2488
 2743SOL    HW119691   1.902   2.638   3.709  0.7864  1.1432  0.7512
 2743SOL    HW219692   1.867   2.766   3.656  1.1425  1.1344  1.6156
 2744SOL     OW19693   2.652   0.726   0.163 -0.2344 -0.1024  0.0720
 2744SOL    HW119694   2.620   0.796   0.107 -0.2633  0.3138  0.6047
 2744SOL    HW219695   2.572   0.696   0.207 -2.0405  0.7264 -2.6600
 2745SOL     OW19696   3.105   3.918   6.966 -0.0164 -0.5965  0.0454
 2745SOL    HW119697   3.131   3.969   7.043 -0.4151  0.2671 -0.3888
 2745SOL    HW219698   3.104   3.969   6.885 -1.8607  2.2099  1.8454
 2746SOL     OW19699   1.676   4.384  13.346 -0.2765  0.2685 -0.2346
 2746SOL    HW119700   1.701   4.461  13.295  0.3347 -0.4039 -0.9691
 2746SOL    HW219701   1.715   4.312  13.295  0.8102 -0.5305  1.7288
 2747SOL     OW19702   3.693   0.551   6.409  0.3029  0.0300  0.3188
 2747SOL    HW119703   3.598   0.544   6.417  0.4715  1.0344  3.1494
 2747SOL    HW219704   3.706   0.646   6.402 -4.0868  0.6992  1.3031
 2748SOL     OW19705   1.152   1.279  14.559  0.0151 -0.4173 -0.1853
 2748SOL    HW119706   1.141   1.370  14.588 -0.3492 -0.1868 -1.0401
 2748SOL    HW219707   1.101   1.292  14.478  1.0117 -0.7863 -0.8653
 2749SOL     OW19708   3.662   2.837   3.523 -0.3999 -0.1739  0.5527
 2749SOL    HW119709   3.635   2.750   3.554 -0.7135  0.0729  0.9631
 2749SOL    HW219710   3.745   2.813   3.482 -0.3644  2.3487 -0.8449
 2750SOL     OW19711   1.401   3.028  17.334 -0.2305 -0.1911  0.0231
 2750SOL    HW119712   1.392   3.105  17.390 -1.2320 -0.9237  0.8679
 2750SOL    HW219713   1.399   2.964  17.406 -2.9154 -2.3439 -1.9241
 2751SOL     OW19714   2.614   1.158   8.847  0.0723  0.0221  0.4440
 2751SOL    HW119715   2.708   1.141   8.853 -0.3717 -2.3583  0.7977
 2751SOL    HW219716   2.581   1.079   8.890 -3.8240  1.0930 -0.5445
 2752SOL     OW19717   4.385   0.801   5.338 -0.1610 -0.3282 -0.0837
 2752SOL    HW119718   4.303   0.768   5.303 -1.2224 -0.8086  2.8468
 2752SOL    HW219719   4.353   0.869   5.398  0.1671  1.3481 -1.8001
 2753SOL     OW19720   0.011   2.524   8.412  0.6025 -0.4408 -0.0782
 2753SOL    HW119721   4.663   2.484   8.367 -0.5847  2.4826 -0.6953
 2753SOL    HW219722   0.079   2.534   8.345  1.3710  0.1595  0.7908
 2754SOL     OW19723   1.503   3.817   0.215  0.0983 -0.0119  0.2774
 2754SOL    HW119724   1.550   3.749   0.166  0.8149  1.2585 -0.8022
 2754SOL    HW219725   1.424   3.822   0.163  0.2789  0.9275  0.0907
 2755SOL     OW19726   3.140   1.676  15.102  0.0713 -0.3093 -0.7289
 2755SOL    HW119727   3.182   1.626  15.031  0.4591 -0.3717 -0.4530
 2755SOL    HW219728   3.176   1.760  15.073  0.3554 -0.6648 -1.4250
 2756SOL     OW19729   4.154   0.545  10.874 -0.0388  0.4324  0.0249
 2756SOL    HW119730   4.166   0.639  10.889  0.6406  0.3731 -0.1822
 2756SOL    HW219731   4.079   0.538  10.934  1.3531 -1.2442  1.5884
 2757SOL     OW19732   3.379   1.969   6.815  0.6507  0.3210  0.1718
 2757SOL    HW119733   3.424   2.048   6.845  2.0785 -0.1276 -0.7720
 2757SOL    HW219734   3.424   1.959   6.731 -0.5364  2.2112 -0.6828
 2758SOL     OW19735   3.329   2.333   4.435  0.5184  0.0075 -0.4830
 2758SOL    HW119736   3.361   2.311   4.523 -1.1199 -2.6179 -0.5445
 2758SOL    HW219737   3.383   2.283   4.374  0.3563  0.2515 -0.8276
 2759SOL     OW19738   1.989   1.012  13.339 -0.1689 -0.5013  0.5228
 2759SOL    HW119739   2.038   0.964  13.272 -2.2849 -0.6374 -0.9317
 2759SOL    HW219740   1.905   1.006  13.293 -0.1878  0.4001  0.4236
 2760SOL     OW19741   3.623   4.684  17.607  0.1692 -0.1446 -0.2732
 2760SOL    HW119742   3.597   4.650  17.692  0.8860  0.7436  0.2912
 2760SOL    HW219743   3.704   0.005  17.626  1.1258 -1.2728 -1.5145
 2761SOL     OW19744   1.906   4.566   5.583  0.1450  0.2040 -0.2003
 2761SOL    HW119745   1.821   4.528   5.605  0.5094  0.5445  1.7942
 2761SOL    HW219746   1.891   4.658   5.602  0.0159  0.3818 -1.1456
 2762SOL     OW19747   2.534   2.084  13.783  0.0364  0.4886 -0.4642
 2762SOL    HW119748   2.620   2.114  13.811 -0.8992  1.8172  0.9856
 2762SOL    HW219749   2.558   2.004  13.736 -3.8343 -1.2599  0.5314
 2763SOL     OW19750   1.792   2.743   1.769 -0.1056  0.0373  0.3381
 2763SOL    HW119751   1.874   2.742   1.818  0.6466  2.1170 -0.8941
 2763SOL    HW219752   1.770   2.652   1.748  0.0283 -0.0949  0.7619
 2764SOL     OW19753   4.205   3.020   2.592  0.1476  0.2807  0.3828
 2764SOL    HW119754   4.298   3.039   2.599  0.2698  0.8931 -3.0064
 2764SOL    HW219755   4.181   3.039   2.502  1.2415  1.8546  0.4313
 2765SOL     OW19756   1.006   2.197   8.990 -0.4291 -0.7646 -0.1543
 2765SOL    HW119757   0.930   2.235   9.034 -1.0131 -2.7850  0.5624
 2765SOL    HW219758   1.059   2.177   9.067  2.3451 -0.2151 -1.8941
 2766SOL     OW19759   3.740   3.790   5.802 -0.1449 -0.2293  0.0236
 2766SOL    HW119760   3.810   3.747   5.754  1.0510  2.4608 -0.6186
 2766SOL    HW219761   3.783   3.855   5.857 -1.1173 -1.0883  1.8165
 2767SOL     OW19762   2.841   0.132   5.687  0.0896 -0.0756  0.1442
 2767SOL    HW119763   2.872   0.145   5.777  0.5252  1.6326 -0.2421
 2767SOL    HW219764   2.772   0.195   5.667 -0.2045  0.2545  2.1517
 2768SOL     OW19765   4.594   0.458   6.748 -0.4949 -0.4173  0.0248
 2768SOL    HW119766   4.531   0.388   6.764 -0.5370  0.3144  3.0274
 2768SOL    HW219767   4.646   0.417   6.679 -1.2525 -0.2743 -0.6244
 2769SOL     OW19768   4.376   1.521  12.869 -0.1699  0.2612  0.5271
 2769SOL    HW119769   4.299   1.478  12.908  0.0579  0.2659  0.9827
 2769SOL    HW219770   4.338   1.592  12.817  3.6413  1.3302 -0.7687
 2770SOL     OW19771   4.327   0.699   7.230 -0.3327 -0.3241 -0.5269
 2770SOL    HW119772   4.368   0.732   7.310  1.4752  0.1100 -1.6397
 2770SOL    HW219773   4.304   0.613   7.265  0.7306 -0.3409  0.1167
 2771SOL     OW19774   3.614   0.380   9.151 -0.0914 -0.1045 -0.1770
 2771SOL    HW119775   3.624   0.306   9.210 -2.8282  0.2881  0.7741
 2771SOL    HW219776   3.591   0.333   9.071 -1.9510  0.9822 -0.2741
 2772SOL     OW19777   2.127   3.862  13.207 -0.7733  0.1431 -0.3167
 2772SOL    HW119778   2.125   3.767  13.216 -1.6720  0.2409  0.5483
 2772SOL    HW219779   2.214   3.888  13.236 -2.1088  1.3453  2.6293
 2773SOL     OW19780   2.510   2.068   8.248  0.0272  0.3029  0.1034
 2773SOL    HW119781   2.420   2.078   8.280  0.7473  3.0588  1.2675
 2773SOL    HW219782   2.545   1.990   8.292  1.7409  0.6536 -0.6498
 2774SOL     OW19783   3.571   3.478   1.976 -0.0009 -0.5256  0.3736
 2774SOL    HW119784   3.640   3.479   2.042  1.7343  3.1147 -1.4731
 2774SOL    HW219785   3.502   3.441   2.031 -0.9103  0.0520 -0.3672
 2775SOL     OW19786   1.978   2.794  13.297  0.0664 -0.0257  0.0942
 2775SOL    HW119787   1.984   2.750  13.382 -1.5142  0.3580  0.3973
 2775SOL    HW219788   1.954   2.885  13.315 -0.6880 -0.6326  2.1499
 2776SOL     OW19789   3.999   1.759   7.046  0.3229  0.0038 -0.3811
 2776SOL    HW119790   3.939   1.689   7.018  0.2181 -0.9709  2.2329
 2776SOL    HW219791   3.948   1.838   7.033 -0.1447 -0.5906 -2.1753
 2777SOL     OW19792   0.706   2.804   3.503  0.7293  0.6002 -0.5064
 2777SOL    HW119793   0.668   2.807   3.416 -1.1462  0.8625  0.3197
 2777SOL    HW219794   0.798   2.824   3.486  1.1573 -0.4792  0.5632
 2778SOL     OW19795   3.325   3.160  12.213 -0.1183  0.2011  0.0620
 2778SOL    HW119796   3.263   3.162  12.140 -1.4349 -3.6856  1.0729
 2778SOL    HW219797   3.370   3.082  12.181 -0.1637  0.1480  0.1274
 2779SOL     OW19798   0.411   2.278   6.101  0.4464 -0.0494 -0.5610
 2779SOL    HW119799   0.498   2.299   6.137  1.2945  0.5926 -3.0121
 2779SOL    HW219800   0.371   2.228   6.172 -0.1231  0.5046 -0.4872
 2780SOL     OW19801   1.546   4.641   0.296  0.2892 -0.2401 -0.1557
 2780SOL    HW119802   1.533   4.547   0.282 -2.0745  0.2983 -1.6241
 2780SOL    HW219803   1.459   4.675   0.277  0.2864  0.2285  0.7192
 2781SOL     OW19804   3.109   0.901   4.892  0.2545  0.0442 -0.8464
 2781SOL    HW119805   3.020   0.896   4.857  0.2515 -1.7580 -0.5919
 2781SOL    HW219806   3.149   0.876   4.808 -0.9578 -0.6852 -1.1984
 2782SOL     OW19807   2.470   3.072  16.591 -0.2199 -0.4685  0.3377
 2782SOL    HW119808   2.453   3.136  16.522 -0.5689 -0.0543  0.8057
 2782SOL    HW219809   2.478   3.131  16.666  0.1823  2.1499 -1.7514
 2783SOL     OW19810   0.691   0.698   6.871 -0.5173 -0.0872  0.0809
 2783SOL    HW119811   0.624   0.704   6.939  0.8732  0.2185  1.4349
 2783SOL    HW219812   0.692   0.606   6.848  3.4328 -0.2538  0.9210
 2784SOL     OW19813   2.352   2.169   5.663  0.4472 -0.0932  0.2511
 2784SOL    HW119814   2.302   2.126   5.732  0.2743  0.6593  0.5894
 2784SOL    HW219815   2.330   2.109   5.592  0.0044  0.6991 -0.2838
 2785SOL     OW19816   4.224   4.569  13.579  0.0465 -0.0354 -0.7789
 2785SOL    HW119817   4.191   4.480  13.594 -1.8410  0.4272 -2.1167
 2785SOL    HW219818   4.318   4.568  13.595 -0.1890  0.5276  0.6717
 2786SOL     OW19819   4.257   0.337   3.207 -0.2168 -0.0037 -0.4797
 2786SOL    HW119820   4.248   0.421   3.252  0.7570  0.2713 -0.8126
 2786SOL    HW219821   4.276   0.286   3.285  0.1549  0.9056  0.0273
 2787SOL     OW19822   4.148   4.391   4.217  0.2183  0.7117  1.0710
 2787SOL    HW119823   4.109   4.384   4.130  0.7877 -0.7414  0.9292
 2787SOL    HW219824   4.091   4.335   4.270 -1.9304  1.0697 -0.8615
 2788SOL     OW19825   0.103   1.959   4.889  0.6246  0.2171  0.0312
 2788SOL    HW119826   0.033   1.901   4.921  0.0385  1.3239  0.7650
 2788SOL    HW219827   0.099   1.940   4.795 -0.8034  0.8900 -0.0557
 2789SOL     OW19828   4.456   0.994   2.339 -0.4399 -0.1405  0.0533
 2789SOL    HW119829   4.523   1.020   2.402 -0.2502 -0.1422 -0.1485
 2789SOL    HW219830   4.502   0.991   2.255  2.2361  5.0300  1.3229
 2790SOL     OW19831   4.275   1.406   6.510 -0.1031  0.3050 -0.3735
 2790SOL    HW119832   4.253   1.314   6.497  2.4172 -0.5272  1.2999
 2790SOL    HW219833   4.282   1.430   6.418  0.4229  0.7622 -0.2156
 2791SOL     OW19834   2.361   3.019   4.203 -0.1730  0.2165  0.6436
 2791SOL    HW119835   2.298   2.953   4.232 -0.0028 -1.2094 -2.2189
 2791SOL    HW219836   2.416   3.031   4.280 -0.4700 -0.5072  0.9615
 2792SOL     OW19837   4.362   2.668   3.749 -0.5646 -0.6399  0.2728
 2792SOL    HW119838   4.406   2.631   3.672  0.0457 -2.0742  1.3011
 2792SOL    HW219839   4.327   2.750   3.713  1.9289  1.7197  3.1672
 2793SOL     OW19840   3.888   0.903   0.158  0.7725 -0.3318 -0.0954
 2793SOL    HW119841   3.813   0.884   0.213  0.0940 -0.4823 -1.0620
 2793SOL    HW219842   3.943   0.963   0.209 -1.6529  2.4536 -0.7709
 2794SOL     OW19843   1.599   1.310  14.996  0.4506 -0.1428  0.3151
 2794SOL    HW119844   1.529   1.359  14.953  0.6039  1.9056  2.3988
 2794SOL    HW219845   1.568   1.226  14.963  1.6625 -1.4929  2.6161
 2795SOL     OW19846   3.361   1.195   8.734 -0.0297 -0.0524  0.0714
 2795SOL    HW119847   3.442   1.189   8.785 -0.7283  1.7299  1.3976
 2795SOL    HW219848   3.303   1.210   8.808  3.0028  3.0229  1.8209
 2796SOL     OW19849   0.876   2.457   7.070  0.1017  0.1348 -0.0287
 2796SOL    HW119850   0.835   2.538   7.100 -0.7338 -0.0316 -0.6951
 2796SOL    HW219851   0.818   2.426   7.000 -2.1352  0.6520  1.6318
 2797SOL     OW19852   1.133   3.034   8.345  0.1380  0.2700  0.3578
 2797SOL    HW119853   1.044   3.064   8.323  0.4118  1.7567  1.2835
 2797SOL    HW219854   1.129   2.947   8.307 -1.1395  0.7084 -0.5030
 2798SOL     OW19855   3.563   1.693   7.363 -0.0136  0.6202  0.2210
 2798SOL    HW119856   3.610   1.624   7.410  0.5608  1.6130  1.1271
 2798SOL    HW219857   3.545   1.755   7.434 -1.0883  1.1571 -0.5229
 2799SOL     OW19858   2.000   4.140   6.170 -0.5408 -0.6955 -0.2073
 2799SOL    HW119859   2.028   4.226   6.139 -2.1685  0.4507  1.4625
 2799SOL    HW219860   1.989   4.162   6.263  1.1221  2.1868 -0.7012
 2800SOL     OW19861   4.278   4.231   8.916  0.2682  0.3451 -0.7926
 2800SOL    HW119862   4.205   4.234   8.854 -1.5623  1.4033  1.4193
 2800SOL    HW219863   4.254   4.308   8.967  1.2558  1.0457 -1.3948
 2801SOL     OW19864   3.213   3.444  12.687  0.0848  0.0232 -0.9104
 2801SOL    HW119865   3.288   3.388  12.705 -0.3368  0.0414  0.9252
 2801SOL    HW219866   3.221   3.463  12.593 -0.4921 -0.4345 -1.0502
 2802SOL     OW19867   3.038   4.390  15.494  0.1061  0.1228  0.1484
 2802SOL    HW119868   2.952   4.355  15.471  0.4543 -0.4189 -0.3103
 2802SOL    HW219869   3.060   4.329  15.564 -0.1726 -1.3887 -1.1051
 2803SOL     OW19870   1.489   3.712  14.042 -0.3395 -0.0998  0.1894
 2803SOL    HW119871   1.509   3.632  14.091  0.0449  0.0798  0.3193
 2803SOL    HW219872   1.516   3.685  13.954  0.7094 -0.4395  0.6193
 2804SOL     OW19873   2.577   4.133   1.696  0.9076  0.1555 -0.1461
 2804SOL    HW119874   2.668   4.123   1.668  1.1744  1.6602  0.1900
 2804SOL    HW219875   2.537   4.048   1.675 -0.5732  0.5752  0.9902
 2805SOL     OW19876   0.730   1.095  15.552 -0.0993 -0.0594 -0.1810
 2805SOL    HW119877   0.731   1.124  15.643  3.0104 -3.3604  0.8128
 2805SOL    HW219878   0.731   1.001  15.569  0.3203 -0.1647 -0.8080
 2806SOL     OW19879   2.352   2.993   0.622  0.3795  0.0914 -0.0870
 2806SOL    HW119880   2.417   2.938   0.665  0.2321  0.3261  0.4419
 2806SOL    HW219881   2.283   2.991   0.689 -0.3690  0.7868 -0.8279
 2807SOL     OW19882   3.720   4.301   4.303 -0.0700  0.0329  0.7473
 2807SOL    HW119883   3.673   4.343   4.230  1.5998 -0.7752 -0.7970
 2807SOL    HW219884   3.674   4.349   4.372  0.2174 -0.4956  1.2973
 2808SOL     OW19885   0.875   1.634  11.627 -0.0602 -0.0530  0.7063
 2808SOL    HW119886   0.858   1.712  11.681  0.3964 -0.0173  0.7984
 2808SOL    HW219887   0.934   1.679  11.567 -1.6843 -0.2224 -1.0220
 2809SOL     OW19888   3.101   0.418   0.121  0.3468  0.3404 -0.0816
 2809SOL    HW119889   3.150   0.429   0.040 -0.0781 -0.2769 -0.4273
 2809SOL    HW219890   3.017   0.381   0.090 -0.8408  0.8243  2.5716
 2810SOL     OW19891   1.951   4.513   8.783 -0.2027 -1.1934  0.2387
 2810SOL    HW119892   1.972   4.589   8.838  1.4802  0.0052 -2.0449
 2810SOL    HW219893   1.922   4.449   8.848  0.5515 -0.7737  0.9936
 2811SOL     OW19894   0.913   4.308   3.874  0.0728  0.0565 -0.6716
 2811SOL    HW119895   0.856   4.286   3.800 -1.0635  0.2676  0.1612
 2811SOL    HW219896   0.991   4.264   3.839  0.3653 -0.2602  0.3800
 2812SOL     OW19897   4.338   0.457   5.291  0.2011  0.8639  0.5010
 2812SOL    HW119898   4.245   0.449   5.271  0.9406  0.0507 -2.5935
 2812SOL    HW219899   4.319   0.450   5.384  0.1275 -0.9815  0.3357
 2813SOL     OW19900   2.394   0.302   2.732 -0.4876 -0.0930 -0.3906
 2813SOL    HW119901   2.385   0.214   2.697 -1.5698 -0.2371  0.2479
 2813SOL    HW219902   2.311   0.333   2.769 -2.7406 -0.7345 -4.9667
 2814SOL     OW19903   3.514   3.856  12.123  0.3596  0.3961 -0.8135
 2814SOL    HW119904   3.448   3.904  12.173 -0.5083 -0.2647 -1.3201
 2814SOL    HW219905   3.553   3.799  12.189  1.5528 -0.0170 -1.8938
 2815SOL     OW19906   2.235   0.514  17.541 -0.3151 -0.0653 -0.1027
 2815SOL    HW119907   2.236   0.460  17.462 -0.5989  0.8210 -0.7103
 2815SOL    HW219908   2.195   0.594  17.506  0.0779 -0.3366 -1.1802
 2816SOL     OW19909   4.668   3.972   2.035  0.1507 -0.0826  0.0861
 2816SOL    HW119910   0.029   3.995   2.069 -0.0416  1.4457 -0.4236
 2816SOL    HW219911   4.615   4.024   2.096  1.0723 -1.3639  1.9966
 2817SOL     OW19912   0.527   3.986   5.416  0.1746 -0.2901  0.1388
 2817SOL    HW119913   0.519   3.984   5.321 -5.5393  2.6510  0.5138
 2817SOL    HW219914   0.436   4.005   5.440  0.6208 -0.1583  1.7472
 2818SOL     OW19915   0.769   2.973   2.806 -1.0411  0.0924  0.5527
 2818SOL    HW119916   0.689   2.985   2.857 -2.1514 -0.4741 -1.0572
 2818SOL    HW219917   0.827   3.025   2.862  3.4857 -1.9762 -2.2273
 2819SOL     OW19918   1.107   2.879   7.618 -0.7064 -0.3310 -0.1981
 2819SOL    HW119919   1.055   2.959   7.610 -1.8550 -0.9047  1.5106
 2819SOL    HW219920   1.103   2.863   7.712 -1.5494 -2.5227 -0.6289
 2820SOL     OW19921   4.114   1.333   9.540 -0.0838  0.3998 -0.8346
 2820SOL    HW119922   4.067   1.288   9.470  0.0482 -0.2635 -0.4983
 2820SOL    HW219923   4.174   1.265   9.571 -0.3864  0.2032 -0.6880
 2821SOL     OW19924   4.446   2.127   3.309  0.2911  0.5777 -0.4386
 2821SOL    HW119925   4.534   2.102   3.281  0.2511 -0.6830  0.6106
 2821SOL    HW219926   4.400   2.045   3.292  2.8459 -0.7634 -0.7722
 2822SOL     OW19927   4.446   1.002   6.632 -0.2066 -0.2282  0.1566
 2822SOL    HW119928   4.448   1.008   6.727  1.1361 -0.9517  0.1696
 2822SOL    HW219929   4.509   0.933   6.612 -0.0298 -0.1002  0.2665
 2823SOL     OW19930   3.907   2.410   6.973  0.3364 -0.0549 -0.3206
 2823SOL    HW119931   3.849   2.413   6.897  0.0253  0.0245 -0.0782
 2823SOL    HW219932   3.990   2.414   6.925 -0.5730  2.1198 -1.7098
 2824SOL     OW19933   0.707   0.953   0.077  0.3150 -0.0789  0.4607
 2824SOL    HW119934   0.620   0.965   0.039  0.5496 -2.2500 -0.7301
 2824SOL    HW219935   0.741   0.873   0.037 -1.2899 -1.4034  1.7678
 2825SOL     OW19936   2.416   1.375   0.820 -0.3875 -0.0812 -0.5361
 2825SOL    HW119937   2.459   1.299   0.859  1.2734  1.4089  0.5113
 2825SOL    HW219938   2.335   1.329   0.798 -2.2654  2.0490  1.9188
 2826SOL     OW19939   3.368   4.142   6.988  0.4996  0.0531  0.1544
 2826SOL    HW119940   3.332   4.225   7.018 -1.7909 -0.8865 -0.0343
 2826SOL    HW219941   3.295   4.091   7.022  0.0310 -0.1409 -1.1747
 2827SOL     OW19942   4.498   0.877   4.721  0.3672  0.1675 -0.3440
 2827SOL    HW119943   4.462   0.904   4.805 -0.8642  1.7313 -1.3674
 2827SOL    HW219944   4.577   0.931   4.722  0.7425 -0.4089  1.4979
 2828SOL     OW19945   0.720   1.939   6.021  0.6693 -0.2886 -1.1992
 2828SOL    HW119946   0.779   2.011   5.998  0.2839  0.4267  0.0500
 2828SOL    HW219947   0.639   1.990   6.009  1.0312  1.4244  3.7278
 2829SOL     OW19948   3.889   1.443   6.802  0.7000 -0.6754  0.0627
 2829SOL    HW119949   3.969   1.477   6.763 -0.4169  2.2570  0.3397
 2829SOL    HW219950   3.885   1.357   6.760 -0.2564 -0.0212 -1.1731
 2830SOL     OW19951   3.878   3.556   3.673 -0.1607  0.1052  0.5350
 2830SOL    HW119952   3.862   3.649   3.688 -0.6199  0.0938  0.1108
 2830SOL    HW219953   3.848   3.546   3.582 -0.3802  2.8448  0.2857
 2831SOL     OW19954   0.437   3.064   5.250  0.0959  0.1633 -0.0180
 2831SOL    HW119955   0.409   3.120   5.178  0.8871 -2.1490 -2.1022
 2831SOL    HW219956   0.477   3.130   5.308 -2.0949  1.8685 -0.4471
 2832SOL     OW19957   2.164   0.646   0.503  0.2941  0.1400  0.4477
 2832SOL    HW119958   2.095   0.627   0.566 -2.0357  1.9254 -1.5627
 2832SOL    HW219959   2.150   0.737   0.478  2.2945  0.0943 -0.8547
 2833SOL     OW19960   0.419   2.469   1.925 -0.6401 -0.0549 -0.4216
 2833SOL    HW119961   0.380   2.556   1.916  1.3852  0.9110  0.0790
 2833SOL    HW219962   0.467   2.469   1.842  0.3792  0.3465  0.1584
 2834SOL     OW19963   2.507   3.825   0.902  0.0492  0.5631  0.4171
 2834SOL    HW119964   2.517   3.920   0.894  0.5056  0.5106  0.3627
 2834SOL    HW219965   2.563   3.809   0.977  1.3137  0.1773 -0.6031
 2835SOL     OW19966   1.366   1.011   5.683 -0.7719  0.9229  0.2316
 2835SOL    HW119967   1.419   1.068   5.627  0.9664 -1.8041 -0.9282
 2835SOL    HW219968   1.428   0.959   5.735 -1.4572  1.9103  1.9895
 2836SOL     OW19969   0.915   4.139   7.801  0.1630 -0.2385  0.1339
 2836SOL    HW119970   0.858   4.177   7.735 -0.5182 -0.9798  0.2874
 2836SOL    HW219971   0.977   4.101   7.739 -1.3691 -2.2496 -0.1703
 2837SOL     OW19972   0.219   0.321   9.562 -0.5072  0.0810  0.3131
 2837SOL    HW119973   0.149   0.358   9.509  1.8450  1.5393 -1.7666
 2837SOL    HW219974   0.253   0.248   9.510  1.8103  1.7543 -0.5529
 2838SOL     OW19975   2.157   4.358   9.974 -0.6521  0.1556 -0.2042
 2838SOL    HW119976   2.124   4.361  10.064  0.8510  3.4916  0.2419
 2838SOL    HW219977   2.106   4.286   9.938  0.0092 -0.4064 -0.0196
 2839SOL     OW19978   4.592   3.421   3.348 -0.3139  0.1797 -0.3458
 2839SOL    HW119979   4.666   3.447   3.293  0.9843  0.3408  1.4745
 2839SOL    HW219980   4.627   3.334   3.368 -1.2788 -0.0311  0.4200
 2840SOL     OW19981   0.035   2.896  12.143  0.0347  0.4103 -0.5622
 2840SOL    HW119982   0.077   2.952  12.209 -0.8592 -0.3287  0.6378
 2840SOL    HW219983   4.700   2.839  12.189 -1.9127  3.6213  0.8377
 2841SOL     OW19984   1.972   4.723   6.515 -0.5740 -0.2373 -0.2910
 2841SOL    HW119985   1.941   0.087   6.508  0.2402  0.1839  1.4941
 2841SOL    HW219986   1.930   4.704   6.599 -1.5287  1.1129 -0.4468
 2842SOL     OW19987   1.985   4.696   0.285  0.1523 -0.7283 -0.1163
 2842SOL    HW119988   2.059   0.025   0.311  0.3639 -1.3564  0.5838
 2842SOL    HW219989   1.954   0.009   0.203 -0.7349  2.0454  1.5680
 2843SOL     OW19990   1.961   2.110   4.434  0.0227 -0.0248  0.1804
 2843SOL    HW119991   1.882   2.059   4.414 -0.1731  0.6310 -0.7221
 2843SOL    HW219992   1.926   2.151   4.513 -0.4227  0.0275 -0.0437
 2844SOL     OW19993   0.171   2.798   3.830 -0.0973  0.5001 -0.6131
 2844SOL    HW119994   0.251   2.799   3.883 -0.8996  2.4079  0.5762
 2844SOL    HW219995   0.198   2.844   3.750  0.6375  0.6971 -0.2564
 2845SOL     OW19996   3.162   3.719   0.597 -0.2137 -0.6289  0.3730
 2845SOL    HW119997   3.081   3.732   0.647 -0.8400  1.1182 -1.1056
 2845SOL    HW219998   3.135   3.774   0.523 -4.0708  0.6130  2.6931
 2846SOL     OW19999   1.827   4.303   7.059 -0.1024  0.3507  0.1893
 2846SOL    HW120000   1.800   4.269   6.974  0.1966  0.9647 -0.1504
 2846SOL    HW220001   1.915   4.265   7.053 -0.7317 -0.9901 -0.5231
 2847SOL     OW20002   4.572   2.896   4.486  0.0430 -0.5261 -0.0218
 2847SOL    HW120003   4.536   2.944   4.411 -2.7242 -3.2165 -0.3871
 2847SOL    HW220004   4.591   2.806   4.459  0.1503 -1.1121  2.0118
 2848SOL     OW20005   0.059   2.431   9.014 -0.6303  0.1856  0.0634
 2848SOL    HW120006   4.696   2.461   8.997 -0.4579  0.4698 -0.3466
 2848SOL    HW220007   0.091   2.485   9.086 -0.4689 -0.4700  0.4869
 2849SOL     OW20008   3.351   2.903  11.948 -0.9532 -0.6595 -0.6715
 2849SOL    HW120009   3.267   2.875  11.986 -2.2934  0.8758 -2.4944
 2849SOL    HW220010   3.395   2.911  12.033 -3.0544  0.8899  0.2620
 2850SOL     OW20011   1.820   3.748   1.854  0.6381  0.3342  0.0392
 2850SOL    HW120012   1.733   3.720   1.824 -0.8889  2.3580  2.5628
 2850SOL    HW220013   1.818   3.716   1.944 -1.4039  2.8023  0.8633
 2851SOL     OW20014   4.446   3.433   0.648  0.2815  0.6533 -0.2339
 2851SOL    HW120015   4.498   3.395   0.577  1.5834 -0.1458  1.1428
 2851SOL    HW220016   4.394   3.499   0.603  2.2996  1.9527 -0.6741
 2852SOL     OW20017   1.812   2.191   8.086 -0.0324  0.3562 -0.3001
 2852SOL    HW120018   1.783   2.107   8.050  0.6779  0.5530 -1.3430
 2852SOL    HW220019   1.862   2.222   8.011 -1.1071  2.0171 -0.3279
 2853SOL     OW20020   1.926   0.952   8.648 -0.3029  0.8411  0.0578
 2853SOL    HW120021   1.903   0.978   8.737  3.1570 -1.1183  1.5047
 2853SOL    HW220022   1.844   0.969   8.601 -0.6279  0.8268  0.6284
 2854SOL     OW20023   2.031   3.545   4.471  0.0245 -0.0306 -0.6627
 2854SOL    HW120024   1.946   3.544   4.427 -1.4545 -1.8908  2.1762
 2854SOL    HW220025   1.996   3.537   4.560  2.5758 -0.4884  0.2989
 2855SOL     OW20026   0.745   0.708   5.275 -0.4085  0.0289 -0.2852
 2855SOL    HW120027   0.801   0.749   5.209 -0.2469  0.2530 -0.0117
 2855SOL    HW220028   0.803   0.711   5.352 -0.4858 -2.9682 -0.0962
 2856SOL     OW20029   3.252   2.813  10.532 -0.2730 -0.1630 -0.1418
 2856SOL    HW120030   3.313   2.881  10.504 -0.8573 -0.0792 -1.2206
 2856SOL    HW220031   3.167   2.824  10.491 -0.3417 -1.8293 -0.4589
 2857SOL     OW20032   1.256   3.213   5.985 -0.4402 -0.2410 -0.4262
 2857SOL    HW120033   1.186   3.237   6.046 -0.1318  1.1613 -0.6369
 2857SOL    HW220034   1.211   3.134   5.954 -1.5113  1.4036 -3.0604
 2858SOL     OW20035   4.527   4.507   3.932 -0.5468 -0.1876 -0.1065
 2858SOL    HW120036   4.560   4.514   4.022  1.0405 -0.9754 -0.6256
 2858SOL    HW220037   4.515   4.412   3.929 -0.2140 -0.1431 -3.0937
 2859SOL     OW20038   2.165   4.407   3.251  0.1406 -0.7341  0.3551
 2859SOL    HW120039   2.079   4.370   3.236  0.2398 -0.3302 -1.2330
 2859SOL    HW220040   2.180   4.467   3.178 -0.4535 -0.9914  0.0245
 2860SOL     OW20041   4.668   3.329   3.014 -0.0822 -0.1485  0.7389
 2860SOL    HW120042   0.015   3.389   3.026 -0.6897  0.8075 -0.3873
 2860SOL    HW220043   4.594   3.389   3.014 -0.0496 -0.1086  0.7968
 2861SOL     OW20044   1.745   1.817   2.723  0.1823 -0.3363  0.4766
 2861SOL    HW120045   1.838   1.816   2.743  0.0321 -0.2471  1.1918
 2861SOL    HW220046   1.725   1.733   2.682  0.3493 -0.8153  1.3750
 2862SOL     OW20047   3.200   3.602   4.467  0.0702  0.3226  0.3065
 2862SOL    HW120048   3.157   3.679   4.504 -0.9693 -0.1322  0.0317
 2862SOL    HW220049   3.246   3.642   4.394  2.1441  0.5606  1.7262
 2863SOL     OW20050   0.671   1.263   2.924  0.3573  0.0315  0.3893
 2863SOL    HW120051   0.658   1.310   2.841 -1.6851  1.9303  1.7944
 2863SOL    HW220052   0.656   1.327   2.993  2.4121  1.0779 -0.1353
 2864SOL     OW20053   2.762   4.592   7.027  0.0176 -0.1810 -0.6797
 2864SOL    HW120054   2.792   4.662   6.968 -1.7658  2.7744  1.9518
 2864SOL    HW220055   2.796   4.611   7.115  2.0842 -0.4459 -1.4170
 2865SOL     OW20056   4.636   4.508   5.945 -0.3752 -0.2923 -0.6847
 2865SOL    HW120057   4.655   4.415   5.933  1.1669  0.0705 -0.9860
 2865SOL    HW220058   4.650   4.534   5.853 -1.8203 -0.6970 -1.0216
 2866SOL     OW20059   3.909   2.485   3.244 -0.6894  0.1244 -0.0122
 2866SOL    HW120060   3.930   2.463   3.153  0.2830 -1.0013  0.4867
 2866SOL    HW220061   3.985   2.454   3.292 -1.8567  1.5260  2.7299
 2867SOL     OW20062   1.772   3.487  13.994  0.3175 -1.0259  0.1070
 2867SOL    HW120063   1.724   3.543  13.932 -1.3167 -2.6273 -0.0680
 2867SOL    HW220064   1.820   3.444  13.923  1.3357  2.1232 -1.1186
 2868SOL     OW20065   0.079   0.313   7.037  0.3351 -0.0504  0.0498
 2868SOL    HW120066   0.026   0.388   7.064  1.7929  1.2868 -0.8026
 2868SOL    HW220067   0.019   0.244   7.063  0.7747  0.0435  1.3066
 2869SOL     OW20068   1.411   3.434   8.204 -0.0342  0.0154  0.2588
 2869SOL    HW120069   1.413   3.365   8.137  2.0770  0.7485 -0.4152
 2869SOL    HW220070   1.339   3.402   8.258  1.3661 -1.7566  1.0714
 2870SOL     OW20071   0.437   2.090  16.103  0.2517 -0.0784  0.3381
 2870SOL    HW120072   0.425   2.140  16.023 -0.0176 -1.7724 -0.6708
 2870SOL    HW220073   0.355   2.041  16.107  0.9812 -1.3771 -1.2733
 2871SOL     OW20074   2.228   3.311  12.966  0.0715 -0.0602  0.7607
 2871SOL    HW120075   2.298   3.363  13.006  0.6090 -0.5678  0.4909
 2871SOL    HW220076   2.157   3.337  13.024  0.5361  2.0097  0.3752
 2872SOL     OW20077   4.375   3.504   4.134 -0.4413  0.1186 -0.6681
 2872SOL    HW120078   4.403   3.429   4.081 -1.3212 -1.0557  0.5355
 2872SOL    HW220079   4.325   3.551   4.067 -0.7886 -0.3826 -0.7608
 2873SOL     OW20080   1.054   2.735  10.426 -0.0768  0.4929 -0.4781
 2873SOL    HW120081   1.136   2.784  10.441  0.6280 -0.2542 -1.9698
 2873SOL    HW220082   1.082   2.651  10.391 -2.0116  0.2149 -1.3471
 2874SOL     OW20083   3.422   3.619   9.080  0.0065 -1.1098 -0.0407
 2874SOL    HW120084   3.328   3.607   9.062 -0.4637  0.6843  1.2191
 2874SOL    HW220085   3.439   3.557   9.150  2.5934 -0.4754 -0.1139
 2875SOL     OW20086   4.348   4.029   0.818  0.2239  0.7804 -0.2817
 2875SOL    HW120087   4.258   4.025   0.849  0.3508  1.4536  0.1788
 2875SOL    HW220088   4.332   4.061   0.729  0.3134  1.3792 -0.0806
 2876SOL     OW20089   3.605   2.865   5.416  0.1792 -0.0118  0.5947
 2876SOL    HW120090   3.521   2.894   5.453  0.1544 -2.0933  2.1733
 2876SOL    HW220091   3.581   2.892   5.327  0.8103 -2.1492 -0.2176
 2877SOL     OW20092   0.725   2.972  11.423 -0.0404 -0.3883 -0.3478
 2877SOL    HW120093   0.730   2.896  11.480 -1.6789  1.3834  2.1727
 2877SOL    HW220094   0.817   2.985  11.403 -0.3371  2.1614 -0.0179
 2878SOL     OW20095   1.674   0.436  14.731  0.1273  0.6110 -0.4408
 2878SOL    HW120096   1.763   0.444  14.697 -0.0073  0.6365 -0.7936
 2878SOL    HW220097   1.648   0.344  14.733  0.7796  0.4331 -0.2952
 2879SOL     OW20098   1.683   1.562  14.920 -0.7659  0.6840  0.1723
 2879SOL    HW120099   1.733   1.481  14.912  0.5862  1.6279 -0.9467
 2879SOL    HW220100   1.599   1.527  14.951 -0.7044 -0.5662 -1.0230
 2880SOL     OW20101   2.481   0.844   4.214 -0.1326 -0.1928  0.1376
 2880SOL    HW120102   2.425   0.918   4.190  1.1968  0.2440 -1.6239
 2880SOL    HW220103   2.423   0.772   4.192  0.7295 -0.7771 -0.2331
 2881SOL     OW20104   3.930   0.121   4.965 -0.4460  0.7438 -0.3476
 2881SOL    HW120105   3.951   0.168   4.885 -1.0814  0.1849 -0.8312
 2881SOL    HW220106   3.983   0.178   5.022  0.1540  0.0324 -0.1934
 2882SOL     OW20107   2.257   0.960   8.807  0.2691  0.3987 -0.4381
 2882SOL    HW120108   2.260   1.049   8.841 -1.0244  0.0261  0.6755
 2882SOL    HW220109   2.300   0.972   8.722 -0.0599 -1.5459 -0.8878
 2883SOL     OW20110   0.326   1.458   2.961 -0.0553  0.2240 -0.2586
 2883SOL    HW120111   0.377   1.506   3.026 -2.0561  0.1595  1.3620
 2883SOL    HW220112   0.266   1.526   2.933  0.5140  2.3897  3.7632
 2884SOL     OW20113   3.113   4.249   9.393 -0.2710 -0.1479 -0.4401
 2884SOL    HW120114   3.056   4.193   9.444 -0.5893  1.5420  1.0590
 2884SOL    HW220115   3.092   4.339   9.416 -0.7557 -0.0756 -1.1651
 2885SOL     OW20116   4.220   0.731   9.591  1.0668  0.2100  0.3525
 2885SOL    HW120117   4.277   0.654   9.589  2.0834  0.9566  0.8208
 2885SOL    HW220118   4.245   0.782   9.668  0.8386 -2.9326  2.4781
 2886SOL     OW20119   1.621   3.279  17.665 -0.3918  0.0177 -0.0980
 2886SOL    HW120120   1.574   3.329   0.026 -0.1360  1.6061 -1.0885
 2886SOL    HW220121   1.548   3.239  17.618 -0.3722  0.8102 -0.7952
 2887SOL     OW20122   0.112   3.347   9.919  0.3030  0.5764  0.0723
 2887SOL    HW120123   0.179   3.281   9.936  2.2182  2.5369  0.2308
 2887SOL    HW220124   0.130   3.417   9.982  0.4965  0.3827  0.2339
 2888SOL     OW20125   1.896   4.279  17.084 -0.1793  0.3880 -0.1006
 2888SOL    HW120126   1.926   4.191  17.109  0.8837  0.1709 -2.2004
 2888SOL    HW220127   1.924   4.278  16.993 -2.4847  0.3216 -0.8074
 2889SOL     OW20128   2.986   0.374   0.892 -0.2711 -0.3866  0.0151
 2889SOL    HW120129   3.018   0.428   0.964 -0.8382  2.0964 -1.6021
 2889SOL    HW220130   3.033   0.291   0.901 -2.7623 -1.7280  0.7827
 2890SOL     OW20131   1.018   1.811   4.990 -0.4052  0.2467 -0.1680
 2890SOL    HW120132   1.084   1.750   5.023 -0.3206 -0.7946 -2.2352
 2890SOL    HW220133   1.010   1.793   4.896 -1.4832  0.9185 -0.2055
 2891SOL     OW20134   1.046   0.745  12.568 -0.1080 -0.0844 -0.2789
 2891SOL    HW120135   0.990   0.808  12.613 -2.2373 -1.5945 -0.7820
 2891SOL    HW220136   1.089   0.692  12.635 -0.3680  1.3093  0.9936
 2892SOL     OW20137   0.268   1.777   6.968  0.1951 -0.2324  0.6913
 2892SOL    HW120138   0.236   1.791   6.879  1.2406 -1.5646  0.1015
 2892SOL    HW220139   0.232   1.854   7.011  1.1593  1.3252 -1.2832
 2893SOL     OW20140   4.102   4.241  11.410  0.2611 -0.1522 -0.5982
 2893SOL    HW120141   4.105   4.192  11.328 -0.4140 -1.4776  0.1571
 2893SOL    HW220142   4.035   4.306  11.385 -0.3545 -0.1529  1.0309
 2894SOL     OW20143   0.067   1.459   4.723  0.0930 -0.0579  0.1358
 2894SOL    HW120144   0.051   1.477   4.630 -4.2503  1.1939  1.0963
 2894SOL    HW220145   0.155   1.495   4.732  0.7240 -0.7014 -3.4954
 2895SOL     OW20146   1.152   4.198   4.088  0.8757  0.5038  0.2001
 2895SOL    HW120147   1.166   4.147   4.168  2.0444  0.1396 -0.2390
 2895SOL    HW220148   1.154   4.128   4.022  2.7060 -0.3460  1.1707
 2896SOL     OW20149   3.833   3.040   3.043  1.0894 -0.2368  0.1203
 2896SOL    HW120150   3.890   2.964   3.033 -0.5391 -1.6509  1.5911
 2896SOL    HW220151   3.754   3.023   2.991  1.8867  1.0347 -1.4858
 2897SOL     OW20152   3.241   1.712  14.077  0.1110  0.3615  0.2489
 2897SOL    HW120153   3.332   1.693  14.054  0.5856  1.4535  1.2280
 2897SOL    HW220154   3.236   1.725  14.171 -2.6025 -1.6290  0.3841
 2898SOL     OW20155   2.352   1.979   5.127  0.0045  0.1729  0.2394
 2898SOL    HW120156   2.282   1.948   5.071 -1.4024  2.0895  0.9254
 2898SOL    HW220157   2.397   2.044   5.073  0.0508 -1.8997 -2.2091
 2899SOL     OW20158   0.117   3.200  15.266  0.3690  0.2832 -0.8239
 2899SOL    HW120159   0.049   3.268  15.269  0.4355  0.3837 -1.7469
 2899SOL    HW220160   0.069   3.132  15.314  0.7323 -0.0680 -0.9559
 2900SOL     OW20161   0.480   4.124   3.632  0.3401  0.0853  0.3764
 2900SOL    HW120162   0.408   4.089   3.684 -1.4109 -1.7643 -3.3056
 2900SOL    HW220163   0.546   4.054   3.642 -1.4233 -1.7795 -0.9548
 2901SOL     OW20164   1.479   3.219   8.012  0.6250  0.3394  0.1661
 2901SOL    HW120165   1.425   3.146   7.981  4.0055 -1.8801 -0.4398
 2901SOL    HW220166   1.566   3.194   7.981  0.4238  2.2269 -1.9440
 2902SOL     OW20167   2.477   1.608   4.797  0.1480  0.5095  0.0164
 2902SOL    HW120168   2.456   1.660   4.719  1.4093  1.3202  0.2099
 2902SOL    HW220169   2.516   1.526   4.767  0.5615  1.3396 -1.7568
 2903SOL     OW20170   4.161   1.871  11.533  0.6613 -0.1646 -0.1432
 2903SOL    HW120171   4.236   1.815  11.512  1.7961  1.5518 -0.7136
 2903SOL    HW220172   4.215   1.944  11.566  0.5681 -0.0672 -0.2050
 2904SOL     OW20173   0.059   1.992   6.270  0.2516 -0.2708  0.0289
 2904SOL    HW120174   0.136   2.046   6.288 -0.1433 -0.1894  1.4584
 2904SOL    HW220175   0.075   1.984   6.176 -0.2926  2.7120 -0.3180
 2905SOL     OW20176   2.702   3.790   7.014 -0.5868 -0.2431 -0.4681
 2905SOL    HW120177   2.746   3.872   7.035 -1.0293  0.5447 -2.5894
 2905SOL    HW220178   2.611   3.819   7.012 -0.0800  1.3767  1.3628
 2906SOL     OW20179   2.241   4.346   8.470 -0.3927 -0.1089  0.5817
 2906SOL    HW120180   2.177   4.412   8.496 -0.5488 -0.7624  1.8410
 2906SOL    HW220181   2.187   4.269   8.450  2.3375 -0.7037 -4.4904
 2907SOL     OW20182   3.553   0.956   9.318 -0.5509  0.0282  0.7421
 2907SOL    HW120183   3.498   0.995   9.386 -1.7295  0.3350 -0.3975
 2907SOL    HW220184   3.632   0.920   9.359 -1.5231 -2.2083  0.6383
 2908SOL     OW20185   1.855   1.895   3.192 -0.1943 -0.1776  0.3332
 2908SOL    HW120186   1.946   1.919   3.206  0.5063 -2.0620 -0.9316
 2908SOL    HW220187   1.845   1.848   3.275 -1.1571  0.0099  0.3193
 2909SOL     OW20188   2.094   2.520   3.245  0.6083 -0.0878 -0.0272
 2909SOL    HW120189   2.102   2.568   3.163 -2.0860 -0.8486 -0.7284
 2909SOL    HW220190   1.999   2.513   3.243  0.6263 -0.2358 -0.4443
 2910SOL     OW20191   0.615   4.290   6.286  0.5006  0.0466  0.2322
 2910SOL    HW120192   0.557   4.344   6.340 -0.5244 -1.0351  0.2193
 2910SOL    HW220193   0.626   4.209   6.336 -0.9406 -1.3195 -1.6665
 2911SOL     OW20194   0.348   3.941   2.127  0.2715  0.8160  0.5110
 2911SOL    HW120195   0.284   4.008   2.104  0.8142  0.9313 -0.6842
 2911SOL    HW220196   0.408   3.967   2.057  0.6669  0.7786  0.8366
 2912SOL     OW20197   1.402   1.790   6.746  1.0013 -0.1118 -1.0885
 2912SOL    HW120198   1.475   1.851   6.734  1.7619 -1.1567 -1.8039
 2912SOL    HW220199   1.392   1.737   6.667 -0.3890 -1.8924  0.2720
 2913SOL     OW20200   0.367   2.101   0.706 -0.2230 -0.2986  0.3779
 2913SOL    HW120201   0.387   2.110   0.612  2.1062  0.0611  0.8933
 2913SOL    HW220202   0.432   2.158   0.748 -0.5594  1.9656 -2.1519
 2914SOL     OW20203   3.202   0.440   2.335  0.0062  0.0657  0.5307
 2914SOL    HW120204   3.194   0.378   2.263  2.7820  2.7284 -2.0428
 2914SOL    HW220205   3.252   0.507   2.290 -2.8805  1.3974 -0.7162
 2915SOL     OW20206   3.857   2.381  10.540  0.5036  0.3369 -0.8070
 2915SOL    HW120207   3.763   2.391  10.549  0.4940 -0.5053  0.0201
 2915SOL    HW220208   3.885   2.296  10.576  1.2238  0.2794 -1.5056
 2916SOL     OW20209   3.411   1.860   5.594 -0.6071 -0.0190  0.0495
 2916SOL    HW120210   3.330   1.879   5.642 -1.1507 -1.1876 -0.4096
 2916SOL    HW220211   3.404   1.768   5.570  1.0939  0.7214 -3.2147
 2917SOL     OW20212   1.398   3.253   0.809  0.6725 -0.8038 -0.5051
 2917SOL    HW120213   1.381   3.321   0.744  0.5977 -3.2477 -3.0424
 2917SOL    HW220214   1.363   3.182   0.755  1.8232 -0.2778 -1.9293
 2918SOL     OW20215   3.250   3.518   6.610  0.2301  0.0970  0.3166
 2918SOL    HW120216   3.294   3.481   6.687 -0.7504  0.0022  0.8298
 2918SOL    HW220217   3.183   3.573   6.649 -0.8810 -0.5625 -0.6740
 2919SOL     OW20218   3.133   2.588   5.603  0.1304 -0.7354 -0.4460
 2919SOL    HW120219   3.189   2.512   5.619 -1.6443 -1.8087  0.6647
 2919SOL    HW220220   3.174   2.656   5.658 -0.6275  0.2969 -1.1560
 2920SOL     OW20221   4.459   2.934  13.422 -0.1312 -0.9353 -0.4131
 2920SOL    HW120222   4.399   2.897  13.487 -1.2399  0.7723 -0.4618
 2920SOL    HW220223   4.524   2.979  13.476  1.1330 -1.2872 -1.6449
 2921SOL     OW20224   3.763   2.247   4.650  0.3096 -0.1077 -0.0648
 2921SOL    HW120225   3.808   2.295   4.581  0.1732 -0.9024 -0.7078
 2921SOL    HW220226   3.740   2.314   4.714 -0.7167 -0.4528 -0.0600
 2922SOL     OW20227   0.121   3.581   4.366  0.3561 -0.4106  0.1042
 2922SOL    HW120228   0.073   3.524   4.425 -0.1490 -1.0050 -0.8826
 2922SOL    HW220229   0.145   3.659   4.417 -0.4377 -0.4875  0.5958
 2923SOL     OW20230   0.784   0.788  16.123 -0.2681 -0.2791 -0.2712
 2923SOL    HW120231   0.782   0.884  16.113  0.9260 -0.1975  0.2409
 2923SOL    HW220232   0.699   0.765  16.086 -0.5203 -1.1508  0.8605
 2924SOL     OW20233   3.618   2.516   7.524  0.2340 -0.0673 -0.0393
 2924SOL    HW120234   3.626   2.440   7.466 -3.0298 -0.4449 -0.0026
 2924SOL    HW220235   3.703   2.554   7.504  0.8428 -1.3462  0.0722
 2925SOL     OW20236   0.345   2.630   1.554 -0.4211  0.0980 -0.4138
 2925SOL    HW120237   0.314   2.548   1.515  0.9108 -1.3391  1.5490
 2925SOL    HW220238   0.263   2.677   1.544 -0.9621  0.0423  3.9333
 2926SOL     OW20239   0.929   3.981   6.221 -0.0028 -0.0721 -0.4381
 2926SOL    HW120240   0.963   4.027   6.143 -0.4118 -1.0111 -1.1710
 2926SOL    HW220241   1.005   3.985   6.279  0.5815 -2.4849 -1.0434
 2927SOL     OW20242   0.902   1.928  11.038 -0.4986 -0.4951  0.3315
 2927SOL    HW120243   0.895   2.023  11.033 -0.7961 -0.4551  1.4032
 2927SOL    HW220244   0.937   1.917  11.127 -2.6030  3.3741  1.6217
 2928SOL     OW20245   2.023   4.517   4.480  0.3600 -0.2706 -0.2354
 2928SOL    HW120246   1.931   4.517   4.453  0.4697 -1.9355 -0.5904
 2928SOL    HW220247   2.019   4.569   4.560  2.1192 -3.1273  1.7316
 2929SOL     OW20248   0.104   4.705  11.356  0.1867  0.0746 -0.2924
 2929SOL    HW120249   0.011   4.692  11.336  0.9140 -0.8627 -3.0212
 2929SOL    HW220250   0.108   4.696  11.451 -2.8725  2.0295  0.0275
 2930SOL     OW20251   3.840   4.357   2.260 -0.3209 -0.1165 -0.2881
 2930SOL    HW120252   3.785   4.292   2.217 -0.6488 -0.4047  0.5777
 2930SOL    HW220253   3.867   4.314   2.342  1.4671 -0.3633 -0.9958
 2931SOL     OW20254   0.465   3.029   2.869  0.1697  0.1222 -0.3837
 2931SOL    HW120255   0.499   3.118   2.879 -1.0700  0.2824  2.4076
 2931SOL    HW220256   0.461   3.032   2.774 -2.4588  2.2193 -0.2119
 2932SOL     OW20257   2.574   3.710  12.950 -0.7092  0.8064  0.4945
 2932SOL    HW120258   2.491   3.751  12.975  0.1458  2.8829 -0.1368
 2932SOL    HW220259   2.635   3.778  12.978  0.3902 -0.8096  2.0060
 2933SOL     OW20260   0.724   1.059   6.438  0.1507  0.6019  0.2492
 2933SOL    HW120261   0.757   1.002   6.508  1.7544 -1.0724 -1.8721
 2933SOL    HW220262   0.660   1.108   6.490 -1.5675 -1.6451  0.2209
 2934SOL     OW20263   0.838   0.807   8.071  0.6246 -0.1407  0.2654
 2934SOL    HW120264   0.768   0.754   8.110 -0.1428 -0.1612 -1.1484
 2934SOL    HW220265   0.790   0.861   8.008 -0.0479 -0.2396  0.6936
 2935SOL     OW20266   0.118   3.056   4.358 -0.0349 -0.1477  0.1725
 2935SOL    HW120267   0.025   3.077   4.349  0.0311  0.8737  1.9345
 2935SOL    HW220268   0.114   2.962   4.372 -0.8631 -0.2398 -0.6911
 2936SOL     OW20269   0.222   4.429   5.709 -0.4236  0.4358 -0.0687
 2936SOL    HW120270   0.273   4.407   5.631  1.5728  0.6141  1.1785
 2936SOL    HW220271   0.131   4.412   5.686 -0.5124 -0.0434  0.6211
 2937SOL     OW20272   0.821   1.960  10.058 -0.0390  0.1671  0.3613
 2937SOL    HW120273   0.758   1.999  10.119 -0.4027 -0.8834  0.6531
 2937SOL    HW220274   0.762   1.934   9.988  1.5851  1.0464 -1.3449
 2938SOL     OW20275   3.191   2.880  11.307  0.2487  0.0648 -0.2735
 2938SOL    HW120276   3.141   2.961  11.321  0.6552  0.3704 -0.6065
 2938SOL    HW220277   3.284   2.896  11.324  0.1402  0.7333 -0.2919
 2939SOL     OW20278   2.444   0.798   7.364 -0.1436  0.1692  0.2105
 2939SOL    HW120279   2.355   0.809   7.397 -0.1563 -0.1493  0.2801
 2939SOL    HW220280   2.477   0.735   7.427 -1.8152 -0.7436  0.1766
 2940SOL     OW20281   1.979   3.854   6.149 -0.1804 -0.1042 -0.2107
 2940SOL    HW120282   2.019   3.836   6.235 -0.0657  0.0760 -0.2252
 2940SOL    HW220283   1.987   3.949   6.159  2.2565 -0.1536 -1.5584
 2941SOL     OW20284   1.643   0.993  16.354  0.1071 -0.1470 -0.4267
 2941SOL    HW120285   1.584   1.062  16.385  0.4464  0.5727 -1.3749
 2941SOL    HW220286   1.692   1.034  16.283 -0.4168 -0.2227 -0.8285
 2942SOL     OW20287   1.000   2.607   3.977  0.0628 -0.8539  0.2162
 2942SOL    HW120288   0.914   2.650   3.977  0.6192  0.2628 -0.5986
 2942SOL    HW220289   0.980   2.538   4.041  0.9380 -2.0565 -0.7936
 2943SOL     OW20290   1.206   1.667   9.850  0.3010 -0.4523 -0.1983
 2943SOL    HW120291   1.114   1.647   9.870  0.9314 -2.5904  0.5961
 2943SOL    HW220292   1.217   1.632   9.761  1.4567 -0.2641 -0.1235
 2944SOL     OW20293   3.650   3.623   5.283  0.3885  0.2329 -0.0145
 2944SOL    HW120294   3.741   3.594   5.290 -0.1117 -1.6006 -1.1683
 2944SOL    HW220295   3.631   3.664   5.368 -1.9778 -0.7103 -0.0749
 2945SOL     OW20296   3.302   1.528  14.901  0.0449 -0.0589 -0.5377
 2945SOL    HW120297   3.222   1.527  14.848  1.2110  0.7698 -2.3044
 2945SOL    HW220298   3.369   1.565  14.844 -0.8568  2.3368 -0.0708
 2946SOL     OW20299   3.134   1.336   2.007  0.4743  0.3538 -0.0656
 2946SOL    HW120300   3.045   1.364   2.026  0.0439 -0.2267 -1.2715
 2946SOL    HW220301   3.167   1.373   2.089  1.3999 -1.5596  0.4240
 2947SOL     OW20302   3.878   4.448   7.797 -0.2888  0.1768  0.4091
 2947SOL    HW120303   3.965   4.486   7.782  0.6925 -0.6817  3.7171
 2947SOL    HW220304   3.902   4.359   7.825  0.0582  0.0849 -0.1787
 2948SOL     OW20305   1.136   0.815   2.473 -0.1439 -0.1390  0.3714
 2948SOL    HW120306   1.135   0.845   2.382  2.2254 -0.1783  0.3311
 2948SOL    HW220307   1.054   0.766   2.477  0.0266 -0.5571 -1.0408
 2949SOL     OW20308   3.673   1.261   1.377 -0.3949  0.2704 -0.2916
 2949SOL    HW120309   3.615   1.187   1.360  0.3324 -0.6351  1.2026
 2949SOL    HW220310   3.656   1.308   1.295 -0.4373 -1.1019 -1.0692
 2950SOL     OW20311   1.061   4.610   8.798 -0.1839 -0.3476 -0.1604
 2950SOL    HW120312   0.977   4.611   8.844 -0.3613 -3.0185 -0.4320
 2950SOL    HW220313   1.058   4.534   8.740  0.8308  2.2255 -3.5518
 2951SOL     OW20314   3.671   0.439   3.326 -0.0083  0.2688 -0.0060
 2951SOL    HW120315   3.766   0.428   3.317 -0.1172 -1.8695  1.5352
 2951SOL    HW220316   3.667   0.391   3.408  1.2378 -2.3205 -1.4500
 2952SOL     OW20317   1.416   2.300   7.819  0.1273 -0.2035  0.0732
 2952SOL    HW120318   1.380   2.226   7.867 -1.1936  0.5317  0.2301
 2952SOL    HW220319   1.477   2.260   7.758  1.3907  0.6226  0.7967
 2953SOL     OW20320   4.168   2.606   9.206 -0.8061 -0.4195 -0.7480
 2953SOL    HW120321   4.077   2.602   9.177 -0.2445  1.5829 -2.7553
 2953SOL    HW220322   4.187   2.512   9.203  0.2332 -0.1892 -1.1309
 2954SOL     OW20323   0.877   1.446   8.220  0.5225  0.1530 -0.5071
 2954SOL    HW120324   0.874   1.373   8.159 -0.2646  0.5913 -0.9828
 2954SOL    HW220325   0.971   1.464   8.233  0.1356  1.0625  1.0354
 2955SOL     OW20326   4.422   1.599   0.102  0.2682  0.1692  0.5785
 2955SOL    HW120327   4.444   1.654   0.177 -0.2689 -0.3666  1.1259
 2955SOL    HW220328   4.485   1.528   0.115 -1.3808 -1.4166 -0.2284
 2956SOL     OW20329   1.981   3.252  13.143 -0.3970  0.1113  0.3075
 2956SOL    HW120330   2.044   3.217  13.206  0.5730 -1.6714 -1.6417
 2956SOL    HW220331   1.982   3.337  13.188 -2.0190  0.0679  0.4412
 2957SOL     OW20332   0.302   2.743   9.693  0.2868  0.6555 -0.2169
 2957SOL    HW120333   0.309   2.747   9.788  2.5136  1.2079 -0.4167
 2957SOL    HW220334   0.269   2.831   9.675  0.1619  0.2831 -1.8274
 2958SOL     OW20335   0.645   1.987  10.285  0.2259  0.3122 -0.1570
 2958SOL    HW120336   0.552   1.978  10.308  0.0639 -0.5893 -1.1361
 2958SOL    HW220337   0.673   2.001  10.375 -1.7954  0.8091  0.3974
 2959SOL     OW20338   2.820   0.666   3.004 -0.1389  0.2814 -0.2040
 2959SOL    HW120339   2.764   0.607   3.054 -0.1630  1.0403  0.6501
 2959SOL    HW220340   2.773   0.745   3.029 -1.7126 -0.4832 -0.7553
 2960SOL     OW20341   4.438   2.686   9.385  1.0877  0.1250  0.1423
 2960SOL    HW120342   4.441   2.735   9.303  1.3020  0.8416  0.5857
 2960SOL    HW220343   4.530   2.690   9.412  1.3150 -1.0202 -0.4605
 2961SOL     OW20344   4.460   2.769   9.973  0.0089 -0.1557  0.2868
 2961SOL    HW120345   4.530   2.760  10.037 -0.7894 -0.1770  1.1604
 2961SOL    HW220346   4.405   2.694   9.996 -0.9010  0.3973 -0.0536
 2962SOL     OW20347   0.966   1.983   5.360 -0.4260  0.8891  0.0077
 2962SOL    HW120348   0.904   2.019   5.423 -0.8822  1.1874 -0.6063
 2962SOL    HW220349   0.917   1.907   5.328 -1.1497  1.3147  0.1042
 2963SOL     OW20350   0.691   3.938   3.666 -0.3832  0.4833 -0.1118
 2963SOL    HW120351   0.765   3.876   3.669 -1.3901 -0.7829 -1.3979
 2963SOL    HW220352   0.739   4.020   3.657  0.3383  0.2039  1.0979
 2964SOL     OW20353   1.705   3.970   6.546 -0.4497  0.6165  0.6011
 2964SOL    HW120354   1.684   3.881   6.517  0.8032  0.1858  1.0319
 2964SOL    HW220355   1.640   4.008   6.606 -0.9149  1.1841 -0.2589
 2965SOL     OW20356   1.559   1.101  13.090 -0.7311  0.3470 -0.2995
 2965SOL    HW120357   1.529   1.081  13.179  0.8312 -1.0007 -0.0574
 2965SOL    HW220358   1.545   1.195  13.079 -1.1522  0.1235 -1.6651
 2966SOL     OW20359   2.087   1.840   7.296  0.0975 -1.0233 -0.4788
 2966SOL    HW120360   2.140   1.876   7.225 -1.9433  1.0810 -0.9565
 2966SOL    HW220361   2.018   1.796   7.245 -1.3785  0.7730 -0.0471
 2967SOL     OW20362   2.165   3.913  12.386  0.4520 -0.3443  0.4476
 2967SOL    HW120363   2.070   3.908  12.396  0.4283 -0.1433  0.3010
 2967SOL    HW220364   2.187   3.848  12.453 -0.3622 -0.9014  0.1675
 2968SOL     OW20365   1.045   4.433   1.136  0.1909 -0.0676 -0.5053
 2968SOL    HW120366   0.987   4.390   1.074 -0.6343  0.8377 -0.3666
 2968SOL    HW220367   1.125   4.410   1.088 -0.3054 -0.8294 -0.9647
 2969SOL     OW20368   4.498   1.468   3.490  0.2778  0.0912  0.1480
 2969SOL    HW120369   4.558   1.406   3.448  0.7252  0.0226  0.8808
 2969SOL    HW220370   4.538   1.552   3.469  0.2318 -0.1525 -0.9114
 2970SOL     OW20371   3.682   2.117   0.648  0.6058 -0.1387 -0.0111
 2970SOL    HW120372   3.707   2.169   0.572  2.0941 -0.3859  0.3174
 2970SOL    HW220373   3.642   2.048   0.596  2.7766 -1.4515  0.0758
 2971SOL     OW20374   0.961   0.111   0.391 -0.2064 -0.2620  0.3221
 2971SOL    HW120375   0.991   0.201   0.379  0.6397 -0.6577 -0.4618
 2971SOL    HW220376   0.939   0.085   0.301  0.2882 -0.1012  0.1572
 2972SOL     OW20377   1.448   2.830   8.696  0.5883  0.6153 -0.0679
 2972SOL    HW120378   1.369   2.884   8.685  0.1800  0.3332  1.3962
 2972SOL    HW220379   1.436   2.776   8.618  0.3988 -1.0180  1.1032
 2973SOL     OW20380   3.176   4.534   2.717 -0.1026  0.2110 -0.3230
 2973SOL    HW120381   3.136   4.561   2.799 -2.0985  0.7924 -1.4688
 2973SOL    HW220382   3.245   4.592   2.683  0.1021 -0.6215 -1.3303
 2974SOL     OW20383   4.563   4.551   2.828 -0.4210 -0.5501 -0.2444
 2974SOL    HW120384   4.637   4.611   2.814  0.0890 -0.9731  0.6453
 2974SOL    HW220385   4.488   4.608   2.811  0.5411  0.8776  0.2736
 2975SOL     OW20386   4.386   2.414   5.979 -0.2698 -0.3386  0.3099
 2975SOL    HW120387   4.389   2.453   5.891 -0.6384 -0.3927  0.2740
 2975SOL    HW220388   4.478   2.417   6.005  0.3976 -0.4835 -2.0006
 2976SOL     OW20389   3.743   1.544   7.475 -0.4866  0.2511  0.5827
 2976SOL    HW120390   3.782   1.474   7.423 -1.2533  1.3912 -1.5293
 2976SOL    HW220391   3.817   1.605   7.471 -0.2415 -0.1795 -1.3409
 2977SOL     OW20392   1.874   2.478  10.170 -0.1542 -0.4049  0.1107
 2977SOL    HW120393   1.964   2.503  10.147 -0.5318  1.0357  0.1728
 2977SOL    HW220394   1.875   2.383  10.164  2.0348 -0.2298 -2.2671
 2978SOL     OW20395   3.754   1.908   7.527 -0.2580  0.3010  0.0010
 2978SOL    HW120396   3.750   1.929   7.433 -0.8341  0.9848  0.1819
 2978SOL    HW220397   3.837   1.865   7.550 -0.9612 -0.6534  0.7631
 2979SOL     OW20398   4.726   3.115   3.172 -0.1167 -0.5923 -0.3614
 2979SOL    HW120399   4.670   3.118   3.249  0.2308  1.1653 -0.1877
 2979SOL    HW220400   4.692   3.194   3.129  0.8231  1.1481  2.0808
 2980SOL     OW20401   1.793   0.790   7.457 -0.0079  0.2404 -0.1175
 2980SOL    HW120402   1.875   0.839   7.467 -0.0528  0.0196  1.3059
 2980SOL    HW220403   1.793   0.766   7.364 -1.8112  0.3158 -0.1236
 2981SOL     OW20404   2.444   0.793  15.043  0.3679 -0.0135 -0.1046
 2981SOL    HW120405   2.373   0.731  15.060  0.9510 -0.5520  0.3751
 2981SOL    HW220406   2.508   0.738  14.996 -0.2123 -0.6679 -0.1234
 2982SOL     OW20407   3.219   3.589  11.237  0.3417  0.0172  0.0218
 2982SOL    HW120408   3.238   3.630  11.321 -0.6392 -0.4886  0.4891
 2982SOL    HW220409   3.301   3.603  11.189 -0.5897 -1.4037 -2.0261
 2983SOL     OW20410   2.590   3.244   8.898 -0.1303  0.1927  0.0369
 2983SOL    HW120411   2.525   3.181   8.930 -1.6178  1.2997 -0.7715
 2983SOL    HW220412   2.667   3.196   8.867  0.7220  2.4536 -1.3308
 2984SOL     OW20413   4.339   4.274  10.708  0.3191  0.3648  0.1296
 2984SOL    HW120414   4.320   4.352  10.760  1.3896  0.7813 -0.1137
 2984SOL    HW220415   4.301   4.200  10.756 -0.0085  0.3952 -0.0781
 2985SOL     OW20416   3.642   0.806   5.171  0.3433  0.0471  0.4660
 2985SOL    HW120417   3.664   0.873   5.236 -0.3280 -0.9997  1.7755
 2985SOL    HW220418   3.550   0.791   5.192  0.0574  1.0791 -0.0261
 2986SOL     OW20419   1.206   0.136   4.868 -0.0488 -0.1904  0.1128
 2986SOL    HW120420   1.112   0.152   4.881  0.1755  1.2226 -0.0393
 2986SOL    HW220421   1.217   0.041   4.872 -3.4793 -0.5600  0.6887
 2987SOL     OW20422   0.130   2.454  11.362  0.3636  0.8318  0.5640
 2987SOL    HW120423   0.194   2.490  11.423  0.6789 -0.7204  1.1568
 2987SOL    HW220424   0.102   2.538  11.327 -0.8040  1.1941  2.3853
 2988SOL     OW20425   1.174   1.983   6.530 -0.4839  0.5061 -0.1731
 2988SOL    HW120426   1.133   1.932   6.600  0.3885  0.5209  0.3515
 2988SOL    HW220427   1.225   1.911   6.493  1.8346 -0.1984  4.3454
 2989SOL     OW20428   1.040   1.554   2.932 -0.2341  0.2659  0.0804
 2989SOL    HW120429   1.057   1.637   2.888 -0.8135  0.1765 -0.3194
 2989SOL    HW220430   0.961   1.529   2.883 -1.3040  0.2632  1.8166
 2990SOL     OW20431   0.834   1.215   3.891  0.0167  0.1497  0.3374
 2990SOL    HW120432   0.766   1.193   3.827  1.3846 -4.2785  0.4063
 2990SOL    HW220433   0.873   1.286   3.841 -0.2406  0.6584  0.8588
 2991SOL     OW20434   2.214   0.912   2.237 -0.0496  0.0446 -0.1921
 2991SOL    HW120435   2.253   0.973   2.300 -2.3341  0.6189  0.7083
 2991SOL    HW220436   2.236   0.948   2.151  2.2575 -1.3975 -0.1889
 2992SOL     OW20437   2.040   1.587   4.617  0.0806  0.1435 -0.1949
 2992SOL    HW120438   2.058   1.667   4.667  2.1965 -0.0483 -0.6675
 2992SOL    HW220439   2.026   1.523   4.687 -0.2682 -0.4555 -0.8172
 2993SOL     OW20440   2.467   4.215   6.887 -0.8173 -0.2555  0.6087
 2993SOL    HW120441   2.534   4.284   6.896  0.6034 -1.7074  1.1325
 2993SOL    HW220442   2.398   4.240   6.948 -1.8152  1.5049 -1.2416
 2994SOL     OW20443   3.568   4.477   3.591 -0.1578  0.2704  0.2341
 2994SOL    HW120444   3.529   4.439   3.670  2.4737 -0.4453  1.2041
 2994SOL    HW220445   3.541   4.567   3.605 -0.8982  0.0733  0.0646
 2995SOL     OW20446   4.326   1.273  16.693  0.3244 -0.6423  0.0348
 2995SOL    HW120447   4.413   1.247  16.723  1.0857  0.1619 -1.4632
 2995SOL    HW220448   4.342   1.364  16.668  2.3908 -1.3444 -1.1565
 2996SOL     OW20449   0.698   3.579   9.567  0.4935 -0.1266  0.4175
 2996SOL    HW120450   0.764   3.509   9.563  0.0980 -0.3019 -2.5563
 2996SOL    HW220451   0.714   3.622   9.483 -0.2881 -0.4882  0.0912
 2997SOL     OW20452   0.910   2.204  14.726 -0.2840 -0.5027 -0.0942
 2997SOL    HW120453   0.875   2.195  14.637  2.5700 -0.2445 -1.2233
 2997SOL    HW220454   0.967   2.281  14.718 -0.4534 -0.3859 -0.2061
 2998SOL     OW20455   0.364   1.699  16.059  0.3569 -0.0657 -0.1580
 2998SOL    HW120456   0.311   1.661  15.989 -0.1687  1.5544 -0.6385
 2998SOL    HW220457   0.423   1.627  16.084  1.7517  1.0889 -0.1339
 2999SOL     OW20458   3.252   2.262  16.105  0.5589 -0.1332  0.2475
 2999SOL    HW120459   3.316   2.321  16.146  0.5640  0.7051 -0.9545
 2999SOL    HW220460   3.270   2.178  16.147  0.5491 -0.3384 -0.1635
 3000SOL     OW20461   3.290   2.788   8.022 -0.5619  0.5736  0.2693
 3000SOL    HW120462   3.321   2.809   8.111 -0.0739  2.5260 -0.3550
 3000SOL    HW220463   3.249   2.873   8.006  2.0018  1.2769 -2.5504
 3001SOL     OW20464   1.063   2.496   7.848  0.4186 -0.2566 -0.1793
 3001SOL    HW120465   1.125   2.536   7.908  1.2319  1.0813 -1.9013
 3001SOL    HW220466   1.057   2.406   7.881  0.5721  0.6033  2.1338
 3002SOL     OW20467   3.873   1.840   5.458  0.9952 -0.4352 -0.4067
 3002SOL    HW120468   3.817   1.778   5.412 -0.9625  2.0853 -1.4174
 3002SOL    HW220469   3.822   1.844   5.539 -0.4728 -1.5078 -1.2908
 3003SOL     OW20470   1.246   0.835   6.509 -0.0818  0.3631  0.1524
 3003SOL    HW120471   1.220   0.748   6.476  1.9207 -0.0709 -0.2949
 3003SOL    HW220472   1.189   0.898   6.464  0.6702  0.3641 -0.8082
 3004SOL     OW20473   3.766   1.969  12.978 -0.6520  0.3487  0.0321
 3004SOL    HW120474   3.681   2.007  12.956 -0.0190  0.5592 -2.0783
 3004SOL    HW220475   3.750   1.932  13.065  1.4014 -0.6234  0.0117
 3005SOL     OW20476   1.392   1.016   4.350  0.0594 -0.2610 -0.4283
 3005SOL    HW120477   1.332   1.054   4.413  2.1665  2.2590  0.0490
 3005SOL    HW220478   1.373   1.071   4.274  1.0507  0.4633 -0.1531
 3006SOL     OW20479   0.520   4.064  11.327 -0.0953  0.3750  0.8360
 3006SOL    HW120480   0.595   4.052  11.384  0.4251  1.1514  0.3046
 3006SOL    HW220481   0.455   4.055  11.396  0.7268  0.1632  1.5798
 3007SOL     OW20482   2.823   4.628  16.848 -1.1550 -0.1913 -0.3203
 3007SOL    HW120483   2.796   4.603  16.936  2.6852  1.1475  1.2472
 3007SOL    HW220484   2.838   4.543  16.806  4.6211  0.9579 -0.5167
 3008SOL     OW20485   4.598   3.507   5.551  0.0292 -0.4265  0.7524
 3008SOL    HW120486   4.607   3.445   5.624 -0.8886 -0.5810  0.7370
 3008SOL    HW220487   4.608   3.444   5.480 -0.6003 -1.5925  1.6815
 3009SOL     OW20488   4.641   0.798   6.887 -0.0173 -0.1028  0.3888
 3009SOL    HW120489   4.551   0.831   6.887  0.2417  0.5867  1.3769
 3009SOL    HW220490   4.704   0.869   6.875 -1.5631  1.2610  0.2906
 3010SOL     OW20491   0.530   3.193   1.614 -0.0440  0.2825 -0.1779
 3010SOL    HW120492   0.553   3.154   1.698 -1.7951 -0.9935 -0.2805
 3010SOL    HW220493   0.526   3.111   1.565 -1.3254  0.1841  0.0965
 3011SOL     OW20494   1.258   3.018   8.588  0.4835  0.3560 -0.3997
 3011SOL    HW120495   1.271   3.107   8.620  1.2557 -0.1310  0.6217
 3011SOL    HW220496   1.214   3.032   8.504  1.1573 -1.5209 -1.0889
 3012SOL     OW20497   3.727   1.136   0.645  0.9274 -0.3106  0.2504
 3012SOL    HW120498   3.712   1.157   0.737  3.7976  0.3000  0.6006
 3012SOL    HW220499   3.685   1.051   0.637 -0.6251  0.4783 -0.0721
 3013SOL     OW20500   3.956   0.789   2.080 -0.6459 -0.3377 -0.1761
 3013SOL    HW120501   3.962   0.747   2.166 -3.2864  0.3209  0.3413
 3013SOL    HW220502   4.014   0.744   2.019 -0.9140 -0.7841 -0.1093
 3014SOL     OW20503   0.902   2.750   2.747  0.1788 -0.1043  0.1849
 3014SOL    HW120504   0.838   2.815   2.777  0.7106 -0.2927  1.7013
 3014SOL    HW220505   0.984   2.770   2.792  0.6977 -0.5492 -0.5705
 3015SOL     OW20506   0.145   1.721  10.289 -0.0882 -0.2753 -0.5042
 3015SOL    HW120507   0.190   1.699  10.207  0.6058  0.5807 -0.3477
 3015SOL    HW220508   0.084   1.657  10.325  0.7126 -0.8612 -0.1840
 3016SOL     OW20509   1.281   4.129   7.101  0.1510  0.0226  0.5072
 3016SOL    HW120510   1.308   4.038   7.112 -1.7945 -0.7326 -0.8186
 3016SOL    HW220511   1.354   4.166   7.150  1.1261 -0.1206 -0.8489
 3017SOL     OW20512   2.668   4.502  17.665 -0.0016 -0.3472  0.1328
 3017SOL    HW120513   2.665   4.571  17.598  0.3140  0.7180  1.2310
 3017SOL    HW220514   2.737   4.538   0.014  0.6763 -0.4903 -0.6049
 3018SOL     OW20515   3.622   2.852   8.481 -0.4082  0.2787  0.3598
 3018SOL    HW120516   3.599   2.904   8.557 -2.3674  0.3565 -0.2658
 3018SOL    HW220517   3.567   2.777   8.503  2.0796 -1.9795 -1.1163
 3019SOL     OW20518   3.418   2.953   2.414  0.0091 -0.1649  0.4737
 3019SOL    HW120519   3.482   2.901   2.365 -0.6779  0.2781 -0.9220
 3019SOL    HW220520   3.345   2.891   2.405 -1.7550  1.9071  0.5882
 3020SOL     OW20521   0.193   4.527   0.553  0.3066  0.1790 -0.1469
 3020SOL    HW120522   0.147   4.499   0.632 -1.5991  2.6407 -0.3865
 3020SOL    HW220523   0.261   4.586   0.587  0.2889  0.7491 -1.0957
 3021SOL     OW20524   0.137   1.893  13.129  0.1399 -0.4460  0.8282
 3021SOL    HW120525   0.106   1.940  13.051  1.0691  0.8111  1.2117
 3021SOL    HW220526   0.100   1.953  13.193 -2.4000 -0.9666 -0.1608
 3022SOL     OW20527   2.962   0.063   5.113  0.0231 -0.3684 -0.2337
 3022SOL    HW120528   2.978   0.036   5.203  0.1814  0.5352  0.0032
 3022SOL    HW220529   2.987   4.710   5.066  1.7530 -1.2459  2.2071
 3023SOL     OW20530   3.215   3.830   2.664  0.1675  0.3638  0.0050
 3023SOL    HW120531   3.231   3.740   2.692 -1.4731  0.4500  1.1968
 3023SOL    HW220532   3.296   3.880   2.675 -0.1164  0.8607 -0.1447
 3024SOL     OW20533   3.415   1.934   4.873 -0.0049  0.4454 -0.0928
 3024SOL    HW120534   3.438   2.019   4.909  0.5984  0.4495 -0.4781
 3024SOL    HW220535   3.321   1.939   4.889  0.1053  0.9631  0.3530
 3025SOL     OW20536   4.031   1.131   3.653 -0.1612  0.1185  0.0742
 3025SOL    HW120537   4.123   1.111   3.635 -0.3868 -2.4472  1.7559
 3025SOL    HW220538   4.044   1.205   3.712  0.9251  0.1871 -0.2504
 3026SOL     OW20539   3.131   3.107  12.052  0.4968  0.3597 -0.7882
 3026SOL    HW120540   3.039   3.118  12.076  0.6515 -0.2388  0.0986
 3026SOL    HW220541   3.142   3.012  12.058 -1.1253  0.2455  0.3532
 3027SOL     OW20542   2.698   4.113   3.424  0.4294 -0.5070  0.2238
 3027SOL    HW120543   2.727   4.027   3.393 -2.2888 -0.8296 -1.4306
 3027SOL    HW220544   2.605   4.122   3.406  0.3680 -1.9903 -0.2124
 3028SOL     OW20545   2.419   2.328  17.343 -0.4774 -0.3990 -0.3180
 3028SOL    HW120546   2.409   2.398  17.278  1.0528  0.5265  0.4525
 3028SOL    HW220547   2.512   2.332  17.363 -1.1066 -0.7788  2.7167
 3029SOL     OW20548   1.743   3.456   1.841  0.1718 -0.4819  0.7742
 3029SOL    HW120549   1.815   3.474   1.901 -0.8199  1.7003  1.3213
 3029SOL    HW220550   1.790   3.412   1.770  0.7694  0.6541  0.4566
 3030SOL     OW20551   0.299   2.320   4.843  0.3102  0.0338  0.3437
 3030SOL    HW120552   0.368   2.293   4.782  0.0534 -2.6518  1.2473
 3030SOL    HW220553   0.281   2.409   4.814  3.5554 -0.5799 -3.5098
 3031SOL     OW20554   1.028   0.731  13.494  0.1662 -0.5888 -0.5260
 3031SOL    HW120555   1.091   0.681  13.547  1.8448  0.2180 -1.7616
 3031SOL    HW220556   0.994   0.661  13.440  1.1278  0.4024 -2.4077
 3032SOL     OW20557   4.224   3.676   9.647 -0.1410  0.4058 -0.4823
 3032SOL    HW120558   4.247   3.690   9.738 -0.7770  1.8390 -0.5344
 3032SOL    HW220559   4.233   3.764   9.610 -0.6963  0.7935  0.3223
 3033SOL     OW20560   0.075   0.114   7.408  0.1167  0.2264  0.2735
 3033SOL    HW120561   0.001   0.065   7.371 -0.9489  1.0438  1.3133
 3033SOL    HW220562   0.145   0.056   7.379  0.5961  0.2845  1.3278
 3034SOL     OW20563   4.712   2.747   1.893 -0.0850 -0.0974 -0.1236
 3034SOL    HW120564   4.639   2.763   1.953 -0.9222 -0.1239 -1.1548
 3034SOL    HW220565   4.705   2.818   1.830 -0.6292  0.2225  0.3004
 3035SOL     OW20566   3.269   3.987   7.414 -0.7155  0.0739 -0.8828
 3035SOL    HW120567   3.269   4.051   7.484 -0.5571 -0.6135 -0.2586
 3035SOL    HW220568   3.195   3.927   7.423 -0.5061  0.3720  2.6546
 3036SOL     OW20569   2.296   3.015  16.315 -0.6522 -0.7828 -0.2851
 3036SOL    HW120570   2.206   2.984  16.305 -1.1879 -0.1194  2.4116
 3036SOL    HW220571   2.344   2.934  16.297 -1.3181 -0.8333 -1.7510
 3037SOL     OW20572   2.483   2.750   4.435  0.6045 -0.4523  0.4056
 3037SOL    HW120573   2.463   2.662   4.403 -0.8773  1.4422 -3.9970
 3037SOL    HW220574   2.573   2.756   4.403  0.3188 -0.9479 -0.5010
 3038SOL     OW20575   3.195   4.036   3.558  0.2630  0.3518 -0.5549
 3038SOL    HW120576   3.106   4.049   3.525  0.4176  1.8786 -0.3791
 3038SOL    HW220577   3.256   4.016   3.487  2.7357  0.3442  1.6201
 3039SOL     OW20578   2.128   2.525  10.113 -0.1227 -0.2066 -0.1673
 3039SOL    HW120579   2.178   2.602  10.138 -2.3955  0.9559  0.8242
 3039SOL    HW220580   2.140   2.535  10.018 -0.3316  2.1154  0.0610
 3040SOL     OW20581   2.933   0.948  10.065 -0.0743  0.1442 -0.2329
 3040SOL    HW120582   2.938   1.043  10.075  1.5351  0.0362 -0.0869
 3040SOL    HW220583   2.997   0.916  10.128 -2.0294 -1.4140  0.9649
 3041SOL     OW20584   2.750   1.372  10.658 -0.7065  0.1541 -0.0298
 3041SOL    HW120585   2.722   1.301  10.601  3.6806 -0.4659 -1.3807
 3041SOL    HW220586   2.662   1.403  10.681 -0.8196 -1.5300  1.7483
 3042SOL     OW20587   0.295   4.530   1.673  0.2878  0.4594 -0.0960
 3042SOL    HW120588   0.264   4.450   1.630  0.9700 -0.6578  1.4717
 3042SOL    HW220589   0.309   4.590   1.600 -0.2246  0.0260 -0.5473
 3043SOL     OW20590   0.892   2.368   8.022 -0.3607 -0.0934  0.4808
 3043SOL    HW120591   0.947   2.377   8.100  0.0860  3.4314 -0.2549
 3043SOL    HW220592   0.830   2.297   8.039  2.5110 -2.9656 -1.0086
 3044SOL     OW20593   1.462   2.467  16.717 -0.1903 -0.1430 -0.1816
 3044SOL    HW120594   1.534   2.527  16.733 -0.6240 -0.2683  2.2546
 3044SOL    HW220595   1.462   2.430  16.805 -0.3288  3.1674  1.1872
 3045SOL     OW20596   0.131   2.253   7.340  0.0229 -0.3568 -0.7943
 3045SOL    HW120597   0.151   2.163   7.368  1.1386 -0.3745 -1.6555
 3045SOL    HW220598   0.037   2.256   7.359 -0.1418 -1.1172 -1.4695
 3046SOL     OW20599   3.217   1.837   8.099 -0.4607 -0.0111 -0.7173
 3046SOL    HW120600   3.311   1.840   8.079 -0.0197  1.5663  1.5778
 3046SOL    HW220601   3.213   1.801   8.187  0.5622  1.4317 -0.0749
 3047SOL     OW20602   1.681   2.451  16.485 -0.5651  0.1171  0.4493
 3047SOL    HW120603   1.712   2.473  16.397  0.0881 -0.0484  0.6317
 3047SOL    HW220604   1.594   2.490  16.484 -0.2561  0.8072 -0.3111
 3048SOL     OW20605   0.000   3.885   1.567  0.7297  0.1617  0.7549
 3048SOL    HW120606   0.030   3.932   1.644  0.6335 -1.4914  1.8061
 3048SOL    HW220607   0.080   3.848   1.529 -0.5005 -1.2579 -0.4842
 3049SOL     OW20608   0.277   3.908  11.222 -0.2557  0.0954 -0.5490
 3049SOL    HW120609   0.296   3.898  11.129  1.0810  0.1128 -0.2708
 3049SOL    HW220610   0.354   3.960  11.246 -2.0524  2.7793 -0.5621
 3050SOL     OW20611   2.861   0.886   5.831 -0.1074  0.1071 -0.2310
 3050SOL    HW120612   2.874   0.861   5.739  1.4288  0.3278 -0.0729
 3050SOL    HW220613   2.773   0.922   5.817 -0.4949 -0.4601  0.7286
 3051SOL     OW20614   4.376   3.891   4.487  0.7000  0.0765  0.3925
 3051SOL    HW120615   4.313   3.918   4.420  0.2474 -0.6235  0.5454
 3051SOL    HW220616   4.411   3.809   4.453  2.3984  1.4479 -1.2156
 3052SOL     OW20617   4.265   4.337  11.619 -0.7055  0.1224  0.3219
 3052SOL    HW120618   4.223   4.289  11.549  1.4102 -0.4713 -0.5448
 3052SOL    HW220619   4.285   4.265  11.679 -1.8919 -1.1021 -0.7797
 3053SOL     OW20620   1.798   0.173  14.956 -0.0828  0.3646  0.4498
 3053SOL    HW120621   1.828   0.098  14.905 -0.1501  0.0421  0.8826
 3053SOL    HW220622   1.714   0.190  14.913  0.6986  3.3349  0.1186
 3054SOL     OW20623   1.708   0.683   7.731 -0.1961 -0.3716  0.2287
 3054SOL    HW120624   1.716   0.661   7.638  3.1793  1.1771  0.1756
 3054SOL    HW220625   1.800   0.678   7.757  0.4380  0.3715 -1.8379
 3055SOL     OW20626   1.659   3.818   2.675 -0.6588 -0.0744  0.0639
 3055SOL    HW120627   1.651   3.762   2.752 -1.6788  2.0529  1.5108
 3055SOL    HW220628   1.576   3.863   2.660 -2.0552 -2.3659  0.9438
 3056SOL     OW20629   3.845   0.518  10.782  0.4535  0.0038 -0.1569
 3056SOL    HW120630   3.766   0.514  10.835  1.2634  0.6557  1.0943
 3056SOL    HW220631   3.903   0.537  10.856 -1.4577  0.1043  1.3002
 3057SOL     OW20632   3.490   1.874  10.144 -0.0128 -0.2706 -0.0856
 3057SOL    HW120633   3.402   1.890  10.178 -0.2328 -1.8313  0.0733
 3057SOL    HW220634   3.510   1.960  10.108  0.7798  0.5114  2.2188
 3058SOL     OW20635   1.700   0.966   9.722 -0.2307  0.5180  0.5307
 3058SOL    HW120636   1.694   1.034   9.789 -0.2249 -0.3328  1.3971
 3058SOL    HW220637   1.788   0.930   9.734 -1.2476 -2.4013 -0.6197
 3059SOL     OW20638   0.024   0.893  13.112  0.4695  0.8028  0.3674
 3059SOL    HW120639   0.039   0.810  13.066  0.2245  1.4129 -0.7947
 3059SOL    HW220640   0.104   0.893  13.165  0.7384 -2.1414 -0.0264
 3060SOL     OW20641   3.647   0.438   0.726 -0.2023 -0.0642  0.2967
 3060SOL    HW120642   3.646   0.346   0.751 -3.5315 -0.0356  0.2694
 3060SOL    HW220643   3.734   0.456   0.689 -0.6320  0.8722 -0.2830
 3061SOL     OW20644   0.426   3.072   4.348  0.4848  0.3653  0.8055
 3061SOL    HW120645   0.333   3.074   4.372  1.0143 -1.0479  3.0150
 3061SOL    HW220646   0.419   3.035   4.260  0.5687  1.7859  0.2095
 3062SOL     OW20647   1.873   0.723   9.133 -0.1997  0.9789  0.1877
 3062SOL    HW120648   1.931   0.799   9.136  1.9411 -0.7124  1.1745
 3062SOL    HW220649   1.861   0.695   9.224 -1.0513  1.0990  0.1124
 3063SOL     OW20650   2.612   3.169   4.702  0.3063 -0.1906  0.1439
 3063SOL    HW120651   2.611   3.150   4.795 -0.1652  0.1420  0.2084
 3063SOL    HW220652   2.698   3.206   4.682 -0.1557 -0.2956 -2.0530
 3064SOL     OW20653   3.150   3.221   7.042 -0.1532  0.2117  0.4123
 3064SOL    HW120654   3.140   3.136   7.086 -2.7258  0.1960 -0.2170
 3064SOL    HW220655   3.236   3.252   7.070  0.2144 -1.1070  0.7531
 3065SOL     OW20656   0.922   0.143   5.533 -0.1093 -0.4899 -0.1409
 3065SOL    HW120657   0.833   0.142   5.569 -0.6412  0.8187 -1.4210
 3065SOL    HW220658   0.931   0.238   5.519 -1.8055 -0.1809  0.8847
 3066SOL     OW20659   1.013   1.139   6.608  0.0155 -0.0048 -0.6181
 3066SOL    HW120660   0.989   1.074   6.674 -1.2396 -0.5639 -1.6268
 3066SOL    HW220661   1.070   1.085   6.552  0.8188 -0.5222  0.7068
 3067SOL     OW20662   3.317   0.599   6.498 -0.2524  0.0002 -0.0605
 3067SOL    HW120663   3.352   0.613   6.410 -2.0877  2.2361 -0.4460
 3067SOL    HW220664   3.262   0.676   6.516 -1.7466 -0.8683 -0.9809
 3068SOL     OW20665   0.374   4.455  10.674  0.7873  0.6905  0.1921
 3068SOL    HW120666   0.455   4.486  10.633  0.2116  1.0361 -0.7054
 3068SOL    HW220667   0.401   4.399  10.747  0.2888  0.5242  0.2463
 3069SOL     OW20668   3.892   4.182   5.401  0.3059 -0.6571 -0.1621
 3069SOL    HW120669   3.976   4.209   5.364 -0.0514  3.4331  2.0858
 3069SOL    HW220670   3.884   4.235   5.480 -2.5184 -1.0927 -0.1461
 3070SOL     OW20671   4.362   2.681   7.660  0.2812 -0.2930  0.7997
 3070SOL    HW120672   4.268   2.663   7.663  0.2092  0.0454  0.6882
 3070SOL    HW220673   4.398   2.622   7.594  0.0527 -1.4208  1.6900
 3071SOL     OW20674   2.464   1.342   4.888 -0.1311 -0.0137  0.0368
 3071SOL    HW120675   2.416   1.420   4.913 -2.2279 -1.1216 -0.5283
 3071SOL    HW220676   2.391   1.282   4.874  0.3603 -1.1642  2.4938
 3072SOL     OW20677   4.116   2.692  15.677  0.0945  0.2433  0.4165
 3072SOL    HW120678   4.111   2.596  15.677  1.3953  0.1650 -1.2004
 3072SOL    HW220679   4.053   2.713  15.746 -0.6667 -0.7404  0.0409
 3073SOL     OW20680   4.264   0.487   5.603  0.5682 -0.3825 -0.3158
 3073SOL    HW120681   4.275   0.539   5.683 -2.6341  1.1651 -0.8716
 3073SOL    HW220682   4.175   0.519   5.587  0.4156  0.9214  3.0316
 3074SOL     OW20683   2.100   1.185  14.444  0.3970 -0.5621 -0.1568
 3074SOL    HW120684   2.080   1.117  14.380  0.4270 -0.9815  0.2813
 3074SOL    HW220685   2.053   1.140  14.514 -0.2295  0.9261  0.3765
 3075SOL     OW20686   0.732   4.090  10.444  0.8257 -0.0355 -0.0387
 3075SOL    HW120687   0.706   4.177  10.475  0.1269 -0.0433 -0.6052
 3075SOL    HW220688   0.733   4.102  10.349 -1.5705 -1.8116 -0.2692
 3076SOL     OW20689   1.143   0.305  17.060 -0.0945 -0.1356 -0.2787
 3076SOL    HW120690   1.235   0.298  17.085  0.0101  2.0057 -0.0983
 3076SOL    HW220691   1.159   0.371  16.993 -1.1992  0.5792  0.1668
 3077SOL     OW20692   0.954   0.730   3.597 -0.2509 -0.0686 -0.8049
 3077SOL    HW120693   0.954   0.738   3.502  0.0850 -0.0688 -0.8060
 3077SOL    HW220694   0.993   0.643   3.605 -0.1790  0.1573  1.3102
 3078SOL     OW20695   1.642   0.239   2.389 -0.6646  0.0981  0.1749
 3078SOL    HW120696   1.666   0.179   2.319 -2.3301 -2.0137  1.4042
 3078SOL    HW220697   1.582   0.176   2.430 -0.0120 -0.7164 -0.1126
 3079SOL     OW20698   1.927   0.577  10.052  0.2421  0.3284 -0.0817
 3079SOL    HW120699   1.913   0.656  10.105  2.9925  0.1724  0.8393
 3079SOL    HW220700   1.951   0.516  10.121  0.8271 -0.5404 -1.0570
 3080SOL     OW20701   3.475   3.672  16.723 -0.7648 -0.2419  0.0692
 3080SOL    HW120702   3.511   3.674  16.811  1.1601  0.8302 -0.7459
 3080SOL    HW220703   3.381   3.674  16.739 -0.6538  0.0081  0.6798
 3081SOL     OW20704   2.192   3.744  12.597  0.0319 -0.0985  0.2884
 3081SOL    HW120705   2.274   3.720  12.555  0.2406  1.6829 -0.2958
 3081SOL    HW220706   2.205   3.736  12.692 -0.3317 -1.2900  0.2345
 3082SOL     OW20707   1.162   3.625   3.657  0.2651  0.3497 -0.0892
 3082SOL    HW120708   1.178   3.566   3.731  1.0657 -1.1876 -1.4733
 3082SOL    HW220709   1.249   3.624   3.617  0.2192  3.8462 -0.2757
 3083SOL     OW20710   1.927   0.307  14.726  0.2992 -0.6295 -0.0778
 3083SOL    HW120711   1.882   0.267  14.800 -0.1654 -3.7940 -2.0912
 3083SOL    HW220712   1.905   0.240  14.661 -2.7863 -0.1874  0.4815
 3084SOL     OW20713   4.153   1.233   4.514  0.0396 -0.1316  0.1222
 3084SOL    HW120714   4.173   1.141   4.531  0.2311 -0.3402 -1.2870
 3084SOL    HW220715   4.108   1.230   4.430  1.9688  0.9038 -0.9369
 3085SOL     OW20716   4.245   0.371   9.447 -0.3482  0.2297 -0.1068
 3085SOL    HW120717   4.310   0.437   9.470  0.4668 -0.5383 -0.2317
 3085SOL    HW220718   4.207   0.361   9.535  0.8016 -1.2550  0.2200
 3086SOL     OW20719   2.870   4.642   2.748  0.1809  0.7536 -0.4132
 3086SOL    HW120720   2.919   4.712   2.792  0.9662  0.6703 -1.1657
 3086SOL    HW220721   2.790   4.688   2.722 -1.8113 -1.6344  1.5705
 3087SOL     OW20722   0.498   3.368  13.445  0.2846 -0.2886  0.2940
 3087SOL    HW120723   0.581   3.364  13.399 -0.7604 -0.5120 -1.5817
 3087SOL    HW220724   0.515   3.326  13.529  0.3853 -1.6420 -0.4094
 3088SOL     OW20725   1.529   2.455   2.467  0.2999  0.5683  0.1425
 3088SOL    HW120726   1.487   2.373   2.440  2.0870  0.4161 -2.2084
 3088SOL    HW220727   1.601   2.443   2.405  0.1604 -1.6352  0.4184
 3089SOL     OW20728   1.084   0.324   3.324  0.5713 -0.2168  0.3849
 3089SOL    HW120729   1.066   0.313   3.230 -0.7064  0.9370  0.5117
 3089SOL    HW220730   1.155   0.263   3.344 -0.8983 -1.6650  1.1971
 3090SOL     OW20731   4.426   1.803   3.282  0.6188 -0.1627 -0.3459
 3090SOL    HW120732   4.448   1.818   3.190  0.1303  2.3592 -0.0706
 3090SOL    HW220733   4.344   1.754   3.282  1.7320 -2.0089 -1.1967
 3091SOL     OW20734   0.880   0.651   9.641  0.4223 -0.3822 -0.1588
 3091SOL    HW120735   0.800   0.692   9.672  0.4709  1.1606 -2.0804
 3091SOL    HW220736   0.916   0.617   9.723  3.1866  0.0696 -1.1663
 3092SOL     OW20737   3.035   3.136  15.862 -0.1443  0.3416 -0.7709
 3092SOL    HW120738   3.037   3.071  15.792 -1.0481  0.6055 -1.0311
 3092SOL    HW220739   2.942   3.151  15.875  0.1977  1.7185  0.1713
 3093SOL     OW20740   1.248   3.490  17.481 -0.1934  0.3086 -0.4016
 3093SOL    HW120741   1.168   3.532  17.513  1.6111  2.8019  0.9399
 3093SOL    HW220742   1.301   3.566  17.457 -0.8083  0.8713  0.0258
 3094SOL     OW20743   1.029   3.282   7.290  0.4921 -0.0605 -0.0010
 3094SOL    HW120744   1.100   3.262   7.351 -1.2371 -2.5392  1.2012
 3094SOL    HW220745   0.971   3.206   7.290  0.1243  0.2181  0.6593
 3095SOL     OW20746   3.446   0.050   5.986 -0.3509  0.1121 -0.5200
 3095SOL    HW120747   3.512   0.105   6.028  0.6078 -3.2707  2.4229
 3095SOL    HW220748   3.483   0.026   5.901  0.2689 -1.3339  0.1651
 3096SOL     OW20749   3.593   0.816   4.887 -0.4628 -0.7268 -0.0629
 3096SOL    HW120750   3.497   0.808   4.887 -0.5219  0.0082 -0.6824
 3096SOL    HW220751   3.610   0.775   4.971  2.8075  2.7530  0.9337
 3097SOL     OW20752   1.692   1.381   4.026  0.0067 -0.3713 -0.3833
 3097SOL    HW120753   1.689   1.462   4.078  0.7506 -0.5441 -0.0693
 3097SOL    HW220754   1.724   1.317   4.089  0.3576 -0.3725 -0.5607
 3098SOL     OW20755   4.390   2.288   8.347 -0.3085 -0.4441  0.2111
 3098SOL    HW120756   4.458   2.347   8.312 -1.8237  1.5131  0.5700
 3098SOL    HW220757   4.440   2.218   8.390 -1.2517 -1.4162 -0.2967
 3099SOL     OW20758   1.680   4.006   5.636 -0.1977 -0.2877 -0.1926
 3099SOL    HW120759   1.731   3.964   5.567  0.6892  0.8189 -0.2101
 3099SOL    HW220760   1.737   4.072   5.676 -0.7760  0.1099 -0.0156
 3100SOL     OW20761   0.787   0.375   8.006 -0.1395 -0.7471 -0.1559
 3100SOL    HW120762   0.739   0.420   8.076 -0.2132 -1.2891  0.1457
 3100SOL    HW220763   0.835   0.442   7.958  2.3993 -0.2675  3.0204
 3101SOL     OW20764   2.668   2.733  11.241  0.3830  0.1623 -0.0347
 3101SOL    HW120765   2.617   2.806  11.277 -1.4128 -0.5134 -1.1913
 3101SOL    HW220766   2.755   2.762  11.267  0.5968 -0.4738 -0.0516
 3102SOL     OW20767   2.512   2.845   8.109  0.6632 -0.0208 -0.8470
 3102SOL    HW120768   2.607   2.855   8.106  0.6886 -0.2128 -0.7043
 3102SOL    HW220769   2.502   2.750   8.101  0.8622 -0.1003 -0.1360
 3103SOL     OW20770   4.114   0.301   3.576 -0.0768 -0.5017 -0.3398
 3103SOL    HW120771   4.161   0.239   3.520 -0.1583  0.5298 -1.5402
 3103SOL    HW220772   4.194   0.341   3.611 -2.0373  2.7204  0.4372
 3104SOL     OW20773   1.456   1.109   8.639 -0.4803 -0.0564  0.1470
 3104SOL    HW120774   1.538   1.106   8.688 -0.9561 -1.6588  0.8636
 3104SOL    HW220775   1.440   1.015   8.643 -2.0996  0.1907 -0.7662
 3105SOL     OW20776   2.678   4.376   4.177  0.3482  0.2889 -0.2084
 3105SOL    HW120777   2.653   4.296   4.129 -1.1750  1.7514 -1.8855
 3105SOL    HW220778   2.596   4.423   4.165  0.8082  0.9928 -0.5560
 3106SOL     OW20779   1.414   0.719   5.460 -0.1652  0.2391  0.1174
 3106SOL    HW120780   1.350   0.681   5.399  0.1288 -0.8171  0.4640
 3106SOL    HW220781   1.386   0.694   5.548 -2.5194 -1.0211 -0.9639
 3107SOL     OW20782   0.659   4.340   3.654  0.1124 -0.5319  0.0591
 3107SOL    HW120783   0.635   4.248   3.642 -0.2545 -0.4191 -0.0995
 3107SOL    HW220784   0.577   4.382   3.681  1.1660  1.5191  0.0543
 3108SOL     OW20785   2.062   3.972   2.012  0.1778  0.1251 -0.5688
 3108SOL    HW120786   2.090   3.947   2.101 -0.3993  1.6301  0.0373
 3108SOL    HW220787   2.146   3.980   1.967  0.5798 -0.5838  0.0422
 3109SOL     OW20788   1.962   1.100   5.999 -0.1560  0.2644 -0.2822
 3109SOL    HW120789   2.000   1.171   6.051 -0.8307  0.2084  0.2930
 3109SOL    HW220790   1.932   1.031   6.059 -1.7894  0.1598 -1.1959
 3110SOL     OW20791   3.216   0.917   4.642  0.4677  0.0965  0.6297
 3110SOL    HW120792   3.136   0.883   4.602  2.2804 -1.3359 -1.7625
 3110SOL    HW220793   3.250   0.972   4.571  1.7859 -0.0737  1.1369
 3111SOL     OW20794   1.752   2.017   0.236  0.5461 -0.2945  0.1890
 3111SOL    HW120795   1.715   2.105   0.232  1.2966 -0.0545 -1.6943
 3111SOL    HW220796   1.681   1.961   0.203  0.1915  1.8703 -2.7547
 3112SOL     OW20797   0.471   0.027   6.246 -0.2116 -0.5473  0.1500
 3112SOL    HW120798   0.473   4.714   6.159 -0.3058  1.5812 -0.8089
 3112SOL    HW220799   0.473   4.673   6.298  2.2385 -0.5602  0.0294
 3113SOL     OW20800   4.606   0.018   1.745  0.4244 -0.4838  0.6146
 3113SOL    HW120801   4.563   0.003   1.661  0.3002 -0.1223  0.6127
 3113SOL    HW220802   4.609   0.114   1.747 -1.1199 -0.5062  3.5833
 3114SOL     OW20803   4.157   2.623   5.937 -0.2607  0.0460  0.2592
 3114SOL    HW120804   4.247   2.592   5.946  0.2239  0.8269 -2.0231
 3114SOL    HW220805   4.148   2.591   5.847 -2.6181 -1.0780  0.8895
 3115SOL     OW20806   3.619   0.047   8.606 -0.1369  0.3152  0.0619
 3115SOL    HW120807   3.601   4.680   8.614  0.8911  0.2200  1.2151
 3115SOL    HW220808   3.652   0.071   8.692 -0.0561  0.6393 -0.0565
 3116SOL     OW20809   3.839   2.028   4.804 -0.2432  0.0791  0.4288
 3116SOL    HW120810   3.791   1.952   4.772 -0.8511  1.2097 -1.3768
 3116SOL    HW220811   3.820   2.091   4.734 -1.3001 -0.9051 -0.1529
 3117SOL     OW20812   2.753   0.887   8.388  0.2104 -0.0263  0.2568
 3117SOL    HW120813   2.831   0.904   8.442  1.2542  0.6761 -1.4758
 3117SOL    HW220814   2.789   0.861   8.304  0.0662  1.8596 -0.3873
 3118SOL     OW20815   4.201   2.510   8.599 -0.0538 -0.2175 -0.4334
 3118SOL    HW120816   4.178   2.498   8.691 -0.4520  0.1149 -0.4882
 3118SOL    HW220817   4.295   2.525   8.597 -0.0372 -0.3102 -0.3656
 3119SOL     OW20818   3.722   0.387   1.303 -0.2929 -0.8638 -0.5558
 3119SOL    HW120819   3.708   0.473   1.264  0.8487 -0.3024  0.2671
 3119SOL    HW220820   3.800   0.350   1.263 -0.3834 -2.8034  1.0820
 3120SOL     OW20821   1.093   1.546  10.304  0.3196  0.0259 -0.0658
 3120SOL    HW120822   1.040   1.618  10.337 -0.9365 -1.1684  0.5463
 3120SOL    HW220823   1.022   1.517  10.246  0.1792  3.4747 -1.6360
 3121SOL     OW20824   4.106   4.431   9.423  0.4085  0.3276 -0.1865
 3121SOL    HW120825   4.116   4.394   9.510 -3.6934  0.0490  0.1721
 3121SOL    HW220826   4.131   4.522   9.439 -0.7634  0.1982  2.3755
 3122SOL     OW20827   0.663   2.687  13.429  0.4585 -0.2566  0.9151
 3122SOL    HW120828   0.652   2.759  13.367 -1.5582 -1.5453 -0.1923
 3122SOL    HW220829   0.589   2.628  13.419 -0.1437  0.7223 -0.4239
 3123SOL     OW20830   2.241   1.847   8.161 -0.3060  0.2277  0.2267
 3123SOL    HW120831   2.296   1.923   8.177 -3.9452  3.2109 -1.3394
 3123SOL    HW220832   2.217   1.826   8.251  0.5303  0.3107  0.4613
 3124SOL     OW20833   4.127   3.906   4.686  0.1339 -0.4002  0.2455
 3124SOL    HW120834   4.089   3.889   4.772 -0.0533  1.5121  0.5428
 3124SOL    HW220835   4.057   3.883   4.624  1.4186 -0.2456 -1.2669
 3125SOL     OW20836   1.991   3.352  15.962  0.2082  0.8068 -0.0762
 3125SOL    HW120837   1.918   3.412  15.945 -0.7802 -0.7211 -1.2419
 3125SOL    HW220838   1.937   3.285  16.005  2.1205 -0.7575 -0.1138
 3126SOL     OW20839   4.580   0.137   3.508  0.2378  0.2966 -0.0714
 3126SOL    HW120840   4.580   0.222   3.463 -0.6883 -0.1558 -0.9285
 3126SOL    HW220841   4.594   0.169   3.597 -0.9873  0.7280 -0.0294
 3127SOL     OW20842   3.401   1.274   5.580  0.0844  0.1269  0.9184
 3127SOL    HW120843   3.307   1.280   5.563  0.2902  2.4868  0.6069
 3127SOL    HW220844   3.443   1.303   5.498 -0.4318  0.1229  0.6562
 3128SOL     OW20845   0.804   1.760   7.516  0.0230 -0.2788 -0.2268
 3128SOL    HW120846   0.837   1.803   7.595  0.8196 -0.5905 -0.3908
 3128SOL    HW220847   0.882   1.767   7.462 -0.3153  0.6115 -0.6076
 3129SOL     OW20848   0.824   3.754   2.702  0.0292  0.0926  0.4908
 3129SOL    HW120849   0.899   3.757   2.642 -0.3232  1.1133  0.1160
 3129SOL    HW220850   0.879   3.708   2.766  0.6488 -1.1790 -0.9594
 3130SOL     OW20851   0.166   3.464   8.901 -0.0821  0.5103 -0.5067
 3130SOL    HW120852   0.098   3.526   8.875  0.8186  1.8613  0.3369
 3130SOL    HW220853   0.136   3.433   8.986  1.3403 -0.6261 -0.4203
 3131SOL     OW20854   4.237   3.576  14.813  0.3196  0.5668  0.0689
 3131SOL    HW120855   4.210   3.668  14.819 -0.4513  0.2696  1.0929
 3131SOL    HW220856   4.327   3.583  14.783  1.0490  1.2903  2.4306
 3132SOL     OW20857   3.300   0.752   4.070 -0.0036 -0.0423 -0.2978
 3132SOL    HW120858   3.309   0.694   3.995 -1.2433  0.6922 -0.9997
 3132SOL    HW220859   3.300   0.683   4.137 -0.6093 -1.5350 -1.8334
 3133SOL     OW20860   0.323   1.541   8.992 -0.5910 -0.5347 -0.7791
 3133SOL    HW120861   0.407   1.550   8.946 -1.4533  0.9155 -2.1030
 3133SOL    HW220862   0.264   1.587   8.931  0.3087  0.8617 -0.5874
 3134SOL     OW20863   3.413   4.416  13.598 -0.3269  0.0096  0.0270
 3134SOL    HW120864   3.362   4.355  13.652 -0.1476 -0.9644 -0.8907
 3134SOL    HW220865   3.461   4.364  13.534  0.3396  1.8492 -0.9646
 3135SOL     OW20866   3.007   4.345   2.262 -0.3108  0.0378 -0.0048
 3135SOL    HW120867   2.917   4.356   2.292  0.2204 -0.6853  1.8494
 3135SOL    HW220868   3.043   4.412   2.321 -1.7687  1.3023 -0.5330
 3136SOL     OW20869   1.860   1.188   5.172  0.2425 -0.0437 -0.1059
 3136SOL    HW120870   1.842   1.243   5.096  0.1803 -1.0664 -0.8372
 3136SOL    HW220871   1.955   1.176   5.171  0.3608  0.9166  0.0473
 3137SOL     OW20872   3.884   0.042   7.111 -0.1580 -0.0549 -0.3159
 3137SOL    HW120873   3.948   4.699   7.098 -0.7349 -0.1677 -2.4792
 3137SOL    HW220874   3.911   0.119   7.061 -1.0891  0.0784 -0.6204
 3138SOL     OW20875   1.690   4.686   7.522  0.1523 -0.2217 -0.5208
 3138SOL    HW120876   1.630   4.650   7.587 -0.6036 -1.0313 -1.6598
 3138SOL    HW220877   1.761   4.717   7.579 -0.3703  0.8195 -0.4539
 3139SOL     OW20878   4.131   0.920  15.472  0.1476  0.0063  0.7189
 3139SOL    HW120879   4.036   0.907  15.467  0.0956  0.4136  0.6984
 3139SOL    HW220880   4.141   1.009  15.439  1.8851 -0.4049  0.1786
 3140SOL     OW20881   0.944   2.775   6.821 -0.3181  0.1518  0.1801
 3140SOL    HW120882   0.991   2.848   6.862 -3.4836  2.6260 -0.6162
 3140SOL    HW220883   0.858   2.786   6.862 -0.5681 -1.2120  0.0412
 3141SOL     OW20884   0.131   3.394   5.157 -0.0459  0.1041 -0.0575
 3141SOL    HW120885   0.087   3.388   5.242 -0.9141 -1.5029 -0.6226
 3141SOL    HW220886   0.054   3.401   5.100  0.5010 -2.3508 -1.0935
 3142SOL     OW20887   0.834   4.249   7.508  0.7287  0.4272  0.2370
 3142SOL    HW120888   0.790   4.333   7.522  0.7547  0.4812 -0.0009
 3142SOL    HW220889   0.828   4.246   7.412  2.4635 -0.1711  0.1556
 3143SOL     OW20890   0.816   3.104   4.835  0.3292 -0.1002  0.6735
 3143SOL    HW120891   0.820   3.198   4.818  0.0123 -0.3048 -0.4776
 3143SOL    HW220892   0.884   3.064   4.780  0.2962 -0.4818  0.9081
 3144SOL     OW20893   1.161   4.385   4.325  0.0286  0.4489  0.1454
 3144SOL    HW120894   1.075   4.427   4.323 -0.6989 -1.0680 -0.2772
 3144SOL    HW220895   1.173   4.363   4.233 -0.3474  0.5368  0.0768
 3145SOL     OW20896   3.083   1.605   4.117 -0.1455  0.0451 -0.4455
 3145SOL    HW120897   3.066   1.664   4.043  0.2869 -0.3547 -0.8618
 3145SOL    HW220898   3.119   1.666   4.181  0.1509  0.3581 -0.9073
 3146SOL     OW20899   0.475   3.736   3.662  0.4056 -0.6388  0.0109
 3146SOL    HW120900   0.464   3.718   3.756  0.6644 -1.7722 -0.1803
 3146SOL    HW220901   0.474   3.831   3.665  1.2015 -0.6173 -0.5585
 3147SOL     OW20902   2.428   3.641  12.442  0.4030  0.9140 -0.6069
 3147SOL    HW120903   2.463   3.651  12.531 -0.2933  1.8369 -0.4349
 3147SOL    HW220904   2.422   3.545  12.447  0.8808  0.9868  1.3411
 3148SOL     OW20905   0.955   3.056   5.060 -0.0777 -0.3571  0.4967
 3148SOL    HW120906   0.895   3.107   5.006  0.9769  0.4393  0.0648
 3148SOL    HW220907   0.911   3.082   5.141  0.5337  1.3004  0.2981
 3149SOL     OW20908   3.013   4.200  12.897  0.2017 -0.1789  0.6643
 3149SOL    HW120909   3.097   4.242  12.875  0.2754  1.2478  3.7821
 3149SOL    HW220910   2.977   4.273  12.947  0.1923  0.8315 -0.8057
 3150SOL     OW20911   0.975   4.408  17.139  0.0289  1.0773 -0.5060
 3150SOL    HW120912   1.054   4.368  17.103 -0.6702 -0.1714 -0.6714
 3150SOL    HW220913   0.929   4.442  17.062 -0.5311 -1.5898 -1.3439
 3151SOL     OW20914   1.324   4.011   4.270  0.3912 -0.1313  0.0313
 3151SOL    HW120915   1.397   4.069   4.291  1.5197 -2.2332  1.7749
 3151SOL    HW220916   1.269   3.995   4.346 -0.0998  1.3575 -0.0006
 3152SOL     OW20917   2.371   1.622   2.488 -0.3830  0.2963  0.1415
 3152SOL    HW120918   2.379   1.699   2.432  1.2815  0.3130  0.3852
 3152SOL    HW220919   2.441   1.641   2.551  1.5029  1.1310 -2.1643
 3153SOL     OW20920   2.798   0.243  12.836 -0.4613  0.2995  0.4749
 3153SOL    HW120921   2.791   0.156  12.796 -1.4821  1.5680 -2.1208
 3153SOL    HW220922   2.863   0.291  12.786  0.7378 -1.1280  0.6474
 3154SOL     OW20923   0.826   1.649   3.781 -0.8235  0.0612 -0.4533
 3154SOL    HW120924   0.840   1.700   3.701 -3.4813  1.3461 -0.0894
 3154SOL    HW220925   0.868   1.567   3.754 -1.5256 -0.1685 -0.8306
 3155SOL     OW20926   0.991   3.007  10.231 -0.0766  0.1051 -0.1755
 3155SOL    HW120927   1.040   3.085  10.257 -1.8653  0.6528  1.5936
 3155SOL    HW220928   0.906   3.051  10.227 -1.0905 -1.8852 -0.1874
 3156SOL     OW20929   3.834   4.562   3.526 -0.3115 -0.0173  0.1052
 3156SOL    HW120930   3.751   4.522   3.551  0.6351 -1.7675  0.5028
 3156SOL    HW220931   3.807   4.608   3.447 -1.2243 -0.0626  0.3903
 3157SOL     OW20932   0.874   2.997  17.304  0.7719 -0.0359  1.0668
 3157SOL    HW120933   0.894   3.000  17.211  0.7984  0.2865  1.0830
 3157SOL    HW220934   0.875   2.903  17.322  1.1860 -0.4028 -0.9271
 3158SOL     OW20935   2.283   2.543   3.456 -0.0689  0.0733 -0.5975
 3158SOL    HW120936   2.316   2.632   3.441  1.6453 -0.2439  1.3743
 3158SOL    HW220937   2.220   2.524   3.386 -0.0135 -1.8104 -0.1345
 3159SOL     OW20938   2.114   1.989   3.273  0.0390  0.3495 -0.2861
 3159SOL    HW120939   2.108   2.084   3.285  1.1746  0.5485 -1.2979
 3159SOL    HW220940   2.134   1.960   3.361 -0.2242 -0.9451 -0.6572
 3160SOL     OW20941   3.174   2.800   6.492  0.7632  0.0778  0.3389
 3160SOL    HW120942   3.103   2.857   6.462  0.4934  0.2329  1.2636
 3160SOL    HW220943   3.251   2.857   6.487  0.7289 -0.0600 -1.8591
 3161SOL     OW20944   3.908   1.924   9.365  0.0646  0.1504  0.9240
 3161SOL    HW120945   3.865   1.941   9.449 -0.6606 -1.1179  0.8035
 3161SOL    HW220946   3.870   1.837   9.350 -0.3974  0.2826  1.3355
 3162SOL     OW20947   4.373   3.609   8.341 -0.0897  0.1204  0.7326
 3162SOL    HW120948   4.331   3.608   8.427 -0.5947 -1.7287  0.4705
 3162SOL    HW220949   4.329   3.534   8.299  1.0671 -0.3933  0.4431
 3163SOL     OW20950   2.015   1.151  10.813  0.7099 -0.7335 -0.2078
 3163SOL    HW120951   1.994   1.217  10.879  1.6361 -1.7471  1.0731
 3163SOL    HW220952   1.936   1.161  10.760  0.4738 -0.9955  0.0965
 3164SOL     OW20953   3.097   4.055   8.158 -0.6823  0.3227  0.2090
 3164SOL    HW120954   3.071   4.071   8.249  0.2943  0.9915  0.3674
 3164SOL    HW220955   3.159   3.982   8.161  0.5879  1.3590 -1.4660
 3165SOL     OW20956   3.779   2.961   3.740 -1.0106 -0.4136 -0.1984
 3165SOL    HW120957   3.765   3.053   3.716 -2.6635 -0.5364  0.2734
 3165SOL    HW220958   3.716   2.917   3.681 -0.4803 -0.6171 -0.6129
 3166SOL     OW20959   1.257   4.580   1.607  0.2816  0.0277 -0.1970
 3166SOL    HW120960   1.220   4.565   1.520 -0.9480  0.5421  0.2299
 3166SOL    HW220961   1.350   4.592   1.588  0.6529 -0.7548  1.1321
 3167SOL     OW20962   3.899   3.209   5.345 -0.4944 -0.0446 -0.3811
 3167SOL    HW120963   3.806   3.233   5.346 -1.0675 -2.2714 -0.9455
 3167SOL    HW220964   3.883   3.125   5.388 -1.0907 -0.2906 -1.0790
 3168SOL     OW20965   3.767   1.691   9.309  0.0664 -0.1803 -0.0024
 3168SOL    HW120966   3.677   1.683   9.340  0.9057  0.2748  2.5694
 3168SOL    HW220967   3.781   1.614   9.254 -1.0942 -0.0259 -0.5052
 3169SOL     OW20968   2.639   2.717   5.150  0.3859 -0.0584 -0.2898
 3169SOL    HW120969   2.596   2.731   5.066  1.6578  0.4516 -0.8586
 3169SOL    HW220970   2.674   2.629   5.137  1.6357  0.2268  1.0514
 3170SOL     OW20971   3.958   0.897   2.351  0.2096  0.1092  0.1649
 3170SOL    HW120972   3.972   0.887   2.257  1.8398  1.9771  0.2108
 3170SOL    HW220973   4.044   0.902   2.393  0.1836 -0.4434  0.2837
 3171SOL     OW20974   1.837   4.611  10.076  0.1560  0.2726  0.7086
 3171SOL    HW120975   1.933   4.610  10.071  0.1077 -1.6493  0.1419
 3171SOL    HW220976   1.818   4.521  10.051 -1.1617  0.3592  1.4025
 3172SOL     OW20977   3.541   3.042   8.667  0.3865  0.4004  0.0624
 3172SOL    HW120978   3.626   3.026   8.708 -0.0898 -2.1884  0.0475
 3172SOL    HW220979   3.516   3.128   8.701 -1.4111  0.6712 -1.9458
 3173SOL     OW20980   4.668   0.437   3.124 -0.0005  0.3010  0.7837
 3173SOL    HW120981   0.010   0.394   3.073  0.4203  1.9716 -0.0478
 3173SOL    HW220982   4.626   0.476   3.048  1.2096 -1.3873 -0.7388
 3174SOL     OW20983   1.494   1.139   7.272  0.3855  0.8143 -0.0924
 3174SOL    HW120984   1.463   1.054   7.304 -0.3637  1.9454  2.1280
 3174SOL    HW220985   1.410   1.184   7.261 -0.3209 -0.8382 -1.5350
 3175SOL     OW20986   2.856   1.458   8.748  0.1800 -0.2897  0.0108
 3175SOL    HW120987   2.885   1.451   8.839  1.5651 -0.3459 -0.4299
 3175SOL    HW220988   2.886   1.544   8.720 -1.4527  1.2045  2.8774
 3176SOL     OW20989   1.711   3.296   8.180  0.2217  0.5605  0.0635
 3176SOL    HW120990   1.635   3.246   8.148 -0.7359  1.4832  0.9109
 3176SOL    HW220991   1.785   3.292   8.120 -0.7229  2.3853 -1.2122
 3177SOL     OW20992   3.550   2.892   4.037  0.3195  0.4634  0.2572
 3177SOL    HW120993   3.491   2.929   3.972 -0.4030  2.0280  1.8023
 3177SOL    HW220994   3.493   2.822   4.068  2.6553 -0.8999  1.4806
 3178SOL     OW20995   2.030   3.132   5.795 -0.1862 -0.0367 -0.3266
 3178SOL    HW120996   1.975   3.117   5.718 -0.4402 -1.2557  0.0763
 3178SOL    HW220997   1.970   3.104   5.865  0.1111 -2.6250 -1.1069
 3179SOL     OW20998   3.424   3.289   8.716 -0.7673  0.2647  0.3279
 3179SOL    HW120999   3.444   3.285   8.810 -0.1157  1.9114  0.2682
 3179SOL    HW221000   3.361   3.361   8.711 -1.2560  0.0222  2.8070
 3180SOL     OW21001   4.050   1.559   6.632 -0.6989  0.5301  0.1405
 3180SOL    HW121002   4.138   1.521   6.624 -0.0992  1.4945  2.0419
 3180SOL    HW221003   4.019   1.574   6.542  2.1632  1.0739 -0.7639
 3181SOL     OW21004   2.325   1.613   9.188 -0.5390  0.5391  0.1621
 3181SOL    HW121005   2.318   1.559   9.267  0.6134  0.7022  0.3799
 3181SOL    HW221006   2.420   1.610   9.174 -0.7977 -0.5566 -1.3361
 3182SOL     OW21007   2.903   2.525   9.032 -0.7002 -0.2712 -0.1925
 3182SOL    HW121008   2.846   2.473   9.089  0.9945  0.9128  2.5685
 3182SOL    HW221009   2.976   2.543   9.091 -0.3469 -0.1668 -0.6617
 3183SOL     OW21010   2.284   1.844   3.114  0.7963  0.3400  0.8256
 3183SOL    HW121011   2.222   1.802   3.055 -0.1021 -1.2738  2.9334
 3183SOL    HW221012   2.221   1.894   3.166  0.3696  0.9505 -0.2795
 3184SOL     OW21013   2.315   4.192  10.166  0.2417  0.0674  0.0229
 3184SOL    HW121014   2.336   4.185  10.259  0.9801  3.5974  0.1373
 3184SOL    HW221015   2.350   4.276  10.137 -0.7257  1.6496  3.4917
 3185SOL     OW21016   0.445   1.859   5.269 -0.2201 -0.2784  0.1103
 3185SOL    HW121017   0.386   1.788   5.244 -0.9844  0.4810 -0.2504
 3185SOL    HW221018   0.401   1.933   5.227  0.3790 -1.1479 -2.0666
 3186SOL     OW21019   3.975   4.557   5.949  0.1020  0.1103 -0.1082
 3186SOL    HW121020   3.883   4.570   5.969  0.0163 -1.1852  0.3050
 3186SOL    HW221021   4.012   4.560   6.037 -0.4225 -0.9148  0.1369
 3187SOL     OW21022   1.633   4.332   3.003  0.3885 -0.4684 -0.0661
 3187SOL    HW121023   1.716   4.288   2.985  0.2769 -0.0449 -1.6551
 3187SOL    HW221024   1.623   4.365   2.913  0.6154 -1.9383 -0.6320
 3188SOL     OW21025   0.826   4.560   5.640  0.0588  0.0531  0.3671
 3188SOL    HW121026   0.908   4.609   5.630 -0.7800  1.9996  2.8792
 3188SOL    HW221027   0.775   4.584   5.563 -0.4105 -0.0434  0.6447
 3189SOL     OW21028   0.455   4.400   1.149 -0.6840  0.0611 -0.0855
 3189SOL    HW121029   0.472   4.338   1.079 -3.4132 -1.2833  0.4459
 3189SOL    HW221030   0.430   4.483   1.108 -1.3160 -1.1208 -2.0866
 3190SOL     OW21031   1.940   2.204  10.663  0.0257 -0.3116  0.5299
 3190SOL    HW121032   1.941   2.119  10.705  0.4803 -1.3605 -1.5836
 3190SOL    HW221033   2.009   2.243  10.716 -1.1564  1.0281  1.0948
 3191SOL     OW21034   0.065   1.314   6.415 -0.1995 -0.2695 -0.0461
 3191SOL    HW121035   0.014   1.313   6.496  0.0542  0.5926  0.1184
 3191SOL    HW221036   0.088   1.407   6.411 -0.0709 -0.2465  1.1639
 3192SOL     OW21037   2.305   3.651   2.868 -0.1248  0.6079  0.8205
 3192SOL    HW121038   2.258   3.721   2.914 -2.1649 -1.8355  2.4367
 3192SOL    HW221039   2.388   3.652   2.916  1.1552  0.0855 -1.3807
 3193SOL     OW21040   1.745   3.375  16.098 -0.1902  0.0095 -0.0861
 3193SOL    HW121041   1.713   3.464  16.107 -1.5796 -0.3988 -1.0865
 3193SOL    HW221042   1.671   3.330  16.059 -0.4703 -0.8558  1.4334
 3194SOL     OW21043   0.124   2.593  17.168  0.8464 -0.1376 -0.3861
 3194SOL    HW121044   0.070   2.633  17.099 -2.2295  0.3938  2.3030
 3194SOL    HW221045   0.056   2.558  17.226  0.1913  1.7756  0.0007
 3195SOL     OW21046   4.492   1.354   2.773 -0.1838 -0.3048 -0.0789
 3195SOL    HW121047   4.475   1.362   2.679  0.0288 -3.6346 -0.4195
 3195SOL    HW221048   4.529   1.266   2.783 -0.6964 -0.5495 -0.3090
 3196SOL     OW21049   0.567   2.414   2.900 -0.1044 -0.0730 -0.0976
 3196SOL    HW121050   0.497   2.427   2.964  0.2748  0.3981  0.2213
 3196SOL    HW221051   0.527   2.463   2.828  2.0955  3.3437  1.0073
 3197SOL     OW21052   3.948   3.948   5.212  0.2586 -0.0937  0.0401
 3197SOL    HW121053   3.949   3.863   5.257  0.6815 -0.5129 -0.7609
 3197SOL    HW221054   4.001   4.004   5.269 -0.0175 -1.1111  1.2955
 3198SOL     OW21055   1.527   2.011   5.668  0.3077 -0.4407  0.8633
 3198SOL    HW121056   1.609   2.025   5.715  0.6901 -1.1065  0.4018
 3198SOL    HW221057   1.482   2.095   5.661 -1.9318 -1.5954  1.1185
 3199SOL     OW21058   4.640   4.010  13.775  0.0201 -0.1215  0.5116
 3199SOL    HW121059   4.545   4.014  13.782 -0.0422 -1.2533  0.3272
 3199SOL    HW221060   4.644   3.954  13.698 -1.5736 -0.5910  0.7918
 3200SOL     OW21061   0.799   4.188   5.259  0.4799 -0.5417 -0.5646
 3200SOL    HW121062   0.785   4.116   5.321 -2.8412 -1.4131 -2.3296
 3200SOL    HW221063   0.763   4.156   5.176  2.2132 -3.1391 -0.3122
 3201SOL     OW21064   2.930   1.184   7.159 -0.5846 -0.0521  0.5728
 3201SOL    HW121065   2.907   1.134   7.237  3.3484 -1.9082  0.5437
 3201SOL    HW221066   2.854   1.237   7.136 -0.5519 -1.1997 -2.2398
 3202SOL     OW21067   1.760   1.453  12.481 -0.0516  0.1586  0.3242
 3202SOL    HW121068   1.684   1.429  12.534 -1.3529  0.8457 -1.2041
 3202SOL    HW221069   1.746   1.548  12.476  1.3764  0.2844 -1.4339
 3203SOL     OW21070   3.688   3.482   5.626 -0.2909  0.2358 -0.2926
 3203SOL    HW121071   3.613   3.471   5.568 -1.0366 -2.8775  1.2569
 3203SOL    HW221072   3.704   3.574   5.606 -0.4035  0.2691 -0.2264
 3204SOL     OW21073   4.020   2.115   3.243 -0.5053  0.1832  0.0273
 3204SOL    HW121074   4.070   2.187   3.203 -0.7120 -0.7831 -1.9782
 3204SOL    HW221075   3.952   2.096   3.179  0.8778  0.0509 -1.4247
 3205SOL     OW21076   1.585   0.681   8.003 -0.2820  0.1414 -0.1150
 3205SOL    HW121077   1.632   0.765   8.010  1.5275 -1.1934  3.7252
 3205SOL    HW221078   1.600   0.675   7.908  2.0246 -2.1352  0.4132
 3206SOL     OW21079   4.492   2.670   2.948  0.1087  0.3547  0.0751
 3206SOL    HW121080   4.424   2.688   3.013 -1.3626  0.6093 -1.5299
 3206SOL    HW221081   4.492   2.747   2.892 -1.0155 -1.4079 -2.3612
 3207SOL     OW21082   1.787   3.230   9.424 -0.0184  0.0815  0.1163
 3207SOL    HW121083   1.728   3.154   9.417  0.2855 -0.4172  3.1425
 3207SOL    HW221084   1.803   3.213   9.516 -0.0845  1.7052  0.4196
 3208SOL     OW21085   0.773   2.236   7.733 -0.4111  0.0114  0.3217
 3208SOL    HW121086   0.801   2.327   7.723 -0.6879  0.0971  0.3329
 3208SOL    HW221087   0.695   2.234   7.678 -0.4611 -2.6634  0.5211
 3209SOL     OW21088   2.664   3.687   7.746 -0.9368 -0.0484 -0.2154
 3209SOL    HW121089   2.721   3.763   7.755 -3.1132  1.4670  0.9605
 3209SOL    HW221090   2.699   3.616   7.799  0.4906  1.0936  0.3622
 3210SOL     OW21091   0.775   0.973  14.778 -0.1214  0.0274 -0.4451
 3210SOL    HW121092   0.809   1.031  14.846 -1.2412  1.0582 -0.7755
 3210SOL    HW221093   0.682   0.976  14.799 -0.1749  0.3264 -0.7079
 3211SOL     OW21094   1.202   0.440   6.585  0.3304  0.2141 -0.1651
 3211SOL    HW121095   1.290   0.429   6.548 -0.2720 -2.5530 -0.7728
 3211SOL    HW221096   1.145   0.448   6.509 -2.6143 -0.3538  1.9835
 3212SOL     OW21097   3.928   2.169  13.133  0.9038  0.4272  0.0074
 3212SOL    HW121098   3.920   2.078  13.104 -1.4637  0.4644  0.5496
 3212SOL    HW221099   3.957   2.214  13.054  0.4703  0.4755 -0.1256
 3213SOL     OW21100   1.161   1.343   4.673  0.5109  0.2805  0.4701
 3213SOL    HW121101   1.102   1.370   4.603  1.3650 -2.1882 -1.1986
 3213SOL    HW221102   1.221   1.286   4.625  0.8144 -0.1282  1.3278
 3214SOL     OW21103   2.239   3.453  15.764 -0.6488  0.5398 -0.1233
 3214SOL    HW121104   2.169   3.514  15.789 -0.2685  1.5425 -1.4725
 3214SOL    HW221105   2.313   3.514  15.772  1.0744 -1.9769  2.9402
 3215SOL     OW21106   4.706   3.047   9.791  0.8054  0.3983 -0.0332
 3215SOL    HW121107   4.689   3.137   9.820 -1.9437  0.1095 -0.7095
 3215SOL    HW221108   4.615   3.017   9.780  0.7427  0.8770 -0.8401
 3216SOL     OW21109   1.189   1.865  12.797 -0.0215 -0.0261 -0.0370
 3216SOL    HW121110   1.097   1.891  12.789 -0.6734 -2.0631  0.7394
 3216SOL    HW221111   1.216   1.918  12.872  1.3095  0.0464 -0.5612
 3217SOL     OW21112   3.141   0.525  17.208  0.3682  0.0342 -0.5310
 3217SOL    HW121113   3.150   0.500  17.300 -0.1352  1.8326  0.0094
 3217SOL    HW221114   3.212   0.589  17.201  0.3228 -0.0084 -1.4666
 3218SOL     OW21115   1.805   1.254   8.587  0.0028  0.1163  0.1535
 3218SOL    HW121116   1.780   1.334   8.633  0.3071  1.0144 -1.2713
 3218SOL    HW221117   1.723   1.214   8.560 -0.7268  2.3746 -0.9916
 3219SOL     OW21118   4.272   3.536   8.027 -0.2511  0.1515 -0.5884
 3219SOL    HW121119   4.250   3.466   7.966  0.8112 -1.9110  1.4067
 3219SOL    HW221120   4.248   3.488   8.106 -1.6402 -1.3639 -1.9305
 3220SOL     OW21121   4.401   4.116   8.663  0.1126  0.7409 -0.0736
 3220SOL    HW121122   4.464   4.187   8.678 -0.6313  1.3545  0.1501
 3220SOL    HW221123   4.379   4.112   8.756 -2.8114 -1.8397 -0.8964
 3221SOL     OW21124   4.609   4.464   1.848  0.2145 -0.3400 -0.2323
 3221SOL    HW121125   4.612   4.553   1.814  0.9756 -0.8125 -1.3924
 3221SOL    HW221126   4.519   4.447   1.820 -0.3293  0.2090  1.1802
 3222SOL     OW21127   2.231   1.194   6.570 -0.0251  0.3344  0.0960
 3222SOL    HW121128   2.146   1.149   6.563 -0.8103  2.2993 -3.0773
 3222SOL    HW221129   2.264   1.156   6.651 -0.9084  1.4568  0.9847
 3223SOL     OW21130   2.892   2.897  12.964  0.7336 -0.0753 -0.1563
 3223SOL    HW121131   2.861   2.839  13.033 -1.6251 -0.0807 -1.2177
 3223SOL    HW221132   2.904   2.986  12.997  0.5691  0.7447 -2.3103
 3224SOL     OW21133   4.448   1.471   3.811 -0.0253  0.3688  0.1079
 3224SOL    HW121134   4.517   1.504   3.754  2.8624 -0.2085  3.2466
 3224SOL    HW221135   4.375   1.451   3.753  0.4341 -0.5470 -0.1589
 3225SOL     OW21136   1.628   4.500  10.498  0.9741 -0.1603  0.2509
 3225SOL    HW121137   1.706   4.446  10.482  1.3463  0.9133 -1.5794
 3225SOL    HW221138   1.641   4.575  10.440  0.4257  1.5030  2.2708
 3226SOL     OW21139   4.110   0.698   2.833  0.5979 -0.4184  0.1660
 3226SOL    HW121140   4.024   0.740   2.833  0.4982 -0.6229  0.3941
 3226SOL    HW221141   4.167   0.768   2.803 -0.2168  0.8983  1.6789
 3227SOL     OW21142   1.935   0.636   2.844 -0.0173  0.2798  0.0506
 3227SOL    HW121143   2.014   0.642   2.791 -1.4675  0.7411 -2.0509
 3227SOL    HW221144   1.976   0.654   2.929 -0.7203 -1.0112  0.6632
 3228SOL     OW21145   1.245   1.982  16.398 -0.0281  0.4508  0.7962
 3228SOL    HW121146   1.327   1.932  16.402 -0.5325 -0.6131 -2.1789
 3228SOL    HW221147   1.269   2.055  16.340  3.8275 -2.3563 -1.1639
 3229SOL     OW21148   2.846   2.596   5.908  0.2291 -0.4769  0.0604
 3229SOL    HW121149   2.848   2.642   5.824 -0.0821 -0.4467  0.0694
 3229SOL    HW221150   2.766   2.548   5.890 -0.3088  0.0340  1.0897
 3230SOL     OW21151   2.578   1.193   6.099  0.0520  0.6507 -0.1440
 3230SOL    HW121152   2.667   1.212   6.069 -0.2482  0.3720 -1.1926
 3230SOL    HW221153   2.558   1.237   6.182  0.5312  1.5959 -0.5346
 3231SOL     OW21154   2.656   3.181   3.023 -0.6951  0.3161  0.2042
 3231SOL    HW121155   2.700   3.101   3.049 -0.3329  1.3585  2.8425
 3231SOL    HW221156   2.688   3.188   2.933 -0.2086  2.2087  0.5219
 3232SOL     OW21157   2.778   2.756   5.419  0.5502  0.4569  0.1949
 3232SOL    HW121158   2.803   2.846   5.400 -0.4518  0.9806  1.3797
 3232SOL    HW221159   2.735   2.737   5.336 -0.8076 -2.9436  1.6783
 3233SOL     OW21160   1.518   4.121  10.585  0.1715 -0.2695 -0.2180
 3233SOL    HW121161   1.556   4.200  10.622  2.8622 -0.2652 -2.9488
 3233SOL    HW221162   1.593   4.065  10.564  0.2839 -0.0206 -0.4702
 3234SOL     OW21163   4.453   1.591   8.498  0.4211 -0.1728 -0.7194
 3234SOL    HW121164   4.392   1.664   8.503  1.9024  0.7802  3.2877
 3234SOL    HW221165   4.447   1.578   8.403 -1.2492 -0.5075 -0.5739
 3235SOL     OW21166   0.902   3.069  15.091  0.3083  0.0736  0.4327
 3235SOL    HW121167   0.911   3.164  15.078  0.1213 -0.1407 -1.2552
 3235SOL    HW221168   0.984   3.055  15.139 -0.6318  0.1469  2.0382
 3236SOL     OW21169   4.013   3.544   6.771 -0.4232 -0.2387  0.5499
 3236SOL    HW121170   4.029   3.637   6.791 -1.5571 -0.3239  1.8815
 3236SOL    HW221171   4.076   3.505   6.832 -0.4100 -1.0782 -0.0124
 3237SOL     OW21172   3.838   0.118  10.501  0.0462 -0.4154  0.0430
 3237SOL    HW121173   3.872   0.078  10.420 -2.5472 -1.0050 -0.7389
 3237SOL    HW221174   3.885   0.201  10.504  0.9600 -0.9158 -0.0651
 3238SOL     OW21175   2.259   3.916   9.404 -0.0038 -0.2672 -0.0685
 3238SOL    HW121176   2.231   3.836   9.360  0.3690  0.2107 -1.1688
 3238SOL    HW221177   2.305   3.881   9.480  0.3743 -0.7912 -0.5412
 3239SOL     OW21178   0.793   4.285   4.481 -0.5308  0.7092 -0.7236
 3239SOL    HW121179   0.841   4.202   4.483 -2.6244 -0.5165 -1.7564
 3239SOL    HW221180   0.864   4.344   4.456 -0.9322  2.2537  1.8293
 3240SOL     OW21181   3.872   2.646   4.908 -0.0650 -0.3179  0.4066
 3240SOL    HW121182   3.908   2.720   4.858 -2.0455 -0.7708 -1.6632
 3240SOL    HW221183   3.948   2.592   4.931  0.5763 -0.1692 -1.3611
 3241SOL     OW21184   2.335   3.219   3.740  0.2511 -0.8094 -0.4114
 3241SOL    HW121185   2.245   3.240   3.716  0.8603  2.4673  0.0989
 3241SOL    HW221186   2.314   3.171   3.820  0.7724  2.9252  1.9568
 3242SOL     OW21187   3.257   1.776   5.084  0.5213 -0.7381 -0.0693
 3242SOL    HW121188   3.253   1.795   5.178 -0.7463 -0.8875 -0.0855
 3242SOL    HW221189   3.169   1.739   5.077  0.1378  0.0308  0.6804
 3243SOL     OW21190   1.073   3.963   5.408  0.1427  0.0989  0.2970
 3243SOL    HW121191   0.991   4.007   5.429  0.6576  0.5787  1.2730
 3243SOL    HW221192   1.056   3.972   5.314 -0.7469  1.4666  0.5996
 3244SOL     OW21193   3.135   2.448  13.035  0.1611 -0.3805  0.1451
 3244SOL    HW121194   3.190   2.401  12.973  1.9736  0.5047  1.0760
 3244SOL    HW221195   3.067   2.462  12.969 -1.0128 -1.7143  1.0614
 3245SOL     OW21196   2.625   0.335   2.876  0.0961 -0.0707 -0.1248
 3245SOL    HW121197   2.534   0.334   2.847 -0.1029  1.9658  0.4424
 3245SOL    HW221198   2.633   0.241   2.894  1.2894 -0.1271 -0.9211
 3246SOL     OW21199   3.532   2.057   8.092 -0.1341 -0.3565  0.4034
 3246SOL    HW121200   3.506   2.078   8.182 -0.1613 -1.4902  0.6532
 3246SOL    HW221201   3.469   2.106   8.039  0.3992  0.1750  0.2634
 3247SOL     OW21202   4.383   0.886   1.392 -0.5951  0.1240  0.3805
 3247SOL    HW121203   4.322   0.926   1.330 -0.1711  0.8345  0.4291
 3247SOL    HW221204   4.341   0.801   1.407  0.1099 -0.3457 -0.3083
 3248SOL     OW21205   4.344   3.092   1.711 -0.0041 -0.2297 -0.6489
 3248SOL    HW121206   4.301   3.158   1.657 -1.2349 -0.8947 -0.4875
 3248SOL    HW221207   4.285   3.018   1.698 -0.4827 -0.2153  1.4679
 3249SOL     OW21208   4.502   1.984   6.755 -0.1813 -0.2899  0.1515
 3249SOL    HW121209   4.414   1.973   6.791 -0.6788  0.9671 -0.6694
 3249SOL    HW221210   4.518   1.897   6.718  2.2187  0.0072  0.5042
 3250SOL     OW21211   4.476   0.105   4.325 -0.0721  0.4020 -0.3600
 3250SOL    HW121212   4.519   0.190   4.311 -1.7878  1.0772 -1.5478
 3250SOL    HW221213   4.396   0.132   4.371 -0.4076  2.5630 -2.1825
 3251SOL     OW21214   1.156   2.217  12.733  0.3209  0.4389 -0.5032
 3251SOL    HW121215   1.120   2.140  12.777  0.9715  0.1046 -0.5400
 3251SOL    HW221216   1.235   2.182  12.691 -0.7105 -1.7816 -0.6113
 3252SOL     OW21217   1.821   2.621   6.127 -0.3191 -0.5079  0.0099
 3252SOL    HW121218   1.886   2.561   6.162  0.4353  0.5859  0.4880
 3252SOL    HW221219   1.740   2.571   6.136  0.0589 -1.1112  0.0953
 3253SOL     OW21220   1.713   2.703   6.745  0.3812  0.1229 -0.1307
 3253SOL    HW121221   1.781   2.655   6.697 -0.5866 -2.4811  1.0879
 3253SOL    HW221222   1.675   2.631   6.796  0.1036  0.1150 -0.3447
 3254SOL     OW21223   2.644   0.661   1.182  0.6050  0.4079 -0.4347
 3254SOL    HW121224   2.550   0.673   1.171  0.7906  2.3292  0.0980
 3254SOL    HW221225   2.668   0.631   1.094  0.6437  1.5431 -0.8217
 3255SOL     OW21226   1.418   2.135   8.388  0.2802  0.4130  0.2705
 3255SOL    HW121227   1.446   2.116   8.298  1.4794  2.6629  0.1875
 3255SOL    HW221228   1.420   2.230   8.384  0.8335  0.4278  0.9203
 3256SOL     OW21229   4.063   2.962  11.547  0.0072 -0.2720  0.4361
 3256SOL    HW121230   4.090   3.033  11.490 -0.3491  0.2737  0.9421
 3256SOL    HW221231   4.148   2.936  11.581 -0.7635 -0.4694  2.2499
 3257SOL     OW21232   2.586   3.862   4.053  0.0264  0.2510  0.1358
 3257SOL    HW121233   2.605   3.848   3.960 -1.8368  2.9111 -0.6518
 3257SOL    HW221234   2.519   3.795   4.062  1.5334 -0.8967  2.9957
 3258SOL     OW21235   4.106   3.462  15.044 -0.0739 -0.0740 -0.0817
 3258SOL    HW121236   4.111   3.542  15.095  3.0594  1.1358 -2.2520
 3258SOL    HW221237   4.141   3.492  14.960 -0.1016  1.8410  0.6107
 3259SOL     OW21238   4.225   0.195   0.776  0.4134 -0.2414 -0.6543
 3259SOL    HW121239   4.147   0.141   0.790  0.4113  0.2821  1.3709
 3259SOL    HW221240   4.208   0.238   0.692 -0.9696  0.1883 -0.1569
 3260SOL     OW21241   3.343   1.051  17.621 -0.3739  0.5685 -0.3248
 3260SOL    HW121242   3.268   1.112  17.620 -0.0851  0.9353  0.1849
 3260SOL    HW221243   3.419   1.103  17.594  0.9065 -0.9532  0.3706
 3261SOL     OW21244   1.994   2.651   6.889 -1.0978  0.1684 -0.3876
 3261SOL    HW121245   2.088   2.635   6.893 -1.2048 -0.9513 -1.8975
 3261SOL    HW221246   1.974   2.561   6.863  0.7971 -0.3430 -0.0846
 3262SOL     OW21247   2.383   2.773   3.358  0.2371  0.1744  0.4126
 3262SOL    HW121248   2.326   2.833   3.310  0.6973  0.6466  0.4524
 3262SOL    HW221249   2.456   2.829   3.385 -0.9271  2.3301 -0.9336
 3263SOL     OW21250   0.032   0.883   3.076  0.0822 -0.0524 -0.6118
 3263SOL    HW121251   0.042   0.917   2.988  0.9950 -1.3722 -1.0180
 3263SOL    HW221252   4.717   0.963   3.107  0.5726 -0.1500  0.3161
 3264SOL     OW21253   3.338   4.166   7.626  0.2368  0.2296  0.4910
 3264SOL    HW121254   3.410   4.110   7.598 -1.0204  0.1192 -2.4990
 3264SOL    HW221255   3.364   4.178   7.718 -0.3738  0.4753  0.6297
 3265SOL     OW21256   3.466   0.178   6.455  0.3622  0.0009  0.0404
 3265SOL    HW121257   3.383   0.155   6.498  0.7473 -2.0802 -0.3318
 3265SOL    HW221258   3.441   0.143   6.369 -1.6359 -1.8314  1.3276
 3266SOL     OW21259   2.666   1.687   4.118  0.0059  0.2312 -0.7991
 3266SOL    HW121260   2.698   1.643   4.038  0.5662 -0.6596 -0.0884
 3266SOL    HW221261   2.723   1.656   4.188 -0.1011 -4.8003 -2.9204
 3267SOL     OW21262   1.816   4.200   5.963  0.6558 -0.3447  0.2410
 3267SOL    HW121263   1.864   4.168   6.039  0.0773  0.7508  1.0689
 3267SOL    HW221264   1.736   4.149   5.974  0.4816 -0.3689 -1.1576
 3268SOL     OW21265   1.478   0.290   6.798 -0.3666 -0.1875 -0.2470
 3268SOL    HW121266   1.530   0.266   6.875 -0.6863  1.3708  0.4527
 3268SOL    HW221267   1.493   0.384   6.804  1.6322 -0.7174  2.6948
 3269SOL     OW21268   1.546   2.650   3.731  0.1508  0.2324 -0.5523
 3269SOL    HW121269   1.497   2.675   3.809  0.4556 -0.0337 -0.2772
 3269SOL    HW221270   1.625   2.698   3.755 -0.9282  0.8731  1.7987
 3270SOL     OW21271   0.121   1.074   6.750 -0.0463 -0.2882  0.0767
 3270SOL    HW121272   0.182   1.001   6.747  1.3779  0.9223  0.0143
 3270SOL    HW221273   0.163   1.121   6.822 -0.6128  1.9795 -1.0721
 3271SOL     OW21274   0.032   4.362   2.897  0.4973  0.0258 -0.2848
 3271SOL    HW121275   0.099   4.430   2.891  0.0490  0.5726  0.7465
 3271SOL    HW221276   4.678   4.412   2.882 -0.9833 -1.9156  1.1574
 3272SOL     OW21277   1.524   3.264  15.358  0.2251  0.4312 -0.0153
 3272SOL    HW121278   1.446   3.311  15.388 -0.5554 -0.0520 -1.2929
 3272SOL    HW221279   1.599   3.319  15.380 -0.9277  2.3177 -0.7614
 3273SOL     OW21280   0.999   1.329  12.413 -0.0849  0.0641  0.4779
 3273SOL    HW121281   0.977   1.368  12.329 -1.1766 -1.1563  0.1956
 3273SOL    HW221282   1.021   1.240  12.386 -0.9346  0.0279 -0.0893
 3274SOL     OW21283   1.923   2.293   3.032 -0.2454 -0.5936 -0.2862
 3274SOL    HW121284   1.986   2.336   2.974 -0.9400  0.9131  0.0579
 3274SOL    HW221285   1.923   2.204   2.996  1.9105 -0.8612  0.3798
 3275SOL     OW21286   0.436   1.536   8.572 -0.0527 -0.1346 -0.8518
 3275SOL    HW121287   0.475   1.454   8.541 -0.5166 -1.3767  1.8500
 3275SOL    HW221288   0.482   1.532   8.656 -0.4921 -1.5474 -0.6647
 3276SOL     OW21289   0.683   3.716   8.124 -1.0826  0.4294 -0.2132
 3276SOL    HW121290   0.695   3.781   8.194  0.9915  0.2231 -0.3625
 3276SOL    HW221291   0.729   3.760   8.052  1.2299 -1.2521  0.2282
 3277SOL     OW21292   1.875   2.787   5.800 -0.0416  0.0811  0.1060
 3277SOL    HW121293   1.905   2.807   5.711 -3.6950  1.2083 -0.8874
 3277SOL    HW221294   1.806   2.721   5.795  2.1164 -2.0960 -0.5531
 3278SOL     OW21295   4.031   0.556   0.963 -0.9231 -0.2384 -0.2523
 3278SOL    HW121296   4.120   0.527   0.982  0.5352  3.2802 -1.8159
 3278SOL    HW221297   4.015   0.530   0.872  2.8260  0.4261 -1.0818
 3279SOL     OW21298   4.472   0.589   1.931  0.2368 -0.2597  0.0563
 3279SOL    HW121299   4.429   0.596   1.846  3.4656  0.4892 -1.5109
 3279SOL    HW221300   4.473   0.493   1.933 -0.0011 -0.3348 -4.4590
 3280SOL     OW21301   4.478   2.467   8.644 -0.2890  0.3515 -0.8829
 3280SOL    HW121302   4.541   2.527   8.683  0.2389 -1.5647  1.1535
 3280SOL    HW221303   4.530   2.402   8.598  0.5190  1.4365 -1.5056
 3281SOL     OW21304   2.969   0.179   9.777 -0.4550 -0.1914 -0.0557
 3281SOL    HW121305   3.057   0.165   9.742  0.0742 -0.5468  1.3987
 3281SOL    HW221306   2.971   0.270   9.808  0.4253  0.3545 -1.7575
 3282SOL     OW21307   3.715   1.973   2.675 -0.4679  0.2646 -1.0029
 3282SOL    HW121308   3.648   1.990   2.609 -0.7697 -1.3613 -1.1124
 3282SOL    HW221309   3.758   1.895   2.639 -1.4233  0.2961 -2.2121
 3283SOL     OW21310   1.284   0.337  13.609  0.6609  0.4819  0.4734
 3283SOL    HW121311   1.254   0.283  13.683 -1.0632  0.5485 -0.1650
 3283SOL    HW221312   1.348   0.277  13.571 -1.1893 -0.1934 -1.5432
 3284SOL     OW21313   4.103   3.298   8.874 -0.0025 -0.3355  0.3082
 3284SOL    HW121314   4.064   3.384   8.857 -1.3817 -1.1518 -0.5482
 3284SOL    HW221315   4.048   3.274   8.948 -0.6414  0.7527  0.1975
 3285SOL     OW21316   1.290   0.761   9.528  0.0508 -0.2771  0.0047
 3285SOL    HW121317   1.269   0.797   9.614 -2.3224  1.9498 -1.4887
 3285SOL    HW221318   1.382   0.746   9.551 -0.4448 -1.9891  0.8506
 3286SOL     OW21319   0.230   3.854   0.788  0.1545  0.3517  0.0176
 3286SOL    HW121320   0.205   3.784   0.848  4.5726  0.8222  2.3761
 3286SOL    HW221321   0.320   3.880   0.810 -0.6607  1.1425  2.3377
 3287SOL     OW21322   4.245   3.388   5.306  0.0568  0.2114 -0.1774
 3287SOL    HW121323   4.178   3.349   5.251 -0.6947  0.0944  0.8164
 3287SOL    HW221324   4.271   3.314   5.361  2.4709  0.1647 -1.3707
 3288SOL     OW21325   4.630   0.487  13.611  0.0567  0.0051 -0.6091
 3288SOL    HW121326   4.578   0.531  13.679  2.5431  0.8380  0.7354
 3288SOL    HW221327   4.655   0.408  13.657 -0.9440 -0.3410 -0.6471
 3289SOL     OW21328   0.527   1.296   6.587 -0.0604  0.4874 -0.3744
 3289SOL    HW121329   0.434   1.279   6.605  0.4889 -2.6269 -0.4133
 3289SOL    HW221330   0.562   1.304   6.676  0.9413 -1.7562 -0.5675
 3290SOL     OW21331   4.382   2.269   1.384  0.3928 -0.2568  0.1017
 3290SOL    HW121332   4.458   2.257   1.442  0.0420 -0.9091  0.4259
 3290SOL    HW221333   4.336   2.188   1.403 -1.7230  1.4997  2.5520
 3291SOL     OW21334   0.931   3.900   1.264 -0.4432  0.1430 -0.3092
 3291SOL    HW121335   0.967   3.814   1.243  2.2729  1.4436 -1.0367
 3291SOL    HW221336   0.889   3.878   1.347 -0.3515  1.3143  0.0410
 3292SOL     OW21337   1.492   2.096   6.976  0.9183 -0.4246 -0.1995
 3292SOL    HW121338   1.449   2.121   6.894 -1.1284 -1.5707  0.5192
 3292SOL    HW221339   1.465   2.173   7.026  0.3313 -1.1602  0.6084
 3293SOL     OW21340   3.954   2.839   8.125 -0.3361  0.0257  0.4216
 3293SOL    HW121341   4.016   2.844   8.052  0.3362  1.2201  1.0870
 3293SOL    HW221342   3.888   2.899   8.089 -1.0340 -0.5383  0.7493
 3294SOL     OW21343   3.447   1.286   3.763 -0.1979  0.2142  0.2191
 3294SOL    HW121344   3.468   1.285   3.670  0.5825 -0.5361  0.4015
 3294SOL    HW221345   3.528   1.328   3.794 -2.7104  2.9407  3.1410
 3295SOL     OW21346   3.088   4.676  11.745 -0.4894  0.3735  0.0081
 3295SOL    HW121347   3.064   4.677  11.838 -1.6956 -0.3869 -0.2914
 3295SOL    HW221348   3.047   0.034  11.725  1.2050  1.0419 -0.6446
 3296SOL     OW21349   1.229   1.593  13.191  0.6622 -0.4133 -0.2495
 3296SOL    HW121350   1.255   1.683  13.171  1.2052 -0.0032  2.2998
 3296SOL    HW221351   1.138   1.591  13.162  1.1273  0.6348 -1.7786
 3297SOL     OW21352   3.080   1.967   3.285  0.2471 -0.2964  0.8955
 3297SOL    HW121353   3.172   1.992   3.277 -0.0430 -0.2372 -2.3109
 3297SOL    HW221354   3.054   2.023   3.358 -1.7397 -0.9166  0.6617
 3298SOL     OW21355   2.739   3.538   7.990  0.5941  0.3221  0.4382
 3298SOL    HW121356   2.800   3.476   7.949 -1.6074 -1.1559 -0.6122
 3298SOL    HW221357   2.744   3.495   8.076 -1.9819 -1.0216 -0.0904
 3299SOL     OW21358   4.443   2.353   2.884 -0.5036  0.3590 -0.0732
 3299SOL    HW121359   4.426   2.438   2.923  0.6654  0.1912  0.8005
 3299SOL    HW221360   4.361   2.306   2.863 -0.3454  0.7845 -1.6942
 3300SOL     OW21361   4.028   3.255   3.569  0.3092 -0.1937 -0.1049
 3300SOL    HW121362   4.023   3.205   3.650  0.2363  1.2845  0.8124
 3300SOL    HW221363   4.056   3.190   3.505  1.1044  0.6641 -0.6259
 3301SOL     OW21364   3.127   2.831  12.096  0.3956 -0.5210  0.6542
 3301SOL    HW121365   3.161   2.803  12.181 -0.8564 -2.5632  0.4882
 3301SOL    HW221366   3.088   2.748  12.067  0.1885 -0.4344  0.6823
 3302SOL     OW21367   1.848   1.547   8.563 -0.1621 -0.3186  0.6195
 3302SOL    HW121368   1.785   1.513   8.627  0.1355 -0.8107  0.6541
 3302SOL    HW221369   1.930   1.544   8.612 -0.4823  0.3499  1.1892
 3303SOL     OW21370   4.173   1.816   5.938  0.1034 -0.1156 -0.6990
 3303SOL    HW121371   4.141   1.793   5.851  0.9690  0.5212 -1.1817
 3303SOL    HW221372   4.250   1.869   5.919 -0.3113  0.5132 -0.6467
 3304SOL     OW21373   4.017   2.301   4.175  0.1165 -0.1508  0.1514
 3304SOL    HW121374   4.044   2.254   4.096 -0.9793 -0.0523 -0.2749
 3304SOL    HW221375   3.923   2.301   4.161 -0.2292  1.3664  2.3525
 3305SOL     OW21376   0.521   1.457  16.143  0.2316 -0.7370 -0.0552
 3305SOL    HW121377   0.472   1.380  16.116 -1.7211  0.4042  0.2607
 3305SOL    HW221378   0.612   1.429  16.136  0.7927  1.3987 -1.3609
 3306SOL     OW21379   3.416   1.995  11.169 -0.2544 -0.0129  0.4248
 3306SOL    HW121380   3.461   1.916  11.199  0.2801  0.4840  0.9072
 3306SOL    HW221381   3.338   1.997  11.224 -0.6312  2.9023 -0.1978
 3307SOL     OW21382   4.586   1.731   3.496 -0.0103 -0.2850 -0.0583
 3307SOL    HW121383   4.557   1.799   3.557  0.5649 -0.8463  0.8421
 3307SOL    HW221384   4.536   1.765   3.422  0.9112 -0.5144 -0.7838
 3308SOL     OW21385   1.974   4.269   3.528  0.6663 -0.2021 -0.2023
 3308SOL    HW121386   1.894   4.247   3.575  0.7440  0.1624  0.0994
 3308SOL    HW221387   1.939   4.276   3.439  1.0336 -2.2488 -0.5024
 3309SOL     OW21388   3.460   1.320   5.314 -0.1340  0.2994  0.4120
 3309SOL    HW121389   3.386   1.365   5.272 -0.1520  1.5729  1.8002
 3309SOL    HW221390   3.427   1.232   5.330 -2.2895  0.9635 -0.2978
 3310SOL     OW21391   0.555   0.014   2.148  0.4594  0.3189  0.1456
 3310SOL    HW121392   0.548   4.663   2.093  1.0617  0.4933 -0.1762
 3310SOL    HW221393   0.607   0.063   2.085 -1.3287  1.3709 -0.4963
 3311SOL     OW21394   3.158   0.467   7.176  0.0979  0.3714 -0.5847
 3311SOL    HW121395   3.218   0.421   7.235  1.8236 -0.3151 -2.9076
 3311SOL    HW221396   3.073   0.461   7.219  1.0465  1.8209  1.5035
 3312SOL     OW21397   0.101   1.252  12.222  0.2279  0.1328  0.5774
 3312SOL    HW121398   0.122   1.319  12.287  0.4796 -0.2803  0.9191
 3312SOL    HW221399   0.110   1.169  12.270 -0.9213 -0.0003  0.5594
 3313SOL     OW21400   2.200   1.944  11.429  0.5495  0.2757 -0.2768
 3313SOL    HW121401   2.291   1.919  11.418  0.0017 -1.3289 -1.1633
 3313SOL    HW221402   2.174   1.859  11.462  0.1612  0.6847  0.4702
 3314SOL     OW21403   4.097   1.777   6.239  0.2272  0.0830  0.4852
 3314SOL    HW121404   4.043   1.699   6.223  0.7735 -0.2866  0.4300
 3314SOL    HW221405   4.122   1.807   6.152  0.4729  0.0148  0.5312
 3315SOL     OW21406   3.188   3.775   1.060  0.2327 -0.7317  0.0446
 3315SOL    HW121407   3.229   3.840   1.003  2.0630 -0.4871  1.6217
 3315SOL    HW221408   3.257   3.770   1.126 -0.9908 -1.7431  1.2503
 3316SOL     OW21409   0.661   2.402   6.904  0.4032  0.2188 -0.3159
 3316SOL    HW121410   0.621   2.484   6.877 -0.9560 -0.0927  0.7224
 3316SOL    HW221411   0.580   2.352   6.911 -1.1036  2.8350  0.8945
 3317SOL     OW21412   2.359   1.533   3.128  0.1127  0.3369 -0.6191
 3317SOL    HW121413   2.448   1.503   3.108  0.0395 -1.0266  1.1174
 3317SOL    HW221414   2.376   1.619   3.167  0.2048  0.3196 -0.6201
 3318SOL     OW21415   2.846   2.022   5.796 -0.3996  0.1923 -0.6596
 3318SOL    HW121416   2.893   2.062   5.869 -0.6568 -0.0973 -0.3341
 3318SOL    HW221417   2.802   2.100   5.763  0.0355  0.5417 -0.4164
 3319SOL     OW21418   1.371   3.575   9.008  0.4917 -0.0580  0.1246
 3319SOL    HW121419   1.319   3.655   8.996  1.0718  0.5579  1.7144
 3319SOL    HW221420   1.404   3.593   9.096  1.2211  1.0859 -0.3767
 3320SOL     OW21421   3.539   1.503   8.647 -0.0767 -0.3968 -0.4323
 3320SOL    HW121422   3.535   1.480   8.740 -1.5148 -0.4085 -0.4909
 3320SOL    HW221423   3.466   1.460   8.603 -0.4631 -0.0616 -0.1141
 3321SOL     OW21424   1.482   1.634   4.303 -0.2401  0.5228 -0.5890
 3321SOL    HW121425   1.503   1.640   4.209 -0.9390  2.3535 -0.6339
 3321SOL    HW221426   1.515   1.722   4.325 -2.8472  1.3698 -0.1216
 3322SOL     OW21427   4.008   2.171   5.054  0.1594  0.2481 -0.4709
 3322SOL    HW121428   4.077   2.159   5.119 -0.7017 -0.1229  0.3727
 3322SOL    HW221429   4.012   2.266   5.048  0.6327  0.4940  3.3890
 3323SOL     OW21430   3.049   4.101   3.155 -0.3646  0.6121 -0.0076
 3323SOL    HW121431   3.021   4.192   3.150  1.7250  1.3004  0.8888
 3323SOL    HW221432   3.032   4.074   3.065 -4.4992  3.0478  0.0717
 3324SOL     OW21433   4.571   2.073  10.433  0.2053  0.0041 -0.0079
 3324SOL    HW121434   4.575   1.988  10.389 -2.9814 -0.2461  0.1520
 3324SOL    HW221435   4.665   2.089  10.425 -0.1042  1.6461 -0.2336
 3325SOL     OW21436   0.344   0.114   0.428  0.0911 -0.6175 -0.1327
 3325SOL    HW121437   0.395   0.190   0.398 -0.1540 -1.7487 -3.3717
 3325SOL    HW221438   0.259   0.152   0.450  0.8426  1.4287 -0.7051
 3326SOL     OW21439   0.584   3.921   0.028 -0.7474 -0.2991  0.3161
 3326SOL    HW121440   0.673   3.955   0.023 -1.7380  2.7562  3.1117
 3326SOL    HW221441   0.539   4.001   0.054  0.2710  1.1139 -2.3279
 3327SOL     OW21442   3.260   1.504   2.784  0.0263  0.2660  0.6569
 3327SOL    HW121443   3.170   1.507   2.750 -0.1759 -1.6025  1.0246
 3327SOL    HW221444   3.253   1.442   2.857  0.6101 -0.4626  0.0894
 3328SOL     OW21445   2.382   3.306   1.115  0.6773  0.0720 -0.1039
 3328SOL    HW121446   2.382   3.240   1.184 -0.6246  0.3240  0.1341
 3328SOL    HW221447   2.390   3.261   1.031  1.3671 -0.9887  0.5335
 3329SOL     OW21448   4.384   3.946   5.484 -0.3221 -0.2480  0.4726
 3329SOL    HW121449   4.379   3.938   5.389  1.5323 -0.2309  0.3703
 3329SOL    HW221450   4.310   4.006   5.495 -2.6917 -3.0567 -0.1150
 3330SOL     OW21451   0.020   3.597  14.300  0.0255 -0.1854  0.3663
 3330SOL    HW121452   0.109   3.575  14.327 -0.5206 -2.4612  0.2809
 3330SOL    HW221453   4.714   3.643  14.377  2.0995  1.6617  0.1396
 3331SOL     OW21454   2.469   0.493  17.684 -0.0920 -0.1525  0.3488
 3331SOL    HW121455   2.444   0.567   0.031  0.0669  0.5486 -0.5386
 3331SOL    HW221456   2.405   0.505  17.614  0.1474  2.9865  0.6863
 3332SOL     OW21457   2.114   0.959   8.294 -0.5172  0.5829  0.0229
 3332SOL    HW121458   2.024   0.993   8.298 -1.2895 -1.5020  0.3616
 3332SOL    HW221459   2.161   1.031   8.252  0.8157 -1.2727 -1.6359
 3333SOL     OW21460   3.989   2.513  16.352 -0.4166  0.0003 -0.2963
 3333SOL    HW121461   4.019   2.573  16.421 -0.7728 -1.0786  0.7974
 3333SOL    HW221462   4.005   2.434  16.403 -2.0091  0.4070  0.8574
 3334SOL     OW21463   2.874   1.028   2.887 -0.4812 -0.3521 -0.0130
 3334SOL    HW121464   2.811   1.005   2.955 -0.8159  1.1141  0.1758
 3334SOL    HW221465   2.901   0.946   2.845  1.5437  0.9192 -1.1775
 3335SOL     OW21466   1.959   3.523   8.356 -0.1312 -0.6063 -0.5077
 3335SOL    HW121467   2.042   3.562   8.328 -1.8360  2.5053 -1.1834
 3335SOL    HW221468   1.924   3.594   8.409  1.6916 -0.9971  1.2274
 3336SOL     OW21469   4.691   0.289   4.796 -0.0185  0.0644 -0.0362
 3336SOL    HW121470   0.053   0.254   4.789 -1.2272 -3.0364  0.5325
 3336SOL    HW221471   4.708   0.383   4.804 -0.5133  0.1245  0.2868
 3337SOL     OW21472   1.958   3.590   5.772 -0.5916  0.2386 -0.0981
 3337SOL    HW121473   1.983   3.683   5.776  0.2980 -0.0780  1.8000
 3337SOL    HW221474   1.931   3.579   5.681 -0.8282 -0.6972  0.0906
 3338SOL     OW21475   2.749   3.937  14.006 -1.0444  0.4062  0.0920
 3338SOL    HW121476   2.785   4.025  14.015  0.4855 -0.1055 -0.9777
 3338SOL    HW221477   2.827   3.896  14.044 -1.0102  1.0660  0.7377
 3339SOL     OW21478   1.529   0.098   2.915  0.2252 -0.1312  0.0133
 3339SOL    HW121479   1.494   0.031   2.856 -0.2524  0.0061  0.1411
 3339SOL    HW221480   1.622   0.096   2.890  0.1954  0.8723 -0.1692
 3340SOL     OW21481   2.502   0.405   2.428  0.4599 -0.3002  0.1011
 3340SOL    HW121482   2.506   0.372   2.518  1.9672 -0.0511  0.1320
 3340SOL    HW221483   2.586   0.451   2.420  1.6282 -2.6271 -1.0333
 3341SOL     OW21484   3.187   0.290   3.157 -0.3045 -0.0260 -0.2499
 3341SOL    HW121485   3.102   0.325   3.184  0.3379  1.5420 -0.2702
 3341SOL    HW221486   3.241   0.344   3.215  1.7983 -0.7520 -1.5335
 3342SOL     OW21487   1.699   0.892   8.492 -0.0175  0.3923  0.6586
 3342SOL    HW121488   1.703   0.809   8.539  2.4845 -1.2870 -2.4775
 3342SOL    HW221489   1.619   0.889   8.439  0.5844  0.4858 -0.2537
 3343SOL     OW21490   0.454   4.022   5.093 -0.7973  0.3629 -0.2423
 3343SOL    HW121491   0.411   3.939   5.072 -0.3600 -0.4403  2.0230
 3343SOL    HW221492   0.398   4.051   5.165  1.6715 -0.3488  1.9707
 3344SOL     OW21493   2.042   0.250   9.992 -0.2873 -0.2971 -0.0283
 3344SOL    HW121494   2.076   0.189  10.057  1.8428  3.2770  2.1472
 3344SOL    HW221495   2.125   0.283   9.956  1.0889 -2.6435  0.9644
 3345SOL     OW21496   4.545   1.715   4.339 -0.0951 -0.3943 -0.0920
 3345SOL    HW121497   4.449   1.716   4.335 -0.0995 -1.6346 -0.2085
 3345SOL    HW221498   4.564   1.651   4.271  0.2592  0.4056 -0.7438
 3346SOL     OW21499   4.448   4.458   6.706 -0.4505  0.1940  0.1793
 3346SOL    HW121500   4.405   4.419   6.782 -0.0611  1.3663  0.9977
 3346SOL    HW221501   4.537   4.461   6.739 -0.3729 -0.2014  0.0081
 3347SOL     OW21502   2.691   3.016   1.128  0.0322  0.1759  0.2287
 3347SOL    HW121503   2.634   2.957   1.177  1.1732  1.0249  2.5760
 3347SOL    HW221504   2.630   3.065   1.073 -1.0860  0.4440  1.7121
 3348SOL     OW21505   4.212   2.271  16.911 -0.0294 -0.2025 -0.2514
 3348SOL    HW121506   4.153   2.303  16.980  0.2572  1.0362 -0.5892
 3348SOL    HW221507   4.167   2.191  16.883 -1.2889  0.0866  0.9139
 3349SOL     OW21508   3.292   4.423  11.013 -0.0641 -0.5493 -0.6581
 3349SOL    HW121509   3.277   4.441  11.106  1.1057 -0.7891 -0.4300
 3349SOL    HW221510   3.262   4.511  10.990  0.3014  0.3034  2.1257
 3350SOL     OW21511   1.904   3.268   7.077  0.2736  0.5593 -0.3035
 3350SOL    HW121512   1.886   3.362   7.069 -1.8014  0.1634 -0.2534
 3350SOL    HW221513   1.999   3.264   7.066  0.1569 -2.1047 -0.2121
 3351SOL     OW21514   0.142   3.030  12.372  0.3699  0.4735  0.1133
 3351SOL    HW121515   0.201   2.981  12.430 -0.3254  0.3937  0.7547
 3351SOL    HW221516   0.107   3.096  12.433 -1.5648 -0.0075 -0.4861
 3352SOL     OW21517   3.201   0.972  13.952  0.1134  0.1259 -0.1265
 3352SOL    HW121518   3.291   0.947  13.972  0.2858  1.0440  0.2490
 3352SOL    HW221519   3.211   1.002  13.862 -1.0053  1.6421  0.2486
 3353SOL     OW21520   0.130   3.687   9.597 -0.0444 -0.1922  0.1004
 3353SOL    HW121521   0.186   3.662   9.523 -0.9483  0.3764 -0.7739
 3353SOL    HW221522   0.113   3.599   9.630 -0.5134 -0.2977 -0.4197
 3354SOL     OW21523   0.157   4.706   6.179 -0.1345  0.0741 -0.7299
 3354SOL    HW121524   0.185   4.703   6.270 -2.5788 -2.4205 -0.0567
 3354SOL    HW221525   0.192   4.630   6.133  0.8209  0.4181 -0.5581
 3355SOL     OW21526   2.881   4.239   4.294  0.1053 -0.7325  0.0675
 3355SOL    HW121527   2.857   4.241   4.387 -1.2524  0.8140 -0.3339
 3355SOL    HW221528   2.803   4.271   4.250 -0.7239 -2.0627  0.5595
 3356SOL     OW21529   2.964   1.835  14.870  0.2056  0.3925  0.1049
 3356SOL    HW121530   2.945   1.838  14.964 -0.7977 -0.6125 -0.0715
 3356SOL    HW221531   2.906   1.769  14.831  0.4825  0.2575 -0.0815
 3357SOL     OW21532   2.637   2.538   9.772 -0.3188  0.3468 -0.6380
 3357SOL    HW121533   2.670   2.539   9.862 -0.1567  0.4713 -0.6986
 3357SOL    HW221534   2.656   2.630   9.758  1.6430  0.1924  0.9402
 3358SOL     OW21535   0.326   2.684   8.366 -0.0714 -0.0736  0.5285
 3358SOL    HW121536   0.419   2.698   8.387 -0.4773  0.7226  1.7434
 3358SOL    HW221537   0.307   2.616   8.431  0.6230 -0.1619  0.6481
 3359SOL     OW21538   3.473   0.200   3.113 -0.2955 -0.2985  0.2007
 3359SOL    HW121539   3.565   0.183   3.129 -0.5325 -0.0582  1.8308
 3359SOL    HW221540   3.422   0.137   3.165 -0.3683  0.8567  1.5471
 3360SOL     OW21541   0.849   4.175   0.546 -0.5107 -0.6057 -0.0774
 3360SOL    HW121542   0.795   4.211   0.476  1.9794 -0.2184 -1.7475
 3360SOL    HW221543   0.881   4.252   0.594 -3.6924  1.9519 -2.0876
 3361SOL     OW21544   0.299   3.412   6.017 -0.7019 -0.1598 -0.2202
 3361SOL    HW121545   0.295   3.321   6.047 -1.2637 -0.3180 -0.7761
 3361SOL    HW221546   0.369   3.394   5.954  0.2943  3.1024 -0.0163
 3362SOL     OW21547   2.784   0.359   2.643  0.0954  0.4143  0.1596
 3362SOL    HW121548   2.856   0.308   2.680 -0.6249 -1.2868 -0.7713
 3362SOL    HW221549   2.719   0.344   2.711  0.7489 -1.3315  0.3896
 3363SOL     OW21550   1.515   3.952  13.803 -0.0034 -1.1495 -0.2726
 3363SOL    HW121551   1.499   3.858  13.809 -2.4555 -0.8197 -1.8031
 3363SOL    HW221552   1.429   3.985  13.779  0.0540 -0.5434  0.3590
 3364SOL     OW21553   1.790   3.773   4.942  0.0181  0.5878  0.1967
 3364SOL    HW121554   1.768   3.782   5.035 -1.2555  0.6289 -0.1062
 3364SOL    HW221555   1.874   3.819   4.941  0.5594 -0.5225 -3.2239
 3365SOL     OW21556   1.004   4.342   1.459  0.1538  0.1670  0.0868
 3365SOL    HW121557   1.076   4.279   1.458  0.0153  0.0105 -1.2928
 3365SOL    HW221558   0.960   4.322   1.376 -1.0017 -2.0868  1.2241
 3366SOL     OW21559   4.501   1.044   2.739  0.4028  0.3933 -0.3268
 3366SOL    HW121560   4.425   0.990   2.761 -0.1472  1.2602 -0.0988
 3366SOL    HW221561   4.519   1.039   2.645 -0.2492 -0.0196 -0.4263
 3367SOL     OW21562   0.815   4.619   8.932  0.8190  0.5096 -0.2438
 3367SOL    HW121563   0.788   4.569   9.008  0.0688 -3.4109 -3.0734
 3367SOL    HW221564   0.800   4.709   8.961 -1.2150 -0.0385  0.3743
 3368SOL     OW21565   3.246   1.433   9.142 -0.3822 -0.0228 -0.2192
 3368SOL    HW121566   3.231   1.485   9.221 -1.2600  0.1550 -0.4965
 3368SOL    HW221567   3.310   1.370   9.174  1.2798  2.0529  0.5286
 3369SOL     OW21568   1.492   0.859  11.129 -0.1681 -0.5556 -0.2177
 3369SOL    HW121569   1.587   0.865  11.120 -0.0243  0.2614  1.8240
 3369SOL    HW221570   1.458   0.843  11.041  0.9434  0.7715 -0.8810
 3370SOL     OW21571   1.678   2.750  15.342  0.2804 -0.1786  0.4648
 3370SOL    HW121572   1.665   2.656  15.334 -0.2420  0.1013 -1.7836
 3370SOL    HW221573   1.717   2.751  15.430  0.7463  0.1622  0.2538
 3371SOL     OW21574   0.325   3.222   6.471 -0.5933 -0.1400 -0.7322
 3371SOL    HW121575   0.259   3.185   6.530 -0.8771  0.2447 -0.8076
 3371SOL    HW221576   0.386   3.149   6.461  0.0677  0.2470  0.4313
 3372SOL     OW21577   1.961   3.757  13.730  0.5673 -0.5798 -0.6247
 3372SOL    HW121578   1.990   3.767  13.821 -0.8833  1.3534 -0.3774
 3372SOL    HW221579   1.892   3.822  13.721  0.4917 -0.6313 -0.4177
 3373SOL     OW21580   1.022   4.103  11.599  0.1979 -0.0956  0.4691
 3373SOL    HW121581   1.008   4.116  11.505  1.5188 -0.5891  0.2094
 3373SOL    HW221582   1.116   4.117  11.597  0.0535  0.6356 -2.2578
 3374SOL     OW21583   4.350   0.211   1.030 -0.3277  0.0904 -0.7189
 3374SOL    HW121584   4.316   0.300   1.032 -1.8828 -0.6313  3.2097
 3374SOL    HW221585   4.307   0.182   0.950 -1.8966  0.1703  0.1015
 3375SOL     OW21586   3.479   4.647   7.047  0.2184 -0.0055  0.2338
 3375SOL    HW121587   3.552   4.615   6.994  2.1241  4.1445  0.3476
 3375SOL    HW221588   3.464   4.566   7.096 -0.4928  0.7218  1.2163
 3376SOL     OW21589   4.000   3.830   9.765  0.2328 -0.0424 -0.5181
 3376SOL    HW121590   4.057   3.788   9.828 -0.6769  0.3124  0.5443
 3376SOL    HW221591   4.030   3.920   9.779  0.7165 -0.2082 -0.5151
 3377SOL     OW21592   2.788   3.694  13.882 -0.4071  0.0209  0.3026
 3377SOL    HW121593   2.738   3.717  13.804  0.2202 -0.8037 -0.3437
 3377SOL    HW221594   2.798   3.787  13.903 -3.3548  1.1586 -3.3627
 3378SOL     OW21595   1.405   3.728  17.435  0.4952 -0.9747 -0.0832
 3378SOL    HW121596   1.486   3.751  17.389  0.7730  0.6035  1.2033
 3378SOL    HW221597   1.395   3.817  17.467 -2.1698 -1.3352  0.0529
 3379SOL     OW21598   0.037   2.119  10.174 -0.1340  0.0610  0.5499
 3379SOL    HW121599   0.055   2.079  10.259 -1.1119 -0.0779  0.6915
 3379SOL    HW221600   0.063   2.210  10.191 -1.9786  0.6761  0.0039
 3380SOL     OW21601   3.238   4.205   2.335  0.6477 -0.5556 -0.4450
 3380SOL    HW121602   3.256   4.121   2.293 -1.0019 -0.0412 -2.2021
 3380SOL    HW221603   3.169   4.246   2.282  0.8127  0.2517 -0.0310
 3381SOL     OW21604   2.031   3.260   9.259  0.0055 -0.1156 -0.2248
 3381SOL    HW121605   1.983   3.223   9.333 -2.8064  2.4498 -0.7921
 3381SOL    HW221606   1.962   3.266   9.193 -1.8635 -0.9723  1.6618
 3382SOL     OW21607   4.562   2.012   1.923 -0.5016 -0.6387 -0.1045
 3382SOL    HW121608   4.511   1.996   2.003 -0.0220  1.4582  0.5985
 3382SOL    HW221609   4.591   2.102   1.936  0.2901 -1.1593  1.7434
 3383SOL     OW21610   2.692   1.955   7.488 -0.1983  0.3848  0.1043
 3383SOL    HW121611   2.701   1.908   7.571 -1.9532 -0.4701 -0.1982
 3383SOL    HW221612   2.601   1.983   7.480 -1.9727 -5.2190  0.3215
 3384SOL     OW21613   0.469   4.665   5.557  0.3767 -0.7114 -0.0446
 3384SOL    HW121614   0.471   4.577   5.520  1.6949 -1.1137  0.9598
 3384SOL    HW221615   0.396   4.707   5.513 -1.6155 -1.9543  2.0552
 3385SOL     OW21616   4.064   0.121   5.776 -0.5487 -0.1990 -0.5518
 3385SOL    HW121617   4.088   0.197   5.828  2.3663 -1.5740  0.0948
 3385SOL    HW221618   4.149   0.113   5.733  1.2693 -2.8147  3.5734
 3386SOL     OW21619   1.223   3.745  16.084 -0.2759  0.6482  0.4423
 3386SOL    HW121620   1.139   3.764  16.126 -0.6605 -1.1405  0.5179
 3386SOL    HW221621   1.276   3.719  16.160  0.1584 -0.1631 -0.1451
 3387SOL     OW21622   0.735   4.488   9.177 -0.0041  0.0105 -0.6227
 3387SOL    HW121623   0.679   4.411   9.180  0.7929 -0.5304  0.2542
 3387SOL    HW221624   0.805   4.466   9.239  0.7099  0.8291 -1.1293
 3388SOL     OW21625   3.472   2.804   4.599  0.1976  1.4260  0.2419
 3388SOL    HW121626   3.461   2.877   4.538  0.1380  1.6148  0.4783
 3388SOL    HW221627   3.417   2.731   4.570 -2.3195  2.5048  2.3392
 3389SOL     OW21628   1.416   2.552   6.628  1.2700 -0.1680 -0.5077
 3389SOL    HW121629   1.420   2.470   6.676 -0.3140 -0.0942 -0.2425
 3389SOL    HW221630   1.336   2.546   6.575  1.0708  1.3767 -0.3846
 3390SOL     OW21631   3.241   0.670  13.703  0.0619  0.7176 -0.7934
 3390SOL    HW121632   3.251   0.730  13.776  1.1824 -1.6532  1.0037
 3390SOL    HW221633   3.148   0.677  13.683 -0.6258 -3.0703  1.1498
 3391SOL     OW21634   2.509   4.682   7.230 -0.9441 -0.2914  0.1487
 3391SOL    HW121635   2.460   4.636   7.162 -1.7703 -0.3870  0.8114
 3391SOL    HW221636   2.555   0.025   7.182  0.2455 -0.8139  0.5580
 3392SOL     OW21637   3.823   2.194  11.324 -0.1621  0.2227  0.6728
 3392SOL    HW121638   3.886   2.265  11.311  1.0853 -0.7730  1.2930
 3392SOL    HW221639   3.858   2.117  11.278 -2.1658 -0.0539 -0.3679
 3393SOL     OW21640   4.605   1.615   2.782 -0.4015  0.3646 -0.2828
 3393SOL    HW121641   4.573   1.525   2.773  0.5171 -0.0571  0.7480
 3393SOL    HW221642   4.594   1.662   2.699 -0.8687  0.5289 -0.1255
 3394SOL     OW21643   1.188   4.107   6.259 -0.5903  0.0940 -0.4846
 3394SOL    HW121644   1.280   4.131   6.263 -0.6488 -0.1111  1.8758
 3394SOL    HW221645   1.170   4.077   6.348  0.3038 -0.2845 -0.4372
 3395SOL     OW21646   2.029   1.545   8.766  0.1330 -0.2381 -0.6341
 3395SOL    HW121647   2.057   1.616   8.822 -0.0705 -0.1975 -0.5842
 3395SOL    HW221648   2.062   1.477   8.825  1.2780  1.8719  1.1013
 3396SOL     OW21649   3.798   2.181   6.731  0.0110 -0.2711  0.2683
 3396SOL    HW121650   3.807   2.115   6.662  0.5414 -0.4006  0.4654
 3396SOL    HW221651   3.815   2.262   6.682  0.2388 -1.2648 -1.3141
 3397SOL     OW21652   4.412   2.002   7.288  0.6227 -0.3149 -0.1151
 3397SOL    HW121653   4.342   1.951   7.247 -0.6874  0.2334  1.4414
 3397SOL    HW221654   4.386   2.014   7.380  1.1968 -1.4010  0.1908
 3398SOL     OW21655   1.220   3.454   2.003 -0.0297 -0.2257  0.2159
 3398SOL    HW121656   1.297   3.405   2.033  0.2716  1.0408  1.4858
 3398SOL    HW221657   1.179   3.381   1.957  1.7945 -0.0250 -1.7496
 3399SOL     OW21658   2.661   3.594  16.900  0.3696 -0.6404 -0.7569
 3399SOL    HW121659   2.599   3.557  16.963  0.3771  0.8722  0.1670
 3399SOL    HW221660   2.600   3.656  16.859  1.2255  0.0087 -1.0550
 3400SOL     OW21661   4.705   4.353   5.630  0.1910 -0.4580 -0.3228
 3400SOL    HW121662   4.636   4.299   5.669  1.0721 -0.3918  1.3576
 3400SOL    HW221663   4.669   4.413   5.565  0.6371  0.7121  0.4992
 3401SOL     OW21664   3.268   1.530   7.810 -0.4379 -0.5340 -0.4681
 3401SOL    HW121665   3.250   1.436   7.813 -0.9866 -0.3575  1.8882
 3401SOL    HW221666   3.351   1.547   7.766  0.0689 -0.8637  0.3620
 3402SOL     OW21667   0.121   1.865   9.526 -0.1909 -0.6896  0.0288
 3402SOL    HW121668   0.078   1.901   9.603 -0.4792 -0.2174 -0.3551
 3402SOL    HW221669   0.088   1.775   9.533 -0.6994 -0.3962  1.5778
 3403SOL     OW21670   0.640   2.842   4.900 -0.3026 -0.0488  0.0227
 3403SOL    HW121671   0.704   2.914   4.897 -0.4929  0.0922 -0.6059
 3403SOL    HW221672   0.625   2.825   4.807  0.0717 -0.3599  0.0192
 3404SOL     OW21673   0.420   4.038   1.863  0.1065 -0.4502  0.3892
 3404SOL    HW121674   0.434   4.089   1.784  0.4123 -0.5583  0.3717
 3404SOL    HW221675   0.327   4.020   1.849  0.3506 -0.5443 -1.1247
 3405SOL     OW21676   0.080   3.443   9.207 -0.6997  0.2656 -0.4578
 3405SOL    HW121677   0.056   3.353   9.187  0.7651 -0.2777  0.1503
 3405SOL    HW221678   0.004   3.478   9.254 -0.7634  0.9204 -1.0501
 3406SOL     OW21679   1.367   4.273   2.435 -0.1886 -0.1734 -0.2750
 3406SOL    HW121680   1.383   4.300   2.525 -0.8948 -0.2864 -0.1113
 3406SOL    HW221681   1.273   4.293   2.433 -0.5352 -1.6447  0.5961
 3407SOL     OW21682   3.272   2.732   7.698 -0.6907  0.1468 -0.2666
 3407SOL    HW121683   3.255   2.669   7.628 -3.3091  0.6499 -0.1179
 3407SOL    HW221684   3.351   2.770   7.662  1.8655 -2.3802  2.6358
 3408SOL     OW21685   1.780   2.777  15.013  0.2751  0.2309 -0.1463
 3408SOL    HW121686   1.687   2.762  15.028  0.3014  0.8437  0.6523
 3408SOL    HW221687   1.788   2.868  14.984  0.5715 -0.3046 -1.7424
 3409SOL     OW21688   4.240   1.080  14.868  0.1146  0.2945 -0.2342
 3409SOL    HW121689   4.226   0.997  14.822 -0.5796 -0.2631  0.9542
 3409SOL    HW221690   4.332   1.067  14.889 -0.5199 -0.9343  1.9040
 3410SOL     OW21691   4.471   1.695   0.375  0.2546  0.4037 -0.2273
 3410SOL    HW121692   4.378   1.672   0.368  0.7174 -1.4383 -0.1376
 3410SOL    HW221693   4.477   1.742   0.459 -1.4339  0.2750 -0.0229
 3411SOL     OW21694   3.739   1.035   1.863 -0.5383 -0.4052  0.4653
 3411SOL    HW121695   3.811   0.998   1.812 -0.1470  0.2757  0.5160
 3411SOL    HW221696   3.691   1.082   1.795  0.8393  5.3364  3.5197
 3412SOL     OW21697   4.526   4.305  15.317  0.2503  0.2865  0.1253
 3412SOL    HW121698   4.589   4.282  15.249 -0.3258  0.1606 -0.3686
 3412SOL    HW221699   4.507   4.220  15.357 -0.4961  0.0018 -0.8303
 3413SOL     OW21700   0.999   3.991  12.020  0.1789 -0.2391 -0.1487
 3413SOL    HW121701   0.925   4.045  12.048 -0.1971 -1.0706  0.4484
 3413SOL    HW221702   0.964   3.938  11.949 -1.1850  1.6509 -0.8894
 3414SOL     OW21703   3.653   0.190   9.365  0.2049  0.4714  0.2339
 3414SOL    HW121704   3.561   0.191   9.393  1.0196  0.2039  2.9867
 3414SOL    HW221705   3.688   0.104   9.389  0.6835 -0.0773 -2.4816
 3415SOL     OW21706   3.885   3.484   5.281 -0.1206 -0.0587 -0.1002
 3415SOL    HW121707   3.900   3.402   5.328  0.0543  1.5260  2.6084
 3415SOL    HW221708   3.934   3.468   5.200  0.2004  3.5662 -0.5971
 3416SOL     OW21709   3.838   2.694   7.471  0.3694  0.0768 -0.6513
 3416SOL    HW121710   3.896   2.644   7.414 -2.0148 -0.9565 -2.1960
 3416SOL    HW221711   3.909   2.754   7.493  2.4921 -2.1606 -1.3396
 3417SOL     OW21712   2.427   1.041   4.411  0.1902  0.0734 -0.5506
 3417SOL    HW121713   2.477   1.032   4.492 -2.6542 -3.6304  0.8043
 3417SOL    HW221714   2.472   0.978   4.354 -1.0364 -0.9636 -0.3803
 3418SOL     OW21715   2.307   3.423   4.244  0.3975  0.5708  0.4129
 3418SOL    HW121716   2.247   3.357   4.209  3.6658 -0.7002 -2.7820
 3418SOL    HW221717   2.355   3.367   4.305 -2.2515 -1.7881  0.3496
 3419SOL     OW21718   1.483   3.785   3.223 -0.0983 -0.0328 -0.0204
 3419SOL    HW121719   1.415   3.830   3.172  1.1841 -0.5889 -2.2131
 3419SOL    HW221720   1.431   3.712   3.257  1.3444 -0.2930  1.5588
 3420SOL     OW21721   4.546   1.326  14.116 -0.1395  0.3425  0.1787
 3420SOL    HW121722   4.496   1.318  14.034 -0.4913 -0.6212  0.4761
 3420SOL    HW221723   4.508   1.401  14.162 -0.7237 -0.7886  1.5548
 3421SOL     OW21724   4.230   1.707  12.710 -0.2096 -0.2389 -0.1485
 3421SOL    HW121725   4.134   1.701  12.705 -0.1655 -1.0132 -0.0704
 3421SOL    HW221726   4.245   1.792  12.668 -0.2884 -0.1521 -0.0023
 3422SOL     OW21727   2.902   1.670  10.159  0.1453  0.2416  0.4888
 3422SOL    HW121728   2.860   1.594  10.198 -0.6508  0.2616 -0.3156
 3422SOL    HW221729   2.973   1.689  10.220 -2.1023  3.4238  2.1168
 3423SOL     OW21730   3.375   4.197   1.111  0.1487  0.4547  0.2171
 3423SOL    HW121731   3.356   4.212   1.018 -0.0601 -2.6046 -0.2270
 3423SOL    HW221732   3.400   4.283   1.145 -1.3270  1.2258 -0.6191
 3424SOL     OW21733   1.234   4.526   1.343 -0.0804  0.2431  0.3498
 3424SOL    HW121734   1.180   4.550   1.268 -1.5489  0.9798  1.6319
 3424SOL    HW221735   1.227   4.431   1.340 -0.2565  0.2201  1.6006
 3425SOL     OW21736   4.717   4.227  15.134 -0.3726 -0.0881  0.4418
 3425SOL    HW121737   0.058   4.165  15.106 -0.1597  0.0944  0.5423
 3425SOL    HW221738   4.711   4.285  15.058  0.1429 -1.1959 -0.4394
 3426SOL     OW21739   0.961   0.486   5.203 -0.2119  0.2151 -0.5431
 3426SOL    HW121740   0.917   0.567   5.180  0.1661  0.8351  0.8905
 3426SOL    HW221741   0.953   0.434   5.123  0.7619  1.4435 -1.4333
 3427SOL     OW21742   1.416   2.293   6.743 -0.0772  0.6306 -0.3519
 3427SOL    HW121743   1.325   2.265   6.738  0.1168  0.2178 -1.4699
 3427SOL    HW221744   1.428   2.328   6.831  1.0809  0.7133 -0.5423
 3428SOL     OW21745   1.791   0.952   0.209 -0.0076 -0.8234 -0.3014
 3428SOL    HW121746   1.734   0.876   0.194  0.6464 -0.8480 -2.6126
 3428SOL    HW221747   1.764   0.959   0.301  3.4828  1.2644  0.5396
 3429SOL     OW21748   3.720   4.287   2.965 -0.4210  0.6549  0.4602
 3429SOL    HW121749   3.736   4.344   3.041  0.4490  1.2892 -0.1975
 3429SOL    HW221750   3.744   4.325   2.880  0.8142  0.0926  0.5636
 3430SOL     OW21751   2.552   2.862  12.933  0.2811  0.3820  0.2364
 3430SOL    HW121752   2.611   2.788  12.919 -0.2035  0.4138 -2.0242
 3430SOL    HW221753   2.481   2.823  12.984  3.5386 -2.1911  2.7696
 3431SOL     OW21754   3.550   4.113   8.894 -0.4559 -0.1596  0.0774
 3431SOL    HW121755   3.557   4.023   8.926  2.3516 -0.2151 -0.6664
 3431SOL    HW221756   3.456   4.116   8.875 -0.2115 -0.6586 -1.2381
 3432SOL     OW21757   4.405   0.649  12.150 -0.5698  0.6181  0.0722
 3432SOL    HW121758   4.331   0.705  12.128 -0.1356  1.0934 -0.1788
 3432SOL    HW221759   4.478   0.707  12.127 -1.8120  2.2773  0.2708
 3433SOL     OW21760   3.850   2.476   6.704  0.4070 -0.2821  0.0406
 3433SOL    HW121761   3.932   2.517   6.677  0.6522 -0.8645 -0.0871
 3433SOL    HW221762   3.791   2.477   6.629 -0.2537  1.1153  0.5737
 3434SOL     OW21763   3.284   1.086   4.409  0.4646  0.3388 -0.1254
 3434SOL    HW121764   3.370   1.111   4.442 -0.6682 -0.5819  3.5372
 3434SOL    HW221765   3.311   1.055   4.323  0.9507  0.0386  0.1387
 3435SOL     OW21766   0.056   4.700   3.089  0.3339 -0.3165 -0.1654
 3435SOL    HW121767   0.091   4.720   3.176 -1.0447  2.9626 -0.3878
 3435SOL    HW221768   4.697   4.672   3.119  0.3293  1.0094  1.0295
 3436SOL     OW21769   4.260   3.317  11.802  0.1297  0.3039 -0.2848
 3436SOL    HW121770   4.310   3.395  11.776 -0.9886  1.2601  0.4161
 3436SOL    HW221771   4.326   3.251  11.781 -1.9112 -1.3299 -1.5013
 3437SOL     OW21772   2.340   2.883   2.742  0.0649 -0.0187  0.2677
 3437SOL    HW121773   2.333   2.800   2.789  3.3877  1.0288  2.5688
 3437SOL    HW221774   2.355   2.945   2.812  1.5177  1.0525 -1.0021
 3438SOL     OW21775   3.520   1.389   8.312  0.2833 -0.0187 -0.3425
 3438SOL    HW121776   3.492   1.301   8.338 -1.3202  0.9516  1.2795
 3438SOL    HW221777   3.612   1.377   8.334 -0.1901 -0.1150  1.6151
 3439SOL     OW21778   2.394   1.502  14.604  0.2585 -0.0062  0.7303
 3439SOL    HW121779   2.444   1.517  14.523 -0.9987 -0.4908 -0.1494
 3439SOL    HW221780   2.468   1.512  14.663 -0.9483 -0.8150  2.3818
 3440SOL     OW21781   0.626   1.086   2.055  0.4074  0.1543  0.2988
 3440SOL    HW121782   0.694   1.144   2.088  0.3244 -0.2840  1.2452
 3440SOL    HW221783   0.675   1.004   2.051  1.9075  1.0067  1.1715
 3441SOL     OW21784   2.851   1.735   8.660  0.4891  0.0565 -0.5177
 3441SOL    HW121785   2.816   1.820   8.687  1.5441  0.1941  0.4135
 3441SOL    HW221786   2.933   1.761   8.616  1.5079  0.8288  1.8661
 3442SOL     OW21787   0.796   1.119  13.642 -0.6902 -0.5299 -0.1642
 3442SOL    HW121788   0.842   1.116  13.726  0.3764  0.9354 -0.6908
 3442SOL    HW221789   0.833   1.054  13.582 -1.6505 -2.1796  1.0216
 3443SOL     OW21790   1.586   1.143  13.590 -0.5815  0.2521  0.2073
 3443SOL    HW121791   1.564   1.202  13.663 -0.4047 -0.3590  0.7481
 3443SOL    HW221792   1.620   1.065  13.633 -0.2910  0.5399  0.4922
 3444SOL     OW21793   3.787   1.124   9.664 -0.0359 -0.2973  0.3460
 3444SOL    HW121794   3.834   1.168   9.593 -0.0691  1.2518  1.2958
 3444SOL    HW221795   3.701   1.148   9.628  0.3342 -0.8520 -0.9291
 3445SOL     OW21796   2.523   2.658  17.348  0.5817 -0.0733 -0.1668
 3445SOL    HW121797   2.447   2.644  17.405  1.6992  2.4435  1.8999
 3445SOL    HW221798   2.481   2.644  17.262 -2.5238  1.1690  1.1337
 3446SOL     OW21799   4.413   2.170  12.985 -0.2824  0.3419 -0.1083
 3446SOL    HW121800   4.439   2.234  12.919  1.8157 -0.6654 -0.2455
 3446SOL    HW221801   4.318   2.162  12.974 -0.1496 -0.7064 -0.4274
 3447SOL     OW21802   2.148   4.292   6.581  0.4475  0.3941  0.3564
 3447SOL    HW121803   2.231   4.313   6.539 -0.4359 -3.4184 -3.1946
 3447SOL    HW221804   2.168   4.312   6.673 -0.0522  2.3521  0.0479
 3448SOL     OW21805   3.336   3.833   7.918 -0.1789 -0.0989  0.5819
 3448SOL    HW121806   3.391   3.911   7.908  0.0302 -0.5638 -1.9322
 3448SOL    HW221807   3.386   3.781   7.979 -0.9633 -0.9435  0.5014
 3449SOL     OW21808   3.711   3.666  16.017  0.3578 -0.3298 -0.0399
 3449SOL    HW121809   3.730   3.579  15.981  2.8980  0.5283 -0.7589
 3449SOL    HW221810   3.711   3.661  16.113 -1.8139  2.6062  0.0972
 3450SOL     OW21811   0.851   1.463  14.530 -0.1648 -0.1917 -0.2470
 3450SOL    HW121812   0.895   1.454  14.445 -1.9375 -0.3525 -1.1586
 3450SOL    HW221813   0.919   1.505  14.581  1.3980 -0.8074 -1.8281
 3451SOL     OW21814   3.155   2.592   8.247 -0.1554 -0.5939  0.4108
 3451SOL    HW121815   3.241   2.552   8.263 -0.1168 -0.8954 -0.5440
 3451SOL    HW221816   3.112   2.555   8.324 -1.4845 -0.1873 -0.1418
 3452SOL     OW21817   3.426   3.745   1.172 -0.2269 -0.3108 -0.1030
 3452SOL    HW121818   3.485   3.802   1.123  0.5916 -0.8013  0.3036
 3452SOL    HW221819   3.475   3.708   1.246  0.3604  0.0708 -0.3065
 3453SOL     OW21820   3.812   1.935   6.125  0.7469 -0.2115 -0.0157
 3453SOL    HW121821   3.759   1.892   6.059  1.1842 -2.7454  1.3011
 3453SOL    HW221822   3.865   1.992   6.069  0.9744 -0.7254 -0.3226
 3454SOL     OW21823   0.850   2.128  14.986  0.2072  0.0162  0.0741
 3454SOL    HW121824   0.844   2.139  14.891 -0.5631  1.2103  0.2714
 3454SOL    HW221825   0.940   2.156  15.000  0.1648 -0.8881  2.0809
 3455SOL     OW21826   3.033   0.465   0.488 -0.2114 -0.5982 -0.6749
 3455SOL    HW121827   2.975   0.538   0.510  0.3237 -0.6632  0.9590
 3455SOL    HW221828   2.965   0.398   0.478 -1.4778  0.9546 -2.3790
 3456SOL     OW21829   2.612   2.404  15.028 -0.0942 -0.4766 -0.5112
 3456SOL    HW121830   2.531   2.421  14.980  1.2670  1.8232 -1.9488
 3456SOL    HW221831   2.676   2.456  14.980  0.0062 -0.5609 -0.4695
 3457SOL     OW21832   2.456   1.345   5.241  0.2412  0.0958 -0.4733
 3457SOL    HW121833   2.398   1.334   5.165 -0.7288 -2.7531  0.6931
 3457SOL    HW221834   2.471   1.254   5.265 -2.5562 -1.0833 -3.1840
 3458SOL     OW21835   3.306   3.397   9.440 -0.5082 -0.0314  0.3482
 3458SOL    HW121836   3.262   3.449   9.506  0.7936  0.2773  0.9599
 3458SOL    HW221837   3.325   3.317   9.489 -0.1134  0.5531  1.1431
 3459SOL     OW21838   1.797   1.031   4.817 -0.4448  0.0297 -0.0101
 3459SOL    HW121839   1.744   1.022   4.896  1.5295 -0.6379  1.2487
 3459SOL    HW221840   1.772   0.949   4.775 -1.6209  0.4596 -0.1641
 3460SOL     OW21841   1.182   1.431   8.310  0.3665  0.2440 -0.2714
 3460SOL    HW121842   1.168   1.365   8.379  0.4626  0.2857 -0.2119
 3460SOL    HW221843   1.186   1.506   8.370  0.2912  0.7358 -0.8916
 3461SOL     OW21844   2.851   3.569  12.903 -0.3030 -0.0216 -0.3231
 3461SOL    HW121845   2.897   3.610  12.976 -0.6509 -1.3309  0.6296
 3461SOL    HW221846   2.765   3.555  12.943 -0.5742 -0.3160 -1.0136
 3462SOL     OW21847   2.647   2.703   7.206 -0.4127  0.3094 -0.1296
 3462SOL    HW121848   2.721   2.655   7.168 -0.9813  0.0796 -0.9588
 3462SOL    HW221849   2.610   2.633   7.259 -0.1494  0.3523  0.1080
 3463SOL     OW21850   1.624   2.560   9.394  0.3954  0.1430 -0.3304
 3463SOL    HW121851   1.671   2.642   9.403  0.9417 -0.1499 -0.4958
 3463SOL    HW221852   1.537   2.598   9.379 -0.7984 -2.9555 -1.4498
 3464SOL     OW21853   0.179   1.126   1.283  0.0944  0.1898 -0.0713
 3464SOL    HW121854   0.163   1.219   1.269 -0.4589 -0.5188 -4.0380
 3464SOL    HW221855   0.258   1.122   1.337 -1.1808  0.1221  1.7851
 3465SOL     OW21856   4.621   1.575  10.089  0.1847  0.4025  0.2072
 3465SOL    HW121857   4.664   1.653  10.054  0.1442 -0.4808 -1.8184
 3465SOL    HW221858   4.627   1.585  10.184 -0.5190 -0.0988  0.3014
 3466SOL     OW21859   1.895   3.142   7.312  0.8987  0.2009 -0.0514
 3466SOL    HW121860   1.957   3.203   7.354  2.1811  1.0146 -3.1404
 3466SOL    HW221861   1.886   3.188   7.229 -0.9653  3.1292  1.7679
 3467SOL     OW21862   0.617   1.424  16.879  0.6721 -0.1150 -0.1934
 3467SOL    HW121863   0.671   1.433  16.957 -0.6507 -0.2098  0.7403
 3467SOL    HW221864   0.532   1.449  16.917  1.0164  0.8683 -0.0737
 3468SOL     OW21865   2.925   4.268   0.311 -0.3769 -0.7141  0.0966
 3468SOL    HW121866   2.847   4.276   0.365 -1.3530 -0.9971 -1.2709
 3468SOL    HW221867   2.953   4.359   0.309  1.1756 -1.1481  1.5213
 3469SOL     OW21868   1.773   0.506   2.195  0.2980  0.4364  0.0784
 3469SOL    HW121869   1.693   0.537   2.152  0.1971  0.2613  0.1359
 3469SOL    HW221870   1.829   0.583   2.203  3.7992 -1.9862 -1.0525
 3470SOL     OW21871   2.490   4.494   8.536  1.2249  0.2028 -0.2519
 3470SOL    HW121872   2.415   4.435   8.533  0.5904  0.9407  0.9853
 3470SOL    HW221873   2.503   4.505   8.630  2.1530  0.6823 -0.4302
 3471SOL     OW21874   2.770   2.585  17.409 -0.1116 -0.5782  0.4391
 3471SOL    HW121875   2.680   2.603  17.381  0.7673  0.4510 -1.6956
 3471SOL    HW221876   2.809   2.673  17.407 -0.7184 -0.2996  0.7929
 3472SOL     OW21877   0.127   3.762   6.300 -0.1741 -0.0165 -0.5384
 3472SOL    HW121878   0.189   3.695   6.270 -2.5540 -1.6869 -1.7123
 3472SOL    HW221879   0.065   3.766   6.227 -1.7237 -1.3078  0.6998
 3473SOL     OW21880   1.282   3.820  13.698  0.4549 -0.7565  0.3794
 3473SOL    HW121881   1.277   3.815  13.603  1.5134 -0.1852  0.2944
 3473SOL    HW221882   1.346   3.749  13.709  2.1397  0.5540 -1.0587
 3474SOL     OW21883   3.012   0.012  12.890 -0.2277 -0.5089 -0.3184
 3474SOL    HW121884   2.933   0.007  12.943  0.7390 -1.0330  1.0657
 3474SOL    HW221885   3.075   4.719  12.959  0.7632  1.0954 -0.7713
 3475SOL     OW21886   4.432   2.814  12.997 -0.5639  0.5057 -0.0676
 3475SOL    HW121887   4.365   2.808  12.929  0.7031  0.1750 -1.2623
 3475SOL    HW221888   4.506   2.811  12.937 -0.5906 -1.4014  0.0052
 3476SOL     OW21889   1.324   0.393  11.098  0.3473  0.4962  0.2746
 3476SOL    HW121890   1.359   0.316  11.142  0.2907 -0.1247 -0.7677
 3476SOL    HW221891   1.263   0.349  11.039 -0.2402  1.1051  0.4313
 3477SOL     OW21892   2.758   3.218   2.779 -0.2291  0.2353 -0.1469
 3477SOL    HW121893   2.829   3.280   2.796 -0.3901  0.7159 -1.2165
 3477SOL    HW221894   2.812   3.150   2.740 -1.4723 -1.0699  0.4107
 3478SOL     OW21895   3.751   2.383   4.111 -0.4982  0.3852  0.4795
 3478SOL    HW121896   3.762   2.435   4.190  1.4503 -2.9784  2.4227
 3478SOL    HW221897   3.663   2.352   4.132 -0.2325 -2.1370 -2.0507
 3479SOL     OW21898   3.958   3.737   3.988 -0.1762 -0.8740 -0.4512
 3479SOL    HW121899   3.866   3.716   4.005 -0.5500  1.5587  0.4702
 3479SOL    HW221900   3.948   3.814   3.932 -1.6388 -0.8339 -0.1242
 3480SOL     OW21901   1.910   3.835   5.220 -0.6074 -0.1182 -0.1472
 3480SOL    HW121902   1.875   3.923   5.237  1.2263  0.0188  2.8898
 3480SOL    HW221903   2.004   3.855   5.214 -0.9041  0.8952 -1.6024
 3481SOL     OW21904   4.169   1.516   8.270  0.2148 -0.1280  0.5190
 3481SOL    HW121905   4.143   1.574   8.199  2.0712  1.3326  1.0226
 3481SOL    HW221906   4.154   1.558   8.355 -2.1238 -1.4206  0.7578
 3482SOL     OW21907   0.984   3.791  13.837 -0.3421 -0.6056 -0.4562
 3482SOL    HW121908   0.995   3.702  13.805  1.7039 -0.0530 -1.2507
 3482SOL    HW221909   0.968   3.784  13.931  0.6602 -2.4020 -0.4336
 3483SOL     OW21910   2.683   1.317   2.223 -0.0715 -0.5838 -0.5762
 3483SOL    HW121911   2.753   1.296   2.284  0.2902 -2.6428 -1.7136
 3483SOL    HW221912   2.652   1.395   2.268 -0.9060 -2.1382  1.5489
 3484SOL     OW21913   0.561   1.441   8.816  0.5954  0.3018  0.6791
 3484SOL    HW121914   0.560   1.366   8.876 -1.1527 -0.3823 -0.1830
 3484SOL    HW221915   0.638   1.494   8.833  1.3397 -0.4281 -0.4535
 3485SOL     OW21916   1.824   3.848   7.749 -0.2540  0.1519  0.3742
 3485SOL    HW121917   1.821   3.764   7.794 -0.7056 -0.0882 -0.0983
 3485SOL    HW221918   1.899   3.838   7.691  0.1486 -2.0664  1.3021
 3486SOL     OW21919   1.326   3.062   2.617  0.0405  0.4253 -0.6485
 3486SOL    HW121920   1.419   3.050   2.636  0.5205  1.1960 -2.5719
 3486SOL    HW221921   1.286   3.005   2.683 -0.1382 -2.3379 -3.1563
 3487SOL     OW21922   4.364   2.720   1.788  0.5807 -0.2901 -0.5338
 3487SOL    HW121923   4.349   2.752   1.878 -0.7330  0.1250 -0.9006
 3487SOL    HW221924   4.308   2.771   1.730  0.6478 -1.1314 -1.3341
 3488SOL     OW21925   2.676   0.399   7.478  0.2687 -0.0210  0.1556
 3488SOL    HW121926   2.623   0.398   7.558 -2.3570  2.8912 -1.5744
 3488SOL    HW221927   2.606   0.421   7.418  0.4333 -0.8381 -0.3253
 3489SOL     OW21928   0.494   0.533   7.694  0.1260 -0.1195 -0.1488
 3489SOL    HW121929   0.447   0.535   7.777  1.1998 -0.1598  0.4470
 3489SOL    HW221930   0.552   0.606   7.716  0.8594 -0.6075 -0.4630
 3490SOL     OW21931   2.712   3.582   5.282  0.3265 -0.2889  0.0903
 3490SOL    HW121932   2.621   3.554   5.273 -1.3699  4.9895  1.1153
 3490SOL    HW221933   2.722   3.606   5.189 -0.2411  0.9562  0.3550
 3491SOL     OW21934   4.372   1.042  16.923 -0.1506  0.0895 -0.5306
 3491SOL    HW121935   4.409   1.126  16.897  0.7826  0.3553  1.7484
 3491SOL    HW221936   4.282   1.061  16.895 -0.2129  0.8245  0.1711
 3492SOL     OW21937   1.121   2.744   0.988  0.0132  0.6068 -0.1923
 3492SOL    HW121938   1.193   2.782   1.038 -0.0020 -0.0689  0.3384
 3492SOL    HW221939   1.057   2.716   1.053 -2.5557 -0.1079 -3.0458
 3493SOL     OW21940   1.678   2.039  10.812 -0.0129 -0.1775 -0.4212
 3493SOL    HW121941   1.761   2.053  10.858 -0.2445 -0.2764  0.0368
 3493SOL    HW221942   1.624   2.104  10.857 -0.9795 -0.5338 -1.0738
 3494SOL     OW21943   0.837   3.735   1.503  0.0196  0.2276  0.1161
 3494SOL    HW121944   0.752   3.693   1.511  0.5261 -0.7159  0.5430
 3494SOL    HW221945   0.896   3.661   1.488 -0.7319 -0.1813 -0.7967
 3495SOL     OW21946   3.040   4.670   9.935  0.6619 -0.0966  0.0750
 3495SOL    HW121947   3.043   0.030   9.893  0.3917 -1.1316 -2.0637
 3495SOL    HW221948   3.118   4.677   9.990  0.1921 -1.3625  0.8726
 3496SOL     OW21949   4.132   2.848   5.645 -0.1971  0.0926 -0.0435
 3496SOL    HW121950   4.137   2.915   5.713 -1.7056 -1.9423  2.0721
 3496SOL    HW221951   4.109   2.898   5.567  0.8653  2.6413  1.2583
 3497SOL     OW21952   1.845   0.504   3.186  0.3361  0.2971  0.0103
 3497SOL    HW121953   1.863   0.543   3.272 -2.7434  0.2042  0.7012
 3497SOL    HW221954   1.922   0.534   3.137  1.8666 -3.9770 -0.1493
 3498SOL     OW21955   2.083   4.047   0.325 -0.0477 -0.1904 -0.6876
 3498SOL    HW121956   2.015   4.001   0.276 -1.0839  1.9112 -1.2178
 3498SOL    HW221957   2.040   4.120   0.368  1.4360 -0.5962  1.4591
 3499SOL     OW21958   3.647   1.693   6.651 -0.0288 -0.1624  0.2126
 3499SOL    HW121959   3.740   1.674   6.644  0.6600  2.9984  0.5909
 3499SOL    HW221960   3.618   1.642   6.726  0.9246  0.6695  1.1305
 3500SOL     OW21961   3.566   2.112   4.344 -0.0221 -0.0919 -0.1408
 3500SOL    HW121962   3.511   2.076   4.414 -1.1718  1.2024 -0.3769
 3500SOL    HW221963   3.585   2.035   4.290 -0.5089 -0.4282  0.1705
 3501SOL     OW21964   4.228   0.944   9.752  0.0505  0.0604 -0.0966
 3501SOL    HW121965   4.205   1.017   9.810  2.1221  1.6565 -1.2981
 3501SOL    HW221966   4.323   0.948   9.747 -0.0111  0.9079 -0.6613
 3502SOL     OW21967   1.139   4.159   6.874 -0.1139  0.5902 -0.3049
 3502SOL    HW121968   1.107   4.249   6.862 -3.1120 -0.5126 -0.7275
 3502SOL    HW221969   1.186   4.167   6.957 -0.4950 -0.7602  0.0460
 3503SOL     OW21970   0.249   0.071   2.659  0.2255 -0.6566  0.0919
 3503SOL    HW121971   0.272   0.135   2.591  0.3856  0.3231  1.0596
 3503SOL    HW221972   0.166   0.042   2.621  0.2707 -1.2504  0.4558
 3504SOL     OW21973   1.129   2.304   3.165 -0.3054  0.0510  0.4179
 3504SOL    HW121974   1.159   2.347   3.246 -0.3793  0.6016  0.1553
 3504SOL    HW221975   1.105   2.215   3.189 -0.0918  0.4002  1.9436
 3505SOL     OW21976   2.831   3.134   1.375  0.0087 -0.5535 -0.4140
 3505SOL    HW121977   2.901   3.171   1.322 -0.1288  0.9848  0.4874
 3505SOL    HW221978   2.762   3.138   1.309  0.7313  0.7348 -1.0720
 3506SOL     OW21979   0.911   0.091   4.500  0.4097  0.1381  0.1254
 3506SOL    HW121980   0.958   0.025   4.551  0.6554  0.0085 -0.2636
 3506SOL    HW221981   0.954   0.173   4.522  0.5180 -0.1723  1.0624
 3507SOL     OW21982   0.192   3.458   6.418 -0.5175  0.4851 -0.0137
 3507SOL    HW121983   0.245   3.492   6.347 -0.7362  0.0768 -0.3740
 3507SOL    HW221984   0.256   3.393   6.446  1.5940  1.6750 -2.1321
 3508SOL     OW21985   1.615   1.678   6.111  0.2751 -1.0057  0.0686
 3508SOL    HW121986   1.546   1.671   6.046  0.1029  0.0754  0.1260
 3508SOL    HW221987   1.676   1.607   6.090  2.1980  0.4711  0.5543
 3509SOL     OW21988   3.273   0.907   3.632 -0.5890 -0.4113 -0.4149
 3509SOL    HW121989   3.181   0.917   3.609 -0.9429  0.1214  1.1879
 3509SOL    HW221990   3.272   0.924   3.727  1.4250  0.3015 -0.5235
 3510SOL     OW21991   0.552   2.909   5.909 -0.4111  0.5289 -0.5567
 3510SOL    HW121992   0.485   2.863   5.857 -0.5748  2.3854 -1.9883
 3510SOL    HW221993   0.634   2.905   5.860  0.7721 -1.9532  1.6596
 3511SOL     OW21994   1.332   1.885   8.488  0.5046 -0.1647 -0.4423
 3511SOL    HW121995   1.365   1.834   8.414  1.7080 -0.1173  0.0491
 3511SOL    HW221996   1.351   1.976   8.462  0.7049  0.1500  0.8090
 3512SOL     OW21997   2.839   2.914   1.539  0.2514  0.0001  0.8447
 3512SOL    HW121998   2.931   2.892   1.556  0.2262  0.6675  1.8194
 3512SOL    HW221999   2.859   2.990   1.485 -0.3665 -0.2356  0.2815
 3513SOL     OW22000   2.044   4.489  17.213 -0.1221 -0.4502  0.9328
 3513SOL    HW122001   2.003   4.508  17.298 -2.2599  2.8515 -0.8560
 3513SOL    HW222002   1.990   4.421  17.173  0.8794  0.2363 -1.5518
 3514SOL     OW22003   4.663   3.118   8.876 -0.2653  0.2578  0.2589
 3514SOL    HW122004   4.696   3.152   8.793  0.9914  0.0395  0.6675
 3514SOL    HW222005   4.639   3.027   8.856  0.0666 -0.6046  3.7667
 3515SOL     OW22006   1.960   4.151   7.307  0.8028  0.0296  0.1544
 3515SOL    HW122007   1.894   4.187   7.366  0.7791 -0.3686  0.3734
 3515SOL    HW222008   1.906   4.094   7.252 -0.9627  0.5674  1.2982
 3516SOL     OW22009   4.338   0.822   5.847  0.1274 -0.6512 -0.5130
 3516SOL    HW122010   4.310   0.821   5.756 -2.2317  0.0571  0.2047
 3516SOL    HW222011   4.433   0.821   5.831  0.2069  1.8844 -0.1220
 3517SOL     OW22012   1.497   2.100   3.922 -0.3930 -0.4165 -0.0128
 3517SOL    HW122013   1.517   2.170   3.860 -0.2858 -0.9282 -0.5525
 3517SOL    HW222014   1.584   2.061   3.917 -1.1889 -2.1175 -0.3686
 3518SOL     OW22015   2.256   1.880  14.149 -0.7669 -0.1861  0.7930
 3518SOL    HW122016   2.252   1.892  14.244  1.8343 -2.8282  1.2011
 3518SOL    HW222017   2.221   1.791  14.147 -1.7713  0.1872  1.4523
 3519SOL     OW22018   4.217   1.929   6.824 -0.4093 -1.0011 -0.0347
 3519SOL    HW122019   4.141   1.897   6.776  0.5318 -0.1990 -2.0984
 3519SOL    HW222020   4.229   1.851   6.879 -1.0083 -0.1592  1.2870
 3520SOL     OW22021   1.930   1.934   2.233  0.9694  0.1189 -0.6535
 3520SOL    HW122022   1.889   1.856   2.270  0.3765  1.5630  1.7647
 3520SOL    HW222023   1.942   1.899   2.145  0.0801 -1.8131 -0.0129
 3521SOL     OW22024   2.369   4.620   7.878  0.3434 -0.2779 -0.0156
 3521SOL    HW122025   2.277   4.610   7.855  0.2462  2.9781 -1.0459
 3521SOL    HW222026   2.380   4.554   7.947 -1.2460 -0.0459  0.4556
 3522SOL     OW22027   0.875   4.119   6.620  0.6988 -0.1336 -0.2961
 3522SOL    HW122028   0.874   4.074   6.704  0.6600 -1.2713 -0.9031
 3522SOL    HW222029   0.862   4.208   6.654 -0.4545 -0.2970 -0.3288
 3523SOL     OW22030   4.103   2.288   6.155  0.3204  0.4542  0.3129
 3523SOL    HW122031   4.142   2.228   6.091  1.2252 -0.2533  1.5367
 3523SOL    HW222032   4.143   2.252   6.234 -1.5026  0.6492  1.3218
 3524SOL     OW22033   3.156   4.454   8.021 -0.1565  0.1371  0.3605
 3524SOL    HW122034   3.143   4.428   8.112 -0.7604  0.1045  0.2657
 3524SOL    HW222035   3.248   4.429   8.012  0.3691  2.0216  0.5451
 3525SOL     OW22036   2.935   4.360   8.445  0.1431  0.5542  0.0567
 3525SOL    HW122037   2.866   4.423   8.428  0.2850  0.5880 -0.4020
 3525SOL    HW222038   2.926   4.334   8.536  1.0037 -1.5043 -0.4400
 3526SOL     OW22039   1.551   1.510   9.813  0.0564 -0.1724 -0.0339
 3526SOL    HW122040   1.563   1.550   9.727  2.4223 -0.9629 -0.0574
 3526SOL    HW222041   1.604   1.433   9.790 -1.5656 -1.1751 -0.4037
 3527SOL     OW22042   1.012   1.953   0.463  0.2860 -0.2425 -0.1433
 3527SOL    HW122043   1.040   1.933   0.552 -0.7251 -0.0732  0.2214
 3527SOL    HW222044   0.982   2.042   0.482 -2.2418 -1.2943  0.9204
 3528SOL     OW22045   1.344   0.755  10.033 -0.6443 -0.0563  0.6276
 3528SOL    HW122046   1.437   0.765  10.014 -1.0179 -2.0629 -2.2453
 3528SOL    HW222047   1.329   0.661  10.043 -1.9749  0.0720 -0.1489
 3529SOL     OW22048   1.825   1.095   2.299  0.3425  0.0850 -0.4105
 3529SOL    HW122049   1.917   1.120   2.297  0.1734  0.8526  1.7226
 3529SOL    HW222050   1.792   1.182   2.276  2.3366  1.2135  1.0141
 3530SOL     OW22051   1.249   2.035   1.022 -0.1191 -0.1665 -0.4007
 3530SOL    HW122052   1.236   2.058   0.930 -1.3469  2.0442  0.3448
 3530SOL    HW222053   1.342   2.048   1.041 -0.1368  0.4783 -0.7496
 3531SOL     OW22054   2.832   3.808   0.819  0.0270  0.2996 -0.1506
 3531SOL    HW122055   2.817   3.878   0.756  0.5891 -0.6972 -1.3957
 3531SOL    HW222056   2.857   3.738   0.759 -0.0166 -0.1846  0.3898
 3532SOL     OW22057   3.444   0.703   5.401 -0.3505  0.0241  0.5196
 3532SOL    HW122058   3.389   0.710   5.478 -0.4368 -2.3279  0.6806
 3532SOL    HW222059   3.531   0.696   5.439 -0.2027  1.9729  0.5618
 3533SOL     OW22060   1.797   0.356   7.635 -0.0070 -0.0862 -0.0991
 3533SOL    HW122061   1.866   0.402   7.683  0.9357 -2.1185  0.4963
 3533SOL    HW222062   1.792   0.270   7.678 -2.2415 -0.2308 -0.6652
 3534SOL     OW22063   1.764   3.618   7.480  0.3256 -0.1354  0.2415
 3534SOL    HW122064   1.776   3.599   7.387 -0.3046  0.6257  0.0054
 3534SOL    HW222065   1.714   3.700   7.482 -0.0474 -0.3544  0.0391
 3535SOL     OW22066   4.291   4.015   2.702 -0.5287 -0.0367  0.1744
 3535SOL    HW122067   4.335   4.099   2.697 -1.9349  0.5828 -1.9509
 3535SOL    HW222068   4.281   3.982   2.613  0.8624 -2.5971  0.9709
 3536SOL     OW22069   2.556   2.646   3.154 -0.1078 -0.1372  0.3364
 3536SOL    HW122070   2.496   2.715   3.124  0.2380  0.2541  0.5383
 3536SOL    HW222071   2.544   2.657   3.248  2.6378 -1.8425  0.8734
 3537SOL     OW22072   2.522   0.281   4.387 -0.2404  0.1540  0.3315
 3537SOL    HW122073   2.553   0.209   4.332 -2.3205 -0.7481  0.3566
 3537SOL    HW222074   2.485   0.331   4.315  0.3114  0.7324  0.4529
 3538SOL     OW22075   4.532   0.421   0.227 -0.3138  0.1767  0.0269
 3538SOL    HW122076   4.476   0.374   0.289  1.2910  1.1141  2.1876
 3538SOL    HW222077   4.589   0.348   0.200 -0.5245 -0.4667  1.3312
 3539SOL     OW22078   3.534   3.927   7.325  0.1813  0.1783 -0.5831
 3539SOL    HW122079   3.444   3.916   7.353 -0.0753 -0.1503 -1.5233
 3539SOL    HW222080   3.552   3.999   7.385 -3.1556 -1.0936  1.9501
 3540SOL     OW22081   4.487   2.490   1.784  0.0634  0.1349  0.2382
 3540SOL    HW122082   4.556   2.509   1.721  1.2024  0.6191  1.6460
 3540SOL    HW222083   4.444   2.575   1.777  0.6110  0.3978  0.0648
 3541SOL     OW22084   3.984   0.387  10.560 -0.4543  0.6953 -0.5538
 3541SOL    HW122085   4.065   0.396  10.610  0.0973 -1.6735 -1.0268
 3541SOL    HW222086   3.910   0.400  10.620  0.6959 -1.7694  1.4158
 3542SOL     OW22087   0.173   0.252  15.470 -0.1938  0.3682 -0.6665
 3542SOL    HW122088   0.193   0.179  15.528  1.2982  2.3204  1.2504
 3542SOL    HW222089   0.079   0.259  15.490 -0.5864 -1.2883 -1.8892
 3543SOL     OW22090   3.579   2.375   3.842 -0.3853 -0.7034 -0.2248
 3543SOL    HW122091   3.645   2.377   3.911  0.3549 -2.6093 -0.8714
 3543SOL    HW222092   3.602   2.302   3.784 -3.1219 -3.1317  1.7093
 3544SOL     OW22093   0.841   0.153  13.795 -0.4979 -0.3292 -0.0496
 3544SOL    HW122094   0.786   0.142  13.717 -2.8730 -0.4416  1.6155
 3544SOL    HW222095   0.932   0.139  13.771 -0.7968 -0.7841 -0.9043
 3545SOL     OW22096   3.702   0.061   6.237  0.3512 -0.3871 -0.5139
 3545SOL    HW122097   3.708   0.138   6.293  2.2852 -2.4655  2.1808
 3545SOL    HW222098   3.647   0.006   6.293 -0.0107 -1.0517 -1.5265
 3546SOL     OW22099   2.225   0.299   6.214 -0.7281  0.9561 -0.1964
 3546SOL    HW122100   2.315   0.268   6.205 -1.1741 -1.1254  2.4556
 3546SOL    HW222101   2.249   0.370   6.274  0.0632  1.1984 -0.7989
 3547SOL     OW22102   3.753   0.121   3.095 -0.5078  0.2516  0.0074
 3547SOL    HW122103   3.697   0.088   3.024  0.9908 -2.6911  0.1976
 3547SOL    HW222104   3.831   0.153   3.049 -2.4861  1.5185 -2.4985
 3548SOL     OW22105   0.913   1.629   1.223  0.0024 -0.4659 -0.4601
 3548SOL    HW122106   0.986   1.570   1.206 -0.1652 -0.2887 -1.8131
 3548SOL    HW222107   0.941   1.689   1.153  0.9530  2.3135  2.2780
 3549SOL     OW22108   4.310   1.928   8.723 -0.5795 -0.1613 -0.1520
 3549SOL    HW122109   4.312   1.914   8.818  0.8214  0.5557 -0.0807
 3549SOL    HW222110   4.337   2.019   8.714 -0.6782 -0.0589  0.5653
 3550SOL     OW22111   0.472   0.666   4.393  0.3898  0.4430  0.1817
 3550SOL    HW122112   0.540   0.600   4.378 -1.4408 -1.0438 -1.6619
 3550SOL    HW222113   0.397   0.613   4.363 -0.4369  1.4211  0.5235
 3551SOL     OW22114   3.303   0.810   2.849 -0.1738  0.1629  0.3426
 3551SOL    HW122115   3.235   0.794   2.915 -2.4801 -1.6637 -2.4562
 3551SOL    HW222116   3.340   0.723   2.842  0.9885  0.5577  1.7887
 3552SOL     OW22117   0.967   2.420   8.656  0.3985  0.3979 -0.4232
 3552SOL    HW122118   0.925   2.338   8.634 -0.8896  1.7449 -3.0460
 3552SOL    HW222119   1.052   2.376   8.660  0.8111  1.3201  1.0733
 3553SOL     OW22120   1.293   1.048   8.005  0.6032  0.3164 -1.1711
 3553SOL    HW122121   1.288   0.972   7.947  0.2242 -0.0852 -0.6209
 3553SOL    HW222122   1.231   1.037   8.077  2.5263  0.7350  0.5628
 3554SOL     OW22123   0.108   1.569   6.444  0.0472  0.7045 -0.4339
 3554SOL    HW122124   0.178   1.585   6.381  1.4403 -0.9592  0.7189
 3554SOL    HW222125   0.060   1.651   6.429 -1.8594 -0.1096  1.2045
 3555SOL     OW22126   4.266   1.502   1.781 -0.1914 -0.2831  0.0775
 3555SOL    HW122127   4.293   1.509   1.873  0.4431 -1.0802 -0.0422
 3555SOL    HW222128   4.206   1.576   1.782  0.2195  0.0281  2.5443
 3556SOL     OW22129   0.188   2.774   9.979 -0.3858  0.0880  0.0233
 3556SOL    HW122130   0.173   2.868   9.971  1.2824  0.2138 -1.8573
 3556SOL    HW222131   0.240   2.769  10.059 -1.7830 -0.7228  0.8661
 3557SOL     OW22132   2.500   4.226   7.594  0.1853  0.2921 -0.0017
 3557SOL    HW122133   2.407   4.205   7.593  0.2151  0.2098 -1.0208
 3557SOL    HW222134   2.501   4.322   7.598  1.7589  0.2727  0.1420
 3558SOL     OW22135   2.264   1.024   4.077  0.1533 -1.0555  0.2835
 3558SOL    HW122136   2.248   1.111   4.041  3.1632 -0.6672 -0.1200
 3558SOL    HW222137   2.197   1.015   4.145 -2.4024  2.4308 -1.7795
 3559SOL     OW22138   0.253   1.333   9.584  0.2827  0.1039  0.2073
 3559SOL    HW122139   0.183   1.276   9.617 -0.6125  1.0078 -0.1399
 3559SOL    HW222140   0.293   1.280   9.515  0.1847 -0.7883  0.8255
 3560SOL     OW22141   0.324   2.249   9.314  0.0270  0.2934  0.0883
 3560SOL    HW122142   0.253   2.185   9.311 -1.6159  2.0451  1.8648
 3560SOL    HW222143   0.277   2.325   9.348  2.4017  2.0818 -0.6275
 3561SOL     OW22144   1.942   3.326   1.287 -0.4722 -0.2244 -0.1654
 3561SOL    HW122145   2.007   3.395   1.287 -1.8268  1.0620  1.5180
 3561SOL    HW222146   1.996   3.248   1.299 -1.1047 -0.5793  0.4312
 3562SOL     OW22147   3.014   4.198  14.213 -0.5800 -0.8519  0.6987
 3562SOL    HW122148   3.045   4.115  14.250  0.1047  0.1304  2.3530
 3562SOL    HW222149   3.070   4.269  14.246  0.0465 -1.4465  0.9107
 3563SOL     OW22150   4.433   3.623   4.380  0.4105  0.0422 -0.5440
 3563SOL    HW122151   4.410   3.589   4.293 -0.7104  3.6603 -1.6498
 3563SOL    HW222152   4.514   3.574   4.397  0.3187 -0.2011 -0.8058
 3564SOL     OW22153   3.994   2.628   0.101 -0.9005  0.4533  0.0076
 3564SOL    HW122154   3.979   2.572   0.025 -1.8762  0.6480  0.0549
 3564SOL    HW222155   3.934   2.701   0.088 -0.5758  1.0552  1.9112
 3565SOL     OW22156   1.939   1.071   3.817 -0.3185 -0.3352 -0.4450
 3565SOL    HW122157   1.878   1.085   3.745  0.1258 -1.9769 -1.1350
 3565SOL    HW222158   1.879   1.049   3.888 -0.7577  0.0649 -0.6946
 3566SOL     OW22159   3.491   0.665   7.318 -0.4794  0.1461 -0.0460
 3566SOL    HW122160   3.572   0.703   7.352  0.4473 -0.9088 -1.0362
 3566SOL    HW222161   3.526   0.600   7.257  0.4675 -0.5048  1.1793
 3567SOL     OW22162   2.134   2.031   0.578  0.2254  0.0683  0.1036
 3567SOL    HW122163   2.079   2.062   0.507  0.7652  2.8069  0.8843
 3567SOL    HW222164   2.081   1.962   0.617 -1.0101  1.7073  1.3121
 3568SOL     OW22165   1.687   4.130   7.455 -0.4551  0.2453  0.0409
 3568SOL    HW122166   1.697   4.225   7.450 -0.0590  0.1031 -1.7930
 3568SOL    HW222167   1.664   4.115   7.547 -0.1368  0.4149  0.1480
 3569SOL     OW22168   2.394   0.799   1.833  0.1315 -0.0039 -0.0466
 3569SOL    HW122169   2.317   0.748   1.806 -0.8928  1.7679 -0.4994
 3569SOL    HW222170   2.412   0.751   1.914  0.5574 -0.3407 -0.3426
 3570SOL     OW22171   2.804   1.502   2.734  0.9025 -0.0563 -0.8007
 3570SOL    HW122172   2.838   1.418   2.703  1.8851 -0.0321  0.2087
 3570SOL    HW222173   2.843   1.516   2.821  0.6340  0.8331 -0.8187
 3571SOL     OW22174   2.809   1.625   4.520 -0.2978 -0.3127 -0.1306
 3571SOL    HW122175   2.757   1.556   4.560  1.3934 -0.2100  2.2222
 3571SOL    HW222176   2.833   1.585   4.437 -0.2237  0.3164 -0.4139
 3572SOL     OW22177   0.104   2.797   7.813 -0.3058  0.5591 -0.0642
 3572SOL    HW122178   0.131   2.713   7.775  1.2476  0.2878  1.6262
 3572SOL    HW222179   0.183   2.848   7.793  1.0275 -0.2089  3.2011
 3573SOL     OW22180   0.995   0.905   6.770 -0.1703 -0.2824  0.0522
 3573SOL    HW122181   1.069   0.849   6.793 -0.5935 -0.7498  0.2911
 3573SOL    HW222182   0.947   0.855   6.704 -0.7355  0.7589 -0.3325
 3574SOL     OW22183   0.968   0.021   7.877  0.7394 -0.0607  0.0687
 3574SOL    HW122184   0.969   4.691   7.800  0.3111 -0.5170  0.3932
 3574SOL    HW222185   0.890   0.074   7.860 -0.1109 -0.1511  3.6997
 3575SOL     OW22186   3.163   4.514   8.758  0.0908 -0.5722 -0.3740
 3575SOL    HW122187   3.154   4.479   8.847 -1.5886  2.1053  0.5184
 3575SOL    HW222188   3.242   4.470   8.728  0.7076 -0.8124  1.5966
 3576SOL     OW22189   4.319   1.569  16.878 -0.2143 -0.3217 -0.6100
 3576SOL    HW122190   4.363   1.631  16.821  1.1290 -0.8797 -0.1868
 3576SOL    HW222191   4.239   1.556  16.828  0.9336 -1.3470 -2.1489
 3577SOL     OW22192   1.883   2.414   9.012 -0.3489 -0.9883  0.0086
 3577SOL    HW122193   1.928   2.408   9.097  0.2666  0.9851 -0.1755
 3577SOL    HW222194   1.812   2.475   9.033  0.3038 -1.1439  2.6394
 3578SOL     OW22195   1.585   3.978   7.715 -0.1718 -0.3512 -0.2401
 3578SOL    HW122196   1.534   3.902   7.741 -0.5591  0.3802  1.1350
 3578SOL    HW222197   1.672   3.942   7.732 -0.4509 -1.6360 -1.5394
 3579SOL     OW22198   0.324   3.544   1.695 -0.5637  0.1393  0.5075
 3579SOL    HW122199   0.287   3.493   1.767 -1.3370  0.8621  0.6204
 3579SOL    HW222200   0.403   3.581   1.734 -1.2941  1.4943  0.6916
 3580SOL     OW22201   3.488   3.416   5.392  0.3371 -0.6730 -0.3092
 3580SOL    HW122202   3.504   3.460   5.308 -0.5426 -0.0862 -0.1630
 3580SOL    HW222203   3.545   3.339   5.400 -0.7807 -1.5016 -0.2985
 3581SOL     OW22204   2.553   1.999   8.849  0.2396  0.4088  0.3939
 3581SOL    HW122205   2.477   1.957   8.891 -0.2600  1.5352  0.6116
 3581SOL    HW222206   2.536   2.091   8.871 -0.3818  0.8700 -2.0407
 3582SOL     OW22207   1.265   3.312   5.177  0.0840 -0.6042 -0.3227
 3582SOL    HW122208   1.220   3.389   5.212 -0.5225 -1.2317  0.2924
 3582SOL    HW222209   1.206   3.249   5.218  1.1428 -2.8546 -2.2582
 3583SOL     OW22210   1.610   1.474   3.303  0.2074 -0.1411 -0.6298
 3583SOL    HW122211   1.676   1.426   3.353 -0.2038 -2.5717 -2.4072
 3583SOL    HW222212   1.591   1.412   3.232 -5.1294 -0.4210  1.0137
 3584SOL     OW22213   3.610   2.784   7.144 -0.0052  0.0552  0.3568
 3584SOL    HW122214   3.548   2.844   7.102  1.0247  1.3768  0.7199
 3584SOL    HW222215   3.632   2.831   7.224 -0.1704 -0.2603  0.5888
 3585SOL     OW22216   1.549   1.336   7.570  1.0089 -0.4858 -0.1997
 3585SOL    HW122217   1.535   1.423   7.531  0.6860 -1.2272 -1.7365
 3585SOL    HW222218   1.478   1.284   7.532  0.4044  0.5475 -0.4784
 3586SOL     OW22219   4.353   1.247   5.803  0.6563 -0.2564 -0.0664
 3586SOL    HW122220   4.279   1.219   5.857  2.0331 -1.1931  1.3122
 3586SOL    HW222221   4.325   1.224   5.714  1.4521  0.0168 -0.3894
 3587SOL     OW22222   3.630   3.191   5.343  0.5314  0.0820 -0.1098
 3587SOL    HW122223   3.568   3.133   5.387 -0.2685  0.0466 -1.2734
 3587SOL    HW222224   3.647   3.155   5.256  0.3422 -1.6057  0.5615
 3588SOL     OW22225   3.368   0.603   7.046  0.4498  0.1554 -0.4607
 3588SOL    HW122226   3.445   0.559   7.084 -0.5692 -1.7087 -0.5586
 3588SOL    HW222227   3.306   0.555   7.101  0.8729  1.6728  1.3517
 3589SOL     OW22228   0.193   0.633   7.009 -0.2925 -0.3238 -0.1583
 3589SOL    HW122229   0.172   0.546   6.976 -0.1446 -1.0538  1.6392
 3589SOL    HW222230   0.232   0.678   6.934 -1.6203  1.4364  0.2074
 3590SOL     OW22231   2.536   3.469  16.554 -0.2507 -0.4076 -0.0569
 3590SOL    HW122232   2.490   3.400  16.508 -0.1387 -1.0373  0.7774
 3590SOL    HW222233   2.474   3.507  16.616  1.3109  0.6615  0.8667
 3591SOL     OW22234   0.097   3.976  14.872 -0.2266 -0.1728  0.0479
 3591SOL    HW122235   0.159   4.041  14.839  0.4140 -1.0334 -0.4535
 3591SOL    HW222236   0.130   3.967  14.962  1.9751  1.3139 -0.6316
 3592SOL     OW22237   1.582   3.184   8.953  0.3617 -0.7063 -0.0064
 3592SOL    HW122238   1.561   3.161   8.863  0.3265 -0.3962 -0.0784
 3592SOL    HW222239   1.503   3.226   8.988  1.1266  1.8305 -1.3026
 3593SOL     OW22240   1.722   1.936  12.680  0.6624  0.9981  0.2799
 3593SOL    HW122241   1.711   2.025  12.712  1.3203  0.9960  0.5165
 3593SOL    HW222242   1.787   1.903  12.742 -1.0972 -1.8607  0.6441
 3594SOL     OW22243   4.066   0.234  10.826  0.0358 -0.2998 -0.2167
 3594SOL    HW122244   3.990   0.186  10.793 -0.0730  0.2906 -0.8250
 3594SOL    HW222245   4.035   0.260  10.913  1.6137  0.4132  0.1447
 3595SOL     OW22246   1.987   2.809   4.809  0.4297 -0.7761  0.3705
 3595SOL    HW122247   1.937   2.763   4.876 -1.2657 -0.0313 -0.3537
 3595SOL    HW222248   1.932   2.887   4.802 -0.4796 -1.4480 -0.0567
 3596SOL     OW22249   2.278   2.408   2.339  0.3549 -0.5629  0.0386
 3596SOL    HW122250   2.313   2.427   2.426  0.5669  1.7632 -0.5634
 3596SOL    HW222251   2.226   2.486   2.319 -0.2459 -1.2056 -0.8659
 3597SOL     OW22252   1.329   4.157   9.574  0.0446 -0.1345 -0.1512
 3597SOL    HW122253   1.328   4.143   9.669 -1.1569 -1.7635 -0.3921
 3597SOL    HW222254   1.336   4.064   9.552  0.7970 -0.1962  0.3379
 3598SOL     OW22255   4.472   4.546   0.392  0.3878 -0.7444 -0.2421
 3598SOL    HW122256   4.404   4.595   0.438 -0.1530  0.3722 -2.2707
 3598SOL    HW222257   4.547   4.566   0.449 -0.9635  1.7200  0.6750
 3599SOL     OW22258   1.371   2.022   2.794  0.5587  0.4709  0.1874
 3599SOL    HW122259   1.443   2.084   2.784 -0.1039  1.0524 -0.9569
 3599SOL    HW222260   1.388   1.955   2.728 -1.6102  0.0126  0.0859
 3600SOL     OW22261   2.745   0.723   6.980  0.1038 -0.0381 -0.3811
 3600SOL    HW122262   2.681   0.779   7.023  0.5146 -2.0540  2.8239
 3600SOL    HW222263   2.777   0.677   7.057  1.2433 -0.6319 -1.2040
 3601SOL     OW22264   3.859   1.392  12.179 -0.6529  0.4804 -0.0711
 3601SOL    HW122265   3.884   1.362  12.091  0.5869 -0.7270  0.6958
 3601SOL    HW222266   3.886   1.319  12.235  0.7657  1.3189  0.3240
 3602SOL     OW22267   0.388   2.115   3.768 -0.3786  0.0958  0.3928
 3602SOL    HW122268   0.372   2.115   3.674  4.5876 -0.1553 -0.4102
 3602SOL    HW222269   0.323   2.170   3.812  0.6668  1.2888  0.4260
 3603SOL     OW22270   2.816   3.383   8.202 -0.0926  0.1110 -0.2250
 3603SOL    HW122271   2.843   3.422   8.285 -0.1271 -2.9467  1.2228
 3603SOL    HW222272   2.872   3.306   8.202 -2.2327 -1.4714 -0.1922
 3604SOL     OW22273   2.615   3.807   6.711  0.2748 -0.4154 -0.3870
 3604SOL    HW122274   2.607   3.714   6.735 -2.0619  0.3275  1.7528
 3604SOL    HW222275   2.676   3.799   6.638 -1.9171 -2.3991 -2.0216
 3605SOL     OW22276   3.786   1.655   8.976  0.4639  0.5871 -0.2672
 3605SOL    HW122277   3.867   1.680   9.022 -1.2033  0.5167  2.6745
 3605SOL    HW222278   3.825   1.608   8.902 -1.0128  0.8569 -1.2156
 3606SOL     OW22279   4.710   4.184  16.200 -0.0921 -0.1372  0.3945
 3606SOL    HW122280   4.665   4.267  16.213  1.6293  1.1189 -1.7015
 3606SOL    HW222281   0.046   4.209  16.132 -0.5477  1.8109  0.6911
 3607SOL     OW22282   1.393   4.490   3.889  0.5908  0.2852  0.0240
 3607SOL    HW122283   1.389   4.413   3.833 -1.0578  1.7168 -1.8354
 3607SOL    HW222284   1.399   4.552   3.816 -1.1856  1.1559  0.6086
 3608SOL     OW22285   4.115   0.440   8.841 -0.0978  0.1081 -0.3855
 3608SOL    HW122286   4.156   0.411   8.760 -0.4875  0.6309 -0.7771
 3608SOL    HW222287   4.135   0.534   8.837 -0.0737  0.0446 -1.7397
 3609SOL     OW22288   1.634   1.170   8.819 -0.0954 -0.1015 -0.1614
 3609SOL    HW122289   1.623   1.147   8.912  0.7566  1.4689  0.3383
 3609SOL    HW222290   1.730   1.171   8.815 -0.0899 -0.3646 -0.0544
 3610SOL     OW22291   0.379   3.550   8.781  0.2431  0.1116 -0.9144
 3610SOL    HW122292   0.420   3.632   8.806  2.1673 -1.2816  0.5255
 3610SOL    HW222293   0.304   3.543   8.840 -0.3975  2.3196 -1.4847
 3611SOL     OW22294   1.636   2.171  12.856  0.8262  0.5859  0.2527
 3611SOL    HW122295   1.603   2.238  12.916  0.7554  0.2430  0.5966
 3611SOL    HW222296   1.730   2.189  12.850  0.8701  0.9657  2.1027
 3612SOL     OW22297   1.619   3.011   9.400 -0.0832  0.1095  0.1447
 3612SOL    HW122298   1.538   3.015   9.350  0.2146 -0.7034 -0.4111
 3612SOL    HW222299   1.588   3.010   9.491  0.7698  1.3319  0.4549
 3613SOL     OW22300   2.704   3.808   6.023  0.0974  0.4074  0.0844
 3613SOL    HW122301   2.642   3.735   6.027  1.0411 -0.2412  3.1773
 3613SOL    HW222302   2.775   3.777   5.966 -0.4619 -0.3078 -0.2317
 3614SOL     OW22303   4.687   0.368   7.441  0.2572 -0.0066  0.1077
 3614SOL    HW122304   4.649   0.391   7.356  2.6436  1.6452 -0.5018
 3614SOL    HW222305   0.018   0.298   7.412  0.0961  0.2552 -0.8422
 3615SOL     OW22306   3.422   4.310   3.274  0.8123 -0.3365  1.0124
 3615SOL    HW122307   3.329   4.330   3.287  0.1698 -3.6269  1.6476
 3615SOL    HW222308   3.422   4.244   3.204  0.2277 -0.9875  1.6252
 3616SOL     OW22309   4.339   4.449   9.082 -0.1316  0.3666 -0.0163
 3616SOL    HW122310   4.262   4.420   9.130 -0.3390  0.7847 -0.0997
 3616SOL    HW222311   4.380   4.516   9.137  0.3979 -0.9177  1.1602
 3617SOL     OW22312   0.332   4.678   8.523  0.0138  0.7621  0.5166
 3617SOL    HW122313   0.326   4.617   8.596  1.2251  0.3093  0.2439
 3617SOL    HW222314   0.382   4.631   8.455  0.8010 -0.6647  2.0752
 3618SOL     OW22315   3.234   0.677  16.673 -0.2509  0.0600 -0.3673
 3618SOL    HW122316   3.181   0.753  16.696 -2.0226 -1.2735 -0.1270
 3618SOL    HW222317   3.295   0.683  16.746  2.6032 -1.3628 -2.6225
 3619SOL     OW22318   3.793   0.702  11.398  0.4182  0.0833  0.3680
 3619SOL    HW122319   3.822   0.633  11.457 -0.6855 -0.8231 -0.1655
 3619SOL    HW222320   3.841   0.677  11.319  0.5919  0.3040  0.4023
 3620SOL     OW22321   3.531   0.229   8.912 -0.4364 -0.2543 -0.3403
 3620SOL    HW122322   3.447   0.243   8.868 -0.3902 -0.2050 -0.4114
 3620SOL    HW222323   3.600   0.260   8.854  0.6647 -0.8127  0.6628
 3621SOL     OW22324   2.818   4.183  17.419  0.2002  0.5162 -0.4159
 3621SOL    HW122325   2.783   4.096  17.439  1.9084 -0.6231 -2.5018
 3621SOL    HW222326   2.838   4.221  17.505  2.5756 -0.8649 -0.3776
 3622SOL     OW22327   2.850   3.824   3.181  0.0768  0.1992  0.1565
 3622SOL    HW122328   2.907   3.901   3.180  0.7963 -0.3173  1.5628
 3622SOL    HW222329   2.773   3.865   3.141 -0.3535 -0.8329 -0.0519
 3623SOL     OW22330   2.708   1.854   4.405  0.0591 -0.1591 -0.3524
 3623SOL    HW122331   2.726   1.934   4.456 -0.9313 -1.6445  2.3185
 3623SOL    HW222332   2.759   1.792   4.457 -0.8979 -0.9124 -0.3347
 3624SOL     OW22333   3.136   4.584  12.689  0.3870 -1.0714 -0.0133
 3624SOL    HW122334   3.080   4.608  12.616 -0.2641  2.1059  1.5203
 3624SOL    HW222335   3.095   4.639  12.756  1.7027 -0.7135  0.5012
 3625SOL     OW22336   2.983   2.889   8.969 -0.4487 -0.4622 -0.5198
 3625SOL    HW122337   3.044   2.962   8.971 -0.3789 -0.4497 -3.5508
 3625SOL    HW222338   3.039   2.836   8.912 -2.8185 -1.6016 -1.8108
 3626SOL     OW22339   1.371   0.844   4.001  0.1234  0.2729 -0.5141
 3626SOL    HW122340   1.383   0.796   3.918  0.2515 -1.5204  0.5380
 3626SOL    HW222341   1.367   0.770   4.061 -1.6538 -0.7741 -1.9281
 3627SOL     OW22342   4.650   4.253   5.931 -0.3966  0.1311 -1.2635
 3627SOL    HW122343   4.726   4.244   5.988 -0.3561 -0.6294 -1.4394
 3627SOL    HW222344   4.574   4.269   5.987 -0.4723 -1.2319 -0.9834
 3628SOL     OW22345   4.453   2.323  14.408  0.3063  0.0605  0.2330
 3628SOL    HW122346   4.430   2.412  14.433  1.8679  0.1080  1.4966
 3628SOL    HW222347   4.536   2.342  14.363 -0.4105  0.0773 -1.0655
 3629SOL     OW22348   0.813   1.483  17.630  0.2506 -0.6146 -0.1687
 3629SOL    HW122349   0.858   1.567  17.642  0.8996 -0.8003 -1.3010
 3629SOL    HW222350   0.826   1.475  17.535 -0.1415 -0.2893 -0.2502
 3630SOL     OW22351   2.580   4.501   5.620 -0.1220  0.2843 -0.0555
 3630SOL    HW122352   2.515   4.466   5.681  2.1980  1.7871  3.2897
 3630SOL    HW222353   2.581   4.587   5.662  0.8934  1.2797 -2.0922
 3631SOL     OW22354   3.856   2.410   8.517 -0.0215  0.3329  0.4142
 3631SOL    HW122355   3.917   2.470   8.476 -1.2445  1.0790 -0.3251
 3631SOL    HW222356   3.900   2.336   8.475 -2.3687 -1.6768  1.4546
 3632SOL     OW22357   2.761   3.822   4.414 -0.6740  0.5761 -0.1912
 3632SOL    HW122358   2.682   3.873   4.433 -0.5122  1.2423 -1.3050
 3632SOL    HW222359   2.793   3.875   4.340 -0.5687 -0.8174 -1.1500
 3633SOL     OW22360   0.196   1.618   8.757 -0.3842 -0.1908  0.1698
 3633SOL    HW122361   0.242   1.689   8.713  0.3984  0.0254  1.3542
 3633SOL    HW222362   0.181   1.554   8.688  1.4218 -1.0731  0.6027
 3634SOL     OW22363   1.858   0.123   7.746 -0.2350  0.0633  0.1045
 3634SOL    HW122364   1.806   0.078   7.813  2.8922 -0.9934  1.8065
 3634SOL    HW222365   1.917   0.168   7.806  0.0301  0.5844 -0.5496
 3635SOL     OW22366   4.475   2.892   6.447 -0.2290  0.4873  0.2067
 3635SOL    HW122367   4.391   2.934   6.465  0.1818  0.4302  2.2133
 3635SOL    HW222368   4.520   2.952   6.507  0.0237 -0.4862  0.9805
 3636SOL     OW22369   3.905   1.378   4.692  0.1939  0.0389 -0.3082
 3636SOL    HW122370   3.990   1.338   4.677  1.2541  1.3152  2.3434
 3636SOL    HW222371   3.938   1.441   4.757  2.1863 -1.2831 -0.0464
 3637SOL     OW22372   4.503   2.543   7.419  0.2876 -0.4104  0.6662
 3637SOL    HW122373   4.530   2.466   7.467  0.9964 -0.2766  0.4790
 3637SOL    HW222374   4.552   2.544   7.337 -2.1922 -1.8604 -0.8286
 3638SOL     OW22375   1.051   3.518   9.335  0.0609  0.0832  0.0135
 3638SOL    HW122376   1.002   3.471   9.402  1.7288  0.7696  1.7111
 3638SOL    HW222377   1.006   3.490   9.255  1.5747 -2.6759  0.1091
 3639SOL     OW22378   0.573   2.007  13.732  0.8607 -0.1385  0.4225
 3639SOL    HW122379   0.487   1.981  13.699  1.2441 -1.8193  0.7046
 3639SOL    HW222380   0.540   2.094  13.752 -1.2190 -1.1741  1.5477
 3640SOL     OW22381   1.294   0.634  11.236  0.1212  0.1193 -0.4632
 3640SOL    HW122382   1.264   0.561  11.290  2.4077  0.5688  1.3839
 3640SOL    HW222383   1.366   0.591  11.191 -1.5120 -2.1403 -0.9350
 3641SOL     OW22384   2.991   4.489   7.448 -0.2657 -0.2902  0.0734
 3641SOL    HW122385   3.017   4.579   7.465 -0.4097  0.1092 -1.8098
 3641SOL    HW222386   2.906   4.504   7.406 -0.2634 -3.6729 -1.1681
 3642SOL     OW22387   3.442   4.024  14.023 -0.2707  0.0939 -0.1324
 3642SOL    HW122388   3.416   4.102  14.071  0.6351  0.2551  0.0978
 3642SOL    HW222389   3.501   3.977  14.082 -0.7218  2.5380  2.2241
 3643SOL     OW22390   1.048   4.128   2.840  0.3746 -0.0720  0.2513
 3643SOL    HW122391   1.121   4.075   2.808 -0.7563 -1.4137 -0.1367
 3643SOL    HW222392   1.000   4.063   2.892  0.2328  0.9595  1.3965
 3644SOL     OW22393   3.560   4.511   4.131  1.1532  0.7204 -0.0148
 3644SOL    HW122394   3.550   4.602   4.105  0.1035  0.2784 -1.1514
 3644SOL    HW222395   3.479   4.493   4.180  0.6323  3.2721  0.0264
 3645SOL     OW22396   1.675   3.241   2.082 -0.6453  0.0047 -0.0256
 3645SOL    HW122397   1.633   3.316   2.124  1.2609  0.0981  1.7593
 3645SOL    HW222398   1.689   3.281   1.997  4.2805 -0.7934  0.3600
 3646SOL     OW22399   2.612   0.987   5.734 -0.2251 -0.3611  0.9803
 3646SOL    HW122400   2.542   1.052   5.740  1.7628  1.8402  0.4101
 3646SOL    HW222401   2.550   0.916   5.721  0.5891 -0.8941  0.0636
 3647SOL     OW22402   0.514   2.253   1.726  0.0524  0.1621 -0.3922
 3647SOL    HW122403   0.498   2.288   1.638  2.1498 -0.3286 -0.9682
 3647SOL    HW222404   0.454   2.178   1.724 -0.2381  0.3698  0.5486
 3648SOL     OW22405   2.731   2.919   3.053  0.7281  0.2387  0.0581
 3648SOL    HW122406   2.645   2.891   3.020 -0.4342 -0.1195  3.3557
 3648SOL    HW222407   2.796   2.865   3.009 -0.1594  0.4891 -1.5482
 3649SOL     OW22408   1.557   0.739   9.615  0.0346 -0.1150 -0.2840
 3649SOL    HW122409   1.610   0.813   9.646  2.1966 -1.4978 -0.6816
 3649SOL    HW222410   1.560   0.690   9.697 -2.1250  3.2047  1.8082
 3650SOL     OW22411   4.138   1.119   7.233  0.0410 -0.6365 -0.4904
 3650SOL    HW122412   4.095   1.035   7.251  2.1639 -1.7740 -0.7048
 3650SOL    HW222413   4.082   1.153   7.163  0.9589  1.8317 -0.0007
 3651SOL     OW22414   4.168   0.134   8.519  0.4766  0.0944 -0.3566
 3651SOL    HW122415   4.162   0.115   8.425 -0.9218  0.4172 -0.3362
 3651SOL    HW222416   4.259   0.154   8.538  0.4433  0.6514 -0.8084
 3652SOL     OW22417   2.370   3.303   1.931  0.5325 -0.1094 -0.3577
 3652SOL    HW122418   2.333   3.312   1.844  0.1427  2.0224  0.0179
 3652SOL    HW222419   2.390   3.395   1.949 -1.1736 -0.0629  1.2732
 3653SOL     OW22420   1.818   1.900  12.942 -0.0224 -0.2572  0.1341
 3653SOL    HW122421   1.854   1.979  12.902 -0.4928 -0.8800 -1.5374
 3653SOL    HW222422   1.813   1.930  13.033  0.6810  2.7775 -0.8356
 3654SOL     OW22423   4.394   1.097   7.159  0.0745  0.0492 -0.0728
 3654SOL    HW122424   4.300   1.082   7.171  0.6150 -2.2560  1.1808
 3654SOL    HW222425   4.421   1.085   7.250 -0.5216 -0.2522  0.0630
 3655SOL     OW22426   4.536   4.516   0.875  0.4278  0.0402 -0.1250
 3655SOL    HW122427   4.496   4.597   0.843 -1.4825 -0.1113  1.9291
 3655SOL    HW222428   4.502   4.519   0.964  0.0802 -0.0436 -0.2537
 3656SOL     OW22429   1.752   2.947   8.744 -0.1218 -0.1108  0.2799
 3656SOL    HW122430   1.696   3.007   8.695  1.5597  0.9818 -0.3336
 3656SOL    HW222431   1.738   2.977   8.834 -0.0358 -0.3728  0.3807
 3657SOL     OW22432   3.480   4.691   8.901 -0.3269  0.7721  0.0267
 3657SOL    HW122433   3.489   0.060   8.902 -1.7835  0.9109 -1.5548
 3657SOL    HW222434   3.394   4.684   8.942  0.5607  1.7002  2.0540
 3658SOL     OW22435   3.639   3.311   7.365 -0.5057 -0.4235 -0.2428
 3658SOL    HW122436   3.578   3.384   7.353 -1.2295 -0.9815 -0.0076
 3658SOL    HW222437   3.594   3.229   7.386  0.7962 -1.2050 -0.5102
 3659SOL     OW22438   2.216   2.033  16.711 -0.1200 -0.2294 -0.3287
 3659SOL    HW122439   2.302   1.993  16.699 -0.6757 -1.7678  0.8350
 3659SOL    HW222440   2.243   2.122  16.689  1.0899 -0.8399 -1.3218
 3660SOL     OW22441   2.052   2.804   7.565  0.0363  0.4261 -0.2423
 3660SOL    HW122442   2.114   2.872   7.593 -0.0859 -0.4388  2.1420
 3660SOL    HW222443   1.987   2.844   7.508  2.2424 -0.3625 -3.2958
 3661SOL     OW22444   1.603   0.218  15.830 -0.1874 -0.5302  0.0215
 3661SOL    HW122445   1.510   0.194  15.836 -0.2031 -1.1865 -2.9325
 3661SOL    HW222446   1.596   0.305  15.792 -0.4529 -0.6639 -0.2335
 3662SOL     OW22447   4.024   1.563   9.751  0.8859  0.6842  0.2317
 3662SOL    HW122448   4.045   1.507   9.677 -0.9592 -0.7433  0.7819
 3662SOL    HW222449   4.005   1.645   9.707 -0.7321  1.1305  1.7544
 3663SOL     OW22450   0.783   4.633   6.212 -0.4112 -0.1057 -0.5148
 3663SOL    HW122451   0.839   4.570   6.258 -0.0949  2.3987  2.5181
 3663SOL    HW222452   0.817   4.624   6.123  0.3405  2.8265 -0.5327
 3664SOL     OW22453   3.839   3.247   7.854 -0.1483  0.6129  0.1106
 3664SOL    HW122454   3.777   3.290   7.794  0.0277 -2.4378 -2.2383
 3664SOL    HW222455   3.889   3.188   7.799  1.9573  1.4227  1.1723
 3665SOL     OW22456   1.896   2.934  12.853  0.0998  0.3634  0.2371
 3665SOL    HW122457   1.851   2.998  12.908  2.2007  0.8463  1.4110
 3665SOL    HW222458   1.961   2.920  12.923 -0.3710 -0.5484  0.5000
 3666SOL     OW22459   3.690   3.474   2.637  0.5388  0.5132 -0.3934
 3666SOL    HW122460   3.637   3.398   2.660  1.5318 -0.0355  0.0517
 3666SOL    HW222461   3.643   3.503   2.559 -0.6014 -1.0766 -0.2945
 3667SOL     OW22462   3.991   0.905   4.360  0.4491  0.5407  0.2848
 3667SOL    HW122463   4.015   0.842   4.292  1.5274 -1.5600  2.5950
 3667SOL    HW222464   4.079   0.932   4.386  0.8292  0.5852 -1.0749
 3668SOL     OW22465   0.504   4.007   0.454 -0.7143  0.1202  0.3186
 3668SOL    HW122466   0.424   4.004   0.402 -0.1495  0.3666 -0.5656
 3668SOL    HW222467   0.567   3.967   0.395 -0.6762 -2.5186  2.1656
 3669SOL     OW22468   0.113   3.582   4.689  0.6660 -0.0177 -0.2073
 3669SOL    HW122469   0.021   3.600   4.708  0.3439 -1.3327 -0.5266
 3669SOL    HW222470   0.150   3.669   4.703 -0.8983  0.4139  1.1766
 3670SOL     OW22471   3.421   3.159  15.995  0.5825  1.0646  0.4380
 3670SOL    HW122472   3.349   3.098  16.011  1.0528 -0.2267 -2.3348
 3670SOL    HW222473   3.406   3.173  15.901  0.3606  0.8191  0.4356
 3671SOL     OW22474   4.357   2.720   6.286 -0.3169 -0.1087  0.4617
 3671SOL    HW122475   4.402   2.785   6.340  0.3934  0.9849 -1.4112
 3671SOL    HW222476   4.364   2.752   6.196  0.3274  0.3428  0.6684
 3672SOL     OW22477   0.580   3.284   0.533 -0.0206 -0.2855  0.5275
 3672SOL    HW122478   0.544   3.307   0.619  0.8243  0.4947  0.6786
 3672SOL    HW222479   0.580   3.366   0.482  0.8500  0.1641  1.2528
 3673SOL     OW22480   4.643   1.216   7.038 -0.2277  0.1842 -0.4198
 3673SOL    HW122481   4.568   1.198   7.094  0.0413  0.4358  0.0186
 3673SOL    HW222482   4.691   1.290   7.075 -1.9275  1.6866 -1.2303
 3674SOL     OW22483   1.489   1.567   7.142  0.3412  0.2734 -0.3596
 3674SOL    HW122484   1.483   1.660   7.122 -0.0689  0.6492  1.4468
 3674SOL    HW222485   1.398   1.537   7.148  0.3418  0.2993 -0.2208
 3675SOL     OW22486   3.616   1.630  13.335  0.0319 -0.2308 -0.2103
 3675SOL    HW122487   3.578   1.542  13.334  1.1703 -0.7327  0.9536
 3675SOL    HW222488   3.626   1.655  13.426 -1.0719 -1.4142  0.2248
 3676SOL     OW22489   3.971   4.398   3.985 -0.4335  0.0966 -0.1751
 3676SOL    HW122490   3.904   4.331   3.969 -1.7822  1.7486 -1.3591
 3676SOL    HW222491   3.954   4.454   3.909 -0.8978 -2.0474 -1.6650
 3677SOL     OW22492   0.270   0.145  12.457 -0.6506  0.1075 -0.4170
 3677SOL    HW122493   0.342   0.207  12.450 -0.9752  0.5129 -0.1920
 3677SOL    HW222494   0.224   0.170  12.377 -0.0336 -0.5375 -0.9755
 3678SOL     OW22495   3.240   3.662   7.094  0.4074 -0.0264 -0.6945
 3678SOL    HW122496   3.165   3.716   7.071 -0.2187  0.1027  1.6650
 3678SOL    HW222497   3.242   3.633   7.186 -1.4668 -0.2974 -0.7391
 3679SOL     OW22498   1.081   1.875  16.643 -0.3177  0.1864 -0.1631
 3679SOL    HW122499   1.119   1.933  16.709 -0.1632 -1.4365  1.1654
 3679SOL    HW222500   1.133   1.901  16.567  1.5964 -2.0426  0.3666
 3680SOL     OW22501   3.106   0.153  15.350 -0.1431 -0.1917  0.4420
 3680SOL    HW122502   3.150   0.186  15.428  1.9149 -1.9226 -0.0026
 3680SOL    HW222503   3.052   0.084  15.389  0.2234 -0.7534 -0.0339
 3681SOL     OW22504   3.000   0.040   4.045  0.0826 -0.9147 -0.0308
 3681SOL    HW122505   2.963   4.710   4.113  1.2693 -1.8285 -0.1386
 3681SOL    HW222506   2.952   0.121   4.058 -2.5313 -2.1851 -1.6812
 3682SOL     OW22507   2.112   2.287   4.318  0.2715 -0.1189  0.1114
 3682SOL    HW122508   2.051   2.220   4.348  0.0536  0.8392  1.7763
 3682SOL    HW222509   2.193   2.248   4.352  0.5517  0.6030  0.2693
 3683SOL     OW22510   1.417   3.171  15.745  0.1652 -0.4763 -0.2044
 3683SOL    HW122511   1.368   3.094  15.718 -0.2260  0.1975 -1.4473
 3683SOL    HW222512   1.379   3.246  15.699 -1.4933 -2.7537 -2.5710
 3684SOL     OW22513   1.891   1.475   3.162  0.5540  0.2608 -0.3819
 3684SOL    HW122514   1.805   1.491   3.122 -0.2195 -0.7040  0.9247
 3684SOL    HW222515   1.890   1.390   3.205  2.6700 -0.8026 -2.4422
 3685SOL     OW22516   4.143   0.633  15.416 -0.1782  0.3544  0.1322
 3685SOL    HW122517   4.136   0.728  15.421  2.4998  0.5366  0.3208
 3685SOL    HW222518   4.142   0.599  15.505  0.7590 -1.9911 -0.7550
 3686SOL     OW22519   2.243   1.439  13.427 -0.0515 -0.4503  1.0323
 3686SOL    HW122520   2.183   1.511  13.406  3.2840  2.1288  0.4352
 3686SOL    HW222521   2.182   1.368  13.448 -0.2979 -0.5764 -0.1034
 3687SOL     OW22522   0.021   0.164   2.065 -0.1052 -0.0820 -0.1624
 3687SOL    HW122523   0.116   0.172   2.055 -0.4115  1.0256 -2.0405
 3687SOL    HW222524   0.006   0.074   2.037  1.3011 -0.1801 -0.6159
 3688SOL     OW22525   2.517   1.623   1.272  0.0681  0.2771 -0.3356
 3688SOL    HW122526   2.453   1.681   1.313  1.9512  1.3796  0.9947
 3688SOL    HW222527   2.538   1.566   1.347  0.3578  0.9637  0.1016
 3689SOL     OW22528   3.306   0.605   4.284 -0.3015 -0.4125  0.3144
 3689SOL    HW122529   3.281   0.513   4.284  1.2061 -0.8259  0.1349
 3689SOL    HW222530   3.394   0.599   4.322 -0.3425  0.5049  0.5496
 3690SOL     OW22531   4.036   2.672   3.761 -0.1461 -0.2624 -0.3838
 3690SOL    HW122532   3.964   2.632   3.810  0.8359  1.3365  2.3821
 3690SOL    HW222533   4.101   2.671   3.832  0.0925 -1.5884 -0.6080
 3691SOL     OW22534   4.397   1.189   3.099 -0.1232  0.3069 -0.7956
 3691SOL    HW122535   4.340   1.166   3.024  0.2991 -2.2168 -0.3417
 3691SOL    HW222536   4.379   1.281   3.116 -0.2885 -0.0534  0.9041
 3692SOL     OW22537   0.703   2.162   8.029  0.1780 -0.0101  0.0871
 3692SOL    HW122538   0.709   2.181   7.935  0.2042  0.7648  0.2411
 3692SOL    HW222539   0.609   2.170   8.050  0.1408 -1.5237  0.4661
 3693SOL     OW22540   2.464   3.366  11.133 -0.6809 -0.0300  0.3101
 3693SOL    HW122541   2.376   3.344  11.104 -0.7883  1.6430 -0.6836
 3693SOL    HW222542   2.445   3.446  11.182  1.0208 -0.4083  1.5775
 3694SOL     OW22543   3.165   0.773   6.620  0.6260 -0.1960  0.5693
 3694SOL    HW122544   3.074   0.747   6.635  0.2622  0.1540 -1.0217
 3694SOL    HW222545   3.190   0.787   6.712  0.0288 -1.8468  0.9853
 3695SOL     OW22546   1.622   2.010   0.939 -0.0297  0.3446  0.5049
 3695SOL    HW122547   1.717   2.002   0.943 -0.2644 -1.8556  1.5285
 3695SOL    HW222548   1.588   1.920   0.941 -1.0388  0.5991 -3.8266
 3696SOL     OW22549   0.425   3.682  16.826  0.5308 -0.1704 -0.2619
 3696SOL    HW122550   0.342   3.726  16.808  0.2190 -0.7096 -0.1300
 3696SOL    HW222551   0.469   3.674  16.742  2.0566  3.5695  0.1882
 3697SOL     OW22552   3.585   0.607   3.912 -0.1580  0.5121  0.2601
 3697SOL    HW122553   3.638   0.555   3.973 -0.4673  0.0948  0.1728
 3697SOL    HW222554   3.494   0.598   3.941 -0.2703 -0.0136 -0.2524
 3698SOL     OW22555   0.473   4.411  13.646 -0.5069 -0.8210  0.3098
 3698SOL    HW122556   0.523   4.489  13.670  0.6670 -0.8284 -2.1690
 3698SOL    HW222557   0.435   4.434  13.561  0.0633 -0.5259  0.1351
 3699SOL     OW22558   2.974   4.145   3.436  0.1866  0.3199 -0.0205
 3699SOL    HW122559   2.881   4.162   3.451  0.5343  0.6903  1.6701
 3699SOL    HW222560   2.972   4.122   3.343 -0.5328 -0.8422  0.2825
 3700SOL     OW22561   4.050   4.152   6.124 -0.3577 -0.7198  0.4515
 3700SOL    HW122562   4.108   4.174   6.051 -0.1726  1.1030  1.1487
 3700SOL    HW222563   3.972   4.134   6.071 -0.0607 -1.0020  0.1069
 3701SOL     OW22564   0.434   2.059   7.916  0.4577 -0.0072  0.4790
 3701SOL    HW122565   0.425   1.973   7.957 -1.6130  0.2481  0.5425
 3701SOL    HW222566   0.469   2.040   7.828 -0.0330 -2.0173  0.7189
 3702SOL     OW22567   2.272   3.225   6.080  0.3905 -0.6766 -0.6302
 3702SOL    HW122568   2.286   3.159   6.012  0.0233  0.0562 -1.4119
 3702SOL    HW222569   2.186   3.196   6.113  1.4509 -1.7003  1.2463
 3703SOL     OW22570   4.369   2.470   5.209 -0.0108  0.4364 -0.1461
 3703SOL    HW122571   4.458   2.434   5.210 -0.5916 -1.0041  0.0522
 3703SOL    HW222572   4.379   2.563   5.229 -0.8516 -0.0455  2.4991
 3704SOL     OW22573   0.436   3.643   0.730  0.5826 -0.2459  0.0787
 3704SOL    HW122574   0.464   3.720   0.681  1.9887 -1.0074 -0.2920
 3704SOL    HW222575   0.445   3.673   0.821  0.6768  2.4142 -0.8130
 3705SOL     OW22576   2.546   3.685   3.027  0.3304  0.3362 -0.2220
 3705SOL    HW122577   2.599   3.605   3.018 -1.0020 -0.4090 -1.4898
 3705SOL    HW222578   2.620   3.743   3.044 -0.3089  0.7275  1.2466
 3706SOL     OW22579   3.121   2.064   4.611  0.2295 -0.0042 -0.0294
 3706SOL    HW122580   3.077   2.016   4.681 -2.0532  1.0266 -0.7327
 3706SOL    HW222581   3.148   2.143   4.657 -0.0461  0.0542  0.0347
 3707SOL     OW22582   0.997   3.613   2.018 -0.0529 -0.0355  0.2780
 3707SOL    HW122583   0.990   3.653   1.932 -0.4436  1.5816  1.0690
 3707SOL    HW222584   1.078   3.563   2.013  0.8680  1.5672 -0.7382
 3708SOL     OW22585   3.156   0.147  15.626 -0.0587  0.0573  0.0849
 3708SOL    HW122586   3.181   0.168  15.716 -3.3321  1.4802  0.6655
 3708SOL    HW222587   3.079   0.091  15.640  1.4520 -1.8116  0.8514
 3709SOL     OW22588   3.337   0.046  11.244  0.0865  0.3879  0.0261
 3709SOL    HW122589   3.255   0.082  11.280  1.3722  3.2851  0.0352
 3709SOL    HW222590   3.390   0.123  11.227 -0.2830 -0.4928 -4.9901
 3710SOL     OW22591   0.971   3.555   0.536 -0.0739 -0.9836 -0.7435
 3710SOL    HW122592   1.019   3.478   0.567 -1.1366 -1.4724 -0.2784
 3710SOL    HW222593   0.930   3.579   0.620  2.2925 -0.4653  0.2630
 3711SOL     OW22594   1.268   1.454   1.988  0.1938  0.1011  0.2970
 3711SOL    HW122595   1.290   1.367   2.021 -0.7191 -0.3044 -0.1578
 3711SOL    HW222596   1.175   1.448   1.964  0.4164 -1.3202 -0.2521
 3712SOL     OW22597   3.465   4.063   6.054  0.2140  0.0852  0.1035
 3712SOL    HW122598   3.417   4.100   6.128  0.8747  0.3400  0.3990
 3712SOL    HW222599   3.414   3.984   6.033  0.9290 -0.1904 -0.6158
 3713SOL     OW22600   0.253   2.684   1.869 -0.1974 -0.0758  0.0910
 3713SOL    HW122601   0.160   2.704   1.878 -0.5018 -0.2913 -2.8735
 3713SOL    HW222602   0.297   2.770   1.872  0.5283 -0.5068  2.0680
 3714SOL     OW22603   3.703   2.042  10.867  0.1234  0.5126  0.2483
 3714SOL    HW122604   3.718   1.988  10.944  0.9259  0.5869  0.1418
 3714SOL    HW222605   3.751   1.995  10.798  0.7740  0.3689  0.8040
 3715SOL     OW22606   0.522   1.626   6.601 -0.3665  0.4884  0.2934
 3715SOL    HW122607   0.572   1.572   6.540 -1.3395 -0.3311  0.2223
 3715SOL    HW222608   0.483   1.683   6.535 -0.7656 -0.9507 -0.7069
 3716SOL     OW22609   4.456   4.711  12.122 -0.0717  0.4309  0.5119
 3716SOL    HW122610   4.435   0.006  12.031  0.9729 -0.5510  0.0350
 3716SOL    HW222611   4.375   4.662  12.137  0.3927 -0.2797  0.7043
 3717SOL     OW22612   0.573   0.850   0.518 -0.0498 -0.2012  0.2310
 3717SOL    HW122613   0.649   0.898   0.486 -0.7260  1.2456  0.8279
 3717SOL    HW222614   0.524   0.828   0.439  0.1488  2.8344 -0.7237
 3718SOL     OW22615   4.150   3.141   7.979 -0.3665  0.1091  0.1502
 3718SOL    HW122616   4.223   3.096   8.021 -0.4828  0.1334  0.3779
 3718SOL    HW222617   4.079   3.085   8.011 -1.5172  1.5068  0.0279
 3719SOL     OW22618   1.106   0.369   8.249  0.3682  0.0971  0.0264
 3719SOL    HW122619   1.182   0.398   8.200  0.4096  0.8907  0.5679
 3719SOL    HW222620   1.062   0.315   8.183 -0.8212 -0.1001  0.9786
 3720SOL     OW22621   0.176   3.397   1.306  0.1407 -0.1943 -0.0754
 3720SOL    HW122622   0.093   3.430   1.339 -0.5857 -1.1087 -0.9816
 3720SOL    HW222623   0.149   3.369   1.218  0.2241 -0.0264 -0.1538
 3721SOL     OW22624   2.700   2.190  17.322 -0.0817  0.0541  0.0303
 3721SOL    HW122625   2.790   2.169  17.295 -0.6382 -1.3332 -0.7388
 3721SOL    HW222626   2.652   2.190  17.239 -1.1968  0.5834  0.6810
 3722SOL     OW22627   4.060   2.461  14.801  0.4298  0.6751 -0.3678
 3722SOL    HW122628   4.107   2.530  14.754  0.9087  1.0847  0.7042
 3722SOL    HW222629   3.975   2.491  14.768  0.7746  1.6688 -0.3542
 3723SOL     OW22630   1.229   1.517   9.623 -0.5981  0.2887 -0.3374
 3723SOL    HW122631   1.277   1.518   9.539  0.0527  4.0200  0.0760
 3723SOL    HW222632   1.241   1.426   9.650  1.7287  1.1160  1.3973
 3724SOL     OW22633   1.088   0.366   5.924 -0.4016  0.6233  0.4030
 3724SOL    HW122634   0.993   0.374   5.920 -0.5653 -1.8265 -0.3121
 3724SOL    HW222635   1.109   0.391   5.833  0.0456 -1.1402  0.0267
 3725SOL     OW22636   1.800   2.263  11.976 -0.4610  0.2679  0.1760
 3725SOL    HW122637   1.843   2.307  12.049  1.6585  0.0162 -0.9319
 3725SOL    HW222638   1.872   2.218  11.932 -1.7866 -0.0974 -1.5990
 3726SOL     OW22639   0.962   2.811   7.329 -0.3826 -0.0830 -0.1970
 3726SOL    HW122640   1.009   2.728   7.329 -1.4980 -0.7134  0.0665
 3726SOL    HW222641   0.916   2.814   7.413 -0.1424 -0.5080 -0.0510
 3727SOL     OW22642   2.798   2.521   8.439  0.2576  0.2215  0.0845
 3727SOL    HW122643   2.717   2.508   8.389 -0.7273 -1.3373  2.0422
 3727SOL    HW222644   2.822   2.605   8.401 -2.0597 -0.0471 -1.9805
 3728SOL     OW22645   0.221   3.867   7.718 -0.0181 -0.2591  0.3285
 3728SOL    HW122646   0.180   3.809   7.653 -1.1668  1.1705 -0.2281
 3728SOL    HW222647   0.167   3.846   7.794 -0.4064 -0.0792  0.1016
 3729SOL     OW22648   2.959   4.440   4.583  0.2411 -0.2013 -0.1060
 3729SOL    HW122649   2.966   4.377   4.655 -2.2726 -0.4358 -0.0826
 3729SOL    HW222650   2.865   4.428   4.572  0.0677 -0.2607  1.5404
 3730SOL     OW22651   2.267   4.610   4.475 -0.5977  0.4010 -0.0408
 3730SOL    HW122652   2.177   4.583   4.458  0.6403 -3.9479  0.3002
 3730SOL    HW222653   2.236   4.700   4.468 -0.3453  0.3825 -1.3406
 3731SOL     OW22654   2.849   1.150   9.057  0.0353  0.1764  0.2645
 3731SOL    HW122655   2.879   1.167   8.968 -3.5375  0.7403 -0.8459
 3731SOL    HW222656   2.900   1.073   9.081  2.0729  0.2265 -3.8758
 3732SOL     OW22657   2.562   2.240   9.026  0.2683 -0.1114  0.1865
 3732SOL    HW122658   2.499   2.305   8.995  0.6548  0.3026  0.2755
 3732SOL    HW222659   2.616   2.294   9.084 -1.1393  1.0203  0.4503
 3733SOL     OW22660   1.140   2.292  11.380 -0.6118  0.0965 -0.6821
 3733SOL    HW122661   1.144   2.387  11.381  0.4137  0.0695 -2.6310
 3733SOL    HW222662   1.129   2.269  11.472 -0.4251  0.0535 -0.6689
 3734SOL     OW22663   4.524   3.700  15.739  0.3464 -0.4897 -0.0538
 3734SOL    HW122664   4.444   3.722  15.787 -1.4365 -0.9683 -2.8404
 3734SOL    HW222665   4.541   3.778  15.686 -1.4956  0.4140  0.6816
 3735SOL     OW22666   3.756   1.895   8.297  0.4858  0.3924 -0.0231
 3735SOL    HW122667   3.769   1.938   8.212 -0.0353 -0.9859 -0.7935
 3735SOL    HW222668   3.784   1.971   8.348  1.0808 -0.1962  0.5105
 3736SOL     OW22669   0.475   0.921   8.027  0.0393  0.5558  0.0947
 3736SOL    HW122670   0.416   0.972   7.971 -0.4020 -1.5334 -1.3494
 3736SOL    HW222671   0.451   0.951   8.115 -0.4642  1.8038 -0.4639
 3737SOL     OW22672   2.819   4.060   1.626  0.0044  0.3904 -0.2105
 3737SOL    HW122673   2.855   3.988   1.678 -2.5618  0.7140  2.0252
 3737SOL    HW222674   2.883   4.059   1.555  1.7078  0.8295  1.3185
 3738SOL     OW22675   3.516   4.355   9.360 -0.0450 -0.5910 -0.2061
 3738SOL    HW122676   3.457   4.385   9.429  1.4183 -0.9485  1.1845
 3738SOL    HW222677   3.544   4.439   9.323 -2.1408  1.1765  2.2491
 3739SOL     OW22678   3.578   1.372   0.639 -0.1426 -0.0239 -0.2655
 3739SOL    HW122679   3.510   1.314   0.604 -1.4220  0.8272  0.8262
 3739SOL    HW222680   3.641   1.299   0.639 -0.0088  0.0910 -0.2285
 3740SOL     OW22681   4.345   3.993  15.860 -0.3023 -0.1508 -0.3244
 3740SOL    HW122682   4.402   3.970  15.787 -0.3207  0.2100 -0.4533
 3740SOL    HW222683   4.291   4.050  15.806 -0.1233  0.7010  0.3871
 3741SOL     OW22684   1.651   0.784   2.388 -0.2260  0.3227  0.3145
 3741SOL    HW122685   1.636   0.690   2.387  1.2471  0.0910 -1.9640
 3741SOL    HW222686   1.583   0.816   2.447  0.4403 -0.5323  1.5503
 3742SOL     OW22687   4.494   2.757   0.136 -0.2494  0.4764  0.6454
 3742SOL    HW122688   4.417   2.750   0.192 -0.9775  1.9036 -0.1803
 3742SOL    HW222689   4.553   2.691   0.172 -1.7622 -0.6737  1.0052
 3743SOL     OW22690   2.070   4.248   5.321  0.1850 -0.4087 -0.1555
 3743SOL    HW122691   2.162   4.264   5.298  0.4507  0.7976  1.7072
 3743SOL    HW222692   2.037   4.328   5.280 -1.1869 -0.0431  1.6752
 3744SOL     OW22693   0.262   4.330   7.415 -0.2034  0.1674  0.1314
 3744SOL    HW122694   0.250   4.256   7.474  2.7465  0.0008  0.4778
 3744SOL    HW222695   0.178   4.377   7.420 -0.0157  0.6039 -0.8039
 3745SOL     OW22696   2.924   0.478   7.346 -0.2950 -0.0365  0.5540
 3745SOL    HW122697   2.847   0.423   7.359  0.5402 -1.4087 -0.3615
 3745SOL    HW222698   2.957   0.469   7.435 -1.6750  0.0875  1.0704
 3746SOL     OW22699   1.387   4.608   2.788  0.1083  0.1742  0.4430
 3746SOL    HW122700   1.314   4.627   2.847  1.2636 -1.5178  2.4290
 3746SOL    HW222701   1.345   4.638   2.708  1.7968  1.1400 -0.0816
 3747SOL     OW22702   4.112   0.196  15.775  1.0072 -0.1786  0.1218
 3747SOL    HW122703   4.127   0.260  15.845  1.6876  0.9182 -1.0422
 3747SOL    HW222704   4.049   0.246  15.722  1.5026 -0.5315 -0.7873
 3748SOL     OW22705   3.584   1.391   7.106 -0.3738  0.0992 -0.1793
 3748SOL    HW122706   3.507   1.376   7.051 -0.3116 -2.4932  0.4110
 3748SOL    HW222707   3.543   1.371   7.189  1.1945  0.0801  0.6025
 3749SOL     OW22708   3.673   0.084   7.290 -0.0362 -0.2367 -0.0908
 3749SOL    HW122709   3.745   0.053   7.235 -0.4885  0.3689 -1.0214
 3749SOL    HW222710   3.715   0.091   7.376 -0.4579 -2.1076  0.2735
 3750SOL     OW22711   2.453   0.788   5.614  0.0461 -0.1799  0.5806
 3750SOL    HW122712   2.527   0.753   5.564 -0.1185  1.9462 -1.1319
 3750SOL    HW222713   2.378   0.772   5.556  0.4957 -0.0007 -0.0480
 3751SOL     OW22714   1.936   1.991   7.463  0.0146 -0.0424 -0.0704
 3751SOL    HW122715   1.964   1.928   7.396  1.0513  1.8471 -1.4081
 3751SOL    HW222716   1.912   2.066   7.408 -0.6399 -0.0570  0.2025
 3752SOL     OW22717   2.713   3.936  17.355 -0.3365 -0.3656 -0.5114
 3752SOL    HW122718   2.702   3.890  17.271 -0.5137 -0.6561 -0.3256
 3752SOL    HW222719   2.787   3.888  17.392 -0.2639 -0.2054 -0.4492
 3753SOL     OW22720   4.407   2.538  11.362 -0.6328 -0.0624 -0.5197
 3753SOL    HW122721   4.443   2.539  11.451 -0.1983 -2.2134 -0.6706
 3753SOL    HW222722   4.486   2.510  11.316  0.3466 -1.4778  2.0023
 3754SOL     OW22723   2.558   2.493   6.938  0.0025  0.8158 -0.2761
 3754SOL    HW122724   2.638   2.503   6.989 -1.2488 -1.7120  2.2054
 3754SOL    HW222725   2.591   2.533   6.858 -2.5932 -0.0898 -1.7966
 3755SOL     OW22726   3.113   3.697  12.814 -0.5098 -0.0921  0.2560
 3755SOL    HW122727   3.121   3.631  12.746 -0.9016  0.6834 -0.5453
 3755SOL    HW222728   3.018   3.694  12.831  0.1604 -3.2487  3.5084
 3756SOL     OW22729   1.268   3.338   5.605  0.3150  0.4878 -0.0208
 3756SOL    HW122730   1.317   3.358   5.525  1.0204  0.6978  0.4724
 3756SOL    HW222731   1.335   3.312   5.667 -0.8642 -1.4555  0.4484
 3757SOL     OW22732   2.085   4.170   6.934 -0.8189 -0.2308  0.4065
 3757SOL    HW122733   2.003   4.123   6.946 -1.2212  0.4423  0.2716
 3757SOL    HW222734   2.129   4.123   6.864 -1.3082 -0.1163  0.0282
 3758SOL     OW22735   4.298   1.514   5.360  0.5324 -0.8603 -0.1081
 3758SOL    HW122736   4.257   1.509   5.447  0.4667  1.7145  0.0086
 3758SOL    HW222737   4.363   1.580   5.382 -1.1201  0.4319  0.8974
 3759SOL     OW22738   4.410   2.423   9.375 -0.4415  0.6578  0.3648
 3759SOL    HW122739   4.427   2.516   9.389 -0.7959  0.9149 -0.9254
 3759SOL    HW222740   4.489   2.401   9.424 -0.4142  0.8817  0.4247
 3760SOL     OW22741   3.680   1.880  13.915 -0.0980  0.5772  0.2914
 3760SOL    HW122742   3.604   1.937  13.930 -0.8171  0.2288 -1.8954
 3760SOL    HW222743   3.632   1.800  13.938 -1.2802  1.1122 -0.2729
 3761SOL     OW22744   0.768   1.047  13.935 -0.0913 -0.0941 -0.2757
 3761SOL    HW122745   0.679   1.012  13.935 -0.5957  1.1610  1.0375
 3761SOL    HW222746   0.739   1.125  13.983 -3.2625 -2.2468  1.3583
 3762SOL     OW22747   0.321   0.194   6.665 -0.0956  0.7727 -0.2869
 3762SOL    HW122748   0.296   0.101   6.666  0.5576  0.6100  0.9902
 3762SOL    HW222749   0.416   0.191   6.656  0.0421  1.5288  0.9221
 3763SOL     OW22750   0.874   2.792  17.031  0.1266 -0.1585  0.3438
 3763SOL    HW122751   0.917   2.787  16.946  0.3516 -0.8474  0.4974
 3763SOL    HW222752   0.928   2.729  17.078  2.5138  0.6119 -1.4107
 3764SOL     OW22753   0.116   2.644  13.364 -0.3024 -0.1114  0.1295
 3764SOL    HW122754   0.097   2.577  13.430 -0.2266 -0.9482 -0.7019
 3764SOL    HW222755   0.138   2.587  13.291 -0.3088  1.6402 -1.2454
 3765SOL     OW22756   4.098   0.964   8.748 -0.1319  0.1602  0.1821
 3765SOL    HW122757   4.148   0.958   8.667 -2.6755 -0.2773 -1.3500
 3765SOL    HW222758   4.128   1.050   8.779  0.1648  0.3308 -0.5741
 3766SOL     OW22759   4.234   1.022   8.233  0.2082  0.4587 -0.3882
 3766SOL    HW122760   4.251   0.948   8.174 -4.2269 -0.6411 -0.3064
 3766SOL    HW222761   4.176   1.081   8.184 -0.0915  2.0298  1.8418
 3767SOL     OW22762   1.007   1.914   2.999 -0.1827 -0.1361  0.5211
 3767SOL    HW122763   0.985   1.834   3.047  2.0622 -0.1128  1.5812
 3767SOL    HW222764   1.043   1.956   3.076  1.3994 -0.0921 -0.2440
 3768SOL     OW22765   2.050   0.920   2.676 -0.6699  0.1501  0.7190
 3768SOL    HW122766   2.087   0.843   2.718 -0.8786 -0.4508 -0.2155
 3768SOL    HW222767   2.132   0.964   2.655 -0.8525 -0.7657 -1.9426
 3769SOL     OW22768   0.107   1.953   0.481  0.0089 -0.3901  0.7972
 3769SOL    HW122769   0.049   1.910   0.544  1.5723 -3.3521  0.1776
 3769SOL    HW222770   0.093   2.044   0.507 -2.2179 -0.6085  0.4030
 3770SOL     OW22771   3.036   0.966   8.525 -0.5350  0.2055 -0.2648
 3770SOL    HW122772   3.017   1.060   8.520  1.3006  0.5357 -1.0414
 3770SOL    HW222773   3.110   0.957   8.585 -0.2224  1.7858 -0.4076
 3771SOL     OW22774   3.520   2.657   2.638 -0.2678  0.6802  0.1460
 3771SOL    HW122775   3.506   2.606   2.558  1.2624  0.0018  0.2985
 3771SOL    HW222776   3.615   2.650   2.650 -0.0826  1.5317 -0.8010
 3772SOL     OW22777   0.379   1.646   7.177  0.5341 -0.5387 -0.5869
 3772SOL    HW122778   0.343   1.673   7.262 -0.9981 -0.3292 -1.2987
 3772SOL    HW222779   0.333   1.696   7.109 -2.0848  2.0722  3.0324
 3773SOL     OW22780   0.932   4.510  15.740  0.2360  0.5468  0.1382
 3773SOL    HW122781   0.924   4.430  15.791 -1.4518  0.8078  0.2847
 3773SOL    HW222782   0.867   4.568  15.780 -0.2098  0.4765 -0.4850
 3774SOL     OW22783   1.212   2.758  11.119  0.4149 -0.8492 -0.3765
 3774SOL    HW122784   1.188   2.827  11.057  0.7713 -1.6358 -1.3852
 3774SOL    HW222785   1.210   2.803  11.203 -0.1922  2.0177 -1.9192
 3775SOL     OW22786   0.102   2.181   5.729  0.3164 -0.0069 -0.2381
 3775SOL    HW122787   0.014   2.159   5.758 -0.2783  1.5077 -0.8697
 3775SOL    HW222788   0.138   2.098   5.698  0.2175  0.6244 -2.0543
 3776SOL     OW22789   2.825   0.783   5.407 -0.3726 -0.3912  0.3910
 3776SOL    HW122790   2.877   0.717   5.363  0.2832  0.9028 -0.7810
 3776SOL    HW222791   2.750   0.788   5.347 -0.4155  2.5324  0.6992
 3777SOL     OW22792   1.445   3.577   1.809  0.1800  0.2870 -0.1101
 3777SOL    HW122793   1.518   3.521   1.836  1.2671  1.7090 -0.1160
 3777SOL    HW222794   1.371   3.516   1.809  0.1671  0.2962  1.7565
 3778SOL     OW22795   4.568   2.653   6.563 -0.9747  0.2013  0.3000
 3778SOL    HW122796   4.551   2.747   6.562 -1.2310  0.1603  0.8230
 3778SOL    HW222797   4.591   2.637   6.471 -0.9843  1.3122  0.1048
 3779SOL     OW22798   3.887   0.968  17.235  0.4349  0.4014  0.2903
 3779SOL    HW122799   3.912   1.005  17.150 -1.4949  0.9548 -0.0418
 3779SOL    HW222800   3.804   1.011  17.256  0.8924  0.3984  2.0720
 3780SOL     OW22801   0.052   0.062   0.121 -0.2623 -0.5488 -0.0843
 3780SOL    HW122802   0.053   0.158   0.124 -2.1260 -0.5882  2.4053
 3780SOL    HW222803   4.696   0.055   0.072  0.9403 -4.2180 -1.5643
 3781SOL     OW22804   0.972   0.517  16.018 -0.4819  0.3680  0.0189
 3781SOL    HW122805   0.920   0.509  16.099 -0.4269 -1.0244 -0.0785
 3781SOL    HW222806   0.976   0.609  15.995  1.1396  0.2948  0.0287
 3782SOL     OW22807   2.356   0.836  12.117 -0.2062 -0.8279 -0.6039
 3782SOL    HW122808   2.363   0.751  12.162  1.6901 -0.0326  0.6278
 3782SOL    HW222809   2.266   0.861  12.101 -0.6097 -1.3081  0.8453
 3783SOL     OW22810   2.356   1.232   8.795 -0.1911 -0.2140 -0.2578
 3783SOL    HW122811   2.378   1.233   8.702  0.0199  0.2412 -0.2035
 3783SOL    HW222812   2.443   1.224   8.835 -0.2037 -0.1914 -0.2252
 3784SOL     OW22813   1.472   0.338   1.393 -0.2054  0.2400 -0.2592
 3784SOL    HW122814   1.416   0.260   1.388  0.9746 -0.5821 -0.5181
 3784SOL    HW222815   1.475   0.352   1.488  0.2727  0.5244 -0.3181
 3785SOL     OW22816   0.138   4.235   0.924  0.2713 -0.0381  0.1929
 3785SOL    HW122817   0.109   4.319   0.888  2.1757  1.4773  2.1984
 3785SOL    HW222818   0.192   4.212   0.848  0.2479  0.7826 -0.0746
 3786SOL     OW22819   4.054   3.787  10.822 -0.5594 -0.4030  0.6732
 3786SOL    HW122820   3.989   3.755  10.759  0.1624 -1.5206  0.5189
 3786SOL    HW222821   4.122   3.812  10.760  0.7421 -0.6150  2.0027
 3787SOL     OW22822   3.501   3.995   8.290 -0.2444  0.1939  0.3429
 3787SOL    HW122823   3.434   3.932   8.263 -0.2342 -0.0540  0.8841
 3787SOL    HW222824   3.568   3.933   8.319 -0.6815 -1.0177 -1.2455
 3788SOL     OW22825   4.627   2.294   3.123  0.2454  0.4424 -0.8310
 3788SOL    HW122826   4.535   2.288   3.149 -0.0231  0.7015 -1.7307
 3788SOL    HW222827   4.666   2.325   3.205  0.2654  0.4096 -0.8283
 3789SOL     OW22828   3.580   3.195  14.074  0.1899  0.0373  0.3396
 3789SOL    HW122829   3.534   3.279  14.072  1.0347  0.5277  1.7053
 3789SOL    HW222830   3.518   3.129  14.042 -0.6657  2.0926 -2.2646
 3790SOL     OW22831   1.607   3.777   7.120  0.0656 -0.3024  0.3122
 3790SOL    HW122832   1.607   3.740   7.208 -0.0882 -0.0326  0.4252
 3790SOL    HW222833   1.539   3.844   7.125  2.0056  1.3395  4.7860
 3791SOL     OW22834   2.196   1.522   8.044  0.1161 -0.0442  0.3757
 3791SOL    HW122835   2.271   1.487   8.092 -1.0081 -0.6042  1.7179
 3791SOL    HW222836   2.175   1.446   7.990  3.3916 -0.3685 -0.4779
 3792SOL     OW22837   3.954   1.771   2.667 -0.0534  0.2181 -0.2293
 3792SOL    HW122838   3.900   1.702   2.707 -3.1231  0.9992 -3.0209
 3792SOL    HW222839   3.965   1.744   2.576 -1.9630  0.8436 -0.6473
 3793SOL     OW22840   4.213   3.872   0.095  0.2555  0.2407  0.4093
 3793SOL    HW122841   4.244   3.962   0.084 -0.7301  0.5010 -0.2540
 3793SOL    HW222842   4.271   3.824   0.036 -0.1425  0.7113 -0.3731
 3794SOL     OW22843   4.058   4.063   7.330  0.1332 -0.9322 -0.0659
 3794SOL    HW122844   3.965   4.085   7.335  0.5792  0.9834 -0.2617
 3794SOL    HW222845   4.051   4.001   7.257 -2.2691 -2.5476  1.5139
 3795SOL     OW22846   4.055   4.062   1.170  0.2234 -0.4005  0.9531
 3795SOL    HW122847   3.960   4.053   1.169  0.3861 -2.1705  1.5882
 3795SOL    HW222848   4.069   4.040   1.262 -1.7101  1.8949  1.7744
 3796SOL     OW22849   2.866   0.190   7.196 -0.5006  0.1900 -0.3697
 3796SOL    HW122850   2.950   0.212   7.157 -0.0747  1.8135  1.4722
 3796SOL    HW222851   2.809   0.211   7.122 -1.2422 -0.4264  0.0230
 3797SOL     OW22852   2.659   1.429   1.110  0.0958 -0.1201  0.3703
 3797SOL    HW122853   2.614   1.486   1.173 -0.1117 -1.2095  1.2124
 3797SOL    HW222854   2.717   1.487   1.061 -1.1025  0.9599  0.2339
 3798SOL     OW22855   2.643   1.047  10.099 -0.3645 -0.1382 -0.1488
 3798SOL    HW122856   2.599   0.988  10.160  1.0499 -3.6831 -2.4936
 3798SOL    HW222857   2.725   0.999  10.083 -0.9369 -1.0338 -0.4472
 3799SOL     OW22858   0.743   3.090   3.572 -0.0454 -0.3770  0.0982
 3799SOL    HW122859   0.769   3.007   3.532  2.2363 -0.0451  0.9446
 3799SOL    HW222860   0.755   3.139   3.491  0.1280  0.5553  0.6875
 3800SOL     OW22861   1.408   1.775   2.621  0.2382  0.1520  0.0871
 3800SOL    HW122862   1.365   1.700   2.581 -0.3572  0.1500  0.7273
 3800SOL    HW222863   1.446   1.820   2.546  0.2469 -0.4890 -0.2879
 3801SOL     OW22864   0.485   1.093   5.810 -0.4756  0.2400  0.1642
 3801SOL    HW122865   0.429   1.015   5.813 -2.2515  1.6202  2.8771
 3801SOL    HW222866   0.559   1.054   5.855 -1.9466 -2.6986  0.0465
 3802SOL     OW22867   2.619   3.324   6.071 -0.2603 -0.4216  0.0168
 3802SOL    HW122868   2.703   3.366   6.090  0.0934  0.2207 -2.9066
 3802SOL    HW222869   2.612   3.347   5.978  0.9678  1.2395  0.3185
 3803SOL     OW22870   1.184   3.953  15.182  1.0045  0.5177 -0.3084
 3803SOL    HW122871   1.209   4.003  15.260 -0.9898 -0.6743  1.0976
 3803SOL    HW222872   1.244   3.996  15.121  1.2848 -0.4193 -0.7067
 3804SOL     OW22873   1.700   1.243   4.659  0.0429  0.7184 -0.0412
 3804SOL    HW122874   1.696   1.199   4.575 -3.1761 -0.9959  1.0063
 3804SOL    HW222875   1.708   1.166   4.715  0.2907  2.2830  2.0852
 3805SOL     OW22876   0.341   3.478   3.135  0.2211  0.0370  0.1409
 3805SOL    HW122877   0.371   3.558   3.177 -2.0878  0.3999  1.1196
 3805SOL    HW222878   0.300   3.423   3.202 -0.2095  0.0229 -0.1302
 3806SOL     OW22879   1.337   0.862  11.877  0.5189 -0.0624 -0.1692
 3806SOL    HW122880   1.312   0.898  11.962  0.1065 -0.4831 -0.1111
 3806SOL    HW222881   1.263   0.804  11.856  0.8505 -0.4418 -0.3002
 3807SOL     OW22882   1.944   0.938   6.866 -0.6635  0.1143 -0.2098
 3807SOL    HW122883   1.999   0.951   6.944  0.7659 -3.5248 -0.5996
 3807SOL    HW222884   1.935   1.031   6.843  0.2651  0.5182  1.0266
 3808SOL     OW22885   2.749   3.974  13.004  0.6961 -0.0551 -0.3620
 3808SOL    HW122886   2.748   3.929  13.089  1.1054 -0.1998 -0.4331
 3808SOL    HW222887   2.843   3.988  12.995  0.7692 -0.5800 -0.3975
 3809SOL     OW22888   0.465   1.904   2.773  0.0609  0.6029  0.1793
 3809SOL    HW122889   0.512   1.986   2.756  1.1536 -0.1727 -0.5329
 3809SOL    HW222890   0.399   1.947   2.828  0.1383  0.1460  0.6245
 3810SOL     OW22891   3.080   2.432   2.559 -0.5217  0.4317 -0.2431
 3810SOL    HW122892   3.043   2.493   2.623 -0.5309 -1.0017  1.1139
 3810SOL    HW222893   2.997   2.411   2.517 -0.8820  0.8905  0.2419
 3811SOL     OW22894   2.209   4.195   4.058 -0.1754  0.0882 -0.1717
 3811SOL    HW122895   2.221   4.262   3.990  2.4464  0.3260  0.5083
 3811SOL    HW222896   2.164   4.245   4.126  1.5807  0.7447  0.5148
 3812SOL     OW22897   0.075   0.625   7.238 -0.1712  0.1024 -0.3608
 3812SOL    HW122898   0.135   0.638   7.166 -1.1519 -1.6242 -1.5064
 3812SOL    HW222899   0.004   0.577   7.195 -1.4264  0.0469  1.7599
 3813SOL     OW22900   0.899   0.456   3.991  0.0365 -0.1501  0.3443
 3813SOL    HW122901   0.931   0.398   3.921 -1.5461  0.2447 -0.7079
 3813SOL    HW222902   0.954   0.530   3.965  0.7611 -0.8517 -0.1190
 3814SOL     OW22903   3.396   4.670  17.425  0.3041  0.2498  0.7023
 3814SOL    HW122904   3.456   4.648  17.354 -1.1188 -1.4818  0.0296
 3814SOL    HW222905   3.453   4.669  17.501 -0.1357 -0.3001  1.0235
 3815SOL     OW22906   0.450   0.019   4.341  0.8699 -0.0141 -0.2030
 3815SOL    HW122907   0.410   0.101   4.311  1.7644 -0.0482 -1.4571
 3815SOL    HW222908   0.528   0.053   4.384  0.6209 -0.4225  0.5692
 3816SOL     OW22909   0.076   3.100   3.618 -0.0593  0.2515 -0.4984
 3816SOL    HW122910   0.027   3.018   3.622  2.1403 -1.0605 -0.2922
 3816SOL    HW222911   0.154   3.065   3.574  0.1120 -0.4546  0.3475
 3817SOL     OW22912   1.848   1.498   0.184 -0.1595  0.4636  0.1136
 3817SOL    HW122913   1.849   1.577   0.237 -0.5691  0.3700  0.2650
 3817SOL    HW222914   1.851   1.541   0.099  2.5862 -1.0518 -0.5339
 3818SOL     OW22915   2.040   4.010   8.594 -0.0418 -0.2580  0.2637
 3818SOL    HW122916   2.124   3.975   8.625  0.6656  1.7610  0.6549
 3818SOL    HW222917   2.064   4.073   8.526 -3.1656  0.3695 -0.2406
 3819SOL     OW22918   2.255   3.102   2.091  0.1249  0.4763  0.1790
 3819SOL    HW122919   2.288   3.164   2.025  0.0169  1.6033  1.1882
 3819SOL    HW222920   2.232   3.027   2.036 -1.8574 -0.2600  2.0280
 3820SOL     OW22921   0.412   1.893   7.444 -0.4655  0.4572  0.1757
 3820SOL    HW122922   0.469   1.887   7.367 -0.0728 -0.2838  0.5197
 3820SOL    HW222923   0.478   1.875   7.511 -0.3335 -0.8761 -0.3211
 3821SOL     OW22924   2.263   3.220   3.318 -0.9732  0.7924  0.1869
 3821SOL    HW122925   2.217   3.229   3.401  1.6700  0.2781  1.7069
 3821SOL    HW222926   2.205   3.280   3.271 -0.7367 -0.3529 -1.5789
 3822SOL     OW22927   4.100   1.701   1.769  0.0198 -0.3537  0.0088
 3822SOL    HW122928   4.011   1.727   1.745  0.7237  2.7088  0.7392
 3822SOL    HW222929   4.147   1.752   1.703  2.2250 -0.6685  1.3395
 3823SOL     OW22930   3.615   3.521   8.432  0.4311 -0.0726 -0.0880
 3823SOL    HW122931   3.623   3.451   8.498 -0.7828  1.4708  1.6725
 3823SOL    HW222932   3.610   3.470   8.351 -0.4505  2.2558 -1.4708
 3824SOL     OW22933   2.163   2.673   4.641 -0.1946  0.3817 -0.4523
 3824SOL    HW122934   2.216   2.607   4.686 -2.2287 -0.6956  0.3511
 3824SOL    HW222935   2.099   2.705   4.704  0.0811 -0.6578  0.3674
 3825SOL     OW22936   2.518   3.856  17.528  0.0605 -0.2644 -0.0177
 3825SOL    HW122937   2.489   3.918  17.595  0.2533  0.0454 -0.2214
 3825SOL    HW222938   2.581   3.908  17.478  0.2826  0.2895  0.8445
 3826SOL     OW22939   2.327   2.112  13.304 -0.4425  0.5994  0.0865
 3826SOL    HW122940   2.416   2.132  13.277 -1.3223  3.4530 -0.7153
 3826SOL    HW222941   2.276   2.126  13.224 -1.4347 -1.9296  0.2759
 3827SOL     OW22942   1.092   1.930  10.815 -0.2993  0.0209 -0.2850
 3827SOL    HW122943   1.039   1.893  10.885 -0.8910  2.8157  0.7668
 3827SOL    HW222944   1.174   1.881  10.823 -1.1202 -1.6645 -2.4342
 3828SOL     OW22945   3.998   1.883   2.097  0.0361 -0.0039 -0.0834
 3828SOL    HW122946   4.017   1.975   2.076  0.6151 -0.3362 -1.0215
 3828SOL    HW222947   4.080   1.837   2.081  0.0934  0.5258 -1.2931
 3829SOL     OW22948   2.040   3.571  16.659  0.0763 -0.3691 -0.2066
 3829SOL    HW122949   1.949   3.562  16.686 -0.4417  0.2521 -1.7722
 3829SOL    HW222950   2.043   3.650  16.605  2.5973  1.1062  2.0782
 3830SOL     OW22951   1.850   2.723   7.160 -0.0685 -0.1565 -0.4598
 3830SOL    HW122952   1.924   2.714   7.220 -1.4031 -0.8921  1.0711
 3830SOL    HW222953   1.887   2.693   7.077  1.5739  1.9273 -0.4613
 3831SOL     OW22954   4.118   1.774   3.283  0.5426 -0.2655  1.1240
 3831SOL    HW122955   4.131   1.697   3.228  0.7158  1.0953 -0.7577
 3831SOL    HW222956   4.023   1.777   3.295  0.3473  1.6457 -0.7590
 3832SOL     OW22957   3.730   3.483  10.737  0.0622 -0.0488  0.4756
 3832SOL    HW122958   3.635   3.491  10.742  0.0719  0.0081  0.5582
 3832SOL    HW222959   3.758   3.446  10.820  0.6735 -0.0352  0.2802
 3833SOL     OW22960   4.592   3.897  15.968  0.2398  0.0099 -0.1500
 3833SOL    HW122961   4.609   3.888  16.061  3.9032  2.6630 -0.6002
 3833SOL    HW222962   4.505   3.938  15.977  1.2539  2.1529 -0.1144
 3834SOL     OW22963   1.602   2.978   4.046  0.2737 -0.4601  0.5448
 3834SOL    HW122964   1.676   3.020   4.002 -0.3924 -1.3223 -1.4378
 3834SOL    HW222965   1.521   3.000   4.000 -0.5231 -1.8318  1.2864
 3835SOL     OW22966   0.250   4.554   1.932  0.2874  0.0169 -0.0894
 3835SOL    HW122967   0.344   4.562   1.945  0.0979 -1.6323  2.2828
 3835SOL    HW222968   0.257   4.556   1.837  0.2461 -1.3850 -0.1131
 3836SOL     OW22969   2.072   3.884   5.599  0.1270  0.1422 -0.1557
 3836SOL    HW122970   2.056   3.889   5.693  1.1343  1.3867 -0.0379
 3836SOL    HW222971   2.118   3.966   5.578 -0.9391  0.5511 -0.8454
 3837SOL     OW22972   0.354   0.764  11.672  0.1538  0.1322 -0.0391
 3837SOL    HW122973   0.373   0.702  11.602 -2.5163 -0.9714  0.2293
 3837SOL    HW222974   0.441   0.800  11.689 -0.3044 -0.2348  3.0971
 3838SOL     OW22975   3.103   4.093   5.376 -0.0260  0.3996  0.2785
 3838SOL    HW122976   3.009   4.110   5.367 -0.2373 -0.6852  0.4372
 3838SOL    HW222977   3.089   3.999   5.386  1.4796  0.1878  0.2949
 3839SOL     OW22978   4.007   3.222   0.047  0.1427  0.2860 -0.3572
 3839SOL    HW122979   4.023   3.309   0.084 -3.4557  0.8536 -0.1868
 3839SOL    HW222980   3.914   3.211   0.065  0.0832  0.2030 -0.7003
 3840SOL     OW22981   4.418   3.044   8.061 -0.1928  0.3461  0.3885
 3840SOL    HW122982   4.447   2.984   8.130  0.2480 -0.0902 -0.1634
 3840SOL    HW222983   4.452   2.995   7.985  0.1539 -0.9283  1.3527
 3841SOL     OW22984   0.784   3.853   8.626  0.3863 -0.1082 -0.4915
 3841SOL    HW122985   0.795   3.836   8.719 -1.3586 -1.8272 -0.6100
 3841SOL    HW222986   0.719   3.923   8.625  0.6681  0.1509 -1.5885
 3842SOL     OW22987   1.845   0.609   4.276 -0.1053  0.0165 -0.1852
 3842SOL    HW122988   1.904   0.615   4.351 -0.0659 -0.9988 -0.1355
 3842SOL    HW222989   1.909   0.617   4.206 -0.3315 -1.9967 -0.6263
 3843SOL     OW22990   3.917   3.233   9.069  0.2824 -0.3607  0.7063
 3843SOL    HW122991   3.907   3.313   9.119 -2.1887 -0.4648  0.3731
 3843SOL    HW222992   3.878   3.168   9.128 -0.6405 -0.5288 -0.0847
 3844SOL     OW22993   1.092   2.840   7.917  0.5409  0.2016 -0.3704
 3844SOL    HW122994   1.140   2.768   7.957 -0.8845 -0.3662  0.2967
 3844SOL    HW222995   1.008   2.845   7.961  1.0601 -1.6304  0.8486
 3845SOL     OW22996   2.793   1.160   2.625 -0.1832  0.6898 -0.2756
 3845SOL    HW122997   2.760   1.076   2.658  0.4797  1.0520  1.3126
 3845SOL    HW222998   2.882   1.150   2.660 -0.7939 -1.2594  0.7349
 3846SOL     OW22999   3.077   2.388   3.213 -0.1233  0.8307 -0.2269
 3846SOL    HW123000   3.010   2.338   3.260  1.6267 -2.3295 -1.1026
 3846SOL    HW223001   3.162   2.352   3.238 -0.7335 -0.8971 -0.6072
 3847SOL     OW23002   1.241   0.765   8.388  0.4349  0.1785  0.3187
 3847SOL    HW123003   1.198   0.692   8.345  0.4451 -0.2546  1.0485
 3847SOL    HW223004   1.189   0.780   8.467 -0.2403  1.1114 -0.3059
 3848SOL     OW23005   2.828   1.620   3.441  0.3516  0.0404  0.4366
 3848SOL    HW123006   2.879   1.540   3.431 -0.1742 -0.3384  0.8127
 3848SOL    HW223007   2.889   1.679   3.486  0.4603 -0.1361  0.5205
 3849SOL     OW23008   2.947   3.180  15.565 -0.3035 -0.5899 -0.1294
 3849SOL    HW123009   3.000   3.100  15.569 -0.1417 -0.3964  1.7797
 3849SOL    HW223010   3.007   3.252  15.545  1.8507 -1.2364  4.1324
 3850SOL     OW23011   1.058   3.001   4.790  0.2946 -0.3061  1.3131
 3850SOL    HW123012   1.148   2.989   4.758 -0.4720 -0.2258 -0.8890
 3850SOL    HW223013   1.059   2.956   4.874  0.4963  1.9067  2.4907
 3851SOL     OW23014   2.449   3.715   4.685 -0.6214  0.9223  0.8523
 3851SOL    HW123015   2.483   3.627   4.668  2.6005  2.5115 -1.1000
 3851SOL    HW223016   2.399   3.729   4.605 -0.0613 -0.7636  0.2091
 3852SOL     OW23017   2.366   3.806   2.392  0.3080  0.0272 -0.0883
 3852SOL    HW123018   2.335   3.894   2.369 -0.1858 -0.2581 -0.5278
 3852SOL    HW223019   2.298   3.770   2.450  3.4969 -2.9853  1.7564
 3853SOL     OW23020   0.351   4.022   5.638  0.1942  0.0484  0.0557
 3853SOL    HW123021   0.312   3.934   5.634  0.4834  0.0205 -1.9737
 3853SOL    HW223022   0.423   4.011   5.700  0.1704  0.2032  0.1099
 3854SOL     OW23023   1.220   0.504   4.658 -0.8547  0.3147  0.5629
 3854SOL    HW123024   1.298   0.473   4.702 -0.4199  0.3796 -0.1604
 3854SOL    HW223025   1.189   0.585   4.700 -0.6551  0.7150 -0.0557
 3855SOL     OW23026   1.194   4.219   5.619  0.8005  0.0587 -0.1681
 3855SOL    HW123027   1.263   4.155   5.600 -0.4379 -1.0605 -0.8707
 3855SOL    HW223028   1.238   4.302   5.638 -0.7190  1.2091 -1.6350
 3856SOL     OW23029   2.002   1.729   6.993  0.0546  0.3711 -0.5262
 3856SOL    HW123030   1.926   1.722   7.051  1.8128  2.3300  1.9375
 3856SOL    HW223031   1.966   1.663   6.933 -0.6162 -1.0853  1.4761
 3857SOL     OW23032   2.653   4.395   7.978  0.7263 -0.2415 -0.3560
 3857SOL    HW123033   2.668   4.392   7.883 -0.4605  0.7339 -0.5763
 3857SOL    HW223034   2.736   4.359   8.009 -0.1053 -2.1491 -0.3646
 3858SOL     OW23035   0.454   2.878  11.333 -0.0325 -0.1682  0.7494
 3858SOL    HW123036   0.359   2.871  11.323  0.1103 -0.7506 -0.1927
 3858SOL    HW223037   0.473   2.922  11.250 -0.9622 -0.5785  0.3207
 3859SOL     OW23038   2.146   2.170   0.095 -0.3378  1.0619 -0.1211
 3859SOL    HW123039   2.147   2.179  17.706  3.4591  2.8016  0.0613
 3859SOL    HW223040   2.232   2.196   0.127 -1.5533 -0.4940  4.4663
 3860SOL     OW23041   1.427   0.417   8.372 -0.0507 -0.4507 -0.1434
 3860SOL    HW123042   1.385   0.394   8.455 -0.6393 -3.3506 -1.2415
 3860SOL    HW223043   1.509   0.449   8.410 -0.6055 -1.6333  2.0699
 3861SOL     OW23044   0.043   2.734   8.594 -0.1338  0.2146  0.1454
 3861SOL    HW123045   0.012   2.671   8.529 -1.5671  0.9564  0.0993
 3861SOL    HW223046   0.108   2.783   8.542 -0.1121  0.9078  0.8232
 3862SOL     OW23047   0.182   3.432   2.165 -0.4069  0.0731 -0.2069
 3862SOL    HW123048   0.198   3.390   2.080  0.1707  0.2483 -0.1895
 3862SOL    HW223049   0.226   3.517   2.160 -3.4201  1.4696 -2.7570
 3863SOL     OW23050   2.923   0.387  10.931 -0.2217 -0.5671  0.1828
 3863SOL    HW123051   2.881   0.442  10.998 -0.6792 -0.4603 -0.1943
 3863SOL    HW223052   2.938   0.315  10.992  0.1312  0.3360  1.1529
 3864SOL     OW23053   0.658   0.890   9.944 -0.0875  0.7347 -0.1710
 3864SOL    HW123054   0.650   0.862   9.853  2.1228 -0.0232 -0.1208
 3864SOL    HW223055   0.596   0.831   9.988  0.0277  0.0225 -0.9521
 3865SOL     OW23056   2.519   0.370   7.982 -0.4156 -0.5127 -0.2938
 3865SOL    HW123057   2.548   0.306   8.048  1.0746 -0.9308 -1.3627
 3865SOL    HW223058   2.510   0.448   8.037  1.6894 -1.1284  0.9399
 3866SOL     OW23059   4.638   4.574   8.413  0.0498  0.3640 -0.1560
 3866SOL    HW123060   4.704   4.632   8.375  0.8090  0.3791  1.2044
 3866SOL    HW223061   4.571   4.635   8.442 -1.7997 -2.0044  0.5745
 3867SOL     OW23062   2.262   0.640   3.572  0.0179 -0.0779 -0.2935
 3867SOL    HW123063   2.303   0.691   3.502 -1.4804 -0.0891 -1.1846
 3867SOL    HW223064   2.220   0.716   3.613  0.5818 -0.5527  1.1644
 3868SOL     OW23065   3.768   0.134  10.756 -0.2843 -0.1128 -0.0947
 3868SOL    HW123066   3.672   0.134  10.751 -0.4064 -1.3055  2.6105
 3868SOL    HW223067   3.782   0.123  10.662  0.0471  1.4690 -0.2213
 3869SOL     OW23068   2.078   1.215   3.632  0.5219  0.2738 -0.1076
 3869SOL    HW123069   2.077   1.309   3.651 -0.9816  0.3536 -0.6310
 3869SOL    HW223070   2.057   1.178   3.718 -2.9064  2.1228 -0.1975
 3870SOL     OW23071   0.609   1.324  11.654 -0.1520 -0.1820  0.5271
 3870SOL    HW123072   0.620   1.285  11.567  2.7718  0.7644  0.4754
 3870SOL    HW223073   0.521   1.297  11.679 -0.5516  1.4811  0.9633
 3871SOL     OW23074   3.723   0.369   4.449 -0.5436 -0.0050  0.5622
 3871SOL    HW123075   3.670   0.434   4.495 -1.9985  0.0487 -1.1785
 3871SOL    HW223076   3.769   0.332   4.524 -3.6386 -1.5549  1.7133
 3872SOL     OW23077   1.786   1.557   6.496  0.0386 -0.6449  0.8158
 3872SOL    HW123078   1.872   1.517   6.515  1.8732  3.9539  2.0892
 3872SOL    HW223079   1.731   1.487   6.461  1.8343 -1.0702 -1.1568
 3873SOL     OW23080   1.281   1.455  10.019  0.0601 -0.3886 -0.1477
 3873SOL    HW123081   1.290   1.413  10.104 -0.7063 -0.3375 -0.0403
 3873SOL    HW223082   1.193   1.419  10.003  0.6293 -1.9356  0.1557
 3874SOL     OW23083   3.569   1.544   5.137  0.1530  0.8826  0.1272
 3874SOL    HW123084   3.571   1.452   5.165  1.7750  0.2473 -2.0474
 3874SOL    HW223085   3.490   1.586   5.171 -0.3320 -0.6058  0.8547
 3875SOL     OW23086   0.920   2.159   2.592 -0.1085 -0.5291  0.0047
 3875SOL    HW123087   1.004   2.136   2.631 -0.7037 -3.5074 -0.4521
 3875SOL    HW223088   0.945   2.168   2.500  1.6541  0.2495  0.5634
 3876SOL     OW23089   3.858   0.976  16.395 -0.0513 -0.2299 -0.1373
 3876SOL    HW123090   3.863   0.939  16.306  1.0007 -0.1590 -0.1033
 3876SOL    HW223091   3.950   0.991  16.416 -0.5083 -0.5176  2.0355
 3877SOL     OW23092   2.456   2.445   2.550  0.4991  0.0116  0.4332
 3877SOL    HW123093   2.515   2.376   2.517  2.0108  2.1434 -1.3057
 3877SOL    HW223094   2.499   2.522   2.514  1.3252 -1.3169 -1.4770
 3878SOL     OW23095   3.130   0.295   8.535 -0.7345  0.9625  0.2106
 3878SOL    HW123096   3.035   0.297   8.550 -0.8468 -1.8328 -0.0541
 3878SOL    HW223097   3.155   0.218   8.585 -2.5797 -0.0586 -0.4115
 3879SOL     OW23098   2.231   0.114   6.560  0.1523 -0.0649 -0.3324
 3879SOL    HW123099   2.261   0.063   6.485  2.1466 -0.1770  0.5347
 3879SOL    HW223100   2.224   0.039   6.618  0.2296  0.5136  0.4224
 3880SOL     OW23101   4.303   4.226  15.498 -0.1433  0.1427  0.3895
 3880SOL    HW123102   4.365   4.153  15.492 -0.4048 -0.0304 -0.1864
 3880SOL    HW223103   4.359   4.303  15.506  0.4294 -0.4374  1.9377
 3881SOL     OW23104   3.693   1.564  10.471  0.1793  0.4464  0.0166
 3881SOL    HW123105   3.649   1.601  10.548  0.4171 -1.4056  1.0280
 3881SOL    HW223106   3.772   1.619  10.464 -0.2901  0.9151 -1.7732
 3882SOL     OW23107   3.966   0.412   1.192  0.0908  0.1011 -0.4247
 3882SOL    HW123108   4.048   0.450   1.222  0.1277 -0.9720  0.8732
 3882SOL    HW223109   3.951   0.449   1.106 -1.4747  0.3246 -0.0634
 3883SOL     OW23110   2.684   3.995   6.262  0.7673  0.4445 -0.3469
 3883SOL    HW123111   2.610   4.052   6.284  0.6102 -0.5427  1.6747
 3883SOL    HW223112   2.650   3.947   6.187  0.0244  1.9954 -0.9941
 3884SOL     OW23113   4.500   1.211   0.518  0.0840 -0.6318  0.1493
 3884SOL    HW123114   4.435   1.257   0.571  0.2217 -0.3721  0.0950
 3884SOL    HW223115   4.573   1.253   0.563  0.0943 -2.3051  1.6829
 3885SOL     OW23116   3.611   3.736   8.675  0.4437  0.1384 -0.0700
 3885SOL    HW123117   3.649   3.659   8.632 -0.9541  0.5495 -2.0755
 3885SOL    HW223118   3.525   3.732   8.633 -0.4191  1.1686  1.6279
 3886SOL     OW23119   2.814   4.255   0.659  0.0249 -0.4237  0.2259
 3886SOL    HW123120   2.776   4.319   0.719  3.6816  1.3720  0.6325
 3886SOL    HW223121   2.892   4.299   0.627 -0.3841 -1.3859 -2.1092
 3887SOL     OW23122   1.572   1.038   3.436 -0.3724 -0.5794 -0.1614
 3887SOL    HW123123   1.587   1.130   3.413 -0.4507 -0.2174  1.1974
 3887SOL    HW223124   1.615   0.994   3.363  1.4096  0.3794  0.3181
 3888SOL     OW23125   2.236   3.736   5.101 -0.0080  0.3633 -0.1443
 3888SOL    HW123126   2.218   3.824   5.136  0.8390  0.3331  0.3854
 3888SOL    HW223127   2.249   3.755   5.008  1.7452  0.1823  0.0616
 3889SOL     OW23128   0.056   0.323   0.113 -0.1951 -0.0397  0.4737
 3889SOL    HW123129   0.051   0.378   0.034 -2.4188 -0.9550 -0.0270
 3889SOL    HW223130   0.124   0.369   0.162  1.4115 -1.1222 -0.7624
 3890SOL     OW23131   1.073   3.701   1.148 -0.1037  0.7548  0.0208
 3890SOL    HW123132   1.120   3.630   1.104 -0.5986 -0.1823  0.9917
 3890SOL    HW223133   1.142   3.763   1.172  1.6741 -0.1663 -2.7132
 3891SOL     OW23134   2.264   3.911   4.391 -0.0692 -0.5317  0.2060
 3891SOL    HW123135   2.310   3.927   4.309  3.0014 -1.0810  1.8203
 3891SOL    HW223136   2.276   3.987   4.449  0.9404 -0.2438 -0.3777
 3892SOL     OW23137   2.436   1.699   2.834 -0.0407  0.8639  0.1026
 3892SOL    HW123138   2.439   1.659   2.921  1.9701 -0.2006 -0.4494
 3892SOL    HW223139   2.360   1.757   2.838 -0.4931  0.2645  0.1705
 3893SOL     OW23140   1.731   1.647   7.736  0.4061 -0.0541  0.4191
 3893SOL    HW123141   1.722   1.718   7.672  2.9121  1.2060  1.4424
 3893SOL    HW223142   1.644   1.608   7.745 -0.0430  1.5172  3.0413
 3894SOL     OW23143   3.542   2.344   2.706 -0.3137  0.1885  0.2512
 3894SOL    HW123144   3.492   2.400   2.648 -0.8335 -1.7248 -1.1592
 3894SOL    HW223145   3.468   2.326   2.765 -1.6539  2.5651 -0.7104
 3895SOL     OW23146   4.422   1.374  10.187 -0.0165  0.8538 -0.1672
 3895SOL    HW123147   4.474   1.431  10.131  0.6773  1.2943  0.9291
 3895SOL    HW223148   4.443   1.410  10.273  1.8976  0.4062 -0.4476
 3896SOL     OW23149   1.059   0.363  10.942 -0.3925  0.0476  0.1407
 3896SOL    HW123150   0.983   0.404  10.900 -0.2416  0.5848  0.3944
 3896SOL    HW223151   1.096   0.308  10.873  1.7274  1.4257  0.1850
 3897SOL     OW23152   3.278   2.208   3.538  0.1241  0.4501 -0.2848
 3897SOL    HW123153   3.297   2.247   3.453  1.9180  0.4542  0.1244
 3897SOL    HW223154   3.219   2.274   3.575 -0.6069 -0.0978 -0.4721
 3898SOL     OW23155   3.524   1.164   4.504  0.1282 -0.5193 -0.1920
 3898SOL    HW123156   3.611   1.151   4.466  0.1632 -0.1456 -0.2387
 3898SOL    HW223157   3.537   1.110   4.582 -0.4687  1.5078  1.3137
 3899SOL     OW23158   3.923   2.264   7.218 -0.2005 -0.5173  0.0311
 3899SOL    HW123159   4.006   2.302   7.249  1.0574 -3.5825  0.4596
 3899SOL    HW223160   3.912   2.306   7.133 -1.2262 -0.0826  0.3778
 3900SOL     OW23161   3.303   3.698  16.209  0.5138  0.3190 -0.1639
 3900SOL    HW123162   3.311   3.792  16.226 -1.6262  0.5139 -0.2377
 3900SOL    HW223163   3.317   3.694  16.115  2.0875  0.2875  0.0540
 3901SOL     OW23164   3.951   0.664   6.422 -0.1273  0.4470 -0.1490
 3901SOL    HW123165   3.968   0.595   6.486  1.3666  0.1945 -0.8260
 3901SOL    HW223166   3.995   0.650   6.338 -2.4309 -0.9577 -1.1181
 3902SOL     OW23167   0.938   4.383   2.754  0.4438  0.2975  0.1843
 3902SOL    HW123168   0.851   4.423   2.760 -0.8636 -2.6254  1.1407
 3902SOL    HW223169   0.925   4.294   2.789 -1.1552  0.3845 -0.1945
 3903SOL     OW23170   2.876   4.384  11.507 -0.5402 -0.3281  0.1073
 3903SOL    HW123171   2.841   4.295  11.510  1.3560 -1.1339 -1.2533
 3903SOL    HW223172   2.871   4.410  11.599  0.3595  2.8956 -0.7654
 3904SOL     OW23173   4.385   3.288   0.053 -0.0478 -0.0080 -0.1505
 3904SOL    HW123174   4.377   3.206   0.100  0.5316  1.0284  1.7373
 3904SOL    HW223175   4.418   3.354   0.114 -0.3778  1.6590 -1.7400
 3905SOL     OW23176   2.624   1.134  15.336  0.4241  0.2554  0.5020
 3905SOL    HW123177   2.658   1.210  15.290 -0.1004  0.3602  0.2856
 3905SOL    HW223178   2.645   1.160  15.426  0.2385 -0.0980  0.6490
 3906SOL     OW23179   4.100   2.473   1.763 -0.5249 -0.2992 -0.6961
 3906SOL    HW123180   4.154   2.508   1.834 -1.8261 -0.9800  0.6393
 3906SOL    HW223181   4.014   2.473   1.806  0.2972  3.8909  0.9048
 3907SOL     OW23182   3.637   3.045  11.659 -0.1699  0.0293 -0.0519
 3907SOL    HW123183   3.638   3.127  11.707 -4.8678  0.7324 -1.1414
 3907SOL    HW223184   3.649   3.090  11.575 -0.2169 -0.0127 -0.0812
 3908SOL     OW23185   4.152   4.262   5.308 -0.7221 -0.1847 -0.2934
 3908SOL    HW123186   4.190   4.350   5.305 -1.8304  0.3782  2.3855
 3908SOL    HW223187   4.146   4.247   5.213 -1.1561 -0.9858 -0.1342
 3909SOL     OW23188   3.496   3.753   7.023 -0.1631  0.7880 -0.0837
 3909SOL    HW123189   3.406   3.767   7.052 -0.8347 -2.2181 -0.6732
 3909SOL    HW223190   3.500   3.660   6.999  0.6825  0.7645  0.1458
 3910SOL     OW23191   3.260   3.214  14.527 -0.0145  0.3674  0.7761
 3910SOL    HW123192   3.255   3.300  14.568 -2.8872  0.2708  0.6283
 3910SOL    HW223193   3.321   3.170  14.585  1.5861 -0.0856 -1.2504
 3911SOL     OW23194   1.076   1.165  11.562  0.0464 -0.2684  0.0356
 3911SOL    HW123195   1.071   1.123  11.647 -3.3747  0.0874  0.0091
 3911SOL    HW223196   0.998   1.220  11.560  0.3843  0.1557 -1.8964
 3912SOL     OW23197   0.310   3.485   7.880 -0.1542 -0.1781  0.2403
 3912SOL    HW123198   0.369   3.510   7.952  1.9553 -1.1819 -1.1392
 3912SOL    HW223199   0.366   3.420   7.837 -0.7472  0.7816 -1.9605
 3913SOL     OW23200   1.314   4.220  16.059  0.4038  0.2501  0.0521
 3913SOL    HW123201   1.328   4.141  16.112 -0.1906 -0.7537 -1.2961
 3913SOL    HW223202   1.308   4.183  15.971 -1.9030  0.7258  0.0053
 3914SOL     OW23203   0.365   3.880  17.526 -0.2850 -0.6777 -0.4398
 3914SOL    HW123204   0.367   3.791  17.561 -1.4046 -0.5185  0.0221
 3914SOL    HW223205   0.445   3.882  17.473  0.6873  0.6551  1.0637
 3915SOL     OW23206   4.366   2.745   5.196 -0.3118 -0.0617  0.4271
 3915SOL    HW123207   4.343   2.835   5.218  1.8658  0.7120 -0.3920
 3915SOL    HW223208   4.447   2.750   5.145  0.3976 -3.5539  1.2085
 3916SOL     OW23209   2.891   4.633  16.136  0.4807 -0.7380 -0.0099
 3916SOL    HW123210   2.824   4.634  16.204 -0.5418 -0.8031 -1.0188
 3916SOL    HW223211   2.966   4.684  16.165 -0.2170  0.2866 -0.0361
 3917SOL     OW23212   3.388   3.047  16.753 -0.1863 -0.2992 -0.0798
 3917SOL    HW123213   3.432   2.962  16.757  0.6929  0.1619 -0.1011
 3917SOL    HW223214   3.423   3.094  16.677  0.0699  1.2570  1.0230
 3918SOL     OW23215   2.541   3.715   0.166  0.0398  0.8566 -0.6702
 3918SOL    HW123216   2.540   3.760   0.251 -0.9173  0.3843 -0.4315
 3918SOL    HW223217   2.481   3.645   0.190  1.4902  0.9234  3.0690
 3919SOL     OW23218   4.423   1.930   2.154  0.1730 -0.3365  0.3384
 3919SOL    HW123219   4.417   1.905   2.246 -2.6904  0.0492  0.2452
 3919SOL    HW223220   4.377   1.851   2.126  1.9714 -1.3193  0.1397
 3920SOL     OW23221   3.030   3.584  13.979 -0.6908 -0.0643 -0.4692
 3920SOL    HW123222   2.943   3.593  13.941 -0.8603  0.0002 -0.0606
 3920SOL    HW223223   3.000   3.562  14.067  2.3491 -1.0583  0.3282
 3921SOL     OW23224   3.012   3.902   1.226 -0.1302  0.0837  0.5108
 3921SOL    HW123225   3.054   3.843   1.163 -2.7350 -0.4451 -0.7582
 3921SOL    HW223226   2.928   3.856   1.224 -0.6308  0.9692  1.1316
 3922SOL     OW23227   3.587   0.670   8.250 -0.1405 -0.0827  0.0110
 3922SOL    HW123228   3.518   0.654   8.185 -0.4225 -1.2388  0.6067
 3922SOL    HW223229   3.651   0.602   8.234  1.4180  1.4760 -0.3861
 3923SOL     OW23230   0.106   4.335  16.644 -0.1756 -0.1018 -0.4600
 3923SOL    HW123231   0.070   4.247  16.631 -0.3841 -0.0810 -0.0420
 3923SOL    HW223232   0.097   4.345  16.739  0.7819 -0.3058 -0.3549
 3924SOL     OW23233   2.752   3.223  15.194  0.1627 -0.5928  0.0534
 3924SOL    HW123234   2.686   3.159  15.170 -0.4771  0.0999 -0.0551
 3924SOL    HW223235   2.825   3.162  15.185  0.8424  0.1957  0.2201
 3925SOL     OW23236   4.411   1.805  13.749 -0.0648  0.4582  0.1850
 3925SOL    HW123237   4.448   1.835  13.831 -0.3410  0.2896  0.3722
 3925SOL    HW223238   4.455   1.868  13.693  1.4538 -0.6331  0.1426
 3926SOL     OW23239   0.018   2.038  13.847  0.6107 -0.3425 -0.2962
 3926SOL    HW123240   0.069   1.963  13.817  1.5838  0.6889 -1.2308
 3926SOL    HW223241   4.658   2.000  13.836  0.3734 -0.1189  0.7802
 3927SOL     OW23242   2.623   2.440   5.631 -0.0664  0.0751 -0.2976
 3927SOL    HW123243   2.531   2.415   5.630  0.1125 -0.5488 -1.5242
 3927SOL    HW223244   2.633   2.472   5.721 -2.3544 -0.8684  0.2820
 3928SOL     OW23245   0.500   4.672   7.450 -0.8935 -0.5733 -0.2515
 3928SOL    HW123246   0.405   4.663   7.439 -0.8653  0.8646 -1.6252
 3928SOL    HW223247   0.505   0.040   7.461  0.1622 -0.5740 -0.7355
 3929SOL     OW23248   0.633   0.068  14.830  0.0865  0.0032  0.2129
 3929SOL    HW123249   0.677   4.724  14.784  0.7214  1.3955 -1.2905
 3929SOL    HW223250   0.668   0.133  14.769  2.2312  0.6053  2.0786
 3930SOL     OW23251   2.919   2.722   6.644  0.1132 -0.8536  0.0983
 3930SOL    HW123252   2.990   2.716   6.580  1.3981  0.3211  1.4308
 3930SOL    HW223253   2.854   2.775   6.598 -0.9808 -3.0858 -0.9529
 3931SOL     OW23254   0.122   0.722   4.424  0.3862 -0.2936  0.5862
 3931SOL    HW123255   0.091   0.723   4.514  0.9484 -2.6013  0.7983
 3931SOL    HW223256   0.071   0.795   4.389  1.6295  1.3768  2.3079
 3932SOL     OW23257   1.162   0.705   7.270  0.1100 -0.3058  0.1416
 3932SOL    HW123258   1.156   0.666   7.358  1.7666  2.1872  1.3701
 3932SOL    HW223259   1.141   0.631   7.213 -2.6476 -0.3854  1.2885
 3933SOL     OW23260   1.436   3.350   4.773 -0.5115  0.1577 -0.1038
 3933SOL    HW123261   1.386   3.295   4.834  0.8458  0.0991  0.9484
 3933SOL    HW223262   1.443   3.429   4.826 -1.8765  0.5424 -0.4810
 3934SOL     OW23263   0.442   0.556   6.753 -0.7474  0.1259  0.2797
 3934SOL    HW123264   0.366   0.500   6.767 -1.1012  0.4891 -0.1845
 3934SOL    HW223265   0.517   0.501   6.775  0.3593  1.9144  1.0348
 3935SOL     OW23266   0.237   2.715  15.656  0.9503 -0.1312 -0.2664
 3935SOL    HW123267   0.298   2.724  15.729  1.3646  1.0260 -0.7536
 3935SOL    HW223268   0.295   2.672  15.594  1.1837 -0.1627 -0.0253
 3936SOL     OW23269   1.473   1.560   4.568 -0.1065  0.1414  0.1096
 3936SOL    HW123270   1.456   1.570   4.474  1.1320 -0.3035 -0.1583
 3936SOL    HW223271   1.482   1.648   4.603 -1.2961 -0.2092  1.2774
 3937SOL     OW23272   1.304   1.982  13.034  0.3216 -0.6869  0.0494
 3937SOL    HW123273   1.314   2.069  13.071  1.1884 -0.4757 -0.6769
 3937SOL    HW223274   1.394   1.969  13.003 -0.3060 -2.9278 -0.8466
 3938SOL     OW23275   4.416   3.798   2.836 -0.3879 -0.4991 -0.1162
 3938SOL    HW123276   4.404   3.878   2.785 -0.7954 -1.3309 -1.3184
 3938SOL    HW223277   4.444   3.731   2.773  0.2313 -1.8365  1.5656
 3939SOL     OW23278   3.485   0.890   2.236 -0.5708 -0.8102  0.1505
 3939SOL    HW123279   3.511   0.981   2.247 -1.8017 -0.6846  1.9449
 3939SOL    HW223280   3.521   0.865   2.150 -0.4794  0.3201 -0.1317
 3940SOL     OW23281   3.031   3.198  12.710  0.4916 -0.3077  0.1887
 3940SOL    HW123282   3.069   3.250  12.639 -0.1478 -1.4712 -0.9908
 3940SOL    HW223283   3.035   3.258  12.785 -0.0737 -0.6164  0.4615
 3941SOL     OW23284   1.283   1.396   2.801  0.8076 -0.4306  0.0521
 3941SOL    HW123285   1.264   1.489   2.805 -1.3803 -0.8627  0.0232
 3941SOL    HW223286   1.210   1.360   2.852  0.8817 -1.4443 -0.5545
 3942SOL     OW23287   0.684   3.274  11.637  0.0855  0.0709 -0.1591
 3942SOL    HW123288   0.593   3.267  11.663  0.1276  1.0712  0.2488
 3942SOL    HW223289   0.722   3.221  11.708 -2.0589  1.4402  1.9931
 3943SOL     OW23290   0.916   1.837  14.939  0.1672  0.3741  0.1605
 3943SOL    HW123291   0.912   1.909  15.002 -0.2013  0.6702 -0.2016
 3943SOL    HW223292   0.862   1.875  14.870 -0.3828 -1.6649 -0.5387
 3944SOL     OW23293   0.252   3.299   9.533 -0.3957  0.3024 -0.5207
 3944SOL    HW123294   0.321   3.365   9.527  1.0359 -1.4161 -2.6984
 3944SOL    HW223295   0.184   3.349   9.578 -1.1685 -0.6365 -0.6365
 3945SOL     OW23296   0.884   0.802   5.044  0.0715 -0.4691  0.4349
 3945SOL    HW123297   0.941   0.873   5.013 -1.2964 -0.1220 -1.2759
 3945SOL    HW223298   0.837   0.782   4.963  0.0194  1.3703  0.0174
 3946SOL     OW23299   4.563   1.300   1.809  0.1846 -0.5626 -0.1045
 3946SOL    HW123300   4.521   1.373   1.765 -2.9916 -0.8686  2.3838
 3946SOL    HW223301   4.650   1.290   1.769  1.4686  2.8153  1.8106
 3947SOL     OW23302   2.706   2.381  12.157  0.2373 -0.0944  0.7570
 3947SOL    HW123303   2.628   2.368  12.103  0.6667  0.0995  0.0922
 3947SOL    HW223304   2.665   2.438  12.221  2.3584 -0.2563  2.2684
 3948SOL     OW23305   2.009   0.938   4.162  0.4953 -0.1544  0.2370
 3948SOL    HW123306   1.925   0.961   4.122  0.8674  1.9070  0.6510
 3948SOL    HW223307   2.035   1.018   4.207  0.9911 -0.5940  0.7311
 3949SOL     OW23308   2.538   4.725   9.133  0.2011  0.2275  0.0561
 3949SOL    HW123309   2.519   4.677   9.213  0.0032 -1.1737 -0.8360
 3949SOL    HW223310   2.601   4.665   9.092 -0.0247 -0.2018  0.3427
 3950SOL     OW23311   4.426   2.203   2.108  0.4270  0.4490  0.2084
 3950SOL    HW123312   4.506   2.211   2.159  1.9992  0.3595 -2.2692
 3950SOL    HW223313   4.408   2.109   2.121  0.0392  0.4336 -0.4139
 3951SOL     OW23314   0.232   2.897  11.003 -0.5784  0.0080  0.0176
 3951SOL    HW123315   0.215   2.889  11.097 -3.3347 -0.1306 -0.5052
 3951SOL    HW223316   0.141   2.903  10.975 -1.5256 -1.4723  2.8466
 3952SOL     OW23317   4.616   0.672   9.791 -0.0069 -0.3855  0.6894
 3952SOL    HW123318   4.692   0.691   9.737 -1.3093 -0.6817 -1.2561
 3952SOL    HW223319   4.664   0.622   9.857 -0.8816 -0.6367  1.1389
 3953SOL     OW23320   2.717   2.649   4.702  0.3835 -0.1405  0.0612
 3953SOL    HW123321   2.752   2.722   4.651  0.5963  0.7004  1.4469
 3953SOL    HW223322   2.671   2.597   4.636 -0.2973  0.6402 -0.0622
 3954SOL     OW23323   2.612   2.546   6.516 -0.2264 -0.0227 -0.3833
 3954SOL    HW123324   2.696   2.565   6.474 -0.1491  0.0803 -0.1809
 3954SOL    HW223325   2.620   2.609   6.588 -0.2749 -1.3275  0.7638
 3955SOL     OW23326   0.519   2.750   2.897 -0.3338 -0.2662 -0.4588
 3955SOL    HW123327   0.455   2.730   2.828 -0.0878  0.7186 -0.9674
 3955SOL    HW223328   0.500   2.842   2.914 -1.7431 -0.4176 -1.2181
 3956SOL     OW23329   1.631   4.470   2.753  0.3512  0.1889 -0.1877
 3956SOL    HW123330   1.645   4.522   2.674  1.0414  0.3153  0.0128
 3956SOL    HW223331   1.543   4.497   2.777  0.3480 -0.3596  0.4239
 3957SOL     OW23332   4.064   2.086   3.718 -0.3034 -0.6587  0.5370
 3957SOL    HW123333   4.037   2.140   3.643 -2.4951 -2.4827  0.0290
 3957SOL    HW223334   4.099   2.004   3.685 -0.9413  0.0450 -1.8837
 3958SOL     OW23335   3.987   2.084   5.962  0.2845 -0.0807 -0.0415
 3958SOL    HW123336   4.070   2.060   5.919  0.4787 -1.6007  1.1892
 3958SOL    HW223337   3.978   2.179   5.952  1.1323 -0.0498 -0.5581
 3959SOL     OW23338   0.210   0.247   6.104  0.3000  0.2216  0.1087
 3959SOL    HW123339   0.163   0.164   6.109 -0.6961  0.8468  1.0093
 3959SOL    HW223340   0.277   0.224   6.040  0.0793  1.8793 -0.7166
 3960SOL     OW23341   3.076   3.139   2.343  0.0788 -0.6074 -0.0959
 3960SOL    HW123342   3.072   3.199   2.268 -0.0400 -0.6684 -0.1388
 3960SOL    HW223343   3.016   3.066   2.327 -0.2266 -0.9443  2.7140
 3961SOL     OW23344   0.408   1.025  16.356  0.1558 -0.0362 -0.1640
 3961SOL    HW123345   0.315   1.007  16.370  0.6995 -1.7832  1.0765
 3961SOL    HW223346   0.445   0.937  16.353 -0.5423 -0.3806  1.2164
 3962SOL     OW23347   0.823   3.148   1.199  0.0080 -0.3573 -0.1654
 3962SOL    HW123348   0.774   3.109   1.126  0.5138 -0.9902 -0.1702
 3962SOL    HW223349   0.808   3.243   1.197  0.0052 -0.3346  1.2209
 3963SOL     OW23350   0.353   3.528  17.323 -0.9844 -0.1258 -0.0403
 3963SOL    HW123351   0.445   3.503  17.330 -1.3727 -1.6755 -0.7149
 3963SOL    HW223352   0.338   3.543  17.417  1.0493  1.2744  0.0738
 3964SOL     OW23353   4.354   0.757   6.398 -0.6887  0.2362  0.1906
 3964SOL    HW123354   4.440   0.743   6.359 -1.2386 -2.8973  0.1203
 3964SOL    HW223355   4.371   0.750   6.492 -1.1388  1.8477  0.3991
 3965SOL     OW23356   0.095   1.264   2.719 -0.2735  0.0704 -0.3006
 3965SOL    HW123357   0.049   1.187   2.751  0.5663 -0.7670 -1.1403
 3965SOL    HW223358   0.130   1.239   2.634  2.7869  3.0905  0.0893
 3966SOL     OW23359   2.238   3.875   7.379 -0.8619 -0.2910  0.0604
 3966SOL    HW123360   2.273   3.795   7.341  0.9990  0.2926  0.5354
 3966SOL    HW223361   2.242   3.933   7.303 -1.3212  0.7575  0.8382
 3967SOL     OW23362   1.309   0.584   2.339 -0.2004 -0.1769 -0.1364
 3967SOL    HW123363   1.314   0.634   2.258 -2.8648 -0.3803 -0.4436
 3967SOL    HW223364   1.317   0.654   2.404  1.9924 -2.1889  1.7519
 3968SOL     OW23365   3.919   2.187  11.593 -0.3583 -0.2230 -0.0637
 3968SOL    HW123366   3.986   2.231  11.645  1.4114 -1.0138 -1.6710
 3968SOL    HW223367   3.978   2.151  11.526  0.8696  2.2238 -0.3269
 3969SOL     OW23368   3.647   0.094   8.120  0.4089  0.3261 -0.3381
 3969SOL    HW123369   3.645   0.018   8.061  0.9491 -1.2387  1.6714
 3969SOL    HW223370   3.742   0.101   8.117  0.5719 -2.3831 -1.7106
 3970SOL     OW23371   0.229   2.986   5.395 -0.3517 -0.0065  0.4436
 3970SOL    HW123372   0.317   2.991   5.357  1.2025 -0.4482  3.9442
 3970SOL    HW223373   0.219   2.892   5.379 -0.8164  0.1238  0.0172
 3971SOL     OW23374   0.947   3.683  15.095 -0.0385 -0.0468 -0.9008
 3971SOL    HW123375   0.970   3.682  15.002 -1.0640  1.4039 -1.1623
 3971SOL    HW223376   0.900   3.600  15.088 -1.6971  0.9268 -1.2530
 3972SOL     OW23377   0.176   0.470  16.723  0.0292  0.0330  0.0295
 3972SOL    HW123378   0.100   0.454  16.780  0.5607 -2.0956  0.1556
 3972SOL    HW223379   0.206   0.554  16.758 -0.3325  0.3281 -0.3649
 3973SOL     OW23380   1.802   3.286   1.048  0.1810 -0.3831 -0.4998
 3973SOL    HW123381   1.845   3.310   1.130 -1.8879 -2.5591  1.2224
 3973SOL    HW223382   1.867   3.221   1.021  1.2852  0.6938 -0.4111
 3974SOL     OW23383   3.703   0.748   0.780 -0.2020  0.6701  0.5408
 3974SOL    HW123384   3.693   0.779   0.870 -0.1311  3.0944 -0.2852
 3974SOL    HW223385   3.777   0.688   0.790  1.0564  2.1504  0.2132
 3975SOL     OW23386   3.594   1.028   6.664 -0.1090 -0.1476 -1.1791
 3975SOL    HW123387   3.663   0.981   6.711 -2.6201 -2.1513  0.5092
 3975SOL    HW223388   3.616   0.995   6.577  2.2109  0.5838 -0.8499
 3976SOL     OW23389   0.534   0.544   0.250 -0.0115 -0.2044 -0.2204
 3976SOL    HW123390   0.512   0.559   0.157  1.3402  2.6534 -0.0788
 3976SOL    HW223391   0.544   0.634   0.282 -0.8971 -0.6214  1.2095
 3977SOL     OW23392   0.377   3.807   8.213 -0.0528 -0.2667 -0.2939
 3977SOL    HW123393   0.323   3.729   8.199 -0.3522 -0.0186 -0.5054
 3977SOL    HW223394   0.381   3.849   8.127  0.7424 -1.8060 -1.0264
 3978SOL     OW23395   0.302   0.362  10.320 -0.1467  0.0946  0.3779
 3978SOL    HW123396   0.235   0.428  10.338 -0.7250 -0.5674  0.6483
 3978SOL    HW223397   0.281   0.348  10.227  1.4522  1.1105 -0.1446
 3979SOL     OW23398   4.397   2.180   5.008 -0.0409  0.0438 -0.2379
 3979SOL    HW123399   4.389   2.215   4.920  0.4147  1.1277  0.1543
 3979SOL    HW223400   4.441   2.242   5.067 -1.8169 -0.2508  1.4142
 3980SOL     OW23401   4.012   1.825   6.701  0.4623  0.2589 -0.3626
 3980SOL    HW123402   3.957   1.794   6.629  0.1081  0.2397 -0.0833
 3980SOL    HW223403   4.031   1.739   6.736  2.9459  1.2278  0.6753
 3981SOL     OW23404   2.264   0.115  13.746 -0.6700 -0.0531 -0.0433
 3981SOL    HW123405   2.328   0.125  13.817  0.5007 -2.3913 -0.7795
 3981SOL    HW223406   2.199   0.178  13.777 -0.8924 -0.1314 -0.3440
 3982SOL     OW23407   1.974   3.985   4.784 -0.3334 -0.1220 -0.0504
 3982SOL    HW123408   2.027   4.065   4.779 -2.5147  1.5176  2.9939
 3982SOL    HW223409   2.040   3.928   4.822  0.6275  1.8193  1.1980
 3983SOL     OW23410   3.336   2.679  14.299  0.1099  0.3295 -0.3225
 3983SOL    HW123411   3.351   2.771  14.276  0.1003  0.2878 -0.4956
 3983SOL    HW223412   3.302   2.684  14.389  2.3245  0.5713  0.4876
 3984SOL     OW23413   1.112   0.994   6.342  0.0121  0.4487 -0.5545
 3984SOL    HW123414   1.090   1.057   6.274 -2.2860  0.1807 -0.0630
 3984SOL    HW223415   1.048   0.924   6.326 -0.3358  0.6883 -0.2306
 3985SOL     OW23416   1.735   1.415   2.187 -0.2131  0.5604  0.3191
 3985SOL    HW123417   1.656   1.409   2.134 -1.2127 -1.0767  2.0197
 3985SOL    HW223418   1.780   1.482   2.134  1.8070 -1.3203 -0.3448
 3986SOL     OW23419   4.560   2.679  17.387 -0.9226  0.5532  0.5795
 3986SOL    HW123420   4.587   2.765  17.356  0.4499  0.0958  0.5247
 3986SOL    HW223421   4.477   2.663  17.343 -0.9892  0.8910  0.5818
 3987SOL     OW23422   0.941   4.005  16.408  0.1757 -0.3257 -0.6948
 3987SOL    HW123423   0.941   4.091  16.450  0.4676 -0.5913 -0.1396
 3987SOL    HW223424   0.938   3.953  16.489 -0.3701  0.5004 -0.1759
 3988SOL     OW23425   2.840   0.130  11.552 -0.4833 -0.1500 -0.4228
 3988SOL    HW123426   2.760   0.181  11.540 -1.7668 -2.1289 -0.2871
 3988SOL    HW223427   2.818   0.037  11.543 -1.5502  0.0879 -0.3037
 3989SOL     OW23428   3.073   1.789   7.320  0.1615 -0.5602 -0.2375
 3989SOL    HW123429   3.096   1.734   7.395  2.7277  1.3607  0.3986
 3989SOL    HW223430   3.158   1.796   7.277  0.5758  1.1457  0.8126
 3990SOL     OW23431   0.402   1.203   4.055  0.4197 -0.5605  0.5354
 3990SOL    HW123432   0.400   1.201   3.959  0.9044 -0.7970  0.5294
 3990SOL    HW223433   0.496   1.203   4.073  0.2832 -3.7858  1.2022
 3991SOL     OW23434   0.571   2.898  16.414 -0.5979  0.3503 -0.0497
 3991SOL    HW123435   0.483   2.895  16.377 -1.6576 -0.9271  2.5841
 3991SOL    HW223436   0.552   2.891  16.507 -1.8354  1.6323 -0.2033
 3992SOL     OW23437   0.108   4.343   6.787  0.3632  0.5791  0.6055
 3992SOL    HW123438   0.057   4.424   6.793 -0.1138  0.5660 -3.5554
 3992SOL    HW223439   0.200   4.364   6.776  0.5015 -0.2603  0.1352
 3993SOL     OW23440   1.612   0.458   5.558 -0.1931 -0.2910 -0.3915
 3993SOL    HW123441   1.652   0.534   5.601  0.1551  0.1070 -1.4232
 3993SOL    HW223442   1.695   0.411   5.567  0.9100  1.6442 -0.3005
 3994SOL     OW23443   0.059   3.990  14.001  0.2952  0.2908 -0.0740
 3994SOL    HW123444   0.041   3.938  13.923 -0.1286  1.1805 -0.5680
 3994SOL    HW223445   0.014   4.073  13.985  2.1278  1.0606 -1.2511
 3995SOL     OW23446   3.606   1.201   8.866  0.2101  0.0417 -0.7065
 3995SOL    HW123447   3.692   1.243   8.870  0.3242 -0.2476 -0.1269
 3995SOL    HW223448   3.632   1.124   8.918  0.6459  0.9006  0.3454
 3996SOL     OW23449   0.362   2.461  10.134 -0.1541 -0.0452  0.0657
 3996SOL    HW123450   0.441   2.499  10.171  0.3048 -0.8904 -0.0415
 3996SOL    HW223451   0.373   2.373  10.171 -0.3518  0.3255  1.0220
 3997SOL     OW23452   3.304   2.587   4.513  0.1178 -0.4696  0.5233
 3997SOL    HW123453   3.314   2.501   4.472  0.5624 -0.5935  0.8957
 3997SOL    HW223454   3.290   2.547   4.599  1.0223 -0.4591  0.6788
 3998SOL     OW23455   0.432   2.473   2.658  0.6446 -0.6020 -0.0495
 3998SOL    HW123456   0.427   2.458   2.563  2.2876 -0.4745 -0.1469
 3998SOL    HW223457   0.393   2.560   2.664 -1.4754 -1.4503 -1.2737
 3999SOL     OW23458   0.961   0.091  12.076 -0.3858  0.0114 -0.2878
 3999SOL    HW123459   1.030   0.034  12.109  0.8146  2.1429  0.8908
 3999SOL    HW223460   0.913   0.034  12.016 -2.5658  1.0778  0.4434
 4000SOL     OW23461   3.660   2.257   5.891  0.0409 -0.6856  0.3506
 4000SOL    HW123462   3.629   2.348   5.896  0.7688 -0.5133  2.0242
 4000SOL    HW223463   3.753   2.264   5.915 -0.3257 -0.8604  1.8781
 4001SOL     OW23464   0.828   0.711  13.840 -0.1449 -0.1524 -0.1661
 4001SOL    HW123465   0.885   0.787  13.845 -0.7444  0.3430 -0.7444
 4001SOL    HW223466   0.745   0.758  13.848  0.7262  1.2979  0.3783
 4002SOL     OW23467   2.442   3.330  14.761 -0.0075 -0.2823  0.8406
 4002SOL    HW123468   2.421   3.283  14.841  0.4834  1.3938  1.9528
 4002SOL    HW223469   2.371   3.394  14.767  2.2445  2.3046  0.0221
 4003SOL     OW23470   1.914   2.991   3.246 -0.4485 -0.2966 -0.1339
 4003SOL    HW123471   1.900   3.085   3.259 -0.6377 -0.6010  1.7968
 4003SOL    HW223472   1.852   2.954   3.308  1.9554 -1.7192  1.4195
 4004SOL     OW23473   2.112   3.804  16.499 -0.6374  0.1200  0.1642
 4004SOL    HW123474   2.086   3.879  16.445  1.1529 -0.2405 -1.2349
 4004SOL    HW223475   2.104   3.743  16.425 -0.8420  2.0526 -1.4025
 4005SOL     OW23476   3.221   1.443   2.293 -0.2014 -0.0753 -0.0384
 4005SOL    HW123477   3.278   1.490   2.354  1.0692 -1.1354 -0.3926
 4005SOL    HW223478   3.178   1.383   2.354 -0.1121 -0.3808 -0.2738
 4006SOL     OW23479   3.046   0.402   5.949  0.2255 -0.2971  0.6050
 4006SOL    HW123480   3.028   0.496   5.949 -0.9987 -0.5242 -1.9628
 4006SOL    HW223481   2.954   0.378   5.950 -0.4560  2.3763  1.7760
 4007SOL     OW23482   1.428   0.772   5.012 -0.2198  0.2622 -0.0733
 4007SOL    HW123483   1.365   0.810   5.073  0.9112 -0.9319  1.8475
 4007SOL    HW223484   1.508   0.810   5.048 -0.2319 -0.1876  0.4273
 4008SOL     OW23485   4.700   2.038   9.122  0.1273 -0.0411 -0.2612
 4008SOL    HW123486   0.045   2.031   9.186 -1.0375 -0.6033  0.9799
 4008SOL    HW223487   4.649   2.113   9.153  1.9522  1.0563  0.1485
 4009SOL     OW23488   1.765   1.018   9.449  0.2376 -0.5641  0.2956
 4009SOL    HW123489   1.749   0.999   9.541 -0.1805 -0.0988  0.3237
 4009SOL    HW223490   1.723   0.939   9.415 -2.0659  0.3991  0.8654
 4010SOL     OW23491   4.055   2.596   5.662 -0.0352 -0.3270  0.0541
 4010SOL    HW123492   4.056   2.691   5.664  0.6276 -0.3118 -0.7571
 4010SOL    HW223493   4.103   2.574   5.582  1.6644 -2.0816  1.5598
 4011SOL     OW23494   0.891   0.756  10.007  0.1312 -0.7061 -0.7906
 4011SOL    HW123495   0.906   0.821  10.075  0.4410 -1.6896  0.0858
 4011SOL    HW223496   0.811   0.800   9.980  0.9927  0.7926 -0.9116
 4012SOL     OW23497   1.872   0.058   3.978  0.2767 -0.3520 -0.1105
 4012SOL    HW123498   1.908   0.076   4.065  0.9038  0.6519 -0.5755
 4012SOL    HW223499   1.782   0.033   4.000  0.5171 -1.4497 -0.4033
 4013SOL     OW23500   3.320   3.340   7.366 -0.4464 -0.1110  0.1961
 4013SOL    HW123501   3.297   3.328   7.458 -1.3926 -0.5203 -0.0921
 4013SOL    HW223502   3.263   3.414   7.344  1.9181  1.9714  1.0236
 4014SOL     OW23503   1.238   4.177   0.076  0.2939 -0.0049 -0.5154
 4014SOL    HW123504   1.149   4.184   0.112  0.2825  0.6343 -0.6516
 4014SOL    HW223505   1.229   4.133  17.698  1.5577 -0.4141 -0.4264
 4015SOL     OW23506   0.233   3.652   0.977  0.1051 -0.4086  0.0703
 4015SOL    HW123507   0.260   3.561   0.987 -0.1697 -0.6079 -0.9405
 4015SOL    HW223508   0.306   3.694   1.022 -0.5646 -0.8503  1.5483
 4016SOL     OW23509   1.892   3.476   4.722 -0.6584  0.0315 -0.2722
 4016SOL    HW123510   1.985   3.455   4.726 -0.6475  0.1602  0.1615
 4016SOL    HW223511   1.849   3.414   4.780  1.8434 -2.4911 -1.0892
 4017SOL     OW23512   1.489   0.416   9.765  0.4451 -0.5292 -0.4163
 4017SOL    HW123513   1.577   0.384   9.784 -0.1719 -1.4528  0.8895
 4017SOL    HW223514   1.492   0.428   9.670  1.6572  0.2033 -0.2868
 4018SOL     OW23515   4.353   4.644   8.231 -0.5266 -0.4213 -0.5028
 4018SOL    HW123516   4.419   4.713   8.225  1.0591 -1.9627 -1.1277
 4018SOL    HW223517   4.271   4.687   8.253  0.3245  0.1452  1.5814
 4019SOL     OW23518   2.974   1.943  12.618 -0.3129 -0.8389  0.2563
 4019SOL    HW123519   2.908   1.917  12.682  0.3826  1.1281  1.7877
 4019SOL    HW223520   3.053   1.906  12.657 -0.0323 -1.9997 -1.4164
 4020SOL     OW23521   0.835   3.451   1.177  0.2757  0.1850  0.0560
 4020SOL    HW123522   0.741   3.451   1.163  0.7240  2.4749 -2.9533
 4020SOL    HW223523   0.874   3.522   1.126 -0.1943 -0.4212 -1.1589
 4021SOL     OW23524   0.975   3.184   7.871  0.2039 -0.0713  0.4845
 4021SOL    HW123525   0.998   3.153   7.783 -1.1420 -0.9696  0.4422
 4021SOL    HW223526   0.923   3.259   7.841  2.2836  1.1752 -0.0325
 4022SOL     OW23527   1.042   3.530   8.799 -0.2561  0.1193  0.2440
 4022SOL    HW123528   1.054   3.584   8.877  3.2092  1.9285 -1.5762
 4022SOL    HW223529   1.079   3.582   8.728 -2.8332  0.5452 -0.7754
 4023SOL     OW23530   0.349   3.765   5.055  0.1427 -0.4980  0.3193
 4023SOL    HW123531   0.357   3.717   5.137  1.0841 -1.6921 -0.4556
 4023SOL    HW223532   0.367   3.696   4.991  1.7881  1.0336 -0.8993
 4024SOL     OW23533   4.342   0.160   5.666 -0.0363  0.3905  0.2393
 4024SOL    HW123534   4.332   0.251   5.637  3.1203  0.9198  0.8327
 4024SOL    HW223535   4.339   0.177   5.760  2.9209 -1.9316  0.7337
 4025SOL     OW23536   2.153   2.867   5.361  0.6676 -0.0530  0.0995
 4025SOL    HW123537   2.153   2.934   5.294  1.9484 -1.3676 -1.2116
 4025SOL    HW223538   2.248   2.867   5.377  0.6181  2.6900  0.4298
 4026SOL     OW23539   3.195   0.687   7.528 -1.0015  0.1741  0.2845
 4026SOL    HW123540   3.202   0.599   7.490  1.0837  0.6155 -0.3702
 4026SOL    HW223541   3.160   0.669   7.615 -1.4454 -0.8695 -0.1076
 4027SOL     OW23542   0.183   0.642   2.261  0.3813  0.2619  0.2547
 4027SOL    HW123543   0.133   0.586   2.200  1.4625  0.5476 -0.8748
 4027SOL    HW223544   0.120   0.713   2.274  1.8776  1.9822 -2.1792
 4028SOL     OW23545   3.953   1.476  16.774 -0.8583 -0.5546 -0.1050
 4028SOL    HW123546   3.915   1.425  16.845  0.4557 -1.0739  0.2266
 4028SOL    HW223547   3.936   1.567  16.798 -1.6536 -0.7905  0.2303
 4029SOL     OW23548   2.753   2.733   7.737  0.4964 -0.2245 -0.1660
 4029SOL    HW123549   2.769   2.742   7.643 -0.0992 -3.6449 -0.5860
 4029SOL    HW223550   2.845   2.744   7.764  0.6417 -1.0429 -0.3341
 4030SOL     OW23551   2.826   2.199   8.509 -0.4008  0.0089  0.0875
 4030SOL    HW123552   2.800   2.250   8.586 -0.1124 -1.8308  1.3986
 4030SOL    HW223553   2.903   2.148   8.535 -0.4286  0.3034  0.7485
 4031SOL     OW23554   3.568   2.445  14.268 -0.4936 -0.2894  0.5157
 4031SOL    HW123555   3.569   2.368  14.213  0.1220 -0.2152  0.4282
 4031SOL    HW223556   3.657   2.442  14.303 -0.3844 -0.3679  0.2249
 4032SOL     OW23557   1.786   3.821  12.216 -0.0637  0.9953  0.0193
 4032SOL    HW123558   1.736   3.740  12.204  0.5291  0.3838  1.5720
 4032SOL    HW223559   1.757   3.837  12.306 -0.0642  1.0830  0.0029
 4033SOL     OW23560   3.885   0.032  15.724  0.4179 -0.2909 -0.0191
 4033SOL    HW123561   3.967   0.068  15.757  0.1558  0.8651 -0.5914
 4033SOL    HW223562   3.824   0.101  15.752  1.9169  0.5870  1.0925
 4034SOL     OW23563   3.780   0.953   5.693  0.3766  0.1026 -0.2000
 4034SOL    HW123564   3.708   1.001   5.735  1.4302 -0.5090  2.3504
 4034SOL    HW223565   3.751   0.862   5.702  0.8961  0.0115  0.6234
 4035SOL     OW23566   2.042   4.551   4.769  0.5821  0.0167  0.3432
 4035SOL    HW123567   2.132   4.581   4.785  0.1098  1.2960  0.6142
 4035SOL    HW223568   2.023   4.517   4.856  0.3012  1.1433  0.7319
 4036SOL     OW23569   1.243   2.306   1.751 -0.1574  0.7261  0.0340
 4036SOL    HW123570   1.207   2.306   1.662 -1.3355  0.0122  0.5125
 4036SOL    HW223571   1.332   2.309   1.719  0.2150  1.5853  1.1379
 4037SOL     OW23572   1.137   3.082   5.594 -0.2085 -0.1822  0.0498
 4037SOL    HW123573   1.180   3.167   5.608  0.8615 -1.2768  3.5363
 4037SOL    HW223574   1.123   3.055   5.685  0.9831 -0.9854 -0.0044
 4038SOL     OW23575   1.032   2.454  16.026  0.2533 -0.0103 -0.0782
 4038SOL    HW123576   1.037   2.365  16.062 -0.2672  0.1076  0.2744
 4038SOL    HW223577   1.018   2.514  16.099  0.1761  0.8974 -0.8495
 4039SOL     OW23578   2.064   2.378   6.880 -0.2615  0.1566 -0.2239
 4039SOL    HW123579   2.105   2.324   6.812 -1.5812 -0.4933 -0.5160
 4039SOL    HW223580   2.148   2.397   6.920 -0.2716  0.3674 -0.3048
 4040SOL     OW23581   0.861   3.692   7.299  0.1428 -0.4641  0.3035
 4040SOL    HW123582   0.808   3.650   7.233 -1.0657 -0.2247  1.1140
 4040SOL    HW223583   0.951   3.657   7.301  2.1817  4.6409 -1.9608
 4041SOL     OW23584   1.518   2.753   9.656 -0.4736 -0.2336  0.1820
 4041SOL    HW123585   1.478   2.733   9.740 -1.2793 -0.5770 -0.2881
 4041SOL    HW223586   1.453   2.735   9.588 -1.4192  0.3816  0.9455
 4042SOL     OW23587   4.419   2.425   7.121 -0.1735  0.6578  0.4485
 4042SOL    HW123588   4.435   2.366   7.195  0.9192 -2.2605 -2.1186
 4042SOL    HW223589   4.323   2.431   7.116 -0.2487 -0.7137  0.1507
 4043SOL     OW23590   4.535   0.883   8.529 -0.6303 -0.3232 -0.0793
 4043SOL    HW123591   4.513   0.925   8.612  1.0363  2.6100 -1.1074
 4043SOL    HW223592   4.622   0.922   8.518 -0.6011 -0.4842 -0.4009
 4044SOL     OW23593   3.173   3.916   5.073  0.3984  0.7688 -0.5720
 4044SOL    HW123594   3.135   3.864   5.001 -2.1843 -0.9808  2.0178
 4044SOL    HW223595   3.111   3.987   5.058 -0.3507  0.0449 -0.9668
 4045SOL     OW23596   3.816   1.879   0.842  0.2792  0.0669 -0.0149
 4045SOL    HW123597   3.742   1.884   0.783 -0.0571  0.8819  0.4882
 4045SOL    HW223598   3.884   1.903   0.780  0.2053 -0.0888 -0.1565
 4046SOL     OW23599   4.006   1.084  17.630  0.4343 -0.2540 -0.4056
 4046SOL    HW123600   3.941   1.018  17.657 -0.7548  0.4446 -1.5387
 4046SOL    HW223601   4.085   1.064  17.680 -0.7997 -0.4630  1.4415
 4047SOL     OW23602   2.580   0.802   7.991 -0.7210 -0.2358  0.0629
 4047SOL    HW123603   2.537   0.747   8.056 -0.9569  0.1841  0.2645
 4047SOL    HW223604   2.535   0.881   8.022 -0.2404 -0.3815  1.1201
 4048SOL     OW23605   1.681   1.576   6.973  0.1761 -0.0546  0.1258
 4048SOL    HW123606   1.623   1.539   7.040  2.2904 -1.3020  1.2485
 4048SOL    HW223607   1.657   1.668   6.980 -2.5803 -0.8757  1.4324
 4049SOL     OW23608   3.404   2.790  15.150 -0.0936 -0.0127  0.1618
 4049SOL    HW123609   3.387   2.697  15.163  1.3006 -0.2353  0.3282
 4049SOL    HW223610   3.499   2.785  15.155 -0.1929 -0.0047  2.0447
 4050SOL     OW23611   1.417   0.956   7.726 -0.4177  0.7494 -0.0013
 4050SOL    HW123612   1.328   0.922   7.730 -1.1135  2.5382 -0.3659
 4050SOL    HW223613   1.396   1.047   7.708 -0.2124  0.9120  0.6046
 4051SOL     OW23614   2.171   0.259   1.398  0.3642  0.1456 -0.2356
 4051SOL    HW123615   2.114   0.207   1.341 -0.3310 -1.1760  1.6622
 4051SOL    HW223616   2.255   0.252   1.353  0.7230  1.7298  0.1766
 4052SOL     OW23617   4.160   4.541   7.451  1.1263 -0.4378  0.3628
 4052SOL    HW123618   4.093   4.485   7.413 -0.1749 -0.1531  2.2556
 4052SOL    HW223619   4.238   4.495   7.420  1.0494 -0.1346 -0.2795
 4053SOL     OW23620   3.090   3.236   3.593  0.0594  0.3877 -0.0499
 4053SOL    HW123621   3.108   3.142   3.601 -0.4658  0.4254  1.7183
 4053SOL    HW223622   3.123   3.244   3.504 -0.9108  3.9901 -0.0815
 4054SOL     OW23623   2.410   4.193  12.110  1.0679  0.5213 -0.3206
 4054SOL    HW123624   2.317   4.183  12.091  1.2473  1.1944 -1.5626
 4054SOL    HW223625   2.428   4.273  12.062 -2.1530  0.5993 -1.3640
 4055SOL     OW23626   4.355   0.450   6.272  0.1946 -0.1658 -0.1121
 4055SOL    HW123627   4.388   0.386   6.334 -0.5212  0.1629  0.6017
 4055SOL    HW223628   4.427   0.514   6.282 -1.6860  1.8100  0.8353
 4056SOL     OW23629   2.615   1.524   6.062 -0.3624  0.0596  0.1474
 4056SOL    HW123630   2.628   1.619   6.052 -1.8254  0.5320  2.7947
 4056SOL    HW223631   2.599   1.494   5.973 -1.5757  0.5418  0.2071
 4057SOL     OW23632   0.331   2.678   4.389 -0.3747 -0.0034  0.1325
 4057SOL    HW123633   0.259   2.698   4.450 -0.0995  3.3421 -0.6394
 4057SOL    HW223634   0.403   2.663   4.450  0.0700  2.2449  0.1710
 4058SOL     OW23635   3.776   4.063   1.302 -0.4988 -0.5990  0.0108
 4058SOL    HW123636   3.824   4.010   1.366 -2.3377 -2.6058 -0.2786
 4058SOL    HW223637   3.689   4.035   1.328 -1.0764  1.1375 -0.1097
 4059SOL     OW23638   0.096   0.504  12.921 -0.2196  0.1783  0.5455
 4059SOL    HW123639   0.042   0.489  12.999  0.6770 -0.2200  1.0890
 4059SOL    HW223640   0.138   0.587  12.945  0.8873 -0.3695  0.4457
 4060SOL     OW23641   3.225   2.380  12.095 -0.5674 -0.5918 -0.1889
 4060SOL    HW123642   3.224   2.291  12.130  0.1981 -0.7320 -0.5197
 4060SOL    HW223643   3.135   2.401  12.117 -0.6710 -0.8245 -0.3989
 4061SOL     OW23644   4.716   0.254   6.621  0.1779  0.3659  0.1358
 4061SOL    HW123645   0.070   0.300   6.598 -0.7592  1.0393 -1.8172
 4061SOL    HW223646   4.698   0.206   6.540  1.2954  1.2038 -0.6119
 4062SOL     OW23647   4.469   2.956   8.335 -0.6289  0.5036 -0.5588
 4062SOL    HW123648   4.505   2.883   8.285 -0.7091 -0.1547  0.3340
 4062SOL    HW223649   4.471   2.906   8.417 -1.0189 -0.1187 -0.9250
 4063SOL     OW23650   0.355   3.771   3.254 -0.4149 -0.3818 -0.1860
 4063SOL    HW123651   0.291   3.711   3.292  0.7857 -1.2122  0.5467
 4063SOL    HW223652   0.309   3.847   3.289  1.9311  0.6515  0.6685
 4064SOL     OW23653   4.357   2.202   8.705  0.0937 -0.0986  0.2027
 4064SOL    HW123654   4.351   2.222   8.798 -0.7224 -0.4262  0.2275
 4064SOL    HW223655   4.397   2.279   8.664  1.2405 -0.1749  1.1826
 4065SOL     OW23656   2.778   1.926   6.338  0.0677  0.0969  0.3362
 4065SOL    HW123657   2.808   1.953   6.424 -2.3862  0.5778  1.0350
 4065SOL    HW223658   2.814   1.837   6.336  1.5527  0.6962  0.6015
 4066SOL     OW23659   3.177   3.251   0.823  0.2730 -0.2059 -0.5338
 4066SOL    HW123660   3.131   3.326   0.862 -0.6143 -0.1415 -1.7187
 4066SOL    HW223661   3.145   3.248   0.733 -0.9107 -1.9226 -0.0445
 4067SOL     OW23662   2.429   3.147  17.429  0.6250  0.1179 -0.5040
 4067SOL    HW123663   2.369   3.087  17.385  1.1144 -1.1558  0.5571
 4067SOL    HW223664   2.509   3.095  17.422  0.1580 -0.7361  0.5184
 4068SOL     OW23665   2.166   2.619  11.890  0.0740  0.4406 -0.2780
 4068SOL    HW123666   2.133   2.622  11.980 -0.6793  3.3271 -0.6319
 4068SOL    HW223667   2.129   2.538  11.855 -0.1013  0.1298  0.6144
 4069SOL     OW23668   0.311   4.337   2.558 -0.8151 -0.2187 -0.4138
 4069SOL    HW123669   0.335   4.406   2.496 -0.9649 -0.5545 -0.8406
 4069SOL    HW223670   0.370   4.266   2.534  1.1694  1.1984  0.1982
 4070SOL     OW23671   0.935   0.005  16.082  0.2446 -0.1521  0.1919
 4070SOL    HW123672   0.914   0.045  15.998  2.1393 -1.8949 -1.0931
 4070SOL    HW223673   0.882   4.652  16.083  1.0104 -0.6637 -0.1341
 4071SOL     OW23674   0.416   2.923   0.890  0.2962 -0.2878 -0.3318
 4071SOL    HW123675   0.378   2.860   0.829  1.3665 -1.7963  0.5551
 4071SOL    HW223676   0.362   2.895   0.964  0.2038 -1.7340 -0.9580
 4072SOL     OW23677   3.697   4.340   3.917 -0.0486  0.6800 -0.5940
 4072SOL    HW123678   3.612   4.332   3.872 -1.4380 -0.7046  2.3268
 4072SOL    HW223679   3.685   4.411   3.980  3.1907  1.3690 -0.7773
 4073SOL     OW23680   2.130   0.454  16.808  0.2058 -0.7900 -0.1179
 4073SOL    HW123681   2.090   0.385  16.861  0.3723 -0.5104  0.3693
 4073SOL    HW223682   2.189   0.495  16.870  0.7444 -0.5857 -0.7629
 4074SOL     OW23683   2.530   4.334   3.779  0.9172 -0.4575 -0.0516
 4074SOL    HW123684   2.503   4.347   3.688  0.6187  0.8794  0.2193
 4074SOL    HW223685   2.556   4.242   3.775  0.2670 -0.6393  0.0187
 4075SOL     OW23686   1.164   3.258  17.356 -0.4103 -0.0145  0.7423
 4075SOL    HW123687   1.112   3.278  17.278  0.3533  1.4383  0.6103
 4075SOL    HW223688   1.184   3.347  17.385  2.2512 -0.1155 -0.8545
 4076SOL     OW23689   3.943   0.793   7.620  0.3387 -0.8012  0.0665
 4076SOL    HW123690   4.030   0.808   7.656  0.4182  1.4612 -1.0541
 4076SOL    HW223691   3.899   0.820   7.701 -0.9033 -0.7621 -0.6224
 4077SOL     OW23692   3.335   3.648   8.591  0.0009  0.3632  0.0639
 4077SOL    HW123693   3.320   3.598   8.511 -2.3408 -2.3464  2.1948
 4077SOL    HW223694   3.311   3.600   8.670 -0.9467  1.2987  0.3518
 4078SOL     OW23695   0.417   2.352   3.597  0.2945  0.0396 -0.2608
 4078SOL    HW123696   0.381   2.423   3.650  0.1995 -1.0703  1.1473
 4078SOL    HW223697   0.496   2.318   3.638  0.1539  0.2366  0.1717
 4079SOL     OW23698   2.340   4.679   3.763  0.1243 -0.7648 -0.0736
 4079SOL    HW123699   2.374   4.672   3.674  3.7932  0.8343  1.2034
 4079SOL    HW223700   2.375   4.596   3.796  0.7413 -0.3945  0.2049
 4080SOL     OW23701   2.695   2.459   5.134 -0.0285  0.0224  0.2530
 4080SOL    HW123702   2.636   2.388   5.109  1.4104 -1.7994  2.0728
 4080SOL    HW223703   2.727   2.441   5.223  1.3730 -0.7428 -0.4076
 4081SOL     OW23704   4.376   2.013   6.486 -0.3128  0.0318  0.5014
 4081SOL    HW123705   4.404   2.023   6.577  1.4876 -2.2922  0.1774
 4081SOL    HW223706   4.398   1.924   6.459 -0.4155 -0.1310  0.9484
 4082SOL     OW23707   1.265   4.269   1.617  0.0842 -0.1098 -0.5494
 4082SOL    HW123708   1.296   4.245   1.530 -1.0955  2.2983 -1.6432
 4082SOL    HW223709   1.214   4.344   1.587 -1.0430  0.1469  1.9785
 4083SOL     OW23710   1.557   0.380   3.563  0.1116 -0.0848 -0.1411
 4083SOL    HW123711   1.520   0.432   3.492  2.4798  0.9189 -0.6520
 4083SOL    HW223712   1.604   0.313   3.513 -1.8924  0.2450 -2.4658
 4084SOL     OW23713   1.114   1.759   2.309  0.0945  0.2131 -0.2231
 4084SOL    HW123714   1.174   1.834   2.303 -2.0637  1.9885  0.7135
 4084SOL    HW223715   1.058   1.785   2.381  1.3613  1.0389  0.4744
 4085SOL     OW23716   3.545   1.034   1.336 -0.1708 -0.3510  1.0167
 4085SOL    HW123717   3.470   0.988   1.373 -1.1964  0.7387  0.2681
 4085SOL    HW223718   3.572   0.966   1.274  0.6367  0.5913  0.3266
 4086SOL     OW23719   1.822   1.249   1.280  0.0617  0.2858 -0.1828
 4086SOL    HW123720   1.864   1.317   1.332 -0.0584 -0.0504  0.3585
 4086SOL    HW223721   1.733   1.281   1.275  0.7120  1.9525 -1.0122
 4087SOL     OW23722   0.778   1.515   5.439 -0.4753  0.1502  0.0950
 4087SOL    HW123723   0.792   1.451   5.509 -0.0402  1.4581  1.2050
 4087SOL    HW223724   0.754   1.592   5.491 -3.8753 -0.6949 -0.2247
 4088SOL     OW23725   0.279   3.784   2.933 -0.2725 -0.1882 -0.3733
 4088SOL    HW123726   0.277   3.793   3.028  0.3187 -1.5276 -0.2205
 4088SOL    HW223727   0.275   3.874   2.901 -3.2904 -0.1840  0.0638
 4089SOL     OW23728   2.811   2.849   6.111  0.4742  0.2705 -0.4907
 4089SOL    HW123729   2.880   2.910   6.086 -0.2551  0.6254 -1.6012
 4089SOL    HW223730   2.776   2.842   6.023  1.4328  0.5044 -0.8900
 4090SOL     OW23731   2.252   0.751   2.961 -0.3795 -0.4327  0.3932
 4090SOL    HW123732   2.333   0.737   3.009 -0.1739 -1.3542 -0.2401
 4090SOL    HW223733   2.293   0.748   2.874  1.3283 -0.0646  1.1894
 4091SOL     OW23734   0.484   2.918   6.160 -0.3273 -0.0513 -0.0562
 4091SOL    HW123735   0.407   2.860   6.167 -0.7623  0.5444  0.1026
 4091SOL    HW223736   0.518   2.898   6.074  1.6758  1.7543  0.3308
 4092SOL     OW23737   3.188   2.543   2.160  0.2178  0.5426 -0.6116
 4092SOL    HW123738   3.213   2.451   2.158 -0.3818  0.4019 -1.4524
 4092SOL    HW223739   3.169   2.559   2.068 -2.0155 -0.4719 -0.3266
 4093SOL     OW23740   2.081   3.160  13.622  0.5697  0.3859  0.0514
 4093SOL    HW123741   2.156   3.220  13.616 -0.7271  1.8860 -1.3340
 4093SOL    HW223742   2.079   3.160  13.717  1.5202  0.4218  0.0701
 4094SOL     OW23743   0.916   4.158   2.536  0.1674 -0.1219  0.5133
 4094SOL    HW123744   0.867   4.109   2.470  3.3074  0.0394 -1.9822
 4094SOL    HW223745   0.930   4.103   2.613  0.9933  1.8797  1.8144
 4095SOL     OW23746   4.453   0.288  13.497  0.3250 -0.1865 -0.2535
 4095SOL    HW123747   4.449   0.247  13.583  1.0935 -1.8487 -1.0062
 4095SOL    HW223748   4.533   0.340  13.506  0.2766 -0.0809 -0.4229
 4096SOL     OW23749   4.470   2.194   5.737 -0.2753  0.2709 -0.1917
 4096SOL    HW123750   4.377   2.210   5.724  0.0999  0.1961 -2.9129
 4096SOL    HW223751   4.474   2.156   5.825 -0.9709 -0.3286 -0.4221
 4097SOL     OW23752   0.766   3.336   5.162 -0.2395 -0.8276  0.3618
 4097SOL    HW123753   0.725   3.344   5.076  0.4453 -0.9024  0.0360
 4097SOL    HW223754   0.709   3.394   5.213  1.3216 -0.3101  1.4861
 4098SOL     OW23755   3.687   1.549   6.184  0.0620  0.1413 -0.5372
 4098SOL    HW123756   3.629   1.541   6.109  0.0673 -1.2815 -0.3834
 4098SOL    HW223757   3.633   1.592   6.251 -2.0579 -1.8294 -1.0116
 4099SOL     OW23758   2.987   3.328   3.008  0.2147 -0.3230 -0.1433
 4099SOL    HW123759   2.985   3.254   3.068  1.0253 -0.3925 -0.1961
 4099SOL    HW223760   3.079   3.318   2.982  0.0449  0.7493 -1.1683
 4100SOL     OW23761   4.251   2.030   7.493  0.4462 -0.2319  0.4023
 4100SOL    HW123762   4.256   2.029   7.588 -1.3992  1.4304  0.5217
 4100SOL    HW223763   4.236   1.936   7.481 -0.7960 -0.0475  0.5593
 4101SOL     OW23764   2.735   3.793   3.594  0.1359 -0.1973  0.1457
 4101SOL    HW123765   2.825   3.815   3.570  0.2563 -1.3692 -0.4955
 4101SOL    HW223766   2.739   3.715   3.651  0.5874 -1.1484 -1.1941
 4102SOL     OW23767   0.010   0.345   8.700  0.3774 -0.2605  0.1744
 4102SOL    HW123768   0.031   0.394   8.620  2.1171 -0.7608  0.3216
 4102SOL    HW223769   4.716   0.417   8.760  1.0236  0.2352 -0.2033
 4103SOL     OW23770   1.550   2.961   2.133  0.5975 -0.4582  0.1653
 4103SOL    HW123771   1.549   2.919   2.047 -2.6511 -0.7160  0.3298
 4103SOL    HW223772   1.501   2.895   2.183 -0.5452  2.1331  2.4629
 4104SOL     OW23773   0.329   0.527   9.688 -0.0693  0.7578  0.3715
 4104SOL    HW123774   0.312   0.439   9.654  0.3255  0.9851 -0.4066
 4104SOL    HW223775   0.378   0.501   9.766 -0.9858 -1.3029  0.2559
 4105SOL     OW23776   3.455   2.591  13.852  0.3981 -0.2900 -0.3203
 4105SOL    HW123777   3.543   2.629  13.856  1.0571 -1.8018 -0.4593
 4105SOL    HW223778   3.393   2.661  13.833 -0.1670 -0.3743  1.2220
 4106SOL     OW23779   0.035   1.747   2.153  0.2319  0.2494  0.6072
 4106SOL    HW123780   4.693   1.680   2.161  0.5184 -0.1630 -0.3685
 4106SOL    HW223781   0.091   1.710   2.221  2.5495  0.8217 -1.0035
 4107SOL     OW23782   0.606   3.455   4.815 -0.0145  0.0320  0.0548
 4107SOL    HW123783   0.583   3.368   4.781  1.5731 -0.2168 -0.3868
 4107SOL    HW223784   0.519   3.491   4.834  0.6445  0.6867  1.7647
 4108SOL     OW23785   2.313   3.190   7.505  0.1444  0.3576  0.8428
 4108SOL    HW123786   2.402   3.182   7.539  0.8381  1.7327 -0.6432
 4108SOL    HW223787   2.271   3.179   7.590 -1.0804  1.5896  0.3875
 4109SOL     OW23788   2.976   0.650   5.925 -0.1511  0.1021 -0.5796
 4109SOL    HW123789   2.970   0.667   5.831 -2.9880  2.5056  0.0551
 4109SOL    HW223790   2.978   0.738   5.963 -0.1798 -0.5873  1.0219
 4110SOL     OW23791   2.303   1.927  13.526  0.8553  0.3426 -0.0367
 4110SOL    HW123792   2.378   1.868  13.521  0.9898  0.4535  0.6168
 4110SOL    HW223793   2.307   1.966  13.439 -1.9982 -1.7540 -1.1180
 4111SOL     OW23794   4.149   2.334   9.107 -0.3035  0.0633 -0.1163
 4111SOL    HW123795   4.117   2.249   9.079  1.5862 -0.6932  0.0324
 4111SOL    HW223796   4.161   2.325   9.202 -2.0158  1.1406  0.1961
 4112SOL     OW23797   3.257   2.329   4.898  0.3143  0.1844 -0.0676
 4112SOL    HW123798   3.178   2.366   4.938 -0.7930 -0.4012 -1.7223
 4112SOL    HW223799   3.279   2.402   4.840 -1.6609  1.5031  0.8433
 4113SOL     OW23800   4.586   1.079   2.115  0.0552 -0.0338 -0.0506
 4113SOL    HW123801   4.536   1.067   2.034 -0.9776  0.8725  0.4532
 4113SOL    HW223802   4.555   1.166   2.141  1.7604  0.9796 -1.4399
 4114SOL     OW23803   1.349   0.156   6.064  0.1005  0.3856 -0.4327
 4114SOL    HW123804   1.414   0.157   6.135 -0.8872  1.8251  0.4606
 4114SOL    HW223805   1.317   0.246   6.056  1.8554  1.0691  0.2231
 4115SOL     OW23806   2.571   1.362   7.893  0.3126 -0.5400  0.5854
 4115SOL    HW123807   2.552   1.394   7.804 -0.8043  1.6640  1.6097
 4115SOL    HW223808   2.635   1.428   7.920  2.0370 -1.2476 -1.7036
 4116SOL     OW23809   0.729   1.397  17.142 -0.0168  0.0548  0.2612
 4116SOL    HW123810   0.663   1.353  17.196 -0.1449 -0.1171 -0.0320
 4116SOL    HW223811   0.784   1.429  17.213  0.9584 -1.5481  0.2172
 4117SOL     OW23812   3.741   1.321   5.282 -0.2833  0.2515  0.1207
 4117SOL    HW123813   3.778   1.250   5.230 -1.9543  0.3087 -1.1403
 4117SOL    HW223814   3.651   1.289   5.287 -0.8809  1.6667 -1.2854
 4118SOL     OW23815   1.104   1.097   1.976  0.1781  0.2175 -0.4301
 4118SOL    HW123816   1.097   1.002   1.984  0.4667  0.2600  0.3057
 4118SOL    HW223817   1.197   1.118   1.981  0.7451 -1.7935 -2.4004
 4119SOL     OW23818   3.190   3.145  12.450  0.7708  0.2381  0.6462
 4119SOL    HW123819   3.250   3.175  12.382 -0.7401  0.5058 -0.5768
 4119SOL    HW223820   3.165   3.057  12.424  0.7674  0.7838 -1.2026
 4120SOL     OW23821   1.556   0.602  13.213 -0.2258  0.2615 -0.7841
 4120SOL    HW123822   1.601   0.651  13.282 -1.3677 -0.1080  0.2281
 4120SOL    HW223823   1.591   0.652  13.139  1.1606 -0.3253 -0.5213
 4121SOL     OW23824   2.262   0.378   7.012  0.5674  0.6509  0.1556
 4121SOL    HW123825   2.349   0.361   7.048  0.5626  0.7635  0.2201
 4121SOL    HW223826   2.267   0.473   7.000  1.3480  0.5541 -0.2873
 4122SOL     OW23827   2.655   1.893   6.058  0.1977 -0.1210 -0.1194
 4122SOL    HW123828   2.725   1.915   5.997  0.8155 -1.9637 -0.0758
 4122SOL    HW223829   2.696   1.911   6.142  1.7274 -0.2089 -0.8459
 4123SOL     OW23830   0.548   4.644   2.650  0.1799  0.2661  0.2899
 4123SOL    HW123831   0.490   4.716   2.676  1.6664  0.3991  3.1970
 4123SOL    HW223832   0.576   4.673   2.562  1.3933 -0.2639  0.4998
 4124SOL     OW23833   2.498   2.648   1.864  0.4608  0.9182 -0.0545
 4124SOL    HW123834   2.441   2.648   1.788 -2.0246 -2.0945  1.8202
 4124SOL    HW223835   2.585   2.629   1.829 -0.6902 -2.8436 -0.7932
 4125SOL     OW23836   1.586   1.561   1.327  0.0136 -0.4690  0.4026
 4125SOL    HW123837   1.574   1.507   1.405  1.6100  0.5268  1.3352
 4125SOL    HW223838   1.623   1.636   1.374 -0.1846  2.3156 -3.9152
 4126SOL     OW23839   0.127   1.930   7.152 -0.0409 -0.6947 -0.2535
 4126SOL    HW123840   0.047   1.968   7.116 -0.0921 -0.5916 -0.0268
 4126SOL    HW223841   0.119   1.944   7.246  0.1465 -0.7291 -0.2315
 4127SOL     OW23842   4.482   2.653   2.563  0.4900  0.3964 -0.2512
 4127SOL    HW123843   4.448   2.590   2.501  0.4077  0.6223 -0.4363
 4127SOL    HW223844   4.467   2.619   2.651 -0.0104 -2.6633 -1.5410
 4128SOL     OW23845   1.374   4.244   6.614  0.5823  0.0065  0.2883
 4128SOL    HW123846   1.324   4.323   6.591  1.5671  1.1543  2.0641
 4128SOL    HW223847   1.416   4.276   6.695  2.3639  0.3972 -0.7767
 4129SOL     OW23848   1.104   3.736   6.160  0.0082  0.0264  0.3976
 4129SOL    HW123849   1.008   3.732   6.158 -0.1223  1.9823  2.0730
 4129SOL    HW223850   1.131   3.713   6.071  1.3523 -3.4528  1.6990
 4130SOL     OW23851   2.087   3.181   3.543  0.5040 -0.1020 -0.0281
 4130SOL    HW123852   2.008   3.133   3.566  0.3543 -0.1323 -0.6064
 4130SOL    HW223853   2.068   3.269   3.576  0.5054 -0.2334  0.3199
 4131SOL     OW23854   0.301   2.175   6.323 -0.0212  0.5312 -0.1888
 4131SOL    HW123855   0.260   2.240   6.380  1.2644  0.1403  1.1788
 4131SOL    HW223856   0.384   2.163   6.370 -0.8036  1.2224  1.3914
 4132SOL     OW23857   2.759   3.355   6.871 -0.2814 -0.1141  0.0276
 4132SOL    HW123858   2.695   3.288   6.849 -0.4142  0.3553 -1.0189
 4132SOL    HW223859   2.794   3.370   6.783  0.0529 -1.7214 -0.1048
 4133SOL     OW23860   4.230   0.142  16.229  0.1577 -0.3328  0.5509
 4133SOL    HW123861   4.252   0.077  16.162 -0.6019 -0.0545  0.0329
 4133SOL    HW223862   4.231   0.082  16.304 -0.7520 -0.8730  0.1337
 4134SOL     OW23863   3.756   3.335  12.539 -0.5347  0.1875  0.0767
 4134SOL    HW123864   3.808   3.415  12.537 -3.3104  1.9498 -1.0939
 4134SOL    HW223865   3.768   3.301  12.628 -0.2068  0.9769  0.3291
 4135SOL     OW23866   0.148   3.241   6.897 -0.4152  0.4311  0.2221
 4135SOL    HW123867   0.195   3.202   6.971 -0.2618 -0.8787 -0.5502
 4135SOL    HW223868   0.095   3.313   6.932 -2.6980 -2.2747  2.3643
 4136SOL     OW23869   4.521   1.352   8.004  0.2268 -0.7132  0.6213
 4136SOL    HW123870   4.518   1.418   7.936  0.3545 -1.3607 -0.0148
 4136SOL    HW223871   4.538   1.269   7.958 -0.1215  0.5790 -1.8136
 4137SOL     OW23872   3.703   2.216   4.948 -0.2958 -0.2067  0.3901
 4137SOL    HW123873   3.611   2.192   4.958 -0.3113  0.3044  1.5579
 4137SOL    HW223874   3.692   2.303   4.910  0.7832  0.0797  0.7361
 4138SOL     OW23875   4.185   1.060  11.093  0.2564  0.0238  0.1740
 4138SOL    HW123876   4.121   1.108  11.040 -0.0305 -0.3595  0.1739
 4138SOL    HW223877   4.186   1.121  11.167 -0.3622  0.5108 -0.2238
 4139SOL     OW23878   0.202   3.777  14.601  0.0879 -0.3200  0.7356
 4139SOL    HW123879   0.210   3.871  14.588 -1.2260 -0.1983  0.8312
 4139SOL    HW223880   0.279   3.754  14.654  0.2036  0.3905  0.8662
 4140SOL     OW23881   3.428   1.630  13.750  0.0026  0.1850  0.4592
 4140SOL    HW123882   3.340   1.660  13.774  0.2176  1.4979 -0.3920
 4140SOL    HW223883   3.471   1.607  13.833 -0.9851  1.6995  1.4139
 4141SOL     OW23884   2.310   4.692   5.877  0.3280  0.0163 -0.1614
 4141SOL    HW123885   2.365   4.632   5.929  0.3975  0.6248  0.4733
 4141SOL    HW223886   2.221   4.683   5.910  0.6550  0.4664  0.8494
 4142SOL     OW23887   0.489   2.172   3.063 -0.7954 -0.1612  0.3865
 4142SOL    HW123888   0.457   2.260   3.080 -0.9729 -0.2903  0.7071
 4142SOL    HW223889   0.464   2.170   2.970 -1.2019 -2.3262  0.5370
 4143SOL     OW23890   0.350   1.626   1.524  0.2111 -0.6691  0.6811
 4143SOL    HW123891   0.384   1.632   1.613  1.1976  1.6396  0.1366
 4143SOL    HW223892   0.335   1.719   1.510 -1.8077 -1.2704 -1.2384
 4144SOL     OW23893   3.396   2.362  13.700 -0.0589 -0.5543  0.1701
 4144SOL    HW123894   3.469   2.359  13.638 -0.5606  0.2018 -0.4742
 4144SOL    HW223895   3.419   2.436  13.757 -2.1564  1.2069 -1.2552
 4145SOL     OW23896   3.923   1.207   8.496 -0.0106 -0.0938 -0.4141
 4145SOL    HW123897   3.870   1.272   8.449 -0.8556  0.5503  1.4254
 4145SOL    HW223898   4.006   1.238   8.460  1.0277 -2.4608 -0.0445
 4146SOL     OW23899   4.617   3.871  14.743  0.1519 -0.7427  0.8631
 4146SOL    HW123900   4.672   3.929  14.795 -0.1709  0.3308  0.0179
 4146SOL    HW223901   4.559   3.840  14.812 -1.7428 -0.5464 -0.6298
 4147SOL     OW23902   0.305   2.504   7.891  0.0298  0.2234  0.4500
 4147SOL    HW123903   0.230   2.516   7.833  2.3528 -1.3388 -2.9119
 4147SOL    HW223904   0.289   2.413   7.916 -0.7877  0.2016 -0.1647
 4148SOL     OW23905   0.018   2.745   2.690 -0.4826 -0.3664 -0.2652
 4148SOL    HW123906   4.725   2.795   2.611  1.7149  0.6751 -0.1192
 4148SOL    HW223907   4.658   2.747   2.732 -0.1545  1.1867  0.3508
 4149SOL     OW23908   1.452   4.401   6.137 -0.1244  0.2180 -0.1455
 4149SOL    HW123909   1.369   4.436   6.168 -0.8441  0.9403 -2.8336
 4149SOL    HW223910   1.472   4.343   6.210 -0.1841 -2.5640 -2.3117
 4150SOL     OW23911   2.840   1.310   4.673  0.3209  0.0345 -0.0308
 4150SOL    HW123912   2.834   1.229   4.724  1.9058 -0.0307  0.0358
 4150SOL    HW223913   2.933   1.329   4.666  0.5175 -0.7277  0.4268
 4151SOL     OW23914   0.944   2.298   5.333  0.8724 -0.3536  0.1861
 4151SOL    HW123915   0.856   2.263   5.318  1.4347 -1.1657 -1.3262
 4151SOL    HW223916   0.921   2.353   5.407 -0.3652  1.0473 -1.2366
 4152SOL     OW23917   1.792   1.840   9.107  0.4233  0.5191  0.4144
 4152SOL    HW123918   1.723   1.893   9.147 -0.6792 -1.1297  0.6444
 4152SOL    HW223919   1.869   1.894   9.090 -0.5323  1.7534  0.0056
 4153SOL     OW23920   1.114   4.688   3.858  0.3354 -0.5564 -0.1535
 4153SOL    HW123921   1.153   4.607   3.890 -1.5440 -0.0490  3.4073
 4153SOL    HW223922   1.022   4.662   3.861  0.6800 -1.5722  1.2588
 4154SOL     OW23923   3.503   0.160   5.223  0.2963 -0.4772 -0.1497
 4154SOL    HW123924   3.515   0.071   5.257  0.2264 -0.1930  0.6039
 4154SOL    HW223925   3.415   0.152   5.186  0.6366 -0.5746 -0.9430
 4155SOL     OW23926   0.054   3.633   4.088  0.3764 -0.4974 -0.4098
 4155SOL    HW123927   0.060   3.639   4.183  0.5913 -0.2681 -0.4366
 4155SOL    HW223928   0.142   3.598   4.076  1.5598  2.2815  0.0764
 4156SOL     OW23929   0.922   3.450  11.192  0.1960  0.1980  0.5348
 4156SOL    HW123930   0.994   3.460  11.129  1.3023 -0.4405  1.7070
 4156SOL    HW223931   0.948   3.363  11.222  0.0482  0.4453  1.3730
 4157SOL     OW23932   3.737   2.526   7.930  0.0571 -0.0207  0.0531
 4157SOL    HW123933   3.826   2.493   7.942  0.6986  1.3390 -0.9966
 4157SOL    HW223934   3.710   2.455   7.872 -2.3061  0.2657  0.8296
 4158SOL     OW23935   4.642   4.452   1.399  0.1324 -0.0459 -0.0030
 4158SOL    HW123936   4.664   4.484   1.312  0.2365  1.1876  0.4867
 4158SOL    HW223937   4.594   4.530   1.426 -1.8976 -0.9630 -0.9488
 4159SOL     OW23938   0.880   3.649   5.232 -0.2757  0.0193 -0.0591
 4159SOL    HW123939   0.860   3.739   5.205 -0.3391 -0.4842 -1.6648
 4159SOL    HW223940   0.792   3.613   5.242  1.4157 -4.2864 -0.8820
 4160SOL     OW23941   3.718   4.307  10.638 -0.0173 -0.1436 -0.3909
 4160SOL    HW123942   3.625   4.322  10.656  0.8364  1.4279  2.6584
 4160SOL    HW223943   3.754   4.294  10.726 -2.0831  0.4399  0.5420
 4161SOL     OW23944   2.176   3.813   7.061  0.0464 -0.0398 -0.1768
 4161SOL    HW123945   2.177   3.729   7.014  0.6435 -0.5279  0.7060
 4161SOL    HW223946   2.109   3.858   7.010  1.5529  0.7174 -1.4848
 4162SOL     OW23947   2.002   2.699   4.068  0.1638  0.6896  0.5300
 4162SOL    HW123948   2.052   2.712   4.148  1.4808 -1.9318  0.1069
 4162SOL    HW223949   2.026   2.608   4.054 -2.3918 -0.1830  1.8807
 4163SOL     OW23950   1.257   1.212   2.222 -0.2546 -0.2059 -0.7527
 4163SOL    HW123951   1.193   1.142   2.212  1.9379 -2.2887 -0.4156
 4163SOL    HW223952   1.308   1.206   2.141  0.3439 -0.7828 -0.3418
 4164SOL     OW23953   0.376   0.671   8.279  0.2126  0.0702  0.8868
 4164SOL    HW123954   0.363   0.595   8.223  0.4237  1.1973 -0.6869
 4164SOL    HW223955   0.421   0.635   8.356  0.2310  0.1694  0.9226
 4165SOL     OW23956   2.205   1.406   3.349 -0.8578  0.7469 -0.0086
 4165SOL    HW123957   2.214   1.486   3.400 -1.0133  0.4831  0.4289
 4165SOL    HW223958   2.262   1.431   3.276 -0.3570 -1.0098 -0.2125
 4166SOL     OW23959   1.325   4.677   5.908  0.5753  0.1584 -0.1145
 4166SOL    HW123960   1.258   4.713   5.849  0.7826 -0.7666 -0.9112
 4166SOL    HW223961   1.321   0.020   5.975  0.1998  0.5869 -0.5745
 4167SOL     OW23962   0.827   4.453   5.892  0.0213  0.0556  0.0875
 4167SOL    HW123963   0.822   4.501   5.809 -0.4206  1.6476  1.0337
 4167SOL    HW223964   0.912   4.482   5.926  0.5119 -1.1779 -0.0956
 4168SOL     OW23965   1.106   1.803   9.582 -0.3183 -0.3292 -0.2244
 4168SOL    HW123966   1.171   1.737   9.561  1.1626  0.8984  0.5199
 4168SOL    HW223967   1.020   1.760   9.582 -2.2242  3.4630 -0.5005
 4169SOL     OW23968   1.365   2.361   7.027  0.5078  0.3558 -0.5042
 4169SOL    HW123969   1.309   2.434   7.000  0.2687 -0.2703 -1.6772
 4169SOL    HW223970   1.365   2.375   7.122  0.6456 -0.4407 -0.3845
 4170SOL     OW23971   2.098   3.672   1.782  0.1234  0.3543 -0.6791
 4170SOL    HW123972   2.009   3.706   1.778  0.4405  1.3264  0.6921
 4170SOL    HW223973   2.148   3.754   1.777 -2.5184  1.8311 -2.8656
 4171SOL     OW23974   0.861   2.015  12.017 -0.1642  0.8550 -0.3399
 4171SOL    HW123975   0.812   2.096  12.032  0.6218  1.0140  1.2889
 4171SOL    HW223976   0.909   2.008  12.099  1.5935  0.1965 -1.4150
 4172SOL     OW23977   4.305   3.608   6.136  0.2747 -0.7639 -0.4267
 4172SOL    HW123978   4.394   3.624   6.104  0.8381 -1.0952  0.9993
 4172SOL    HW223979   4.266   3.694   6.122  0.9440 -0.7772 -2.3390
 4173SOL     OW23980   3.151   2.113  17.053 -0.3283  0.6110 -0.4750
 4173SOL    HW123981   3.148   2.131  16.959 -1.8672 -0.4141 -0.6127
 4173SOL    HW223982   3.194   2.196  17.076 -0.2062  0.7462 -1.1899
 4174SOL     OW23983   3.980   1.858   5.056  0.4048  0.2148  0.4166
 4174SOL    HW123984   4.041   1.902   5.115 -0.2870  1.4335  0.2167
 4174SOL    HW223985   3.978   1.773   5.101 -3.8484  0.8447  1.4109
 4175SOL     OW23986   2.484   0.631   6.494 -0.0155 -0.0451 -0.4615
 4175SOL    HW123987   2.490   0.632   6.399  0.4381 -0.9410 -0.4512
 4175SOL    HW223988   2.521   0.543   6.508  0.3270  0.3088  0.8519
 4176SOL     OW23989   3.941   4.446   7.289 -0.0908  0.3076 -0.0141
 4176SOL    HW123990   3.881   4.415   7.222 -1.1151 -1.8917  1.9163
 4176SOL    HW223991   3.893   4.434   7.371 -1.5498  0.0858 -0.9138
 4177SOL     OW23992   2.866   1.032   1.902  0.1037  0.0721 -0.1418
 4177SOL    HW123993   2.863   1.022   1.997  0.0372 -2.6880 -0.4301
 4177SOL    HW223994   2.850   0.946   1.863  0.7482  1.0033 -2.4673
 4178SOL     OW23995   2.551   0.697   2.353  0.0553 -0.1677 -0.4434
 4178SOL    HW123996   2.458   0.675   2.365  0.1318 -0.9563 -1.2327
 4178SOL    HW223997   2.592   0.634   2.412  0.4179 -0.2804 -0.8124
 4179SOL     OW23998   3.916   2.492   2.920  0.0861 -0.3420 -0.1284
 4179SOL    HW123999   3.880   2.578   2.941 -0.1166 -0.1366 -1.2855
 4179SOL    HW224000   3.843   2.432   2.903  0.2580 -1.0539  1.6359
 4180SOL     OW24001   1.411   3.028   1.659  0.7248 -0.2398 -0.1947
 4180SOL    HW124002   1.347   2.959   1.646  1.0188 -0.7932  1.3079
 4180SOL    HW224003   1.358   3.105   1.638 -1.0083 -1.1781  0.7778
 4181SOL     OW24004   4.592   1.401   6.215 -0.1803 -0.7172  0.0524
 4181SOL    HW124005   4.620   1.365   6.131  0.0171  1.8522 -0.9799
 4181SOL    HW224006   4.656   1.353   6.268 -1.3025 -0.0017  2.0832
 4182SOL     OW24007   1.971   4.205   7.646  0.0395 -0.1504 -0.1501
 4182SOL    HW124008   1.996   4.144   7.576  2.0352 -1.8757  2.0423
 4182SOL    HW224009   2.042   4.268   7.633  1.7567 -1.9122  0.5212
 4183SOL     OW24010   2.472   1.467  16.765 -0.0748 -0.1317 -0.5147
 4183SOL    HW124011   2.440   1.548  16.806 -1.9959 -0.0636 -2.1723
 4183SOL    HW224012   2.455   1.485  16.673  0.4127 -1.8019 -0.9274
 4184SOL     OW24013   4.181   0.209  12.583 -0.3587 -0.2152 -0.3173
 4184SOL    HW124014   4.098   0.176  12.551 -1.1506  0.5586  0.9252
 4184SOL    HW224015   4.233   0.131  12.562 -0.2049  0.1523 -1.2834
 4185SOL     OW24016   1.961   1.357   6.514 -0.0534 -0.1846 -1.1036
 4185SOL    HW124017   1.967   1.261   6.509 -0.5691 -0.1163 -3.1529
 4185SOL    HW224018   2.052   1.381   6.532  0.3624  0.0129 -3.4765
 4186SOL     OW24019   3.958   0.216  12.413  0.7677 -0.1801 -0.0331
 4186SOL    HW124020   3.926   0.287  12.357  0.0341 -0.4913 -0.0018
 4186SOL    HW224021   4.041   0.200  12.368  0.2775  0.0507 -1.0116
 4187SOL     OW24022   2.792   0.209   4.049 -0.3737  0.1433  0.0854
 4187SOL    HW124023   2.780   0.292   4.094 -1.6235  0.4503 -0.8245
 4187SOL    HW224024   2.715   0.199   3.994  0.4915  1.4166 -1.3486
 4188SOL     OW24025   2.405   3.286   9.538 -0.1704  0.7269  0.2654
 4188SOL    HW124026   2.315   3.306   9.511 -0.4975 -0.8260  0.1987
 4188SOL    HW224027   2.431   3.248   9.454 -1.8218 -1.4878  0.7455
 4189SOL     OW24028   4.067   2.738  13.656  0.3955  0.6218 -0.1684
 4189SOL    HW124029   3.973   2.730  13.638  0.8748 -2.7882 -1.1822
 4189SOL    HW224030   4.092   2.662  13.603  1.2949  0.2340  0.8129
 4190SOL     OW24031   0.715   2.741   5.564  0.4912  0.0916 -0.1889
 4190SOL    HW124032   0.796   2.696   5.542 -0.6968 -1.0216 -2.2734
 4190SOL    HW224033   0.664   2.766   5.486  1.3888 -1.3388 -1.2368
 4191SOL     OW24034   2.775   2.252   4.291  0.4725  0.1068  0.2585
 4191SOL    HW124035   2.830   2.180   4.259 -0.7305 -0.2981 -0.8776
 4191SOL    HW224036   2.752   2.220   4.378 -1.0158  3.4520  1.0803
 4192SOL     OW24037   3.038   1.198  14.063 -0.1599 -0.2044  0.1388
 4192SOL    HW124038   3.068   1.124  14.010  0.8622  0.5247 -0.2749
 4192SOL    HW224039   2.993   1.165  14.142 -1.2538  0.0258 -0.3879
 4193SOL     OW24040   4.316   1.507   4.222  0.1227 -0.0032 -0.1805
 4193SOL    HW124041   4.341   1.599   4.231  0.9312 -0.3929  1.5817
 4193SOL    HW224042   4.222   1.520   4.238  0.0232  0.8994 -1.5199
 4194SOL     OW24043   3.766   4.515   5.150 -0.0009  0.0112  0.1013
 4194SOL    HW124044   3.747   4.430   5.189 -2.1684  0.9830  1.1437
 4194SOL    HW224045   3.861   4.511   5.151 -0.0322 -1.0032 -1.0152
 4195SOL     OW24046   3.098   4.374   4.133 -0.2984  0.2192  0.3778
 4195SOL    HW124047   3.080   4.362   4.040 -0.1364  0.5493  0.3042
 4195SOL    HW224048   3.019   4.339   4.174 -1.1891  2.6976  0.7136
 4196SOL     OW24049   3.776   0.075   9.956 -0.3405  0.0385 -0.4226
 4196SOL    HW124050   3.831   0.013  10.003 -1.1760 -0.1393  0.3282
 4196SOL    HW224051   3.848   0.107   9.903 -1.5260  3.2338 -0.1464
 4197SOL     OW24052   2.354   3.302   5.321 -0.6956 -0.2196 -1.1466
 4197SOL    HW124053   2.415   3.270   5.388 -1.9899 -0.8978 -0.3091
 4197SOL    HW224054   2.270   3.298   5.366 -0.3612 -2.2319 -0.7108
 4198SOL     OW24055   1.109   2.090   2.782  0.5946 -0.2061 -0.3699
 4198SOL    HW124056   1.200   2.063   2.781  0.6135 -0.1904  3.3761
 4198SOL    HW224057   1.061   2.036   2.844 -3.9597  2.3266 -1.6552
 4199SOL     OW24058   3.700   1.936   3.444 -0.6004 -0.1295  1.0895
 4199SOL    HW124059   3.734   2.012   3.490 -1.4099  0.0517  1.3966
 4199SOL    HW224060   3.626   1.978   3.401 -1.0933  0.6922  2.7322
 4200SOL     OW24061   0.629   3.557   5.849  0.3461  0.0655  0.2053
 4200SOL    HW124062   0.609   3.486   5.789 -1.3742  1.8293 -1.2968
 4200SOL    HW224063   0.723   3.553   5.868  0.6645  0.4398 -1.2885
 4201SOL     OW24064   2.263   3.027   5.885 -0.0035 -0.4960 -0.0786
 4201SOL    HW124065   2.182   3.072   5.862  0.3898  0.0754 -0.3535
 4201SOL    HW224066   2.238   2.935   5.876  3.0711 -1.2819 -0.6282
 4202SOL     OW24067   0.930   3.009   4.463 -0.2491 -0.3059  0.0228
 4202SOL    HW124068   0.854   2.970   4.507  1.1150 -1.8605  0.9584
 4202SOL    HW224069   0.975   3.044   4.540  2.0211 -1.0699 -0.9569
 4203SOL     OW24070   0.749   1.040  16.109 -0.1413  0.4029 -0.3056
 4203SOL    HW124071   0.684   1.109  16.117  0.2036  0.4573  2.0571
 4203SOL    HW224072   0.837   1.078  16.115  0.3966 -0.4687 -2.4978
 4204SOL     OW24073   3.678   4.178   9.779  0.1631  0.1819 -0.2645
 4204SOL    HW124074   3.643   4.265   9.801  2.0449  0.9258 -0.1486
 4204SOL    HW224075   3.772   4.197   9.782  0.3284 -0.8401  1.2082
 4205SOL     OW24076   1.700   3.093   2.575  0.1695  0.2289  0.3639
 4205SOL    HW124077   1.669   3.184   2.574 -0.1085  0.1416  0.7841
 4205SOL    HW224078   1.793   3.110   2.588  0.3100 -1.6986  1.8997
 4206SOL     OW24079   3.644   3.488   7.115  0.0282 -0.8290  0.0282
 4206SOL    HW124080   3.668   3.509   7.025  1.3054 -0.3420  0.4777
 4206SOL    HW224081   3.729   3.493   7.159  0.7058  0.6717 -1.4643
 4207SOL     OW24082   1.704   0.452   2.728 -0.0779  0.0817 -0.3701
 4207SOL    HW124083   1.669   0.472   2.815  0.7632 -0.9855  0.2053
 4207SOL    HW224084   1.783   0.503   2.744 -1.3113  1.6943  0.5809
 4208SOL     OW24085   3.694   2.156   8.945  0.0205  0.3568  0.1807
 4208SOL    HW124086   3.700   2.248   8.970 -0.4734  0.0585  1.3956
 4208SOL    HW224087   3.685   2.114   9.030 -3.5108  2.8655  1.0352
 4209SOL     OW24088   1.940   1.527   9.233 -0.6242  0.6153  0.0308
 4209SOL    HW124089   1.997   1.548   9.307  1.8274 -0.8320 -1.4451
 4209SOL    HW224090   1.868   1.497   9.288 -0.1036  1.0030  0.9329
 4210SOL     OW24091   0.401   2.876   3.350 -0.1627 -0.1500 -0.3377
 4210SOL    HW124092   0.329   2.887   3.288  0.3244 -1.7163 -1.1797
 4210SOL    HW224093   0.479   2.883   3.296  1.7971  0.1029  2.5547
 4211SOL     OW24094   4.586   1.865   3.868  0.4059 -0.3396  0.3396
 4211SOL    HW124095   4.555   1.775   3.875 -0.2538 -0.0633  0.8927
 4211SOL    HW224096   4.675   1.856   3.832  0.2386  0.3444 -0.2457
 4212SOL     OW24097   2.709   1.455   8.255 -0.3759  0.3769 -0.6015
 4212SOL    HW124098   2.713   1.483   8.347  1.5330 -0.4942 -0.4217
 4212SOL    HW224099   2.781   1.507   8.219 -1.0026  1.6753  0.0269
 4213SOL     OW24100   2.522   0.889   7.059  0.5780 -0.2424 -0.2766
 4213SOL    HW124101   2.514   0.840   7.141 -0.3019  1.7088  0.7865
 4213SOL    HW224102   2.488   0.974   7.085  0.1026  0.5987 -3.7187
 4214SOL     OW24103   0.562   4.446   8.738 -0.2158  0.3791  0.1217
 4214SOL    HW124104   0.611   4.515   8.782  1.4249 -1.1201  0.6391
 4214SOL    HW224105   0.477   4.439   8.782 -0.6123  0.9187 -0.5506
 4215SOL     OW24106   0.774   2.912   8.302 -0.3882  0.3608 -0.6361
 4215SOL    HW124107   0.788   2.906   8.397  0.5197  0.4698 -0.7548
 4215SOL    HW224108   0.686   2.875   8.303 -0.3004  0.1476 -1.6492
 4216SOL     OW24109   3.372   1.872   3.229  0.5942 -0.6738 -0.3664
 4216SOL    HW124110   3.339   1.864   3.318  0.5836  0.1793 -0.2977
 4216SOL    HW224111   3.430   1.948   3.238  0.2848 -0.0125 -3.7134
 4217SOL     OW24112   4.614   2.958   7.867 -0.1327  0.0632  0.0312
 4217SOL    HW124113   4.599   2.996   7.781 -1.8650  0.7000  0.6109
 4217SOL    HW224114   4.661   2.877   7.845  0.4789  0.5264 -0.3717
 4218SOL     OW24115   0.361   0.974   2.725  0.2609  1.3126  0.0166
 4218SOL    HW124116   0.358   1.069   2.736 -1.2567  1.3244 -0.5413
 4218SOL    HW224117   0.299   0.946   2.792  2.9989 -1.5460  1.3369
 4219SOL     OW24118   0.165   3.086   6.660 -0.1666 -0.0121  0.3084
 4219SOL    HW124119   0.142   3.127   6.744  1.0969 -0.8808  1.0917
 4219SOL    HW224120   0.196   3.000   6.690  1.0775  0.7519  1.2070
 4220SOL     OW24121   0.770   2.746   4.003  0.0694  0.3636 -0.3864
 4220SOL    HW124122   0.789   2.752   4.097 -0.7004  0.5211 -0.2479
 4220SOL    HW224123   0.758   2.838   3.983  2.1569  0.4320 -1.4029
 4221SOL     OW24124   1.936   2.977   8.408 -0.0346  0.3145  0.3463
 4221SOL    HW124125   1.850   2.981   8.365 -0.6244 -2.5334  1.2870
 4221SOL    HW224126   1.947   3.072   8.415 -1.1956  0.7009 -2.9506
 4222SOL     OW24127   0.146   3.581  16.523  0.2364 -0.0528  0.2620
 4222SOL    HW124128   0.129   3.596  16.616 -1.1026 -0.5919  0.1069
 4222SOL    HW224129   0.059   3.546  16.502  1.5458 -2.1452 -1.7012
 4223SOL     OW24130   3.351   3.023   5.447 -0.2331  0.4425 -0.1096
 4223SOL    HW124131   3.302   2.942   5.429 -0.4553  0.5766 -0.1106
 4223SOL    HW224132   3.315   3.083   5.382 -2.4697 -1.3593 -0.5211
 4224SOL     OW24133   0.253   2.624  16.196  0.2598 -0.0476  0.5323
 4224SOL    HW124134   0.304   2.557  16.150  1.1851  1.2128 -0.2944
 4224SOL    HW224135   0.227   2.571  16.271 -2.1187  0.4801  0.0884
 4225SOL     OW24136   4.394   3.907   7.400 -0.0177  0.4898 -0.1060
 4225SOL    HW124137   4.329   3.873   7.462 -0.1751  0.4812 -0.2744
 4225SOL    HW224138   4.347   3.884   7.320 -0.3914 -0.9459  0.5369
 4226SOL     OW24139   3.769   1.841   8.676 -0.7384  0.2637  0.4117
 4226SOL    HW124140   3.737   1.777   8.614 -1.0467 -0.6512  1.5195
 4226SOL    HW224141   3.858   1.843   8.641 -1.0703  2.5124 -0.3137
 4227SOL     OW24142   1.549   1.395  12.622  0.0516 -0.1993  0.6756
 4227SOL    HW124143   1.516   1.428  12.705  1.8159  0.5041  1.1018
 4227SOL    HW224144   1.487   1.444  12.568  0.4520  0.7128  1.0504
 4228SOL     OW24145   3.971   2.032   8.887 -0.9279 -0.0057  0.1347
 4228SOL    HW124146   4.018   2.024   8.970  0.5754 -0.3123 -0.7596
 4228SOL    HW224147   3.878   2.021   8.907 -0.9008  2.7688  1.8564
 4229SOL     OW24148   3.195   3.906  13.966 -0.1861  0.5096  0.3306
 4229SOL    HW124149   3.275   3.936  14.009  1.3180 -1.7617 -0.8844
 4229SOL    HW224150   3.213   3.819  13.931 -0.3388  0.0905  1.2881
 4230SOL     OW24151   3.714   3.994   3.343 -0.5434 -0.1753  0.0225
 4230SOL    HW124152   3.639   4.033   3.388 -0.8377  1.9541 -2.3276
 4230SOL    HW224153   3.732   4.063   3.279  0.9055 -0.9053 -0.3442
 4231SOL     OW24154   3.834   3.987  16.449  0.0967 -0.3131 -0.2514
 4231SOL    HW124155   3.915   3.968  16.402 -0.8823 -1.6156 -1.4087
 4231SOL    HW224156   3.846   4.080  16.470  0.3753  0.0530 -2.0014
 4232SOL     OW24157   2.457   4.306  11.032  0.3551  0.1445 -0.0823
 4232SOL    HW124158   2.407   4.258  11.097  1.2184 -0.8334 -0.1484
 4232SOL    HW224159   2.539   4.322  11.079  0.3047 -1.1046  0.4213
 4233SOL     OW24160   2.460   3.159   8.470  0.2367 -0.4363 -0.3937
 4233SOL    HW124161   2.488   3.216   8.398  2.2060  2.6432  2.7606
 4233SOL    HW224162   2.541   3.152   8.520 -0.4182 -1.8914  0.4435
 4234SOL     OW24163   2.695   0.234   9.111  0.3223 -0.0835  0.4124
 4234SOL    HW124164   2.657   0.148   9.126  2.7609 -0.9261  1.7113
 4234SOL    HW224165   2.624   0.287   9.074 -0.9946 -1.7137  0.6313
 4235SOL     OW24166   3.583   3.080   3.400  0.2496  0.7689 -0.2130
 4235SOL    HW124167   3.624   3.125   3.474  1.6959 -2.0337  0.7216
 4235SOL    HW224168   3.610   2.989   3.418  0.3889  1.1414  1.4990
 4236SOL     OW24169   2.659   3.095   5.487 -0.1515 -0.1528  0.2410
 4236SOL    HW124170   2.635   3.104   5.579 -0.4459 -0.6081  0.2088
 4236SOL    HW224171   2.702   3.180   5.483 -2.5742  0.9649 -1.4198
 4237SOL     OW24172   2.157   0.664   8.211  0.1171  0.0511 -0.1021
 4237SOL    HW124173   2.105   0.598   8.258  0.1302 -0.1732 -0.4037
 4237SOL    HW224174   2.114   0.745   8.236  1.0112  0.5392 -0.1565
 4238SOL     OW24175   0.540   0.588   5.111  0.3003  0.4317  0.4828
 4238SOL    HW124176   0.630   0.556   5.120 -0.1151 -1.2363 -1.2484
 4238SOL    HW224177   0.550   0.670   5.158 -0.8018  1.2088 -0.6296
 4239SOL     OW24178   3.280   2.732   7.184 -0.2478  0.0699 -0.2124
 4239SOL    HW124179   3.278   2.653   7.131 -1.0130 -1.5740  2.2881
 4239SOL    HW224180   3.366   2.731   7.226 -0.7205 -3.2826  0.6335
 4240SOL     OW24181   0.811   0.325   7.603 -0.0224 -0.7514 -0.2019
 4240SOL    HW124182   0.848   0.407   7.634 -1.2652 -0.4156  0.3819
 4240SOL    HW224183   0.850   0.316   7.516  0.7811 -1.7838  0.2623
 4241SOL     OW24184   3.349   0.968  17.296  0.4416  0.2989 -0.8323
 4241SOL    HW124185   3.307   1.053  17.301 -1.8790 -0.7519 -2.2647
 4241SOL    HW224186   3.409   0.966  17.370  1.8462  0.8807 -1.9424
 4242SOL     OW24187   3.204   3.279   3.269  0.8795  0.1430  0.3659
 4242SOL    HW124188   3.210   3.219   3.195 -0.7472 -0.5916  0.8221
 4242SOL    HW224189   3.290   3.273   3.310  2.2289  1.8079 -2.2746
 4243SOL     OW24190   3.511   1.555   5.987 -0.3144 -0.0351  0.3677
 4243SOL    HW124191   3.511   1.472   5.939  0.5533 -0.5599  1.2765
 4243SOL    HW224192   3.437   1.601   5.948 -0.2851  1.6835  2.3095
 4244SOL     OW24193   2.361   1.423   4.539  0.3808  0.1287 -0.2344
 4244SOL    HW124194   2.347   1.349   4.480  0.6905  0.3070 -0.5331
 4244SOL    HW224195   2.454   1.419   4.557  0.3891  1.8417  0.1077
 4245SOL     OW24196   3.936   3.897  10.522 -0.3472  0.0226 -0.1212
 4245SOL    HW124197   3.939   3.882  10.428  1.2665 -1.7338  0.1988
 4245SOL    HW224198   3.931   3.810  10.562 -3.5347  0.1483 -0.2635
 4246SOL     OW24199   3.860   0.717   5.023  0.4902  0.5313 -0.7722
 4246SOL    HW124200   3.778   0.758   5.049 -0.2315 -0.3902 -1.6099
 4246SOL    HW224201   3.857   0.650   5.091  1.9925  1.0691 -0.1729
 4247SOL     OW24202   4.065   1.991   9.141  0.4204 -0.2389 -0.1338
 4247SOL    HW124203   4.007   1.969   9.214  0.7328 -0.4439  0.0539
 4247SOL    HW224204   4.149   1.997   9.187 -0.2880  2.5313  0.7735
 4248SOL     OW24205   2.948   2.111  17.235  0.1401  0.2839 -0.1275
 4248SOL    HW124206   3.005   2.136  17.162  0.1731 -1.2104 -0.6015
 4248SOL    HW224207   3.021   2.090  17.294 -0.7312  1.6031  1.4319
 4249SOL     OW24208   2.236   3.080   2.600 -0.0877 -0.2650 -0.1034
 4249SOL    HW124209   2.269   3.011   2.659 -0.4274  0.7624  1.2746
 4249SOL    HW224210   2.245   3.037   2.515 -0.7930 -1.2895  0.3457
 4250SOL     OW24211   2.450   2.215   0.095 -0.5431  0.0672 -0.1491
 4250SOL    HW124212   2.432   2.248   0.183  1.4067  1.3130 -0.2236
 4250SOL    HW224213   2.518   2.278   0.070 -2.4239  1.1716 -2.4777
 4251SOL     OW24214   3.088   3.223   6.766 -0.2786  0.2694  0.1213
 4251SOL    HW124215   3.095   3.199   6.858 -2.4103 -1.0332 -0.0527
 4251SOL    HW224216   3.108   3.317   6.768  0.2746  0.1750 -0.9206
 4252SOL     OW24217   3.342   1.683   3.978  0.2357  0.1509  0.5735
 4252SOL    HW124218   3.338   1.647   4.067  0.6570 -4.3188 -1.1800
 4252SOL    HW224219   3.297   1.609   3.936  0.1330 -0.2084  1.3066
 4253SOL     OW24220   1.217   2.267  13.448 -0.0046  0.0770  0.2349
 4253SOL    HW124221   1.199   2.359  13.428 -0.4989 -0.5362 -2.0619
 4253SOL    HW224222   1.264   2.279  13.531 -0.5531 -3.0379  0.9976
 4254SOL     OW24223   3.103   2.771   5.875  0.2598  0.2909 -0.0159
 4254SOL    HW124224   3.022   2.726   5.898  2.0480 -2.5052  0.8250
 4254SOL    HW224225   3.067   2.851   5.836  0.4128  1.5738  2.5124
 4255SOL     OW24226   2.650   3.251  14.569 -0.2437 -0.3284  0.3336
 4255SOL    HW124227   2.579   3.299  14.611 -0.6969 -0.8555  0.1754
 4255SOL    HW224228   2.621   3.162  14.592  2.0013 -1.2091 -0.2200
 4256SOL     OW24229   0.261   4.068  16.285  0.0652 -0.0243  0.0677
 4256SOL    HW124230   0.270   4.131  16.214  0.8014  0.6876  0.7790
 4256SOL    HW224231   0.262   3.981  16.245  0.5512 -0.9390  2.0478
 4257SOL     OW24232   2.466   1.640   6.410  0.1529  0.4973 -0.3552
 4257SOL    HW124233   2.425   1.702   6.349  2.9360  2.7127  0.0121
 4257SOL    HW224234   2.447   1.695   6.486 -1.5955 -0.3472 -0.1780
 4258SOL     OW24235   1.264   2.728   4.715  0.0879  0.0091  0.2399
 4258SOL    HW124236   1.329   2.786   4.674  1.0916  0.4489  2.4602
 4258SOL    HW224237   1.288   2.641   4.684 -1.4459 -1.1799  2.3954
 4259SOL     OW24238   2.813   1.887  12.826  0.5280 -0.3392  0.4082
 4259SOL    HW124239   2.849   1.823  12.888  2.1608  1.7260  1.5647
 4259SOL    HW224240   2.721   1.905  12.846  0.7990  1.5243 -0.0509
 4260SOL     OW24241   0.511   1.145  14.044  0.0783  0.4612  0.1173
 4260SOL    HW124242   0.471   1.105  13.966  0.3728 -0.1558  0.2824
 4260SOL    HW224243   0.452   1.219  14.056  0.9257  1.5143 -2.2643
 4261SOL     OW24244   1.964   0.588   3.430 -0.0108  0.4169 -0.3704
 4261SOL    HW124245   1.988   0.502   3.464  0.7414  0.9813  0.5271
 4261SOL    HW224246   2.026   0.640   3.480  0.7594 -0.2187 -0.6793
 4262SOL     OW24247   2.409   2.915   5.106  0.7450  0.2334 -0.1395
 4262SOL    HW124248   2.346   2.846   5.084 -0.4059  1.6563 -1.3167
 4262SOL    HW224249   2.478   2.881   5.050  2.8635 -1.4087  3.4447
 4263SOL     OW24250   0.592   0.750   7.865 -0.0666  0.2132 -0.2058
 4263SOL    HW124251   0.552   0.815   7.922 -3.0169 -1.3098 -0.5423
 4263SOL    HW224252   0.679   0.789   7.861 -0.5320  1.4310  1.6888
 4264SOL     OW24253   1.768   3.458   9.861  0.2181  0.0183 -0.6074
 4264SOL    HW124254   1.840   3.444   9.799  0.1803  1.8061 -1.0549
 4264SOL    HW224255   1.774   3.380   9.915  0.9082  1.5056  1.4442
 4265SOL     OW24256   4.463   1.265   4.214 -0.3553 -0.0248 -0.0315
 4265SOL    HW124257   4.545   1.311   4.195 -0.0071 -0.0228  1.5490
 4265SOL    HW224258   4.417   1.341   4.248 -1.0394 -0.7481  0.6410
 4266SOL     OW24259   3.156   1.501   7.264  0.7315 -0.3205 -0.6557
 4266SOL    HW124260   3.095   1.509   7.337  0.2197  0.2224 -1.1379
 4266SOL    HW224261   3.201   1.419   7.286  1.4433 -0.0915 -1.2482
 4267SOL     OW24262   1.795   2.711   1.037 -0.2195 -0.7820 -0.5503
 4267SOL    HW124263   1.838   2.747   0.959  1.8879  1.8856  1.8172
 4267SOL    HW224264   1.748   2.792   1.054 -1.1421 -1.1023 -1.5934
 4268SOL     OW24265   3.604   2.683   3.140  0.0819 -0.3889  0.4553
 4268SOL    HW124266   3.604   2.647   3.229  0.1503 -0.2235  0.5238
 4268SOL    HW224267   3.555   2.765   3.138  0.0497 -0.4356 -0.8156
 4269SOL     OW24268   0.626   3.573   5.268 -0.2748 -0.3000  0.4194
 4269SOL    HW124269   0.602   3.630   5.341 -0.5090  4.1055 -3.0832
 4269SOL    HW224270   0.542   3.542   5.233 -0.2749  1.1645 -0.8438
 4270SOL     OW24271   3.340   1.876   9.180 -0.7768 -0.0494  0.0961
 4270SOL    HW124272   3.336   1.937   9.107  0.4697  0.8819  0.7990
 4270SOL    HW224273   3.247   1.869   9.201 -0.9567 -0.5443 -0.8542
 4271SOL     OW24274   4.128   2.415  14.521  0.0742 -0.6087 -0.1972
 4271SOL    HW124275   4.135   2.413  14.426  0.3880 -0.1047 -0.1904
 4271SOL    HW224276   4.215   2.452  14.538 -0.3576 -0.6818  2.1191
 4272SOL     OW24277   4.466   1.392   1.383 -0.0860  0.4812 -0.5365
 4272SOL    HW124278   4.512   1.311   1.361 -1.9259 -0.3559 -1.3079
 4272SOL    HW224279   4.377   1.356   1.376  0.6972 -1.9266  1.8827
 4273SOL     OW24280   4.256   3.798   9.880  0.0666 -0.1079 -0.3778
 4273SOL    HW124281   4.313   3.874   9.877 -1.9628  1.3906 -0.9837
 4273SOL    HW224282   4.302   3.748   9.947  1.9995  2.2997  0.0485
 4274SOL     OW24283   3.513   3.227   3.034 -0.3386  0.1729 -0.4644
 4274SOL    HW124284   3.515   3.276   3.116  1.1497 -0.2428 -0.2395
 4274SOL    HW224285   3.585   3.267   2.985 -2.1910  2.1364 -1.5558
 4275SOL     OW24286   3.453   0.888   7.503 -0.0016  0.3848 -0.0124
 4275SOL    HW124287   3.407   0.808   7.477  0.1776  0.4143 -0.4209
 4275SOL    HW224288   3.414   0.907   7.588 -1.4203  0.8610 -0.7730
 4276SOL     OW24289   0.106   3.356   4.543 -0.5023  0.3838 -0.0817
 4276SOL    HW124290   0.113   3.433   4.599 -2.3851  0.8889 -0.5138
 4276SOL    HW224291   0.053   3.302   4.602 -0.5372  0.6501  0.1276
 4277SOL     OW24292   2.521   4.266  11.667 -0.1289 -0.0382  0.0650
 4277SOL    HW124293   2.601   4.248  11.617  0.5345  0.4916  0.9406
 4277SOL    HW224294   2.550   4.313  11.744 -1.3982  0.3595  0.3005
 4278SOL     OW24295   1.424   1.274   4.474  0.3044 -0.0015  0.3290
 4278SOL    HW124296   1.446   1.343   4.536 -1.2289 -1.2001  2.1979
 4278SOL    HW224297   1.400   1.202   4.533  0.3419  1.6165  2.2952
 4279SOL     OW24298   1.416   4.223   8.437  0.3061  0.1724  0.3507
 4279SOL    HW124299   1.471   4.155   8.475 -1.6899 -1.2040  0.7752
 4279SOL    HW224300   1.371   4.259   8.513  0.2310  1.2492 -0.1983
 4280SOL     OW24301   0.686   3.262   8.088  0.5956  0.3726 -0.0753
 4280SOL    HW124302   0.618   3.329   8.076  0.4819  0.1218 -0.8248
 4280SOL    HW224303   0.638   3.181   8.070 -0.9407  0.8920  1.6629
 4281SOL     OW24304   3.783   2.103  13.371 -0.6619 -0.1530  0.0762
 4281SOL    HW124305   3.853   2.132  13.313  1.7302 -0.3615  2.8638
 4281SOL    HW224306   3.710   2.156  13.340 -0.7938  0.3100  1.1643
 4282SOL     OW24307   2.413   3.447   0.848  0.5642  1.0328  0.1180
 4282SOL    HW124308   2.474   3.374   0.838  0.5312  0.9865  0.2597
 4282SOL    HW224309   2.409   3.466   0.754  0.0438  0.1786 -0.0246
 4283SOL     OW24310   2.698   3.237   6.487  0.1542  0.1620  0.6381
 4283SOL    HW124311   2.778   3.263   6.441 -0.5343 -1.0978 -1.2782
 4283SOL    HW224312   2.739   3.170   6.542  0.2577 -0.4447 -0.1711
 4284SOL     OW24313   0.436   4.381   4.981 -0.0836 -0.5301 -0.2337
 4284SOL    HW124314   0.460   4.469   4.954 -1.3347  0.2159  1.0630
 4284SOL    HW224315   0.374   4.402   5.052 -1.2563 -1.2956 -1.0291
 4285SOL     OW24316   1.025   3.489   8.456  0.4067  0.2047  0.6133
 4285SOL    HW124317   1.095   3.539   8.416  0.3596  0.0708  0.3607
 4285SOL    HW224318   0.963   3.488   8.383  1.0451 -0.2545  0.0808
 4286SOL     OW24319   4.216   2.098  10.611  0.0040  0.4707  0.1363
 4286SOL    HW124320   4.232   2.004  10.617 -0.8836  0.2495 -1.0778
 4286SOL    HW224321   4.254   2.134  10.691  2.3339  0.0907 -0.7960
 4287SOL     OW24322   1.705   3.248  13.301  0.2189 -0.2224 -0.9816
 4287SOL    HW124323   1.795   3.220  13.318  0.3919  1.3035  0.5560
 4287SOL    HW224324   1.659   3.203  13.372  0.4814  0.0190 -0.6613
 4288SOL     OW24325   1.280   0.058   6.838 -0.5219  0.9202  0.9602
 4288SOL    HW124326   1.324   0.137   6.869 -2.9316  3.2948 -1.7709
 4288SOL    HW224327   1.229   0.101   6.770 -0.1442  0.4466  0.3862
 4289SOL     OW24328   2.574   2.567   3.498 -0.4179  0.2782 -0.2537
 4289SOL    HW124329   2.507   2.500   3.482 -0.3306  0.5220 -1.6338
 4289SOL    HW224330   2.520   2.634   3.542  1.2845  1.4247  0.0974
 4290SOL     OW24331   4.622   4.510   7.859  0.9807  0.0433  0.0122
 4290SOL    HW124332   4.718   4.510   7.858  0.9893  1.3002  0.2888
 4290SOL    HW224333   4.598   4.497   7.767 -0.1826  1.6140  0.0839
 4291SOL     OW24334   3.710   4.232   5.218  0.1813  0.1562  0.2073
 4291SOL    HW124335   3.769   4.188   5.279  2.0747  0.5378 -1.3271
 4291SOL    HW224336   3.709   4.164   5.150 -1.9939 -0.0403  0.4233
 4292SOL     OW24337   3.373   2.867   8.296 -0.6519  0.4607  0.1031
 4292SOL    HW124338   3.460   2.843   8.328 -0.2671  1.5768 -0.1287
 4292SOL    HW224339   3.398   2.947   8.251  0.2868 -0.0017 -0.2114
 4293SOL     OW24340   4.492   3.936   3.368 -0.1471 -0.2842 -0.2540
 4293SOL    HW124341   4.473   3.857   3.418  0.5560 -0.6989 -0.6487
 4293SOL    HW224342   4.499   3.893   3.283  0.9818 -1.4099  0.4135
 4294SOL     OW24343   4.155   1.489   5.656 -0.3314 -0.0112  0.0496
 4294SOL    HW124344   4.168   1.396   5.634  0.3318  0.6160 -2.2243
 4294SOL    HW224345   4.065   1.491   5.687 -0.2830  2.8160 -0.0266
 4295SOL     OW24346   2.192   2.417   7.648 -0.3730  0.1597  0.1064
 4295SOL    HW124347   2.140   2.417   7.568 -0.6647 -1.0882  0.3005
 4295SOL    HW224348   2.145   2.483   7.699  0.1787  0.2448  0.5172
 4296SOL     OW24349   0.379   1.260   8.400 -0.3718 -0.7635  0.3893
 4296SOL    HW124350   0.339   1.252   8.313 -0.2579 -0.8462  0.3445
 4296SOL    HW224351   0.314   1.303   8.456  0.8720  1.6060  0.0547
 4297SOL     OW24352   1.528   3.836   1.689  0.0726 -0.0886 -0.2322
 4297SOL    HW124353   1.480   3.766   1.732 -2.4644  0.8275 -1.6259
 4297SOL    HW224354   1.507   3.918   1.733  0.3311 -1.2086  1.9955
 4298SOL     OW24355   3.595   3.704   0.066 -0.0381  0.3540  0.2257
 4298SOL    HW124356   3.551   3.778   0.107  2.8571  1.7785  0.8177
 4298SOL    HW224357   3.516   3.654   0.046  1.4452 -2.7845  2.1164
 4299SOL     OW24358   0.665   1.357   7.390  0.3074  0.4052 -0.1204
 4299SOL    HW124359   0.708   1.351   7.475 -2.0351 -1.3420  0.9404
 4299SOL    HW224360   0.670   1.448   7.360  0.6441 -0.2099 -1.9683
 4300SOL     OW24361   4.541   3.550   7.208  0.0448  0.4974  0.0426
 4300SOL    HW124362   4.561   3.464   7.246 -1.3556  0.1261 -0.0703
 4300SOL    HW224363   4.524   3.595   7.291 -1.6368  0.9692 -0.5611
 4301SOL     OW24364   0.260   1.669   5.187  0.1287 -0.7064  0.1836
 4301SOL    HW124365   0.170   1.700   5.173 -0.4082 -1.7418  1.4110
 4301SOL    HW224366   0.234   1.580   5.164  0.7358 -1.1242  1.1479
 4302SOL     OW24367   3.035   2.818  10.898  0.0287 -0.2248  0.2346
 4302SOL    HW124368   2.982   2.867  10.961  3.6155  4.0913 -0.0816
 4302SOL    HW224369   3.109   2.778  10.945 -0.5801 -0.1271  1.2861
 4303SOL     OW24370   1.722   4.397  13.586 -0.0574 -0.6418  0.7171
 4303SOL    HW124371   1.761   4.309  13.589  1.4507 -0.0353 -0.9987
 4303SOL    HW224372   1.691   4.398  13.496  1.9056  0.1382  0.0557
 4304SOL     OW24373   1.263   1.525   6.891  0.4509  0.4108  0.2789
 4304SOL    HW124374   1.274   1.619   6.904  1.1569  0.1715  1.3815
 4304SOL    HW224375   1.183   1.517   6.943  1.3786  0.4643  1.6906
 4305SOL     OW24376   2.403   2.902   5.662  0.1200 -0.2162  0.5622
 4305SOL    HW124377   2.419   2.893   5.568 -1.2807  1.5593  0.1629
 4305SOL    HW224378   2.329   2.845   5.682  1.3250 -2.1230 -0.3383
 4306SOL     OW24379   2.930   4.331   6.806  0.3122  0.9768 -0.1622
 4306SOL    HW124380   2.978   4.248   6.800 -3.1590 -0.9755 -0.7632
 4306SOL    HW224381   2.839   4.303   6.818  0.7277 -0.1154  0.4942
 4307SOL     OW24382   3.709   2.567   9.256  0.5593 -0.1262  0.0451
 4307SOL    HW124383   3.741   2.586   9.345  0.9510 -0.9597  0.0777
 4307SOL    HW224384   3.663   2.649   9.240  1.0268  0.1890  0.2953
 4308SOL     OW24385   3.710   1.126   2.883 -0.1110 -0.4750 -0.6735
 4308SOL    HW124386   3.652   1.053   2.905  1.9449 -1.7391  0.6024
 4308SOL    HW224387   3.755   1.149   2.964 -1.2484  0.9069 -0.4543
 4309SOL     OW24388   2.808   2.755   7.477 -0.3973 -0.4528  0.5556
 4309SOL    HW124389   2.867   2.771   7.403 -1.5941 -0.6591 -0.4546
 4309SOL    HW224390   2.727   2.776   7.431  1.4556  0.5945 -2.2629
 4310SOL     OW24391   1.380   1.899  12.070  0.1417 -0.4955 -0.6005
 4310SOL    HW124392   1.349   1.921  11.982  0.6128  4.3669  0.4125
 4310SOL    HW224393   1.439   1.973  12.084 -0.9865  0.4227 -0.6871
 4311SOL     OW24394   3.170   4.607   3.483  0.4782  0.1364 -0.3545
 4311SOL    HW124395   3.100   4.671   3.471  0.3873  0.2165  0.5790
 4311SOL    HW224396   3.248   4.657   3.461 -0.3437  1.0552 -1.1780
 4312SOL     OW24397   0.887   2.059  10.574  0.0192 -0.2258 -0.1844
 4312SOL    HW124398   0.815   2.016  10.619 -0.9359  0.7039 -0.8373
 4312SOL    HW224399   0.963   2.024  10.620  0.4837 -0.4764 -1.1517
 4313SOL     OW24400   4.246   0.829  10.948 -0.6428 -0.0982  0.0797
 4313SOL    HW124401   4.251   0.918  10.983  1.1701 -0.8766  1.7612
 4313SOL    HW224402   4.310   0.788  11.006  0.5596  0.7064 -0.6855
 4314SOL     OW24403   0.439   4.505   9.349 -0.2333  0.1753 -0.1226
 4314SOL    HW124404   0.459   4.564   9.422  0.1445  0.4670 -0.4569
 4314SOL    HW224405   0.444   4.426   9.403  0.1590  0.3854  0.1529
 4315SOL     OW24406   2.081   4.340   9.053  0.1281  0.3533  0.2455
 4315SOL    HW124407   2.004   4.389   9.080 -1.0315 -0.9617 -0.7209
 4315SOL    HW224408   2.053   4.261   9.008 -0.3703 -0.4448  1.9695
 4316SOL     OW24409   3.576   2.403   9.076  0.1311 -0.2602 -0.0658
 4316SOL    HW124410   3.559   2.478   9.018 -2.1609 -2.5363 -2.3178
 4316SOL    HW224411   3.614   2.450   9.150  0.1299  0.4646 -0.5235
 4317SOL     OW24412   0.021   3.539  17.426  0.1371  0.2941  0.1062
 4317SOL    HW124413   0.091   3.477  17.444  1.1203  1.9907  2.0854
 4317SOL    HW224414   0.059   3.627  17.430  0.7906  0.0155 -0.0450
 4318SOL     OW24415   1.945   1.990   6.926 -0.8521 -0.0706  1.0455
 4318SOL    HW124416   1.996   2.007   6.847 -1.7294 -1.4130  0.1880
 4318SOL    HW224417   1.979   1.902   6.943  0.0296 -0.2852 -1.7704
 4319SOL     OW24418   4.189   3.433   3.141 -0.2816  0.3954  0.5379
 4319SOL    HW124419   4.185   3.458   3.049 -0.1870  1.0090  0.7025
 4319SOL    HW224420   4.095   3.427   3.157 -0.4031  1.1917  0.0891
 4320SOL     OW24421   3.116   0.013   6.351  0.2002  0.0744  0.4166
 4320SOL    HW124422   3.138   0.044   6.438 -0.6975  2.0675 -0.0754
 4320SOL    HW224423   3.189   0.051   6.301 -0.0109 -0.0130  0.0399
 4321SOL     OW24424   0.201   0.937   4.920  0.2771  0.5659 -0.1715
 4321SOL    HW124425   0.157   0.960   4.838 -0.7715 -1.2738 -0.1316
 4321SOL    HW224426   0.211   1.022   4.962 -0.4925 -0.0415  1.2427
 4322SOL     OW24427   3.399   2.825   1.283 -0.1465  0.7373 -0.3450
 4322SOL    HW124428   3.451   2.799   1.359 -0.4176  0.2205 -0.3387
 4322SOL    HW224429   3.351   2.743   1.270 -1.9067  1.9009 -1.2755
 4323SOL     OW24430   1.751   4.198   8.434 -0.4634  0.1834 -0.1317
 4323SOL    HW124431   1.823   4.160   8.485 -0.8352 -1.9330 -1.1778
 4323SOL    HW224432   1.784   4.287   8.430  1.1366 -0.3456  1.4671
 4324SOL     OW24433   1.565   1.746  10.278  0.1354  0.0263 -0.1832
 4324SOL    HW124434   1.593   1.782  10.194 -0.4027  0.3292 -0.2320
 4324SOL    HW224435   1.470   1.756  10.283 -0.0373 -0.9002 -1.5832
 4325SOL     OW24436   2.402   1.198   8.405 -0.1192  0.5677 -0.0662
 4325SOL    HW124437   2.472   1.214   8.467  0.0343  0.7126 -0.2780
 4325SOL    HW224438   2.459   1.190   8.328 -0.9962  1.9667 -0.8684
 4326SOL     OW24439   4.721   0.057   7.076  0.0952 -0.2002 -0.6295
 4326SOL    HW124440   4.670   0.069   6.996  1.0391 -0.3030 -1.2549
 4326SOL    HW224441   0.075   0.021   7.038  0.4225  1.2729 -1.3646
 4327SOL     OW24442   3.379   3.376   7.780  0.2096  0.1098  0.0210
 4327SOL    HW124443   3.298   3.343   7.741 -1.5537  3.0402  1.2332
 4327SOL    HW224444   3.361   3.395   7.872  1.3236  1.0498  0.0521
 4328SOL     OW24445   1.518   3.245   5.066  0.1177 -0.1727  0.0294
 4328SOL    HW124446   1.499   3.189   4.990  2.9668  0.9311 -1.4925
 4328SOL    HW224447   1.431   3.275   5.092 -0.1872 -0.6240 -0.4815
 4329SOL     OW24448   2.171   0.630   6.779  0.8772  0.4092  0.9851
 4329SOL    HW124449   2.219   0.552   6.750  0.1798  0.7235 -1.0686
 4329SOL    HW224450   2.228   0.658   6.850  2.1412  0.8228 -0.1898
 4330SOL     OW24451   3.649   3.742  12.357  0.3477  0.2065 -0.5975
 4330SOL    HW124452   3.711   3.728  12.286  1.2357  2.5545 -0.2789
 4330SOL    HW224453   3.703   3.707  12.428 -0.4922 -0.9107 -0.5074
 4331SOL     OW24454   2.242   3.216   1.399 -0.5960 -0.1596 -0.2025
 4331SOL    HW124455   2.258   3.149   1.466 -0.0802  0.1201 -0.0442
 4331SOL    HW224456   2.174   3.191   1.336  1.3925 -2.2967 -1.4826
 4332SOL     OW24457   2.675   1.305  14.962  0.3550  0.2538  0.0635
 4332SOL    HW124458   2.707   1.270  14.879 -1.8492 -1.0908 -0.2081
 4332SOL    HW224459   2.642   1.226  15.004  1.4421  0.1933  0.7763
 4333SOL     OW24460   3.162   3.246  17.108  0.6373 -0.4399  0.4576
 4333SOL    HW124461   3.209   3.264  17.026  0.8576 -1.8791  0.2597
 4333SOL    HW224462   3.170   3.326  17.160 -2.3304 -0.1188  0.3877
 4334SOL     OW24463   4.514   2.635   6.975  0.6433  0.3032  0.4221
 4334SOL    HW124464   4.490   2.568   7.038  1.5771 -0.2967  0.1434
 4334SOL    HW224465   4.578   2.588   6.922 -1.1958  0.0663 -1.5666
 4335SOL     OW24466   0.109   2.231   8.542  0.2044  0.1343  0.2582
 4335SOL    HW124467   0.096   2.225   8.637 -2.3208  0.1511 -0.0913
 4335SOL    HW224468   0.025   2.193   8.516  0.3295  1.1625 -1.6206
 4336SOL     OW24469   3.499   3.741  16.456 -0.9076  0.5022 -0.4101
 4336SOL    HW124470   3.423   3.740  16.399  0.0401 -1.1802 -1.6408
 4336SOL    HW224471   3.462   3.701  16.534 -1.4376  0.5398 -0.6412
 4337SOL     OW24472   0.484   2.193  12.032  0.3485 -0.0786  0.0590
 4337SOL    HW124473   0.445   2.106  12.032 -0.0712  0.1124  1.8152
 4337SOL    HW224474   0.446   2.225  12.113 -1.3217  1.3163 -1.2793
 4338SOL     OW24475   1.008   4.338   5.462 -0.3450  0.2336  0.3223
 4338SOL    HW124476   0.933   4.301   5.509  0.0497 -3.2190 -1.7972
 4338SOL    HW224477   1.079   4.301   5.513  0.9037  2.2334  0.0408
 4339SOL     OW24478   0.808   2.732  17.377 -0.4148  0.2942  0.7376
 4339SOL    HW124479   0.737   2.685  17.332  1.1168  0.8701 -2.2899
 4339SOL    HW224480   0.840   2.660  17.431 -0.1893 -0.5041 -0.4645
 4340SOL     OW24481   4.066   0.485  10.276 -0.2230  0.2227 -0.7347
 4340SOL    HW124482   4.030   0.471  10.363  0.0851  1.7645 -0.3597
 4340SOL    HW224483   4.104   0.573  10.280 -2.7225  1.1573  2.0459
 4341SOL     OW24484   3.238   2.170   4.095 -0.7361 -0.2821  0.4877
 4341SOL    HW124485   3.274   2.082   4.088 -1.5768 -0.6202  0.3829
 4341SOL    HW224486   3.151   2.142   4.066 -0.3426  0.5840 -1.5850
 4342SOL     OW24487   3.909   1.113   7.461  0.1423 -0.2578 -0.7321
 4342SOL    HW124488   3.886   1.201   7.433  0.2341  0.3931  1.2121
 4342SOL    HW224489   3.822   1.079   7.482  0.8308  0.5547  3.4633
 4343SOL     OW24490   2.821   4.599  11.102  0.5583 -0.8896  0.7855
 4343SOL    HW124491   2.872   4.614  11.022  0.6899 -1.9455  0.6639
 4343SOL    HW224492   2.764   4.674  11.115  0.5019 -0.9642  0.9672
 4344SOL     OW24493   4.631   2.093   7.802 -0.0063 -0.1026  0.0186
 4344SOL    HW124494   4.548   2.053   7.777 -0.2972  0.1409  0.5976
 4344SOL    HW224495   4.696   2.044   7.751  0.9034 -0.2653  1.3081
 4345SOL     OW24496   3.386   3.283   4.892 -0.3745  0.0240 -0.2749
 4345SOL    HW124497   3.416   3.328   4.971 -0.3495 -1.9228  0.8429
 4345SOL    HW224498   3.445   3.327   4.832 -1.6403  3.5755  1.0967
 4346SOL     OW24499   3.990   3.843  12.898 -0.1909 -0.1629 -0.2459
 4346SOL    HW124500   4.063   3.896  12.864 -0.1896 -1.5425 -2.3287
 4346SOL    HW224501   3.953   3.898  12.967 -2.8354  0.4332 -2.1691
 4347SOL     OW24502   3.432   2.030   2.501 -0.3885  0.2694 -0.5907
 4347SOL    HW124503   3.422   2.043   2.407 -1.8734 -1.3613 -0.6371
 4347SOL    HW224504   3.383   2.107   2.530 -2.5456 -1.1430 -0.4894
 4348SOL     OW24505   2.101   2.606   5.327  0.3753 -0.1844 -0.2471
 4348SOL    HW124506   2.072   2.604   5.236 -1.0960 -1.3030  0.2491
 4348SOL    HW224507   2.123   2.699   5.340 -0.8925 -0.2298  2.1624
 4349SOL     OW24508   3.287   3.035   4.224  0.0085  0.0249 -0.1484
 4349SOL    HW124509   3.199   3.019   4.190 -0.2735 -1.1049  1.1066
 4349SOL    HW224510   3.325   2.947   4.217 -0.7747 -0.2067 -1.6030
 4350SOL     OW24511   2.226   4.048   6.733 -0.1846 -0.1395 -0.1772
 4350SOL    HW124512   2.286   3.973   6.736  0.4486  0.3943  0.5268
 4350SOL    HW224513   2.151   4.023   6.678 -0.1697 -0.3859 -0.0851
 4351SOL     OW24514   3.710   4.695   4.937  0.2162  0.2431 -0.1654
 4351SOL    HW124515   3.721   4.640   5.015 -3.0067  1.5901  1.2273
 4351SOL    HW224516   3.796   0.011   4.937  0.1820  0.3050  0.2859
 4352SOL     OW24517   4.108   0.787   7.035 -0.3226  0.2392  0.1916
 4352SOL    HW124518   4.038   0.833   7.081 -0.4870  0.5614 -0.3837
 4352SOL    HW224519   4.178   0.786   7.101 -2.7457  1.5460  2.7707
 4353SOL     OW24520   3.656   2.041  17.209 -0.4263 -0.1985 -0.1112
 4353SOL    HW124521   3.743   2.002  17.218  0.5747  2.9661  3.7204
 4353SOL    HW224522   3.664   2.104  17.281  1.3352  0.0748 -0.5368
 4354SOL     OW24523   1.266   0.450   0.769 -0.2936 -0.2809 -0.1567
 4354SOL    HW124524   1.194   0.497   0.811 -0.8044 -1.3600  0.1937
 4354SOL    HW224525   1.266   0.370   0.822 -0.3192 -0.8160 -0.9610
 4355SOL     OW24526   2.796   4.428  13.993 -0.1343 -0.1239 -0.8923
 4355SOL    HW124527   2.874   4.416  13.938 -0.8123 -1.5072 -1.5558
 4355SOL    HW224528   2.730   4.450  13.926  0.6863  0.3998 -1.5343
 4356SOL     OW24529   0.304   3.970   3.789  0.0076  0.3498 -0.1839
 4356SOL    HW124530   0.214   3.949   3.766  0.5789 -1.9518 -0.3654
 4356SOL    HW224531   0.298   3.968   3.885  0.0271 -1.8383 -0.2115
 4357SOL     OW24532   0.964   2.404  11.669 -0.2628  0.4600 -0.3182
 4357SOL    HW124533   0.926   2.475  11.617 -1.0901 -1.1449 -1.9017
 4357SOL    HW224534   1.057   2.427  11.676 -0.3916  0.0186  2.7668
 4358SOL     OW24535   2.142   1.946   4.956 -0.3897  0.3573 -0.8307
 4358SOL    HW124536   2.187   1.946   4.872  0.6105  1.7103 -0.2935
 4358SOL    HW224537   2.076   1.877   4.952 -1.5718  1.3986  0.6773
 4359SOL     OW24538   2.642   4.123  13.557 -1.0084  0.4709  0.2647
 4359SOL    HW124539   2.639   4.095  13.648  0.1505 -0.2772  0.0679
 4359SOL    HW224540   2.591   4.053  13.515  0.3521 -0.0360 -0.5295
 4360SOL     OW24541   1.405   3.141  11.871  0.1258 -0.5048  0.4622
 4360SOL    HW124542   1.451   3.154  11.789  0.0749  1.1543  0.6887
 4360SOL    HW224543   1.430   3.225  11.911 -2.7314 -0.4663  2.1664
 4361SOL     OW24544   0.060   1.567   0.807  0.4315  0.3409 -0.2702
 4361SOL    HW124545   0.074   1.484   0.853  1.1342 -0.1279 -1.3165
 4361SOL    HW224546   0.149   1.603   0.811 -0.5208  2.6142  0.4374
 4362SOL     OW24547   2.510   2.487   4.096 -0.2519  0.3618 -0.0594
 4362SOL    HW124548   2.526   2.394   4.078  0.0455 -0.0280  2.1752
 4362SOL    HW224549   2.514   2.536   4.014  1.7075  1.2061  0.5233
 4363SOL     OW24550   3.762   3.797  17.585  0.0799  0.0001 -0.2785
 4363SOL    HW124551   3.711   3.752  17.653 -3.4422  1.7061 -1.8235
 4363SOL    HW224552   3.753   3.720  17.529  0.2925  0.5278 -1.0353
 4364SOL     OW24553   1.082   3.231   8.743 -0.2800  0.4231 -0.0177
 4364SOL    HW124554   1.028   3.208   8.667 -1.3375 -0.0777  0.8968
 4364SOL    HW224555   1.053   3.322   8.752 -0.9208  0.2138 -0.0020
 4365SOL     OW24556   1.495   3.373   6.297  0.2502 -0.4373  0.0717
 4365SOL    HW124557   1.455   3.454   6.331  1.6588  0.6476 -0.8575
 4365SOL    HW224558   1.470   3.307   6.362 -2.0382 -1.4926 -1.8965
 4366SOL     OW24559   3.547   1.245   3.140 -0.2434 -0.1975  1.1935
 4366SOL    HW124560   3.489   1.247   3.064  0.2441  0.2418  0.8265
 4366SOL    HW224561   3.547   1.151   3.157  2.0754 -0.3867  0.1265
 4367SOL     OW24562   2.303   1.807   6.254 -0.7310  0.0524 -0.1094
 4367SOL    HW124563   2.337   1.893   6.277 -0.1036  0.1608 -1.4392
 4367SOL    HW224564   2.221   1.805   6.303 -0.3829  1.2185  0.5218
 4368SOL     OW24565   0.921   1.641   9.875  0.1065  0.0923 -0.5824
 4368SOL    HW124566   0.840   1.641   9.926 -0.3131 -1.7866 -1.2431
 4368SOL    HW224567   0.903   1.651   9.782 -0.9804 -0.9043 -0.4789
 4369SOL     OW24568   0.801   2.030   4.634  0.0581 -0.0828 -0.4881
 4369SOL    HW124569   0.858   1.966   4.592 -2.0090 -1.2307 -1.5190
 4369SOL    HW224570   0.786   2.091   4.562 -2.0507 -0.5302 -0.4005
 4370SOL     OW24571   3.718   1.816   9.937  0.1602  0.5860 -0.1649
 4370SOL    HW124572   3.644   1.809   9.877 -0.6532 -0.9341  1.0332
 4370SOL    HW224573   3.733   1.910   9.925 -0.6155  0.9275  1.6074
 4371SOL     OW24574   1.432   1.230  13.329 -0.8917 -0.4923 -1.0093
 4371SOL    HW124575   1.358   1.172  13.312 -0.9398 -0.4997 -0.7832
 4371SOL    HW224576   1.454   1.210  13.420 -2.1559 -0.1112 -0.6219
 4372SOL     OW24577   4.118   0.350   5.070 -0.6223  0.1900  0.2313
 4372SOL    HW124578   4.150   0.438   5.052  0.4263 -0.3601 -0.6163
 4372SOL    HW224579   4.176   0.299   5.013 -0.6355 -1.3307  1.5646
 4373SOL     OW24580   1.330   1.713  15.858  0.0772  0.2708 -0.8317
 4373SOL    HW124581   1.254   1.705  15.801 -0.5226  1.6425 -0.2157
 4373SOL    HW224582   1.299   1.784  15.913  0.1799 -1.2188  1.1318
 4374SOL     OW24583   2.164   1.625  14.143 -0.3234 -0.0496 -0.0896
 4374SOL    HW124584   2.196   1.575  14.067  2.5988  2.6071 -0.6044
 4374SOL    HW224585   2.136   1.554  14.201 -2.3505  0.8838  0.0630
 4375SOL     OW24586   1.724   2.355  13.609  0.2334  0.5283 -0.7970
 4375SOL    HW124587   1.794   2.374  13.671 -0.4407  0.1039  0.0926
 4375SOL    HW224588   1.696   2.270  13.643 -0.3952  1.6609  1.5137
 4376SOL     OW24589   3.983   3.021   7.226  0.1368 -0.5106 -0.1514
 4376SOL    HW124590   3.964   2.999   7.135 -1.9399  0.0907  0.1182
 4376SOL    HW224591   3.908   2.988   7.276  1.3211 -2.5628  0.2413
 4377SOL     OW24592   1.022   2.145   7.204 -0.0981  0.1746  0.0871
 4377SOL    HW124593   0.968   2.135   7.282 -0.2294  1.1334  0.1227
 4377SOL    HW224594   1.042   2.239   7.205  1.4431 -0.1524  0.2519
 4378SOL     OW24595   1.207   1.909   7.174 -0.0071 -0.5548  0.1339
 4378SOL    HW124596   1.224   1.863   7.092 -2.3352  1.1845 -1.3368
 4378SOL    HW224597   1.144   1.976   7.145  0.9075 -0.1717 -0.9759
 4379SOL     OW24598   4.628   0.062  11.745 -0.2334 -0.3280 -0.2251
 4379SOL    HW124599   4.713   0.034  11.712 -0.6505 -3.5110  1.4508
 4379SOL    HW224600   4.578   0.069  11.664 -3.0527 -0.0585  1.5405
 4380SOL     OW24601   0.689   0.153   6.344  0.1413  0.4171  0.2060
 4380SOL    HW124602   0.751   0.105   6.289 -0.6952  1.4058 -1.6049
 4380SOL    HW224603   0.606   0.117   6.312  0.3704  1.5428 -1.6753
 4381SOL     OW24604   3.029   1.645  13.544 -0.1579 -0.0457  0.5554
 4381SOL    HW124605   2.937   1.656  13.520  0.1810  2.4612  0.3525
 4381SOL    HW224606   3.049   1.714  13.607  0.2609  0.1538  0.2031
 4382SOL     OW24607   0.968   0.543   8.740  0.5838  0.1717 -0.0773
 4382SOL    HW124608   1.004   0.535   8.652 -0.9573  2.4072 -0.9083
 4382SOL    HW224609   1.006   0.466   8.783  2.6167  0.8082 -0.7207
 4383SOL     OW24610   3.486   1.857  12.479 -0.3106 -0.0700 -0.2012
 4383SOL    HW124611   3.414   1.871  12.540  0.4057  2.4609  0.0533
 4383SOL    HW224612   3.479   1.939  12.430 -0.8541 -1.4437 -2.4436
 4384SOL     OW24613   1.967   2.616  14.726  0.2056 -0.1745  0.2505
 4384SOL    HW124614   2.040   2.584  14.674  0.6068  0.3471  0.4924
 4384SOL    HW224615   1.895   2.565  14.689  0.4520 -0.5841  0.3310
 4385SOL     OW24616   1.751   3.605   4.380  0.0199  0.1921 -0.1985
 4385SOL    HW124617   1.740   3.648   4.464  1.3329 -0.9208  0.5339
 4385SOL    HW224618   1.680   3.653   4.337  2.8960  2.9583 -1.8089
 4386SOL     OW24619   4.545   1.316  12.838 -0.1166  0.2506 -0.1465
 4386SOL    HW124620   4.473   1.379  12.838  0.1342  0.5379 -1.1996
 4386SOL    HW224621   4.554   1.288  12.929 -1.1098  0.5322  0.0415
 4387SOL     OW24622   3.349   2.871  15.613 -0.2896 -0.2816  0.9384
 4387SOL    HW124623   3.385   2.953  15.579 -0.0487 -0.0125  1.8268
 4387SOL    HW224624   3.424   2.822  15.649  0.2019 -0.5006 -0.3880
 4388SOL     OW24625   1.323   3.044   0.654 -0.3425 -0.2168  0.1266
 4388SOL    HW124626   1.369   2.977   0.705  0.0355  0.6837  0.9558
 4388SOL    HW224627   1.264   2.994   0.598  0.6792 -1.0940 -0.1707
 4389SOL     OW24628   0.729   0.873   6.653  0.7792  0.3432  0.0382
 4389SOL    HW124629   0.769   0.808   6.595 -1.2958 -0.2072 -0.7756
 4389SOL    HW224630   0.710   0.817   6.728  0.0026  2.2400  1.2526
 4390SOL     OW24631   4.192   3.115   9.345 -0.5853  0.3108 -0.1880
 4390SOL    HW124632   4.247   3.132   9.268 -1.3263 -2.1714 -1.2742
 4390SOL    HW224633   4.224   3.029   9.371 -1.1667 -0.2189 -1.2156
 4391SOL     OW24634   2.549   4.284   1.203 -0.1607 -0.2231  0.0474
 4391SOL    HW124635   2.510   4.263   1.288 -0.8040  1.0177  0.0707
 4391SOL    HW224636   2.466   4.284   1.155  0.4714  1.1254 -1.0448
 4392SOL     OW24637   2.575   2.881   6.250  0.0779 -0.0468 -0.1978
 4392SOL    HW124638   2.569   2.975   6.262 -1.7457 -0.3889  1.4727
 4392SOL    HW224639   2.650   2.877   6.190 -0.3207 -0.2834 -0.6892
 4393SOL     OW24640   4.073   0.466   9.242 -0.1124 -0.1630  0.2346
 4393SOL    HW124641   4.158   0.436   9.273 -0.4482  0.0658  1.3481
 4393SOL    HW224642   4.009   0.400   9.268 -0.1135 -0.4044 -0.3552
 4394SOL     OW24643   1.424   1.997   3.641  0.6238  0.0401 -0.3573
 4394SOL    HW124644   1.422   2.091   3.621 -0.9346  0.2079  0.6446
 4394SOL    HW224645   1.365   1.981   3.715 -2.1641 -0.9105 -2.7759
 4395SOL     OW24646   4.008   0.196   4.251 -0.4075  0.3404  0.1966
 4395SOL    HW124647   3.999   0.275   4.304  2.7435  1.2830 -0.6993
 4395SOL    HW224648   4.078   0.148   4.296  0.3046 -0.4117 -1.7301
 4396SOL     OW24649   2.063   1.992   6.333  0.1994  0.2501  0.1020
 4396SOL    HW124650   2.047   1.931   6.405 -1.9298 -0.1584 -0.6913
 4396SOL    HW224651   2.076   2.074   6.380  1.7011  0.8397 -1.3443
 4397SOL     OW24652   3.754   1.273   2.588  0.4594 -0.2485  0.2085
 4397SOL    HW124653   3.708   1.251   2.670  1.5631 -1.1158  0.5926
 4397SOL    HW224654   3.748   1.190   2.542  1.2643 -0.3343  0.2597
 4398SOL     OW24655   3.096   4.589   9.426  0.0570  0.5204 -0.2298
 4398SOL    HW124656   3.124   4.575   9.516  1.2300  0.1995 -0.6390
 4398SOL    HW224657   3.109   4.684   9.417  4.8604 -0.1875 -0.7449
 4399SOL     OW24658   2.234   2.270  11.608 -0.2387  0.0536 -0.3623
 4399SOL    HW124659   2.192   2.302  11.688 -0.5550  0.3096 -0.6275
 4399SOL    HW224660   2.264   2.353  11.570  1.4415 -0.0840  0.6856
 4400SOL     OW24661   1.115   4.188   0.429  0.3531  0.6991  0.4355
 4400SOL    HW124662   1.161   4.161   0.349  0.3323  1.5280  0.1481
 4400SOL    HW224663   1.026   4.165   0.401  0.6199 -0.7266  0.7228
 4401SOL     OW24664   2.177   3.681   8.073 -0.1486  0.4659 -0.3252
 4401SOL    HW124665   2.260   3.703   8.029 -0.0388  1.5154  0.4300
 4401SOL    HW224666   2.122   3.751   8.039 -0.9998 -1.4932 -3.0246
 4402SOL     OW24667   0.540   3.894   2.310  0.3809  0.1785  0.4042
 4402SOL    HW124668   0.463   3.911   2.256  0.1664 -2.7778 -0.1817
 4402SOL    HW224669   0.521   3.948   2.387  1.0332  0.2404  0.5198
 4403SOL     OW24670   2.288   1.061   6.798  0.0878  0.1526 -0.1956
 4403SOL    HW124671   2.196   1.085   6.809  0.2991  0.4441  0.9204
 4403SOL    HW224672   2.327   1.064   6.885 -3.1915 -0.5502  1.2984
 4404SOL     OW24673   0.739   1.007   3.471 -0.5191  0.1398  0.5515
 4404SOL    HW124674   0.672   0.958   3.423 -0.5362  0.4855  0.2140
 4404SOL    HW224675   0.733   0.969   3.558  1.7576 -0.5364  0.4142
 4405SOL     OW24676   1.636   2.380  13.029  0.0535 -0.6751 -0.0897
 4405SOL    HW124677   1.577   2.363  13.103 -1.3070  1.2990 -0.7118
 4405SOL    HW224678   1.690   2.454  13.058  2.6355 -2.2336 -0.9576
 4406SOL     OW24679   3.669   2.846  15.198  0.2028  0.2734  0.1447
 4406SOL    HW124680   3.743   2.826  15.141 -0.1613 -0.7355  0.0242
 4406SOL    HW224681   3.687   2.796  15.277  1.9371 -0.0986 -0.4906
 4407SOL     OW24682   1.819   1.128   2.600 -0.0916 -1.1099 -0.1560
 4407SOL    HW124683   1.867   1.047   2.618  0.3724 -1.5149 -3.1728
 4407SOL    HW224684   1.834   1.138   2.506 -2.3560 -0.3899 -0.4307
 4408SOL     OW24685   3.064   2.358  11.465 -0.0843 -0.2607 -0.3566
 4408SOL    HW124686   3.109   2.434  11.502  0.0122 -0.9054  0.8827
 4408SOL    HW224687   2.970   2.377  11.465  0.1958  1.1231  2.2094
 4409SOL     OW24688   0.132   3.406   3.594  0.2799 -0.1013 -0.1150
 4409SOL    HW124689   0.114   3.313   3.611 -0.6902 -0.2685 -2.1397
 4409SOL    HW224690   0.216   3.417   3.639  0.2055 -1.7197  0.4456
 4410SOL     OW24691   4.200   1.030   6.862 -0.0454  0.0346 -0.3515
 4410SOL    HW124692   4.286   1.021   6.903 -0.0146  2.7152  0.1918
 4410SOL    HW224693   4.191   0.939   6.835 -3.7495  0.0936  0.6829
 4411SOL     OW24694   0.274   2.457  14.047  0.6084  0.5302 -0.0445
 4411SOL    HW124695   0.205   2.471  14.112 -0.0779 -1.4221 -0.3603
 4411SOL    HW224696   0.348   2.437  14.103  0.4049  0.7964  0.3189
 4412SOL     OW24697   2.803   2.461   8.117  0.5518  0.0943  0.1417
 4412SOL    HW124698   2.863   2.388   8.133  1.1553  0.0787 -2.0803
 4412SOL    HW224699   2.713   2.431   8.128  0.4422  0.2419 -0.3417
 4413SOL     OW24700   4.358   2.534  10.059  0.4280 -0.5163 -0.2701
 4413SOL    HW124701   4.440   2.489  10.037  1.0372  1.4990 -2.0761
 4413SOL    HW224702   4.344   2.502  10.148  1.0162  0.5353  0.1947
 4414SOL     OW24703   0.053   4.495   2.303 -0.2241  0.3846  0.0518
 4414SOL    HW124704   0.141   4.519   2.335 -0.0394 -0.8781  0.4941
 4414SOL    HW224705   0.027   4.575   2.257  1.7687  1.5431  0.9392
 4415SOL     OW24706   2.854   3.453  15.286  0.0494  0.1090 -0.8599
 4415SOL    HW124707   2.836   3.434  15.378 -1.8549 -2.6409 -1.8058
 4415SOL    HW224708   2.847   3.363  15.252 -0.3466 -0.4351  0.6623
 4416SOL     OW24709   0.884   3.123   3.948  0.3126  0.3661  0.2101
 4416SOL    HW124710   0.935   3.055   3.904  0.3677  0.4011  0.2193
 4416SOL    HW224711   0.864   3.087   4.034  0.7618  1.3104  0.7119
 4417SOL     OW24712   0.652   2.446   8.228  0.6013  0.3075 -0.2585
 4417SOL    HW124713   0.687   2.519   8.279  0.1528  1.7731 -2.0287
 4417SOL    HW224714   0.725   2.387   8.243  1.5077  1.8238  1.2281
 4418SOL     OW24715   3.334   4.013  13.037  0.7184  0.5159 -0.2574
 4418SOL    HW124716   3.368   3.930  13.071  0.7694  0.7350  0.2225
 4418SOL    HW224717   3.292   3.975  12.960  0.1655  1.1793 -0.2776
 4419SOL     OW24718   1.721   3.163   5.223  0.2173 -0.5715 -0.5297
 4419SOL    HW124719   1.761   3.089   5.177 -0.5272 -0.8416 -0.7512
 4419SOL    HW224720   1.641   3.173   5.171  2.0078 -0.1607 -3.1672
 4420SOL     OW24721   3.865   4.079   6.877 -0.3527 -0.4500 -0.3923
 4420SOL    HW124722   3.773   4.089   6.903 -0.2833  0.1764 -0.3963
 4420SOL    HW224723   3.859   4.047   6.787 -2.5113 -0.0904 -0.3845
 4421SOL     OW24724   1.061   1.849   7.457  0.1441  0.1724  0.2622
 4421SOL    HW124725   1.042   1.939   7.484  2.4921  0.5500  0.6441
 4421SOL    HW224726   1.060   1.877   7.366 -0.6575  2.0616  0.8492
 4422SOL     OW24727   0.405   0.067   8.955 -0.2824 -0.0923 -0.5046
 4422SOL    HW124728   0.394   4.700   8.933 -1.4661 -0.3470  1.2435
 4422SOL    HW224729   0.381   0.112   8.873 -2.7776 -0.3256  0.0946
 4423SOL     OW24730   1.196   0.696   3.174 -0.2330 -0.1288 -0.3920
 4423SOL    HW124731   1.120   0.698   3.231  0.4347  3.0085  0.3648
 4423SOL    HW224732   1.202   0.600   3.169  1.8725 -0.0059 -0.3248
 4424SOL     OW24733   4.491   0.101  10.397 -0.4232 -0.1024  0.1558
 4424SOL    HW124734   4.478   0.076  10.488  1.3542 -0.2323  0.3674
 4424SOL    HW224735   4.560   0.167  10.402  0.9362 -1.5833  1.0596
 4425SOL     OW24736   1.366   3.251  17.551  0.1648 -0.0362 -0.2711
 4425SOL    HW124737   1.290   3.208  17.591  0.0323  0.0691 -0.4119
 4425SOL    HW224738   1.333   3.339  17.534 -0.4650 -0.3859 -0.8476
 4426SOL     OW24739   0.819   3.396   7.850 -0.2332 -0.1186 -0.1256
 4426SOL    HW124740   0.807   3.371   7.941 -1.0452  0.7130 -0.0002
 4426SOL    HW224741   0.745   3.455   7.833  0.0364  0.3994  0.5064
 4427SOL     OW24742   4.063   1.984   5.345  0.0483 -0.0636  0.0358
 4427SOL    HW124743   3.987   1.928   5.366  0.0490 -0.3730 -0.7718
 4427SOL    HW224744   4.076   2.039   5.421  2.3019  0.4356 -0.7061
 4428SOL     OW24745   1.311   3.283   7.781 -0.0130  0.4349 -0.1390
 4428SOL    HW124746   1.367   3.206   7.767 -0.8041 -0.0608 -0.5810
 4428SOL    HW224747   1.283   3.258   7.869  0.8780  0.1860  0.0760
 4429SOL     OW24748   0.270   0.352   1.103 -0.1452 -0.0113  0.2701
 4429SOL    HW124749   0.289   0.309   1.187  0.4002 -0.0050  0.1523
 4429SOL    HW224750   0.184   0.392   1.118  0.8938  2.9143 -1.5947
 4430SOL     OW24751   2.908   3.447   6.111  0.3578 -0.6650 -0.1722
 4430SOL    HW124752   2.926   3.414   6.023 -0.5608 -1.7397  0.0369
 4430SOL    HW224753   2.930   3.540   6.110 -1.6946 -0.1579  0.8322
 4431SOL     OW24754   3.131   2.305   8.959  0.2886 -0.3863  0.4592
 4431SOL    HW124755   3.164   2.384   8.918 -1.9906 -0.1288 -0.9140
 4431SOL    HW224756   3.037   2.320   8.948  0.1560 -1.1377  0.5681
 4432SOL     OW24757   4.452   0.070   2.086  0.1957 -0.1032 -0.4776
 4432SOL    HW124758   4.524   0.073   2.149 -0.2415 -2.0330  0.1326
 4432SOL    HW224759   4.416   4.708   2.097 -1.5948  0.4247 -2.2023
 4433SOL     OW24760   2.501   1.487   4.045  0.0459  0.1370 -0.0742
 4433SOL    HW124761   2.417   1.521   4.016  0.3399 -1.0362 -2.2919
 4433SOL    HW224762   2.536   1.572   4.070  3.3096 -1.1495 -0.2350
 4434SOL     OW24763   2.692   2.988  16.385 -0.8417  0.2484  0.1251
 4434SOL    HW124764   2.677   3.054  16.453 -1.6553 -3.1403  3.2544
 4434SOL    HW224765   2.604   2.950  16.381 -0.7711  0.0443  0.4270
 4435SOL     OW24766   0.586   3.640   2.635 -0.0309  0.7051  0.1720
 4435SOL    HW124767   0.652   3.704   2.662 -0.4587 -0.0806  3.1319
 4435SOL    HW224768   0.554   3.616   2.722  2.6723  0.3389  1.0414
 4436SOL     OW24769   1.752   4.571   4.450  0.0183 -0.9659 -0.3466
 4436SOL    HW124770   1.709   4.486   4.444  1.0584 -1.6449  1.9444
 4436SOL    HW224771   1.739   4.606   4.537  0.3112 -0.4380 -0.5165
 4437SOL     OW24772   1.489   0.683  16.617  0.0696 -0.0173 -0.0963
 4437SOL    HW124773   1.483   0.778  16.608  2.1532  0.4275  2.9303
 4437SOL    HW224774   1.405   0.649  16.646  1.0886 -1.4280  1.2542
 4438SOL     OW24775   1.518   1.845   7.144 -0.4733 -0.2478 -0.0581
 4438SOL    HW124776   1.510   1.924   7.090  1.7049  0.8903  1.3042
 4438SOL    HW224777   1.504   1.895   7.225  0.7027 -1.1705  0.7053
 4439SOL     OW24778   3.068   3.959  14.348  0.0940  0.5124  0.2585
 4439SOL    HW124779   3.152   3.951  14.394  1.3102 -0.2455 -2.0828
 4439SOL    HW224780   3.067   3.891  14.280 -0.6681 -0.8436  1.6489
 4440SOL     OW24781   3.337   3.545   6.160 -0.1128  0.0786  0.5773
 4440SOL    HW124782   3.388   3.555   6.080 -1.5247  1.7238 -0.1136
 4440SOL    HW224783   3.324   3.450   6.162 -0.2243  0.0902  0.3698
 4441SOL     OW24784   1.920   2.783   9.087 -0.6253  0.7800  0.8337
 4441SOL    HW124785   1.887   2.761   9.175  0.4671  1.5768  1.4516
 4441SOL    HW224786   1.889   2.873   9.079  2.5184  1.9821  1.7524
 4442SOL     OW24787   2.107   0.315  13.844  0.5967  0.5847 -0.3519
 4442SOL    HW124788   2.063   0.393  13.878  1.0581  0.9581 -0.6120
 4442SOL    HW224789   2.196   0.346  13.859  0.7173  0.2547 -0.3746
 4443SOL     OW24790   1.932   2.083   3.891  0.3624 -0.1777  0.1548
 4443SOL    HW124791   2.009   2.139   3.891  1.4015 -1.6042 -0.3289
 4443SOL    HW224792   1.875   2.128   3.829 -0.4975  0.2928  1.2725
 4444SOL     OW24793   3.326   3.800   6.367 -0.7540  0.3461 -0.0454
 4444SOL    HW124794   3.270   3.802   6.289 -1.3851 -2.1726  0.3466
 4444SOL    HW224795   3.351   3.709   6.375 -0.4937  0.2135 -2.1997
 4445SOL     OW24796   0.175   0.697   8.636  0.0737 -0.0217  0.1362
 4445SOL    HW124797   0.213   0.784   8.642 -2.0349  0.9316 -0.3726
 4445SOL    HW224798   0.125   0.701   8.717 -1.3750 -0.2200 -0.7543
 4446SOL     OW24799   1.801   2.267   0.511 -0.7383  0.0781 -0.0689
 4446SOL    HW124800   1.730   2.245   0.451 -2.3308 -0.8487  2.1148
 4446SOL    HW224801   1.873   2.230   0.462  0.1812  1.0558  0.5378
 4447SOL     OW24802   2.762   3.137   0.780 -0.3751  0.0176  0.6956
 4447SOL    HW124803   2.830   3.107   0.839 -0.5757 -1.9484 -0.0594
 4447SOL    HW224804   2.761   3.063   0.720  2.4116  0.1242  0.5337
 4448SOL     OW24805   2.486   2.753   2.528  0.1856  0.1888  0.5544
 4448SOL    HW124806   2.434   2.782   2.604 -1.3658 -0.8452 -0.1220
 4448SOL    HW224807   2.551   2.822   2.513  0.3402 -0.2726 -0.8682
 4449SOL     OW24808   3.009   1.787   6.030  0.0742 -0.4105  0.3476
 4449SOL    HW124809   2.977   1.877   6.033  3.9181  0.9868  0.3989
 4449SOL    HW224810   2.997   1.753   6.118 -0.6985 -0.9300  0.0343
 4450SOL     OW24811   2.659   0.774  16.078 -0.7021  0.5570  0.2574
 4450SOL    HW124812   2.737   0.774  16.023 -1.2808  1.1939 -0.5782
 4450SOL    HW224813   2.650   0.679  16.085  1.7776  0.4673  2.2941
 4451SOL     OW24814   2.359   1.233  16.907 -0.1811  0.9215  0.1212
 4451SOL    HW124815   2.403   1.301  16.856 -1.6106  1.8251  0.0862
 4451SOL    HW224816   2.322   1.285  16.979  1.7041  0.7950  1.1915
 4452SOL     OW24817   4.665   0.551   6.986  0.1398  0.0393 -0.7309
 4452SOL    HW124818   4.665   0.642   6.956  0.4314  0.1177 -0.4975
 4452SOL    HW224819   4.651   0.522   6.896  0.4659 -0.6214 -0.5651
 4453SOL     OW24820   3.388   2.939   6.496 -0.4428 -0.3479 -0.0343
 4453SOL    HW124821   3.455   2.873   6.478 -0.2956  0.5895 -2.9063
 4453SOL    HW224822   3.420   2.984   6.573  1.3182  0.9755 -1.5371
 4454SOL     OW24823   0.110   1.390   5.173  0.4858  0.6001  0.0551
 4454SOL    HW124824   0.193   1.356   5.139 -0.9876 -1.9328 -1.0201
 4454SOL    HW224825   0.101   1.347   5.258  2.9016 -1.6309 -0.7964
 4455SOL     OW24826   0.696   4.141   5.002 -0.4834 -0.0725  0.2664
 4455SOL    HW124827   0.605   4.120   4.982 -0.8221  0.4085  1.2963
 4455SOL    HW224828   0.730   4.191   4.929 -0.4439 -1.8291 -0.9286
 4456SOL     OW24829   2.781   3.226  15.925 -0.2959  0.1105  0.5683
 4456SOL    HW124830   2.780   3.285  16.001  1.4734 -0.4424  1.0107
 4456SOL    HW224831   2.713   3.164  15.950 -0.8957  0.2075 -0.8483
 4457SOL     OW24832   0.372   0.178   3.740 -0.1876 -0.5785 -0.4265
 4457SOL    HW124833   0.377   0.101   3.684 -0.2517 -0.7075 -0.2536
 4457SOL    HW224834   0.423   0.147   3.815  2.2020 -3.0104 -3.0751
 4458SOL     OW24835   0.066   0.838   5.322 -0.5658  0.3373  0.1169
 4458SOL    HW124836   0.008   0.783   5.375  0.3010 -1.9507 -1.3107
 4458SOL    HW224837   0.138   0.779   5.298 -1.0486  0.6909 -2.1281
 4459SOL     OW24838   2.268   2.431   5.622  0.1528 -0.4998 -0.0386
 4459SOL    HW124839   2.283   2.336   5.627  0.2710 -0.4511  0.4905
 4459SOL    HW224840   2.275   2.451   5.528 -1.6766 -0.2301 -0.1049
 4460SOL     OW24841   3.969   1.285   4.253 -0.3885  0.4505  0.7140
 4460SOL    HW124842   3.920   1.212   4.291  2.2610 -2.3226 -1.2444
 4460SOL    HW224843   3.899   1.327   4.202 -1.7256 -1.0280  1.3181
 4461SOL     OW24844   1.151   3.640   7.834  0.3710  0.3545  0.0791
 4461SOL    HW124845   1.153   3.583   7.911 -0.9988  0.9602  0.5608
 4461SOL    HW224846   1.220   3.704   7.850 -0.1684  0.3225  2.5567
 4462SOL     OW24847   3.244   4.665  10.866  0.2938  0.2865  0.3851
 4462SOL    HW124848   3.289   4.601  10.810  0.5019 -1.3629  2.4122
 4462SOL    HW224849   3.312   0.006  10.869  0.2049  0.3147  1.8306
 4463SOL     OW24850   4.307   1.029   4.188 -0.3088  0.4062  0.7173
 4463SOL    HW124851   4.354   1.109   4.164  1.3925 -0.7289  0.2439
 4463SOL    HW224852   4.228   1.054   4.140 -1.3412 -2.4706  0.9047
 4464SOL     OW24853   2.813   3.982   5.619  0.0879  0.4952 -0.3220
 4464SOL    HW124854   2.754   3.907   5.618  1.8887 -0.9188 -0.1634
 4464SOL    HW224855   2.787   4.022   5.702 -1.5154  1.0786 -1.0964
 4465SOL     OW24856   3.303   3.756   9.362 -0.4495 -0.3390  0.2056
 4465SOL    HW124857   3.286   3.830   9.305  1.0284  2.1452  2.9988
 4465SOL    HW224858   3.238   3.693   9.330  2.7770 -3.6434  0.0766
 4466SOL     OW24859   2.428   3.936  13.035  0.6248  0.3116  0.2854
 4466SOL    HW124860   2.409   3.942  13.129  1.6200 -1.2351  0.5784
 4466SOL    HW224861   2.521   3.961  13.033  0.7857 -0.3074  0.2753
 4467SOL     OW24862   4.361   1.098   1.916  0.5234  0.5101  0.0263
 4467SOL    HW124863   4.398   1.186   1.919 -0.7962  1.0963 -0.8152
 4467SOL    HW224864   4.378   1.081   1.824 -0.6759  1.6177 -0.4087
 4468SOL     OW24865   1.531   0.202   6.280 -0.2383  0.5310 -0.2829
 4468SOL    HW124866   1.627   0.198   6.288 -0.2316  1.7370  0.1826
 4468SOL    HW224867   1.507   0.179   6.370 -0.8833  0.0361 -0.5806
 4469SOL     OW24868   0.707   0.151   0.560 -0.2125  1.2227  0.2525
 4469SOL    HW124869   0.798   0.158   0.530 -0.5015  0.0648 -0.9012
 4469SOL    HW224870   0.671   0.088   0.498  0.0203  2.3433 -1.0050
 4470SOL     OW24871   1.005   2.778  12.833  0.0008 -0.3574 -0.3754
 4470SOL    HW124872   0.952   2.808  12.906  1.0950  1.7082 -0.4343
 4470SOL    HW224873   0.934   2.722  12.800 -0.8613  2.1549 -2.7401
 4471SOL     OW24874   3.808   0.525   5.237 -0.1321  0.3511  0.1485
 4471SOL    HW124875   3.731   0.571   5.270  0.1442  0.6213  0.4174
 4471SOL    HW224876   3.769   0.451   5.191 -0.0793  1.4176 -1.5913
 4472SOL     OW24877   3.321   3.426  13.011  0.0801 -0.1908 -0.3850
 4472SOL    HW124878   3.304   3.334  13.031 -0.2824 -0.3451 -1.4222
 4472SOL    HW224879   3.408   3.421  12.970 -0.5149 -2.2190 -1.4023
 4473SOL     OW24880   0.543   0.493  14.565 -0.0236 -0.0917  0.3340
 4473SOL    HW124881   0.559   0.551  14.640 -2.2528 -0.2475  0.9220
 4473SOL    HW224882   0.534   0.557  14.495 -1.3887  0.4897  1.0558
 4474SOL     OW24883   2.109   4.584   2.993 -0.2760 -0.4019 -0.2592
 4474SOL    HW124884   2.047   4.608   3.062 -1.1110 -1.2398 -0.7272
 4474SOL    HW224885   2.146   4.670   2.972 -1.6036  0.5866  1.4608
 4475SOL     OW24886   3.323   4.225  13.770 -0.5041  0.5380  0.1129
 4475SOL    HW124887   3.369   4.164  13.712 -0.9615  0.3702 -0.0743
 4475SOL    HW224888   3.365   4.199  13.852 -0.5790  2.6109  0.8150
 4476SOL     OW24889   1.191   3.245   3.419 -0.4816  0.4951  0.4425
 4476SOL    HW124890   1.135   3.310   3.377  2.8593  3.0215 -0.0422
 4476SOL    HW224891   1.249   3.221   3.347  1.0411  4.2088  0.4851
 4477SOL     OW24892   3.514   1.947   0.540  0.2796  0.0599  0.1197
 4477SOL    HW124893   3.439   2.005   0.546  0.2801  0.1640 -0.9886
 4477SOL    HW224894   3.474   1.862   0.561 -2.2483  1.3583  0.5451
 4478SOL     OW24895   4.115   4.036  14.488  0.2530 -0.0590  0.7239
 4478SOL    HW124896   4.174   4.005  14.557  1.7724  0.1337 -0.4963
 4478SOL    HW224897   4.075   4.115  14.524  0.9865  0.6293  0.0508
 4479SOL     OW24898   1.255   1.812   5.142 -0.2936 -0.5769  0.1739
 4479SOL    HW124899   1.262   1.897   5.185  2.3280 -0.9979  0.5936
 4479SOL    HW224900   1.294   1.754   5.208  0.9011 -2.4589 -2.1845
 4480SOL     OW24901   3.874   0.510   0.569  0.4372 -0.8427 -0.1652
 4480SOL    HW124902   3.957   0.559   0.565 -0.5599  0.7252 -1.6568
 4480SOL    HW224903   3.903   0.443   0.507 -0.2298  0.1111 -1.5232
 4481SOL     OW24904   3.116   1.334   7.005  0.6644  0.0324  0.4669
 4481SOL    HW124905   3.121   1.404   7.069  0.0141  1.6730 -1.2921
 4481SOL    HW224906   3.082   1.263   7.060 -1.6429  0.0781 -0.8790
 4482SOL     OW24907   0.375   0.628   3.719 -0.5480  0.5718 -0.2633
 4482SOL    HW124908   0.365   0.548   3.668  0.4572 -0.0655  0.5198
 4482SOL    HW224909   0.461   0.616   3.760 -0.9709 -1.1558  0.1312
 4483SOL     OW24910   2.674   0.361  11.269  0.0192  0.0856  0.3954
 4483SOL    HW124911   2.755   0.315  11.289  0.2137  0.1695 -0.1959
 4483SOL    HW224912   2.645   0.368  11.360  0.9112 -0.7329  0.7344
 4484SOL     OW24913   4.455   1.725  17.071  0.0373  0.3058 -0.2507
 4484SOL    HW124914   4.452   1.820  17.060 -2.0120  0.2359 -0.3513
 4484SOL    HW224915   4.397   1.693  17.002 -0.0790  0.8874 -0.4190
 4485SOL     OW24916   2.828   2.305   1.238 -0.0126 -0.1670 -0.1012
 4485SOL    HW124917   2.878   2.350   1.306  1.2797 -0.3576 -0.9212
 4485SOL    HW224918   2.772   2.377   1.207 -2.6906 -1.6348  1.3136
 4486SOL     OW24919   3.140   2.589   5.202 -0.5962 -0.5261  0.0834
 4486SOL    HW124920   3.172   2.533   5.273  0.9532 -0.3852 -0.5060
 4486SOL    HW224921   3.120   2.525   5.134  1.9307 -1.2172  0.0161
 4487SOL     OW24922   3.265   1.374  13.978  0.5423  0.0556 -0.6653
 4487SOL    HW124923   3.211   1.306  14.019 -1.6501  1.7426 -0.7742
 4487SOL    HW224924   3.210   1.389  13.901 -0.2052 -0.6611 -0.2808
 4488SOL     OW24925   2.571   0.383   3.900  0.3910  0.0116  0.5132
 4488SOL    HW124926   2.549   0.379   3.993  0.0568  0.1284  0.4404
 4488SOL    HW224927   2.631   0.457   3.897  1.3308 -0.8060 -0.5434
 4489SOL     OW24928   1.608   1.250   6.209 -0.4895  0.4732  0.2135
 4489SOL    HW124929   1.519   1.282   6.199 -1.1329 -1.4305 -0.2027
 4489SOL    HW224930   1.660   1.307   6.151 -0.5835  2.2471  1.8997
 4490SOL     OW24931   1.492   3.774   5.387 -0.0150 -0.4377 -0.3252
 4490SOL    HW124932   1.552   3.817   5.326 -0.4111  1.1409  0.3912
 4490SOL    HW224933   1.539   3.790   5.469  0.8329  1.8502 -1.2572
 4491SOL     OW24934   0.252   0.392  17.385 -0.2896 -0.0558 -0.2855
 4491SOL    HW124935   0.325   0.449  17.409 -1.0530  1.0149 -0.5173
 4491SOL    HW224936   0.233   0.431  17.300 -1.6769  0.8075  0.4170
 4492SOL     OW24937   2.697   0.456   0.644 -0.0810  0.3196  0.5271
 4492SOL    HW124938   2.607   0.487   0.649 -1.0865 -2.2961 -1.0240
 4492SOL    HW224939   2.745   0.520   0.696  0.2565 -0.2919  0.9651
 4493SOL     OW24940   3.998   2.303  11.943  0.1142  0.1254  0.0377
 4493SOL    HW124941   4.067   2.295  11.878  1.1555  1.0563  1.0250
 4493SOL    HW224942   3.966   2.393  11.936 -0.6212 -0.1460 -0.1199
 4494SOL     OW24943   1.138   3.738   4.141  0.0825  0.1870 -0.1372
 4494SOL    HW124944   1.119   3.649   4.111 -0.1505  0.6450 -1.3399
 4494SOL    HW224945   1.187   3.716   4.220 -0.6096 -0.8391  0.0038
 4495SOL     OW24946   4.623   1.554   4.127  0.0510 -0.5079  0.3464
 4495SOL    HW124947   4.716   1.539   4.143  0.2134  0.3283  0.1742
 4495SOL    HW224948   4.628   1.562   4.031  3.5983 -3.2064  0.2980
 4496SOL     OW24949   3.158   0.355  14.011 -0.0042  0.3805  0.0599
 4496SOL    HW124950   3.216   0.331  14.083  1.9319 -1.1687 -1.9990
 4496SOL    HW224951   3.102   0.412  14.063 -0.3053 -0.5522  0.7663
 4497SOL     OW24952   2.923   4.662   5.535  0.1862 -0.0537  0.7240
 4497SOL    HW124953   2.889   4.703   5.615  1.1863  1.5644  0.3359
 4497SOL    HW224954   2.860   4.697   5.472  0.3022 -0.7054  0.2540
 4498SOL     OW24955   2.185   3.168  14.749 -0.6907  0.8890 -0.2150
 4498SOL    HW124956   2.146   3.248  14.713  2.6810  1.2002 -3.0884
 4498SOL    HW224957   2.240   3.141  14.676  0.1418  0.9519  0.3887
 4499SOL     OW24958   4.386   3.620   7.004  0.2592  0.5096  0.6461
 4499SOL    HW124959   4.440   3.622   6.925 -0.6994  0.0163 -0.0171
 4499SOL    HW224960   4.445   3.611   7.079  1.0192 -2.1600 -0.2699
 4500SOL     OW24961   4.192   0.313  16.974 -0.5569 -0.0637  0.0985
 4500SOL    HW124962   4.101   0.299  17.000  0.1137 -4.5383  0.0944
 4500SOL    HW224963   4.203   0.248  16.905 -0.5787  1.2033 -1.0780
 4501SOL     OW24964   0.354   1.867   0.414  0.3695  0.1158  0.0879
 4501SOL    HW124965   0.389   1.956   0.412  2.3153 -0.6331  1.3552
 4501SOL    HW224966   0.266   1.899   0.436  0.3813 -0.8161  1.5345
 4502SOL     OW24967   2.599   3.566   6.599  0.4399 -0.9137  0.3557
 4502SOL    HW124968   2.689   3.550   6.572  0.2353 -0.0263 -0.8724
 4502SOL    HW224969   2.555   3.559   6.514  3.4667 -1.4689 -1.1433
 4503SOL     OW24970   1.285   1.230   7.103 -0.3656 -0.4264  0.2546
 4503SOL    HW124971   1.269   1.136   7.092 -1.1355 -0.1907 -0.5405
 4503SOL    HW224972   1.205   1.261   7.063 -0.8984 -0.3445  1.3742
 4504SOL     OW24973   4.055   2.805   4.813 -0.1928  0.6479 -0.1105
 4504SOL    HW124974   4.143   2.767   4.809 -1.1053 -1.3146 -1.5522
 4504SOL    HW224975   4.079   2.892   4.845  0.1031  0.7834 -0.6885
 4505SOL     OW24976   4.316   0.411   9.004 -0.1572  0.6872 -0.0472
 4505SOL    HW124977   4.304   0.324   8.966  0.9896  0.5908 -0.2077
 4505SOL    HW224978   4.232   0.447   8.977 -1.0739 -0.2741  1.5427
 4506SOL     OW24979   3.253   2.977  12.700  0.3430 -0.0078 -0.3801
 4506SOL    HW124980   3.276   3.037  12.629  0.7391 -0.8574 -0.9715
 4506SOL    HW224981   3.169   3.020  12.717  0.6384  0.6428 -0.5619
 4507SOL     OW24982   3.724   0.627   4.214 -0.0141  0.6084  0.7676
 4507SOL    HW124983   3.725   0.718   4.186  1.1668 -0.0903 -1.4718
 4507SOL    HW224984   3.651   0.620   4.276 -1.6653  1.9404 -1.0167
 4508SOL     OW24985   0.104   4.675   4.237  0.2140 -0.2336  0.1750
 4508SOL    HW124986   0.121   4.715   4.323 -1.9181  0.5844  0.2186
 4508SOL    HW224987   0.169   4.718   4.181 -0.7344  2.6444  1.2560
 4509SOL     OW24988   4.347   3.878   4.976 -0.5651  0.4315  0.4203
 4509SOL    HW124989   4.421   3.818   4.984 -0.8963  0.0559  0.7007
 4509SOL    HW224990   4.385   3.933   4.907  0.0483  0.7149  0.9783
 4510SOL     OW24991   0.474   4.616   0.559 -0.7976 -0.3900 -0.0320
 4510SOL    HW124992   0.545   4.606   0.495  0.1992  0.4601  0.9259
 4510SOL    HW224993   0.437   4.699   0.529 -0.3499 -0.4915 -0.8551
 4511SOL     OW24994   2.687   1.136   4.842 -0.4242 -0.6643  0.1724
 4511SOL    HW124995   2.707   1.109   4.932 -1.2645  0.8279  0.8073
 4511SOL    HW224996   2.615   1.194   4.865 -0.1480 -0.5813  0.8354
 4512SOL     OW24997   1.337   0.165  11.358  0.1133 -0.2818 -0.5725
 4512SOL    HW124998   1.341   0.131  11.268 -2.8959  1.0800 -1.2590
 4512SOL    HW224999   1.428   0.150  11.379 -0.4592 -1.1917  1.1933
 4513SOL     OW25000   0.925   0.488   4.442  0.2246 -0.2633  0.3859
 4513SOL    HW125001   0.988   0.463   4.374  0.3954 -1.1118  0.8537
 4513SOL    HW225002   0.951   0.580   4.451 -1.6363  0.3870 -1.0251
 4514SOL     OW25003   2.076   0.025   7.106 -0.1937  0.0110  0.3957
 4514SOL    HW125004   2.015   4.702   7.161  1.3550 -0.7426  1.4336
 4514SOL    HW225005   2.047   0.112   7.134 -0.2618 -0.0643  0.5621
 4515SOL     OW25006   2.323   4.290   1.075 -0.1404  0.3241  0.1713
 4515SOL    HW125007   2.369   4.227   1.019  1.6744  1.8532 -0.0529
 4515SOL    HW225008   2.241   4.314   1.031 -0.3403 -0.6304  0.0278
 4516SOL     OW25009   0.502   2.420  11.251 -0.0107  0.2523  0.2429
 4516SOL    HW125010   0.544   2.440  11.167  0.1556  1.1968  0.5586
 4516SOL    HW225011   0.540   2.493  11.300  3.3075 -0.6647 -1.0006
 4517SOL     OW25012   0.329   1.194   4.692  0.2586 -0.2032  0.6729
 4517SOL    HW125013   0.385   1.253   4.640 -0.2136 -1.3931 -1.1797
 4517SOL    HW225014   0.260   1.163   4.634  0.9870  1.0565 -0.8654
 4518SOL     OW25015   2.428   4.485   4.142  0.7067  0.4427  0.5215
 4518SOL    HW125016   2.375   4.559   4.171  2.5164  1.0961  2.1688
 4518SOL    HW225017   2.367   4.460   4.073  0.5984  0.2010  0.7023
 4519SOL     OW25018   2.247   1.239   6.286 -0.0042  0.2694  0.2133
 4519SOL    HW125019   2.321   1.299   6.279 -0.2035  0.2131 -2.1289
 4519SOL    HW225020   2.252   1.213   6.379  1.7053  1.2653  0.4034
 4520SOL     OW25021   3.674   3.506  10.189 -0.0690  0.3412  0.0072
 4520SOL    HW125022   3.690   3.480  10.279  0.4828 -2.8201 -0.9931
 4520SOL    HW225023   3.593   3.557  10.197 -0.1607  0.6035 -2.3267
 4521SOL     OW25024   2.972   1.477  10.786 -0.1191 -0.2322  0.1332
 4521SOL    HW125025   2.992   1.547  10.723 -0.0204  0.2570  0.7127
 4521SOL    HW225026   2.900   1.442  10.733 -0.5620  0.8273  0.0255
 4522SOL     OW25027   0.770   2.307   9.063 -0.3824 -0.1176 -0.3694
 4522SOL    HW125028   0.744   2.398   9.045 -0.3040  0.0573  0.3911
 4522SOL    HW225029   0.681   2.273   9.073 -0.7002  0.6575 -0.5778
 4523SOL     OW25030   0.485   0.227   9.167  0.5884 -0.0242 -0.6969
 4523SOL    HW125031   0.464   0.177   9.087 -0.4532  0.4789 -0.7442
 4523SOL    HW225032   0.575   0.253   9.149  0.8332  0.2460  0.9588
 4524SOL     OW25033   0.164   3.816  16.387 -0.3286 -0.5232  0.8988
 4524SOL    HW125034   0.256   3.827  16.363 -0.8663  1.8340 -0.1085
 4524SOL    HW225035   0.155   3.742  16.446  1.3148  1.7705  4.0378
 4525SOL     OW25036   2.526   1.097   5.331 -0.2982 -0.2615  0.3999
 4525SOL    HW125037   2.456   1.039   5.362  1.0383 -2.5842 -0.9285
 4525SOL    HW225038   2.600   1.073   5.387  0.7084  1.3037 -0.2770
 4526SOL     OW25039   1.185   4.230   5.049  0.3860  0.1690 -0.1987
 4526SOL    HW125040   1.181   4.232   5.144 -2.2664  0.3500 -0.3183
 4526SOL    HW225041   1.166   4.324   5.042  0.2676 -0.0627 -3.1482
 4527SOL     OW25042   3.241   2.301   6.968 -0.3318 -0.2768  0.0614
 4527SOL    HW125043   3.195   2.249   7.033 -2.7067  2.2051  0.3618
 4527SOL    HW225044   3.278   2.374   7.019  1.6407 -1.1624 -0.0802
 4528SOL     OW25045   0.701   1.912   2.495  0.3704  0.1602 -0.0092
 4528SOL    HW125046   0.663   1.828   2.521  1.1577  0.1833  1.2323
 4528SOL    HW225047   0.794   1.889   2.501  0.3938  0.5157  0.9793
 4529SOL     OW25048   3.264   2.453   3.998  0.4552  0.4667  0.5226
 4529SOL    HW125049   3.187   2.482   4.048 -0.3446  1.6289 -1.3709
 4529SOL    HW225050   3.259   2.363   4.029  1.2461  1.0552  2.3811
 4530SOL     OW25051   0.525   0.297   7.024  0.1498 -0.1874 -0.3845
 4530SOL    HW125052   0.473   0.330   7.097  0.2285  1.2441 -0.9624
 4530SOL    HW225053   0.554   0.208   7.043 -0.6931 -0.2750  0.4809
 4531SOL     OW25054   2.488   4.170   2.748 -0.7240 -0.0527  0.0742
 4531SOL    HW125055   2.523   4.245   2.797  3.0388 -1.2355 -0.8353
 4531SOL    HW225056   2.568   4.139   2.706  0.0513 -1.3733  2.5082
 4532SOL     OW25057   1.149   0.511   6.868 -0.5441 -0.1664 -0.1663
 4532SOL    HW125058   1.207   0.584   6.844 -0.1730  0.0958  1.5519
 4532SOL    HW225059   1.144   0.466   6.784  0.2699  2.5389 -1.6642
 4533SOL     OW25060   2.590   2.077  11.344  0.2819  0.5495  0.3309
 4533SOL    HW125061   2.623   2.162  11.313 -1.0626  0.4660 -1.3131
 4533SOL    HW225062   2.605   2.094  11.437 -1.6758  2.1138  0.3629
 4534SOL     OW25063   3.909   4.596   1.870  0.5051  0.6989 -0.5398
 4534SOL    HW125064   3.882   4.687   1.860 -1.3392  0.2355  0.2155
 4534SOL    HW225065   3.985   4.601   1.928  0.6719  1.5810 -0.8402
 4535SOL     OW25066   4.518   4.683   2.320  0.1223 -0.0284  0.5480
 4535SOL    HW125067   4.440   4.724   2.357 -0.0853  0.0977 -0.0405
 4535SOL    HW225068   4.500   4.591   2.341  0.2421 -0.1055  0.3077
 4536SOL     OW25069   0.270   1.752   8.294  0.6469  0.1386 -0.3455
 4536SOL    HW125070   0.226   1.669   8.311  3.1948 -1.3202 -0.8863
 4536SOL    HW225071   0.221   1.808   8.353  2.2716  2.9722 -1.6844
 4537SOL     OW25072   4.016   4.683   9.650  0.8083 -0.3211  0.2201
 4537SOL    HW125073   4.024   0.009   9.729  1.9246  0.9898 -0.7545
 4537SOL    HW225074   4.067   0.007   9.587  2.7131 -0.0023  1.9980
 4538SOL     OW25075   1.210   2.332   8.101  0.1819  0.0111 -0.6193
 4538SOL    HW125076   1.292   2.375   8.078 -0.8459 -0.0033 -4.2238
 4538SOL    HW225077   1.231   2.241   8.084  0.6678 -0.0244  0.1509
 4539SOL     OW25078   1.960   2.819   2.402  0.2601 -0.0586  0.1348
 4539SOL    HW125079   1.903   2.834   2.327 -2.3762 -1.4818  1.8298
 4539SOL    HW225080   1.986   2.909   2.419 -1.2778  0.5587 -0.7925
 4540SOL     OW25081   4.556   2.235   7.377  0.2189 -0.4549  0.2959
 4540SOL    HW125082   4.520   2.148   7.363  1.3224 -0.6406 -1.4123
 4540SOL    HW225083   4.574   2.243   7.471  1.7452 -0.1604 -0.0231
 4541SOL     OW25084   3.359   1.923   7.582  0.1696  0.0109 -0.2906
 4541SOL    HW125085   3.333   1.948   7.670  2.8700  0.0671  0.5019
 4541SOL    HW225086   3.302   1.847   7.570  0.8861 -0.5215 -0.3911
 4542SOL     OW25087   0.266   3.623   1.423 -0.5776 -0.2101 -0.0019
 4542SOL    HW125088   0.248   3.545   1.370  2.4401  0.8015 -2.4845
 4542SOL    HW225089   0.258   3.591   1.513 -1.5644 -4.1019 -1.4969
 4543SOL     OW25090   2.054   1.039   7.066  0.2083  0.6305  0.7331
 4543SOL    HW125091   2.109   1.112   7.094  1.5959 -0.5805  1.1663
 4543SOL    HW225092   1.975   1.068   7.113  0.1019  1.6867 -0.1025
 4544SOL     OW25093   1.207   3.842   5.101  0.1529  0.0824  0.5926
 4544SOL    HW125094   1.174   3.773   5.159  0.0718 -0.9661 -0.7164
 4544SOL    HW225095   1.258   3.893   5.164  2.1603  3.1584 -3.5084
 4545SOL     OW25096   1.593   2.811  11.655  0.0313 -0.3228  0.2758
 4545SOL    HW125097   1.535   2.754  11.706 -0.9348  0.8993  0.5334
 4545SOL    HW225098   1.680   2.790  11.687 -0.5314 -1.3094  1.1549
 4546SOL     OW25099   2.258   3.138   0.915  0.4760 -0.0295  0.2807
 4546SOL    HW125100   2.346   3.125   0.881  0.0560 -0.6081 -0.5917
 4546SOL    HW225101   2.227   3.051   0.890  1.9099 -1.0278  2.0599
 4547SOL     OW25102   4.185   2.260   9.768 -0.0163  0.1026 -0.0986
 4547SOL    HW125103   4.192   2.355   9.769 -0.5104  0.1433 -0.4837
 4547SOL    HW225104   4.120   2.254   9.699  1.8010 -1.5413 -1.6620
 4548SOL     OW25105   1.325   3.002   7.942  0.7528  0.3041  0.2621
 4548SOL    HW125106   1.303   2.943   7.870  2.3869 -1.1741  0.9669
 4548SOL    HW225107   1.377   2.936   7.987  2.5198  1.2121 -0.4306
 4549SOL     OW25108   1.891   0.409  16.588  0.4383  0.1355  0.0519
 4549SOL    HW125109   1.952   0.341  16.560 -0.0938 -0.3353  0.0392
 4549SOL    HW225110   1.950   0.458  16.646  0.5325 -1.4506  1.2701
 4550SOL     OW25111   4.119   0.689  17.590  0.2456 -0.1128 -0.1380
 4550SOL    HW125112   4.053   0.738  17.540  0.1509  0.1688  0.2622
 4550SOL    HW225113   4.158   0.641  17.517  1.0047  1.8888 -1.0479
 4551SOL     OW25114   3.919   1.997   6.941 -0.2966  0.7879 -0.5030
 4551SOL    HW125115   3.889   1.962   6.858  0.4307  1.7023 -1.1489
 4551SOL    HW225116   3.912   2.089   6.915 -1.1859  0.6089 -0.8907
 4552SOL     OW25117   0.679   2.376   2.577  0.0235  0.3872 -0.4230
 4552SOL    HW125118   0.597   2.392   2.624 -0.0755  0.9130 -0.7730
 4552SOL    HW225119   0.671   2.447   2.513  0.5622  1.8745  1.1486
 4553SOL     OW25120   3.911   0.902   3.901 -0.0781  0.2845  0.3614
 4553SOL    HW125121   3.967   0.864   3.834  1.2355 -1.4199  2.4411
 4553SOL    HW225122   3.980   0.948   3.949  0.3566  0.6182 -0.5755
 4554SOL     OW25123   4.075   4.460   8.092 -0.2998  0.2486  0.1394
 4554SOL    HW125124   4.090   4.376   8.136 -0.3473 -0.1577 -0.6244
 4554SOL    HW225125   4.006   4.494   8.149 -0.4957  0.6184 -0.3151
 4555SOL     OW25126   1.447   3.721   0.489 -0.2533  0.3723  0.1955
 4555SOL    HW125127   1.357   3.723   0.456  0.0972  2.1516 -0.6289
 4555SOL    HW225128   1.492   3.735   0.406  0.5076  2.0418  0.8868
 4556SOL     OW25129   1.731   3.799   9.217 -0.2419  0.1910 -0.1006
 4556SOL    HW125130   1.759   3.842   9.297 -0.5637 -0.7056  0.4895
 4556SOL    HW225131   1.810   3.750   9.193  0.4321  1.8588 -1.2751
 4557SOL     OW25132   4.525   1.764   3.008 -0.2063  0.0397 -0.3357
 4557SOL    HW125133   4.431   1.747   3.004 -0.7719  2.7656  1.2349
 4557SOL    HW225134   4.554   1.722   2.927  2.0438  1.7068 -0.3908
 4558SOL     OW25135   1.577   1.426   8.054  0.0246 -0.2248 -0.4350
 4558SOL    HW125136   1.574   1.330   8.053  1.2472 -0.2743  2.7957
 4558SOL    HW225137   1.669   1.446   8.036 -0.0057 -1.3756 -1.9127
 4559SOL     OW25138   3.681   1.422  13.690  0.0776 -0.2544  0.0454
 4559SOL    HW125139   3.693   1.500  13.636 -1.1488  2.0065  3.0332
 4559SOL    HW225140   3.632   1.375  13.623  0.1578 -0.8714  0.4209
 4560SOL     OW25141   2.461   4.726   7.495 -0.3268 -0.0670 -0.0957
 4560SOL    HW125142   2.469   4.712   7.401  1.2291 -0.8420  0.1480
 4560SOL    HW225143   2.381   0.052   7.500 -0.6643 -0.6163  0.3094
 4561SOL     OW25144   3.994   2.240  10.034  0.2494  0.0787  0.3386
 4561SOL    HW125145   3.946   2.264  10.114 -0.3729 -1.3876  0.3959
 4561SOL    HW225146   4.022   2.313   9.978  0.7981  0.4675  1.1118
 4562SOL     OW25147   2.981   3.831  14.108  0.2869 -0.0155 -0.7502
 4562SOL    HW125148   3.011   3.747  14.142 -3.3021 -1.3276 -0.8564
 4562SOL    HW225149   3.054   3.854  14.051 -0.6398 -1.6099 -2.5630
 4563SOL     OW25150   0.200   3.155  16.920  0.3907 -0.2413 -0.4145
 4563SOL    HW125151   0.247   3.142  16.837 -0.0377 -1.0008 -0.5392
 4563SOL    HW225152   0.192   3.065  16.950  0.7771 -0.8518 -2.1275
 4564SOL     OW25153   3.369   2.467  15.511  0.6593 -0.0560  0.0368
 4564SOL    HW125154   3.325   2.383  15.500  2.0810 -0.9459  1.0718
 4564SOL    HW225155   3.444   2.453  15.569 -0.4700  0.0964  1.5345
 4565SOL     OW25156   1.169   4.692   7.066 -0.1981 -0.0233 -0.1089
 4565SOL    HW125157   1.206   4.603   7.071 -1.1044 -0.4341 -0.7394
 4565SOL    HW225158   1.200   4.719   6.979  0.6885 -1.5409 -0.2652
 4566SOL     OW25159   4.294   2.315  12.387 -0.1234  0.2603 -0.2484
 4566SOL    HW125160   4.208   2.330  12.348 -0.7054 -1.2302  0.4784
 4566SOL    HW225161   4.272   2.278  12.473 -0.7081  0.0763 -0.4776
 4567SOL     OW25162   1.255   1.462   7.541  0.2483 -0.0090  0.8559
 4567SOL    HW125163   1.220   1.475   7.629 -2.8444 -1.7550 -0.1057
 4567SOL    HW225164   1.266   1.551   7.509 -1.2198 -0.7925 -1.7927
 4568SOL     OW25165   0.039   0.386  12.696 -0.0495  0.2123  0.0552
 4568SOL    HW125166   0.105   0.318  12.693 -1.0019 -0.7363  0.9643
 4568SOL    HW225167   0.063   0.440  12.771 -2.2425 -0.5982  1.3275
 4569SOL     OW25168   0.782   0.341  13.978  0.1282 -0.2509 -0.0453
 4569SOL    HW125169   0.722   0.395  13.927  1.7185  1.5346 -0.0392
 4569SOL    HW225170   0.816   0.276  13.918  0.0856  0.3588 -0.7342
 4570SOL     OW25171   1.156   2.582   6.869  0.3471 -1.0523  0.3977
 4570SOL    HW125172   1.103   2.662   6.864 -0.6268 -1.7196  0.2109
 4570SOL    HW225173   1.102   2.503   6.869 -2.0711  0.5834  2.0503
 4571SOL     OW25174   1.126   1.647  14.908  0.1329  0.5023  0.4170
 4571SOL    HW125175   1.066   1.697  14.963  1.6901  1.2098  1.4873
 4571SOL    HW225176   1.193   1.709  14.879  0.5678 -0.3817 -0.4446
 4572SOL     OW25177   4.530   0.635  15.906  0.3814 -0.2325  0.2403
 4572SOL    HW125178   4.516   0.549  15.867  0.5410  0.4148 -1.2527
 4572SOL    HW225179   4.460   0.639  15.972  0.6314 -3.1335  0.6500
 4573SOL     OW25180   3.371   1.941   4.107  0.1613 -0.2673 -0.1035
 4573SOL    HW125181   3.344   1.868   4.051  2.2580 -0.6638 -0.5875
 4573SOL    HW225182   3.465   1.927   4.108  0.4409  1.5215 -1.4368
 4574SOL     OW25183   3.398   0.636   2.258  0.2437 -0.7196 -0.3556
 4574SOL    HW125184   3.407   0.729   2.242 -1.2538 -0.3927  0.6505
 4574SOL    HW225185   3.483   0.597   2.239  1.0746  0.5926  0.7445
 4575SOL     OW25186   1.629   2.731  10.393 -0.0530 -0.0274 -0.2107
 4575SOL    HW125187   1.626   2.636  10.402 -2.1103  0.3053  2.6358
 4575SOL    HW225188   1.651   2.755  10.483 -1.6262 -2.4751  0.8072
 4576SOL     OW25189   2.368   0.585   1.364 -0.4913  0.2907  0.0026
 4576SOL    HW125190   2.382   0.643   1.290  0.3821 -1.6281 -1.3121
 4576SOL    HW225191   2.382   0.499   1.325  0.8761 -0.0787  1.2924
 4577SOL     OW25192   1.180   2.548  10.294  0.5640 -0.4098  0.1534
 4577SOL    HW125193   1.261   2.577  10.252  0.4647 -0.1024  0.1749
 4577SOL    HW225194   1.131   2.519  10.217 -0.2257 -3.6007  1.8544
 4578SOL     OW25195   4.356   2.604  13.519 -0.3783 -0.3476  0.1460
 4578SOL    HW125196   4.386   2.636  13.605  0.4303 -2.8358  0.7782
 4578SOL    HW225197   4.273   2.562  13.543 -0.5894 -1.6217 -2.8374
 4579SOL     OW25198   2.885   0.027  15.647  0.8263  0.1770 -0.2994
 4579SOL    HW125199   2.837   4.692  15.702  0.3214  0.7403 -0.0969
 4579SOL    HW225200   2.827   0.103  15.654  1.9520  1.0222 -0.0585
 4580SOL     OW25201   3.031   4.079   6.744 -0.1978 -0.2311 -0.2212
 4580SOL    HW125202   2.953   4.067   6.691 -1.4040  0.8595  1.3264
 4580SOL    HW225203   3.093   4.055   6.675 -0.7773 -0.4467 -0.6668
 4581SOL     OW25204   2.089   0.560   3.065  0.4916  0.4894 -0.2560
 4581SOL    HW125205   2.165   0.617   3.060  2.1531 -1.7702 -0.9949
 4581SOL    HW225206   2.117   0.493   3.128  0.4360  0.9194  0.2176
 4582SOL     OW25207   1.433   2.743   9.385  0.1736 -0.2980 -0.1414
 4582SOL    HW125208   1.451   2.810   9.320 -0.0651  0.0839  0.1869
 4582SOL    HW225209   1.339   2.738   9.371  0.3136  1.1483 -1.5215
 4583SOL     OW25210   2.775   4.221   5.161  0.0070  0.5564 -0.3141
 4583SOL    HW125211   2.681   4.213   5.172  0.0027  0.8613 -0.1371
 4583SOL    HW225212   2.800   4.211   5.253 -1.3351  0.7908  0.0735
 4584SOL     OW25213   0.900   0.719   3.322 -0.0900  0.5684  0.1880
 4584SOL    HW125214   0.893   0.789   3.256  0.9951  1.2273  0.7781
 4584SOL    HW225215   0.808   0.692   3.327  0.0598 -0.5024 -2.6343
 4585SOL     OW25216   3.335   4.197   8.335  0.2839  0.6417 -0.0635
 4585SOL    HW125217   3.392   4.122   8.319  0.3246  0.1678  2.2873
 4585SOL    HW225218   3.395   4.252   8.385  1.5707 -0.1823 -0.6926
 4586SOL     OW25219   0.271   4.649   7.360 -0.0597  0.6052 -0.0712
 4586SOL    HW125220   0.211   4.601   7.417  0.8475 -2.2644 -1.5377
 4586SOL    HW225221   0.305   4.577   7.307  1.9133  0.6792  1.1000
 4587SOL     OW25222   3.277   3.911   8.607 -0.1676  0.1203  0.0544
 4587SOL    HW125223   3.285   3.824   8.569  1.0944  0.3542 -0.1914
 4587SOL    HW225224   3.278   3.964   8.527 -0.3614  2.1813  1.4206
 4588SOL     OW25225   4.291   0.789   6.099  0.9424 -0.8445  0.6016
 4588SOL    HW125226   4.334   0.852   6.156 -0.0997  0.5979 -0.2097
 4588SOL    HW225227   4.350   0.788   6.024  0.4264  1.5773  0.1666
 4589SOL     OW25228   1.263   1.879   0.573 -0.8311  0.2947 -0.1292
 4589SOL    HW125229   1.347   1.925   0.584  0.8571 -2.4985 -1.4271
 4589SOL    HW225230   1.243   1.905   0.483 -0.2100 -0.0221 -0.3599
 4590SOL     OW25231   1.993   2.976  16.065 -0.5197 -0.2381 -0.2080
 4590SOL    HW125232   1.899   2.979  16.049 -0.3457  0.7310 -1.0742
 4590SOL    HW225233   2.003   2.908  16.131  2.7695  0.8034  0.3934
 4591SOL     OW25234   4.488   2.940   6.055 -0.0182  0.3865 -0.3088
 4591SOL    HW125235   4.486   2.971   5.964 -1.0383  0.1188 -0.3710
 4591SOL    HW225236   4.488   3.020   6.109  0.2263 -0.7291  1.3306
 4592SOL     OW25237   0.152   1.607   2.810  0.0177 -0.7289 -0.8105
 4592SOL    HW125238   0.193   1.579   2.728  0.6784  0.5780 -0.9249
 4592SOL    HW225239   0.058   1.596   2.793  0.0901  0.7176 -2.1571
 4593SOL     OW25240   0.837   0.958  12.653 -0.5908  0.4217  0.6257
 4593SOL    HW125241   0.791   0.971  12.736  1.7740 -1.5092  2.2499
 4593SOL    HW225242   0.818   1.047  12.624 -1.7704 -0.1182 -0.2574
 4594SOL     OW25243   2.449   2.056   3.371  0.6753  0.1744 -0.0193
 4594SOL    HW125244   2.457   2.042   3.277 -1.5143  1.2180 -0.3506
 4594SOL    HW225245   2.497   1.982   3.407 -0.0709 -0.1618  0.2645
 4595SOL     OW25246   3.794   2.598   8.867  0.1830  0.5759 -0.2880
 4595SOL    HW125247   3.821   2.555   8.786 -0.1516  0.4009 -0.3046
 4595SOL    HW225248   3.701   2.619   8.863  0.7610  2.6170 -2.6801
 4596SOL     OW25249   2.608   2.701  13.871  0.4741  0.5686 -0.5582
 4596SOL    HW125250   2.659   2.730  13.947 -0.5670  2.9598 -0.7734
 4596SOL    HW225251   2.538   2.653  13.916  2.6379 -1.6180  0.5062
 4597SOL     OW25252   1.981   3.148   8.037 -0.6852  0.1625  0.4573
 4597SOL    HW125253   2.072   3.133   8.062 -0.8128  0.6756  1.2221
 4597SOL    HW225254   1.978   3.244   8.033 -2.0827  0.0946 -0.0968
 4598SOL     OW25255   0.118   0.540   5.142  0.5928  0.3465  0.0857
 4598SOL    HW125256   0.024   0.556   5.133  0.2376 -1.1309  1.1919
 4598SOL    HW225257   0.163   0.619   5.113  0.9782 -0.0718 -0.4546
 4599SOL     OW25258   3.276   2.802  13.029 -0.0541  0.3815 -0.0516
 4599SOL    HW125259   3.296   2.857  13.105  0.1284 -0.6626  0.6629
 4599SOL    HW225260   3.197   2.759  13.061 -0.1351  0.5840  0.0220
 4600SOL     OW25261   2.164   3.556   3.872  0.1837 -0.3532  0.5598
 4600SOL    HW125262   2.213   3.635   3.851  1.0601 -0.5933  1.6780
 4600SOL    HW225263   2.083   3.594   3.903 -1.6280 -4.0230  0.3727
 4601SOL     OW25264   1.876   3.588   7.876  0.0105  0.1358  0.7451
 4601SOL    HW125265   1.971   3.596   7.880 -0.0890  0.8847  1.4783
 4601SOL    HW225266   1.841   3.578   7.964 -1.6412 -0.3858  0.0409
 4602SOL     OW25267   0.038   0.263   2.325  0.2902  0.3218  0.4832
 4602SOL    HW125268   0.043   0.247   2.231  1.1800 -0.7340  0.7089
 4602SOL    HW225269   0.070   0.177   2.353 -0.4767 -0.3135 -0.5689
 4603SOL     OW25270   2.651   1.919  17.466  0.4822  0.2731 -0.2068
 4603SOL    HW125271   2.623   1.950  17.553 -0.4349 -0.4700 -0.2418
 4603SOL    HW225272   2.652   2.010  17.435  0.3502  0.7000  1.0161
 4604SOL     OW25273   0.792   3.769   0.359  0.0743 -0.2726 -0.7230
 4604SOL    HW125274   0.718   3.758   0.300  0.5012 -1.4676 -1.0425
 4604SOL    HW225275   0.817   3.678   0.376 -0.5240 -0.6290 -1.8096
 4605SOL     OW25276   0.888   2.286   8.340 -0.2295  0.1642 -0.2719
 4605SOL    HW125277   0.936   2.217   8.386 -1.0094 -0.8291 -0.9600
 4605SOL    HW225278   0.801   2.271   8.379 -0.0358  1.1144  0.5219
 4606SOL     OW25279   2.835   3.186   3.379 -0.2716 -0.2506 -0.1419
 4606SOL    HW125280   2.856   3.245   3.452 -0.4813  0.9332 -1.0447
 4606SOL    HW225281   2.751   3.219   3.348 -1.6061 -0.3631  3.4141
 4607SOL     OW25282   3.365   4.326   5.572  0.2479  0.2161  0.4785
 4607SOL    HW125283   3.307   4.274   5.627  0.8397 -0.4741  0.4434
 4607SOL    HW225284   3.386   4.250   5.518 -1.3880 -1.0885  1.6726
 4608SOL     OW25285   2.410   4.706  17.701 -0.0462  0.1487 -0.1552
 4608SOL    HW125286   2.429   0.069   0.022  1.1167  0.6322 -2.5205
 4608SOL    HW225287   2.486   4.696  17.644  0.4056  0.3383  0.4162
 4609SOL     OW25288   1.295   4.432   8.237 -0.2411  0.2845  0.0948
 4609SOL    HW125289   1.294   4.492   8.162  2.8461 -1.0728 -1.0351
 4609SOL    HW225290   1.201   4.425   8.258 -0.6389 -0.1407 -1.7907
 4610SOL     OW25291   0.855   3.631   4.612  0.3686  0.1216 -0.1622
 4610SOL    HW125292   0.804   3.679   4.678 -3.2355 -0.9626 -2.1653
 4610SOL    HW225293   0.942   3.642   4.650  0.4042  1.6148 -0.6534
 4611SOL     OW25294   2.266   2.776   6.700  0.5427 -0.1108 -0.0400
 4611SOL    HW125295   2.315   2.733   6.770  0.8994  2.5060  1.3505
 4611SOL    HW225296   2.176   2.767   6.732  0.2939  0.0346 -0.7045
 4612SOL     OW25297   0.209   2.929  16.662 -0.6070 -0.1712  0.3972
 4612SOL    HW125298   0.213   2.987  16.587  0.1944  0.1648  0.7016
 4612SOL    HW225299   0.295   2.887  16.657 -1.1595 -1.0850 -1.2189
 4613SOL     OW25300   4.696   1.288   4.891 -0.3316  0.6209 -0.8446
 4613SOL    HW125301   0.046   1.304   4.947  0.2586 -0.4671 -1.3368
 4613SOL    HW225302   4.726   1.332   4.811 -0.8501  0.8041 -0.9332
 4614SOL     OW25303   1.039   0.304   8.826 -0.0176  0.0414  0.5942
 4614SOL    HW125304   0.984   0.241   8.873  2.9774 -3.5579 -0.7482
 4614SOL    HW225305   1.080   0.254   8.755 -3.8080  0.2858 -1.7767
 4615SOL     OW25306   1.966   3.419   8.093  0.3663  0.4262  0.4412
 4615SOL    HW125307   2.060   3.408   8.111  0.1960  0.1554  1.1414
 4615SOL    HW225308   1.935   3.456   8.176  0.6959  1.3911  0.1399
 4616SOL     OW25309   1.894   2.428   5.160 -0.2216  0.3948  0.4544
 4616SOL    HW125310   1.829   2.403   5.225 -1.0695 -0.7102 -0.8166
 4616SOL    HW225311   1.918   2.342   5.123  0.5406  0.2204  1.3483
 4617SOL     OW25312   3.855   1.797   1.657 -0.0115 -0.1265 -0.1119
 4617SOL    HW125313   3.895   1.793   1.570 -0.1501  2.4406 -0.3007
 4617SOL    HW225314   3.802   1.876   1.647  1.4122  0.7287 -0.7744
 4618SOL     OW25315   2.300   1.908   7.500  0.0815 -0.3736  0.4416
 4618SOL    HW125316   2.307   1.815   7.522 -0.8677 -0.3334  0.9267
 4618SOL    HW225317   2.274   1.904   7.408  4.5102 -0.2823 -0.7982
 4619SOL     OW25318   0.725   2.083  17.289  0.3624 -0.1673  0.0516
 4619SOL    HW125319   0.768   2.168  17.295 -0.0763  0.0161  0.5940
 4619SOL    HW225320   0.661   2.095  17.219 -1.2120 -0.8583  1.3611
 4620SOL     OW25321   0.593   1.808   3.544 -0.3998 -0.4397 -0.4279
 4620SOL    HW125322   0.523   1.871   3.532  0.6249  0.6589 -0.5613
 4620SOL    HW225323   0.546   1.746   3.600 -1.8593 -0.4807 -1.7230
 4621SOL     OW25324   4.604   3.325   5.368  0.4882  0.1431  0.1034
 4621SOL    HW125325   4.617   3.233   5.346  1.5616  0.4139 -0.3805
 4621SOL    HW225326   4.550   3.362   5.299  1.1908 -2.1025 -1.6256
 4622SOL     OW25327   4.210   0.921   2.472  0.3526 -0.3346 -0.3411
 4622SOL    HW125328   4.260   0.857   2.523  0.6939  0.5280  0.4250
 4622SOL    HW225329   4.281   0.953   2.416  0.1188  1.2872  0.2715
 4623SOL     OW25330   1.043   4.683   9.971  0.0318 -0.0687 -0.4807
 4623SOL    HW125331   1.132   4.718   9.969 -0.6743  1.8698  1.2401
 4623SOL    HW225332   1.005   0.001   9.895  0.3954  0.8604 -0.1244
 4624SOL     OW25333   4.582   3.884  11.611  0.1520 -0.4807 -0.1907
 4624SOL    HW125334   4.535   3.904  11.530  0.6746  3.1624  0.4033
 4624SOL    HW225335   4.672   3.882  11.576 -0.5341  0.2500 -1.9939
 4625SOL     OW25336   1.888   4.547   6.782  0.0478  0.0220 -0.5314
 4625SOL    HW125337   1.977   4.514   6.780 -0.8273 -2.3169 -1.3405
 4625SOL    HW225338   1.873   4.535   6.875  0.3273 -1.2634 -0.6528
 4626SOL     OW25339   4.137   2.288  11.723  0.0500  0.3450  0.1153
 4626SOL    HW125340   4.147   2.375  11.683 -1.0754 -0.4316 -1.8260
 4626SOL    HW225341   4.203   2.241  11.672  0.0853 -0.3453  0.8015
 4627SOL     OW25342   0.825   1.310   7.175 -0.0791  0.4475 -0.0315
 4627SOL    HW125343   0.764   1.335   7.244 -0.2381  0.3886 -0.1522
 4627SOL    HW225344   0.771   1.253   7.121 -0.4717  2.4867 -1.7870
 4628SOL     OW25345   2.867   4.596  11.955  0.3064  0.0443  0.0789
 4628SOL    HW125346   2.952   4.634  11.975 -0.6039  0.9057  2.2291
 4628SOL    HW225347   2.827   4.589  12.041 -1.1347  0.7555 -0.5327
 4629SOL     OW25348   0.158   3.675  10.365  0.4311  0.6633  0.3919
 4629SOL    HW125349   0.105   3.677  10.445 -0.3758 -1.8368 -0.0575
 4629SOL    HW225350   0.187   3.765  10.369 -0.7213  0.9678  1.9137
 4630SOL     OW25351   2.171   0.340   2.880 -0.1744  0.3544  0.1554
 4630SOL    HW125352   2.084   0.349   2.839 -0.1513  0.8413  0.2113
 4630SOL    HW225353   2.157   0.405   2.948 -1.7828 -0.6510  0.7736
 4631SOL     OW25354   1.495   3.051   2.896 -0.0981 -0.2429 -0.0316
 4631SOL    HW125355   1.404   3.032   2.875 -0.5201  0.6382  0.9854
 4631SOL    HW225356   1.539   2.975   2.858 -0.0581 -0.5981  0.7362
 4632SOL     OW25357   2.572   0.886   8.927 -0.0977  0.2030 -0.4030
 4632SOL    HW125358   2.552   0.809   8.875  2.2406 -0.1934 -0.7195
 4632SOL    HW225359   2.641   0.853   8.985  0.4947  0.8904 -0.7197
 4633SOL     OW25360   1.464   0.873  15.015 -0.2825  0.1692 -0.3744
 4633SOL    HW125361   1.387   0.930  15.011 -0.4095 -0.1609 -2.3610
 4633SOL    HW225362   1.489   0.879  15.107 -0.3673  0.5886 -0.3809
 4634SOL     OW25363   0.366   3.827  16.153  0.2889 -0.5956  0.2303
 4634SOL    HW125364   0.444   3.811  16.100 -0.0457 -0.6275 -0.2596
 4634SOL    HW225365   0.322   3.744  16.130 -0.4442 -0.1272 -0.0642
 4635SOL     OW25366   4.131   3.080   7.450 -0.2217  0.5849 -0.5942
 4635SOL    HW125367   4.217   3.107   7.417 -0.5952  0.2775 -1.7993
 4635SOL    HW225368   4.083   3.079   7.368  0.0105  0.5716 -0.7286
 4636SOL     OW25369   4.045   0.802   8.062 -0.1391 -0.4912 -0.2310
 4636SOL    HW125370   4.036   0.791   8.157  1.5516 -1.6189 -0.2018
 4636SOL    HW225371   3.993   0.882   8.057  2.0881  0.8202 -2.3618
 4637SOL     OW25372   2.966   0.053  13.290 -0.1748 -0.2694  0.0682
 4637SOL    HW125373   2.925   0.137  13.308  0.7498 -0.0409  1.0926
 4637SOL    HW225374   2.946   0.009  13.372  1.0201 -2.5551 -0.8636
 4638SOL     OW25375   1.050   3.634  15.370  0.5241  0.2786  0.1620
 4638SOL    HW125376   1.033   3.645  15.277  2.1230  0.3247 -0.1245
 4638SOL    HW225377   0.963   3.610  15.403  0.2941 -1.1149 -1.4893
 4639SOL     OW25378   4.527   3.289   9.039  0.0121 -0.5997  0.1480
 4639SOL    HW125379   4.583   3.245   8.974  1.9695 -0.4624  1.7424
 4639SOL    HW225380   4.535   3.379   9.006  1.5144 -0.7860  0.0016
 4640SOL     OW25381   1.360   3.769   7.599  0.5566 -0.3377 -0.2823
 4640SOL    HW125382   1.267   3.769   7.624  0.9917 -0.1931  1.3557
 4640SOL    HW225383   1.373   3.676   7.583  0.4283 -0.4427  0.2099
 4641SOL     OW25384   4.320   0.401   8.130  0.2509 -0.1466  0.1547
 4641SOL    HW125385   4.341   0.475   8.186 -0.1980  1.3133 -1.6325
 4641SOL    HW225386   4.401   0.389   8.081 -0.1249  2.4808 -1.0930
 4642SOL     OW25387   3.449   1.340   7.345 -0.1435  0.3794  0.2610
 4642SOL    HW125388   3.399   1.263   7.316 -0.6830  1.0554 -0.5766
 4642SOL    HW225389   3.402   1.371   7.422 -1.7420 -1.9291  0.2141
 4643SOL     OW25390   0.387   2.979  13.771 -0.2263  0.5883  0.1773
 4643SOL    HW125391   0.416   3.061  13.731  1.0129  0.9063  1.7058
 4643SOL    HW225392   0.449   2.917  13.733  0.2007  0.7598  0.5838
 4644SOL     OW25393   1.586   3.298   6.055 -0.1319  0.3040 -0.8981
 4644SOL    HW125394   1.571   3.308   6.149 -0.1339 -1.0950 -0.7477
 4644SOL    HW225395   1.548   3.378   6.020  0.5470  0.4925 -1.2016
 4645SOL     OW25396   3.406   2.247   6.019  0.0276  0.6354 -0.0695
 4645SOL    HW125397   3.400   2.152   6.025  0.0671  0.6531  0.2280
 4645SOL    HW225398   3.486   2.248   5.967  0.4889  0.7666  0.6433
 4646SOL     OW25399   0.039   3.480   7.032 -0.6705 -0.1390 -0.2136
 4646SOL    HW125400   4.695   3.516   7.086 -0.8716 -2.0755  0.8251
 4646SOL    HW225401   0.119   3.479   7.085 -1.7505 -1.4378  1.4123
 4647SOL     OW25402   1.062   3.979   5.717  0.3516  0.2992  0.2208
 4647SOL    HW125403   1.007   3.985   5.639 -1.3462  0.8141  1.4413
 4647SOL    HW225404   1.113   4.058   5.703  0.2236  0.0549 -1.6348
 4648SOL     OW25405   2.778   2.040   0.518 -0.4330  0.4151  0.8353
 4648SOL    HW125406   2.820   2.123   0.541  0.4228  0.2607 -0.1168
 4648SOL    HW225407   2.841   1.979   0.556  0.2535  1.1064  0.8267
 4649SOL     OW25408   4.666   1.350   9.452  0.6209  0.3290  0.1037
 4649SOL    HW125409   4.699   1.317   9.536 -1.0603 -0.2545  0.5353
 4649SOL    HW225410   4.590   1.294   9.439  0.6759  0.4753 -0.8649
 4650SOL     OW25411   2.501   3.912   3.594  0.9118  0.6264 -0.2868
 4650SOL    HW125412   2.570   3.851   3.567  0.0597 -0.0351 -0.9744
 4650SOL    HW225413   2.429   3.879   3.540  0.5777 -1.3460  1.3781
 4651SOL     OW25414   4.371   2.430   3.147  0.4338 -0.5178 -0.5981
 4651SOL    HW125415   4.423   2.445   3.226  0.1140 -2.8228  0.0611
 4651SOL    HW225416   4.348   2.519   3.120 -0.1614  0.4078  2.9033
 4652SOL     OW25417   3.264   1.655   8.863 -0.6588  0.1241  0.3774
 4652SOL    HW125418   3.189   1.603   8.894  1.4887 -0.8897  3.8477
 4652SOL    HW225419   3.235   1.744   8.880 -2.3728 -0.1268 -1.2730
 4653SOL     OW25420   3.043   4.511  10.237  0.3819 -0.5888 -0.0773
 4653SOL    HW125421   3.055   4.503  10.332  0.9111  0.9480 -0.0198
 4653SOL    HW225422   3.133   4.526  10.207  0.7950  0.8286  1.8598
 4654SOL     OW25423   4.032   2.366   7.920 -0.3871 -0.0731 -0.8542
 4654SOL    HW125424   3.968   2.340   7.986  1.1757 -0.5519  0.4491
 4654SOL    HW225425   4.084   2.288   7.905  0.0257 -0.1025  0.8253
 4655SOL     OW25426   0.497   4.307  15.231 -0.1898  0.2573  0.0621
 4655SOL    HW125427   0.507   4.302  15.136 -0.1864 -2.0476  0.1767
 4655SOL    HW225428   0.518   4.400  15.238  2.3442 -0.1396 -2.3214
 4656SOL     OW25429   0.958   3.545   3.494  0.0532 -0.6636 -0.2565
 4656SOL    HW125430   1.025   3.556   3.562 -0.1965 -1.4224  0.1027
 4656SOL    HW225431   0.887   3.516   3.551 -0.2091 -0.1233 -0.3037
 4657SOL     OW25432   0.582   2.024  14.043 -0.0727  0.4265 -0.0571
 4657SOL    HW125433   0.521   1.954  14.019  0.0172  1.2518 -2.7046
 4657SOL    HW225434   0.559   2.086  13.974 -0.6332  1.9805  1.5198
 4658SOL     OW25435   3.515   2.791  16.755  0.0472 -0.0959 -0.0305
 4658SOL    HW125436   3.446   2.737  16.715 -0.8327  1.5048 -0.6645
 4658SOL    HW225437   3.599   2.750  16.736  0.0076  0.8950 -2.2908
 4659SOL     OW25438   1.054   3.832   0.238 -0.6823 -0.3397 -0.0498
 4659SOL    HW125439   0.977   3.823   0.294 -0.5435  0.4679  0.2682
 4659SOL    HW225440   1.127   3.828   0.300 -1.7204 -1.5835  1.0964
 4660SOL     OW25441   3.158   0.649   0.290  0.1218 -0.7850 -0.4671
 4660SOL    HW125442   3.151   0.569   0.238  1.8705 -1.7036  0.7582
 4660SOL    HW225443   3.084   0.652   0.350 -0.6289 -0.3657 -1.3987
 4661SOL     OW25444   0.368   4.162   6.085 -0.4286 -0.5859 -0.6955
 4661SOL    HW125445   0.443   4.106   6.108 -0.2020  0.6174  1.4597
 4661SOL    HW225446   0.401   4.249   6.062  0.0780  0.4492  3.9773
 4662SOL     OW25447   0.143   2.804  15.341  0.1423  0.3854  0.4207
 4662SOL    HW125448   0.079   2.776  15.276 -1.6857 -0.9461  2.8044
 4662SOL    HW225449   0.147   2.898  15.325 -1.0358  0.5156  0.8987
 4663SOL     OW25450   0.524   4.049   8.498 -0.0222  0.0850 -0.2038
 4663SOL    HW125451   0.505   4.103   8.421 -0.9451 -0.2209 -0.1915
 4663SOL    HW225452   0.485   4.099   8.570 -1.3785  2.0323 -2.2766
 4664SOL     OW25453   1.600   3.390  11.936 -0.0302  0.2530  0.4090
 4664SOL    HW125454   1.656   3.455  11.894  0.7548 -0.7253 -0.0623
 4664SOL    HW225455   1.513   3.418  11.906  0.2706  1.8574  1.0272
 4665SOL     OW25456   0.761   2.926   5.743  0.1365 -0.9811 -0.1449
 4665SOL    HW125457   0.781   3.008   5.698  2.1471 -1.2302  0.2899
 4665SOL    HW225458   0.750   2.869   5.667 -1.0002 -0.3356 -0.4641
 4666SOL     OW25459   4.585   0.568   6.318  0.3857 -0.2690  0.0334
 4666SOL    HW125460   4.626   0.560   6.404  1.6406 -1.2932 -0.6601
 4666SOL    HW225461   4.650   0.532   6.258  0.2021 -1.3969  0.5256
 4667SOL     OW25462   2.028   0.707   4.494  0.0618 -0.2393  0.0157
 4667SOL    HW125463   2.030   0.715   4.590  1.8677  1.1822 -0.1539
 4667SOL    HW225464   2.022   0.800   4.472  1.2795 -0.4349 -1.0868
 4668SOL     OW25465   3.540   3.336   4.624  0.0846 -0.0673  0.4584
 4668SOL    HW125466   3.454   3.325   4.584  1.3263 -0.7650 -2.0323
 4668SOL    HW225467   3.554   3.424   4.589  0.0925 -0.0141  0.5966
 4669SOL     OW25468   0.975   3.632   2.903 -0.2035 -0.0735  0.2275
 4669SOL    HW125469   0.939   3.687   2.972 -2.2205 -0.9972 -0.0752
 4669SOL    HW225470   1.057   3.676   2.880 -0.8690  0.7505 -0.5427
 4670SOL     OW25471   4.293   3.657  17.318  0.2841  0.3619  0.2179
 4670SOL    HW125472   4.317   3.589  17.254  0.4850  2.8981 -2.4047
 4670SOL    HW225473   4.381   3.688  17.341 -1.0470  1.4944  3.7616
 4671SOL     OW25474   1.100   3.470   8.082  0.3632 -0.1387  0.2364
 4671SOL    HW125475   1.106   3.377   8.106 -1.0060  0.0808  1.3917
 4671SOL    HW225476   1.016   3.487   8.123 -0.4584 -2.1920 -0.5851
 4672SOL     OW25477   0.766   3.451   2.093  0.1727  0.0685 -0.0945
 4672SOL    HW125478   0.701   3.407   2.038  1.0058 -1.6296  0.2913
 4672SOL    HW225479   0.817   3.482   2.019  1.8622 -3.8270 -0.5532
 4673SOL     OW25480   4.080   2.300  16.492  0.2610  0.0172  0.2759
 4673SOL    HW125481   4.023   2.245  16.439  0.5655  0.6017 -0.6769
 4673SOL    HW225482   4.045   2.296  16.581  1.0210  0.6017  0.5992
 4674SOL     OW25483   2.894   4.297   6.409 -0.0007  0.0001 -0.1139
 4674SOL    HW125484   2.802   4.322   6.397 -0.1582 -0.7064 -0.3632
 4674SOL    HW225485   2.920   4.346   6.487 -2.3346 -0.6115  1.0321
 4675SOL     OW25486   3.686   0.879   0.351  0.4789 -0.2178 -0.2951
 4675SOL    HW125487   3.671   0.785   0.348  0.3635 -0.3405  4.2756
 4675SOL    HW225488   3.653   0.892   0.440 -0.8878 -0.5089 -0.7567
 4676SOL     OW25489   2.681   2.831   6.485  0.2191 -0.4709 -0.0732
 4676SOL    HW125490   2.633   2.832   6.402 -0.7800 -1.9386  0.4854
 4676SOL    HW225491   2.622   2.887   6.536 -1.6248 -1.0112 -1.5728
 4677SOL     OW25492   1.689   4.416   7.398  0.1260  0.3690 -0.1752
 4677SOL    HW125493   1.666   4.451   7.484  0.6025  1.1241 -0.3633
 4677SOL    HW225494   1.628   4.463   7.341  2.8808  0.6244 -2.9032
 4678SOL     OW25495   0.415   2.702   9.300  0.1075 -0.0969  0.1323
 4678SOL    HW125496   0.345   2.758   9.332  1.0338  1.3017 -0.2692
 4678SOL    HW225497   0.490   2.761   9.309 -0.4196  0.6061 -0.0785
 4679SOL     OW25498   1.371   0.890  13.891  0.3913 -0.4788 -0.2991
 4679SOL    HW125499   1.456   0.845  13.893  0.3846 -0.3301  3.5989
 4679SOL    HW225500   1.348   0.897  13.983  1.2221 -2.3678  0.0555
 4680SOL     OW25501   3.682   4.461   9.592 -0.1342  0.4284  0.2735
 4680SOL    HW125502   3.734   4.385   9.569 -2.4218 -1.3678  0.9925
 4680SOL    HW225503   3.619   4.439   9.661  4.2979 -1.6549  3.5788
 4681SOL     OW25504   0.135   0.990   7.737  0.2161 -0.0457  0.2437
 4681SOL    HW125505   0.200   1.042   7.690 -0.6292  1.5571  0.8588
 4681SOL    HW225506   0.183   0.907   7.742  0.2139 -0.0936 -0.5751
 4682SOL     OW25507   4.345   0.231   2.688  0.1133 -0.5529  0.0068
 4682SOL    HW125508   4.312   0.253   2.775 -1.7613  1.5422 -1.2323
 4682SOL    HW225509   4.437   0.218   2.714  0.4674  2.1864  0.1967
 4683SOL     OW25510   0.816   0.308   5.991  0.6671  0.0010  0.1316
 4683SOL    HW125511   0.752   0.247   5.953 -0.2173  1.0947 -0.1247
 4683SOL    HW225512   0.768   0.390   5.980  3.6865  2.0091  1.9280
 4684SOL     OW25513   4.448   4.673   6.535 -0.7093  0.1456 -0.1941
 4684SOL    HW125514   4.441   4.587   6.578  1.2221  0.2562  0.3458
 4684SOL    HW225515   4.392   4.662   6.458  0.1232  1.5773 -0.9825
 4685SOL     OW25516   3.025   4.041   1.462  0.2366 -0.6762  0.0655
 4685SOL    HW125517   3.035   3.993   1.379  1.6917  2.4687 -1.5933
 4685SOL    HW225518   3.110   4.026   1.502  1.0994  2.7709 -0.4995
 4686SOL     OW25519   2.018   1.606   7.803 -0.1002 -0.9583  0.1503
 4686SOL    HW125520   2.045   1.653   7.723  0.9859 -1.5360  0.1753
 4686SOL    HW225521   1.923   1.607   7.793 -0.0410 -0.4032 -0.3620
 4687SOL     OW25522   2.500   3.458   1.359  0.4515  0.2838 -0.6832
 4687SOL    HW125523   2.587   3.426   1.383  0.1602 -0.9671 -1.2837
 4687SOL    HW225524   2.501   3.479   1.266 -0.9715  1.0678 -0.5151
 4688SOL     OW25525   1.200   0.683   4.247 -0.2260  0.1861 -0.0876
 4688SOL    HW125526   1.135   0.662   4.180  0.9106  0.2660 -1.1966
 4688SOL    HW225527   1.149   0.737   4.307 -2.4025 -0.0334 -1.7386
 4689SOL     OW25528   0.730   3.181   7.484  0.2899 -0.1702 -0.2038
 4689SOL    HW125529   0.639   3.174   7.514 -0.5645  3.8291 -1.8463
 4689SOL    HW225530   0.724   3.261   7.431 -0.9043 -0.6167 -0.7552
 4690SOL     OW25531   2.238   1.452  13.142 -0.0999  0.5088 -0.3302
 4690SOL    HW125532   2.244   1.356  13.147 -1.1338  0.4578 -0.0693
 4690SOL    HW225533   2.270   1.471  13.054  0.8380 -0.8002 -0.2841
 4691SOL     OW25534   3.413   4.379   8.007 -0.5167  0.1782 -0.1149
 4691SOL    HW125535   3.460   4.359   8.089 -0.1872  2.6875  0.3018
 4691SOL    HW225536   3.382   4.293   7.978 -1.5593  1.0168 -1.4842
 4692SOL     OW25537   4.005   0.577  15.168  0.4635 -0.4204 -0.0480
 4692SOL    HW125538   3.919   0.606  15.199 -0.4060 -1.5913 -1.3199
 4692SOL    HW225539   4.060   0.588  15.245 -1.4577 -0.1128  1.2730
 4693SOL     OW25540   3.133   4.219  15.674 -0.0572  0.4353 -0.0502
 4693SOL    HW125541   3.086   4.179  15.747 -1.2853  0.9378 -0.5636
 4693SOL    HW225542   3.206   4.256  15.724  1.3971  0.1743 -1.9987
 4694SOL     OW25543   1.444   0.504   4.972  0.0075 -0.1269  0.4230
 4694SOL    HW125544   1.361   0.541   5.001 -0.5383 -0.4970 -0.6559
 4694SOL    HW225545   1.488   0.582   4.940  1.8606 -1.6053 -0.6651
 4695SOL     OW25546   0.683   0.555   5.974  0.1567 -0.0756  0.3554
 4695SOL    HW125547   0.610   0.504   5.940 -0.4735  0.6986  0.5327
 4695SOL    HW225548   0.644   0.615   6.038  1.2094  0.3315  0.6239
 4696SOL     OW25549   3.816   1.178   1.626 -0.1656  0.2932 -0.6379
 4696SOL    HW125550   3.836   1.117   1.556  1.3232 -0.0846  0.1202
 4696SOL    HW225551   3.785   1.250   1.572  1.1757 -0.3321 -2.2563
 4697SOL     OW25552   2.221   3.647   2.594 -0.1994 -0.1659  0.4274
 4697SOL    HW125553   2.270   3.633   2.674 -2.1407 -0.6067  1.5425
 4697SOL    HW225554   2.209   3.556   2.566 -1.9234 -0.3190  1.6912
 4698SOL     OW25555   2.569   3.961  12.597 -0.0960  0.6203  0.6177
 4698SOL    HW125556   2.604   4.031  12.651  1.3097  1.3797 -1.2840
 4698SOL    HW225557   2.477   3.986  12.604  0.2193  1.1446  2.9533
 4699SOL     OW25558   1.964   0.983  14.660  0.2263  0.1283 -0.0277
 4699SOL    HW125559   1.992   1.070  14.687  1.7120 -0.6612  0.9978
 4699SOL    HW225560   1.869   0.989  14.651  0.0753 -0.5964  1.1413
 4700SOL     OW25561   2.530   3.062   4.419  0.3275  0.3734 -0.0126
 4700SOL    HW125562   2.525   2.969   4.441  2.3835 -0.1002 -1.5198
 4700SOL    HW225563   2.540   3.101   4.505  4.4113 -2.3564  0.7190
 4701SOL     OW25564   0.511   0.973   3.294  0.0947  0.0852  0.0779
 4701SOL    HW125565   0.500   1.015   3.209  1.0958 -0.7000 -0.4397
 4701SOL    HW225566   0.519   0.884   3.259  3.9230  1.2405 -1.8742
 4702SOL     OW25567   1.751   2.421   3.631 -0.0725 -0.2092 -0.2127
 4702SOL    HW125568   1.692   2.381   3.568  0.0636  0.9499 -1.0767
 4702SOL    HW225569   1.710   2.508   3.633 -0.3574 -0.3820  1.9669
 4703SOL     OW25570   2.222   2.749   5.873  0.3318  0.4729  0.5219
 4703SOL    HW125571   2.145   2.760   5.929  0.5912 -1.8808  1.3288
 4703SOL    HW225572   2.260   2.670   5.909  1.9613 -0.4802 -3.3112
 4704SOL     OW25573   3.751   4.064   5.001 -0.0282  0.0209  0.3310
 4704SOL    HW125574   3.770   4.001   5.071  2.4326  0.6581  0.2232
 4704SOL    HW225575   3.699   4.005   4.946  0.7304 -0.5191  0.1959
 4705SOL     OW25576   0.404   0.392  13.832  0.2693  0.5247 -0.0451
 4705SOL    HW125577   0.443   0.462  13.780 -0.3678  1.0154  0.1284
 4705SOL    HW225578   0.481   0.357  13.877  0.8354  2.0101  0.1552
 4706SOL     OW25579   1.346   0.463   4.367 -0.3054 -0.4789 -0.0017
 4706SOL    HW125580   1.318   0.463   4.459 -0.7860  1.4152 -0.1631
 4706SOL    HW225581   1.262   0.476   4.323 -1.2874 -3.9079  0.8100
 4707SOL     OW25582   1.369   1.748  14.190 -0.1486  0.5133  0.1757
 4707SOL    HW125583   1.345   1.657  14.208  3.3311 -0.2841  0.9427
 4707SOL    HW225584   1.407   1.776  14.274 -1.0126 -2.8312  1.6663
 4708SOL     OW25585   2.116   0.041  11.507  0.2150 -0.1333  0.0622
 4708SOL    HW125586   2.027   0.049  11.474  0.4837  1.3964 -0.2945
 4708SOL    HW225587   2.132   4.675  11.489 -1.2112 -0.3530 -0.0991
 4709SOL     OW25588   3.311   0.259   3.591 -0.8284 -0.0897 -0.2257
 4709SOL    HW125589   3.270   0.342   3.568 -0.5531 -0.1175 -0.8087
 4709SOL    HW225590   3.290   0.254   3.684  0.1710  3.1534  0.1788
 4710SOL     OW25591   4.466   1.066   8.708  0.3283 -0.0407  0.1746
 4710SOL    HW125592   4.430   1.054   8.796 -1.2053 -0.4517 -0.5038
 4710SOL    HW225593   4.401   1.125   8.669 -0.3375 -2.1624 -1.9164
 4711SOL     OW25594   0.953   4.506   2.135 -0.2703  0.3369  0.3404
 4711SOL    HW125595   0.939   4.545   2.221 -0.3397  0.9255  0.0609
 4711SOL    HW225596   1.033   4.546   2.099  0.4224 -1.4967 -0.1912
 4712SOL     OW25597   3.962   1.404   2.009 -0.2235 -0.2114  0.8499
 4712SOL    HW125598   3.878   1.448   1.993 -0.1428  0.2212  1.6333
 4712SOL    HW225599   3.976   1.354   1.929 -1.2199 -0.8702  1.0886
 4713SOL     OW25600   4.147   2.330  13.334 -0.2808  0.5556 -0.4096
 4713SOL    HW125601   4.092   2.282  13.272  2.1530 -2.2602 -0.4236
 4713SOL    HW225602   4.223   2.362  13.286  0.3835  0.2837  0.4614
 4714SOL     OW25603   2.855   3.984  14.525  0.3298  0.3764  0.2134
 4714SOL    HW125604   2.940   3.965  14.485  0.6052  0.4056  0.7847
 4714SOL    HW225605   2.801   3.967  14.447  0.8151  0.6265 -0.1807
 4715SOL     OW25606   3.010   3.382   5.241 -0.1235  0.0696 -0.3111
 4715SOL    HW125607   3.088   3.395   5.295 -0.1488  0.0985 -0.2819
 4715SOL    HW225608   2.944   3.407   5.306 -0.5618 -1.5357 -0.1128
 4716SOL     OW25609   4.197   2.580   5.412 -0.1227  0.4888  0.0875
 4716SOL    HW125610   4.260   2.517   5.378 -1.7212 -0.2409 -1.5205
 4716SOL    HW225611   4.178   2.631   5.333 -1.2128  1.4360  0.9484
 4717SOL     OW25612   1.208   2.377   2.511  0.2207  0.0185 -0.3427
 4717SOL    HW125613   1.148   2.320   2.462  0.4484 -0.0661 -0.5238
 4717SOL    HW225614   1.185   2.469   2.498  2.5992  0.6527 -0.0498
 4718SOL     OW25615   3.353   0.868  12.816 -0.1001 -0.1683 -0.0663
 4718SOL    HW125616   3.403   0.946  12.840 -0.3242 -0.6378  1.9267
 4718SOL    HW225617   3.342   0.871  12.721 -0.0777 -0.5255 -0.0782
 4719SOL     OW25618   1.383   2.645   2.576  0.8390 -0.4122 -0.0154
 4719SOL    HW125619   1.428   2.562   2.557 -2.1030 -2.3980  1.6529
 4719SOL    HW225620   1.460   2.696   2.602 -0.2784  0.5815  1.2876
 4720SOL     OW25621   1.831   0.008  14.262 -0.3479  0.0012 -0.3026
 4720SOL    HW125622   1.814   4.695  14.348  0.0101  0.6266  0.0518
 4720SOL    HW225623   1.924   4.715  14.249 -0.7559 -1.2617 -1.3831
 4721SOL     OW25624   1.276   1.951   9.929 -0.1095  0.1751 -0.2145
 4721SOL    HW125625   1.213   1.880   9.914 -0.9608  0.3050  2.9058
 4721SOL    HW225626   1.356   1.900   9.943 -0.7457 -0.3376  1.4635
 4722SOL     OW25627   3.131   0.598   9.405 -0.3183  0.3940 -0.6726
 4722SOL    HW125628   3.221   0.622   9.384 -0.5674  1.6615 -0.2852
 4722SOL    HW225629   3.090   0.624   9.322 -0.1362  0.8737 -0.6112
 4723SOL     OW25630   1.905   1.256  11.719  0.3877  0.1418  0.3212
 4723SOL    HW125631   1.854   1.187  11.677 -0.2714 -0.6923  2.4448
 4723SOL    HW225632   1.895   1.234  11.812 -1.8900 -0.2685 -0.0214
 4724SOL     OW25633   0.318   2.857  17.123  0.2627 -0.1204 -0.4584
 4724SOL    HW125634   0.258   2.813  17.183  1.1296 -0.1181  0.4061
 4724SOL    HW225635   0.356   2.923  17.181  0.2489 -1.0307  0.5766
 4725SOL     OW25636   2.754   1.598   3.888 -0.0444  0.3812  0.7529
 4725SOL    HW125637   2.700   1.581   3.811 -0.7464  0.2175  1.2885
 4725SOL    HW225638   2.787   1.510   3.905  2.7661  0.9485 -1.8317
 4726SOL     OW25639   2.737   4.040   6.761  0.2499 -0.4380  0.4486
 4726SOL    HW125640   2.711   3.948   6.768 -1.7200  0.1370  0.5761
 4726SOL    HW225641   2.756   4.058   6.853 -0.8564  0.1820  0.5521
 4727SOL     OW25642   1.863   1.326   2.792 -0.3916 -0.4317 -0.2067
 4727SOL    HW125643   1.811   1.314   2.871 -0.1171 -0.0942  0.0254
 4727SOL    HW225644   1.840   1.245   2.746  2.7243 -1.2955 -0.2528
 4728SOL     OW25645   0.591   1.476  11.901  0.0526 -0.1470 -0.0234
 4728SOL    HW125646   0.602   1.570  11.887 -1.7911  0.4677  2.6983
 4728SOL    HW225647   0.630   1.442  11.820 -2.3794 -0.1466 -1.1988
 4729SOL     OW25648   3.565   2.693   5.651  0.7090  0.0852 -0.0009
 4729SOL    HW125649   3.556   2.767   5.712  0.6903 -0.9391  1.2252
 4729SOL    HW225650   3.605   2.740   5.577  2.1370 -1.1852 -0.0316
 4730SOL     OW25651   0.148   1.293   8.519  0.2332 -0.3586  0.1094
 4730SOL    HW125652   0.068   1.328   8.558 -0.2820 -1.3837 -0.0319
 4730SOL    HW225653   0.129   1.202   8.495 -2.6844 -0.8115  4.0835
 4731SOL     OW25654   3.059   3.704  16.625 -0.0213 -0.1349  0.2055
 4731SOL    HW125655   3.079   3.692  16.532  1.5260  1.5042  0.3244
 4731SOL    HW225656   3.073   3.616  16.660 -1.2538 -0.2881  0.3231
 4732SOL     OW25657   4.399   2.174   4.441 -0.8426  0.1807 -0.6110
 4732SOL    HW125658   4.310   2.149   4.415 -1.3412  0.3223  0.9949
 4732SOL    HW225659   4.421   2.211   4.356  2.1529  0.7358  0.4286
 4733SOL     OW25660   1.959   4.699   3.206 -0.2254 -0.3354  0.1596
 4733SOL    HW125661   1.914   4.638   3.264 -0.5437 -0.2747 -0.0222
 4733SOL    HW225662   1.953   0.055   3.255 -0.2118 -1.6043  2.3046
 4734SOL     OW25663   2.660   1.233   7.225  0.1158 -0.5388  0.1042
 4734SOL    HW125664   2.601   1.223   7.150 -0.5115 -2.2935  0.8328
 4734SOL    HW225665   2.637   1.151   7.268  0.2039 -1.7026 -2.1072
 4735SOL     OW25666   2.732   1.711   1.148  0.1649 -0.0388  0.5470
 4735SOL    HW125667   2.642   1.709   1.180 -0.1514  1.0954 -0.2711
 4735SOL    HW225668   2.769   1.760   1.222  0.8577 -0.0142  0.1896
 4736SOL     OW25669   4.208   1.394   3.194 -0.4371 -0.1397 -0.3543
 4736SOL    HW125670   4.130   1.353   3.157 -1.1051  0.9225 -0.1325
 4736SOL    HW225671   4.244   1.428   3.112  1.9120  2.8800  1.9500
 4737SOL     OW25672   1.049   1.795  10.093 -0.1331 -0.4769 -0.0537
 4737SOL    HW125673   1.023   1.734  10.024  0.7733  1.0908 -1.8244
 4737SOL    HW225674   0.970   1.795  10.146  0.4381  1.4275  0.8090
 4738SOL     OW25675   3.291   3.286  16.833  0.1033 -0.3707  0.4501
 4738SOL    HW125676   3.287   3.191  16.822 -0.4461 -0.1059 -1.5794
 4738SOL    HW225677   3.380   3.295  16.800 -1.9617  2.4556 -4.1997
 4739SOL     OW25678   0.844   0.680  12.375 -0.7188 -0.0271  0.2082
 4739SOL    HW125679   0.905   0.705  12.444 -1.0510 -0.2454  0.5825
 4739SOL    HW225680   0.895   0.604  12.344 -1.8753 -0.1443 -1.4177
 4740SOL     OW25681   3.485   4.134  12.735 -0.5147  0.5137 -0.5476
 4740SOL    HW125682   3.475   4.200  12.804 -2.0765 -0.9170  0.6162
 4740SOL    HW225683   3.423   4.165  12.670 -0.4373  1.6513 -0.0680
 4741SOL     OW25684   0.523   2.084   6.726 -0.4557 -0.0223  0.2498
 4741SOL    HW125685   0.442   2.058   6.682 -0.8384  0.4170  0.7021
 4741SOL    HW225686   0.481   2.123   6.802 -2.8313 -2.9081  0.4262
 4742SOL     OW25687   4.413   3.247   7.196  0.0371 -0.4631  0.0826
 4742SOL    HW125688   4.347   3.316   7.203  1.6154  1.0572 -0.1103
 4742SOL    HW225689   4.421   3.208   7.283  1.5719  0.7590  0.4858
 4743SOL     OW25690   2.027   3.757   4.023  0.4020  0.3437  0.2831
 4743SOL    HW125691   2.067   3.732   4.106 -0.5079  0.8257  0.8748
 4743SOL    HW225692   1.937   3.770   4.055 -0.6663 -0.2316 -2.5079
 4744SOL     OW25693   1.375   3.389   7.169  0.1685 -0.5947 -0.1834
 4744SOL    HW125694   1.416   3.306   7.147  2.8445  0.0189  2.5306
 4744SOL    HW225695   1.353   3.367   7.259  0.8184  1.2323  0.4339
 4745SOL     OW25696   0.576   0.090   3.080 -0.0650  0.5506  0.0856
 4745SOL    HW125697   0.542   0.160   3.136  1.4542 -0.5273  2.3305
 4745SOL    HW225698   0.556   0.016   3.137  1.7514  1.1538  1.5044
 4746SOL     OW25699   3.140   4.483  14.070  0.1826  0.5250  0.5309
 4746SOL    HW125700   3.084   4.503  14.145 -1.4912  0.4666 -0.7134
 4746SOL    HW225701   3.178   4.570  14.058  2.4569 -0.4357  0.7771
 4747SOL     OW25702   3.532   0.152   4.778  0.1293 -0.1837  0.0143
 4747SOL    HW125703   3.594   0.091   4.817 -0.6089 -0.7275  0.3111
 4747SOL    HW225704   3.517   0.224   4.839 -0.1737 -0.3769  0.1649
 4748SOL     OW25705   0.713   2.182   2.313 -0.6818 -0.5451 -0.2246
 4748SOL    HW125706   0.680   2.241   2.245  0.1634 -1.5493 -1.5122
 4748SOL    HW225707   0.731   2.106   2.257  1.7456  0.9390 -1.4253
 4749SOL     OW25708   1.384   1.215   5.266  0.0355 -0.0631  0.2594
 4749SOL    HW125709   1.419   1.291   5.219 -0.9648 -0.9185 -1.8780
 4749SOL    HW225710   1.468   1.170   5.272  0.6136  1.1191  0.8933
 4750SOL     OW25711   3.437   1.029   3.364  0.1449  0.1861 -0.2348
 4750SOL    HW125712   3.520   1.058   3.402  1.1902 -0.8241 -1.7700
 4750SOL    HW225713   3.398   1.017   3.451  0.7964 -1.0585 -0.1210
 4751SOL     OW25714   4.642   4.488   9.309  0.1316 -0.1650 -0.7294
 4751SOL    HW125715   4.724   4.537   9.306  1.4996 -2.3333  1.3761
 4751SOL    HW225716   4.657   4.398   9.338 -1.5131 -0.4785 -0.8362
 4752SOL     OW25717   3.091   4.316   0.574 -0.3969  0.3627  0.3131
 4752SOL    HW125718   3.098   4.350   0.664 -1.5414 -0.4081  0.6867
 4752SOL    HW225719   3.137   4.383   0.523  2.1368 -0.2149  1.8404
 4753SOL     OW25720   3.331   4.487   4.255  0.1663  0.1240  0.4302
 4753SOL    HW125721   3.267   4.451   4.194 -0.5769 -1.9432  2.4553
 4753SOL    HW225722   3.286   4.461   4.335  0.9320 -0.3040  0.7213
 4754SOL     OW25723   4.009   1.959  12.760 -0.0558 -0.0388  0.3014
 4754SOL    HW125724   3.929   1.947  12.812 -0.3987  3.8558  0.6254
 4754SOL    HW225725   3.995   1.882  12.705  2.1235  0.4297 -0.9084
 4755SOL     OW25726   1.279   4.166  11.622 -0.1008 -0.4284 -0.0933
 4755SOL    HW125727   1.353   4.173  11.682 -1.6378 -0.8919  1.8442
 4755SOL    HW225728   1.270   4.258  11.597  0.0717 -0.5349 -0.5522
 4756SOL     OW25729   1.658   2.760   8.518 -0.2615  0.4266 -0.4352
 4756SOL    HW125730   1.699   2.796   8.597  1.7235 -3.7869  0.4215
 4756SOL    HW225731   1.723   2.703   8.479  0.1095 -0.4613  1.4766
 4757SOL     OW25732   0.595   4.531   1.357 -0.1368 -0.7138 -0.2407
 4757SOL    HW125733   0.675   4.541   1.305 -0.9948  0.5350 -1.3235
 4757SOL    HW225734   0.528   4.489   1.302  0.3589 -0.6247 -0.9145
 4758SOL     OW25735   0.608   1.139   7.734  0.0232 -0.0259 -0.1669
 4758SOL    HW125736   0.521   1.150   7.695  0.2404 -1.8333 -1.1582
 4758SOL    HW225737   0.585   1.188   7.813 -1.5446 -0.3863 -0.3915
 4759SOL     OW25738   4.128   3.095   5.772 -0.1522  0.5063  0.4936
 4759SOL    HW125739   4.058   3.153   5.744  0.5008 -0.1130 -2.4413
 4759SOL    HW225740   4.158   3.130   5.856 -0.0395  0.4998  0.4561
 4760SOL     OW25741   4.137   1.247   8.780  0.5663 -0.1791  0.0717
 4760SOL    HW125742   4.213   1.289   8.821 -1.4900  2.7558  0.9064
 4760SOL    HW225743   4.131   1.296   8.698 -0.9786  0.4609  0.5622
 4761SOL     OW25744   3.586   3.915   5.200  0.3761  0.4559  0.3152
 4761SOL    HW125745   3.637   3.942   5.277  1.0896  1.8651 -0.6632
 4761SOL    HW225746   3.590   3.821   5.186 -1.5009  0.5616 -0.9861
 4762SOL     OW25747   0.225   1.868   9.066 -0.1239  0.6192  0.3395
 4762SOL    HW125748   0.226   1.913   8.982 -1.3276  0.3059  0.1545
 4762SOL    HW225749   0.131   1.863   9.083 -0.1191 -1.1477 -0.1693
 4763SOL     OW25750   1.472   3.760   7.869 -0.2788 -0.1356  0.1789
 4763SOL    HW125751   1.507   3.734   7.955  0.0591 -0.0735  0.0580
 4763SOL    HW225752   1.521   3.695   7.819  2.0027  0.4699  1.6272
 4764SOL     OW25753   1.022   1.715   3.362  0.2210  0.0370  0.0729
 4764SOL    HW125754   0.959   1.741   3.430  0.7086 -2.0725  1.3301
 4764SOL    HW225755   1.095   1.770   3.392  0.4983 -0.0032 -0.5451
 4765SOL     OW25756   0.838   2.672   7.957  0.6563 -0.0083  0.1529
 4765SOL    HW125757   0.756   2.625   7.972  1.1646 -0.9456 -0.0179
 4765SOL    HW225758   0.894   2.595   7.968 -0.8270 -1.4547 -2.2959
 4766SOL     OW25759   1.251   3.818   0.037  0.1687 -0.0294  0.6597
 4766SOL    HW125760   1.243   3.888  17.678  1.6838 -0.3011  0.1752
 4766SOL    HW225761   1.179   3.843   0.095  0.2883  0.7704  0.4626
 4767SOL     OW25762   1.791   4.335   9.165  0.0578 -0.4751 -0.5739
 4767SOL    HW125763   1.827   4.311   9.250 -0.6652  0.9414  0.1398
 4767SOL    HW225764   1.703   4.296   9.165 -0.5350  0.8606  0.5579
 4768SOL     OW25765   1.901   4.421   7.850  0.2903  0.0813  0.6008
 4768SOL    HW125766   1.952   4.363   7.794 -0.2487  0.1500  0.0406
 4768SOL    HW225767   1.839   4.354   7.879 -0.8199  1.0282  0.3975
 4769SOL     OW25768   3.052   1.232   3.745  0.0411  0.2283 -0.2699
 4769SOL    HW125769   3.100   1.268   3.670  0.8256 -1.1768 -0.4368
 4769SOL    HW225770   2.978   1.290   3.762  3.0292  3.1616  2.9216
 4770SOL     OW25771   3.113   1.433  11.564 -0.0307  0.8626 -0.8470
 4770SOL    HW125772   3.149   1.350  11.594 -1.1576  0.5560 -0.3265
 4770SOL    HW225773   3.104   1.414  11.470 -4.1293 -1.7930  0.0784
 4771SOL     OW25774   4.234   1.370   7.417 -0.1264 -0.4354 -0.0352
 4771SOL    HW125775   4.166   1.319   7.373 -1.5474 -1.3411  3.1587
 4771SOL    HW225776   4.273   1.417   7.343 -4.0792  0.0246 -1.7895
 4772SOL     OW25777   1.747   2.998   6.712  0.7282 -0.2132  0.7894
 4772SOL    HW125778   1.694   3.065   6.754 -1.8635 -0.4420 -2.1363
 4772SOL    HW225779   1.713   2.921   6.757 -1.0123 -1.4636 -2.6671
 4773SOL     OW25780   4.350   1.032   6.310  0.2341  0.2403 -0.0616
 4773SOL    HW125781   4.278   1.094   6.325  0.3890  0.5462 -0.5726
 4773SOL    HW225782   4.314   0.961   6.364  1.5016  2.0260  3.1462
 4774SOL     OW25783   1.168   0.157   6.370 -0.2174  0.7572 -0.1130
 4774SOL    HW125784   1.137   0.135   6.282  1.9744  0.1277 -0.7312
 4774SOL    HW225785   1.227   0.230   6.351  0.6981  0.1981  0.5741
 4775SOL     OW25786   1.123   2.854   6.207 -0.2321  0.6596  0.0589
 4775SOL    HW125787   1.035   2.824   6.232  0.5974 -0.5505  1.5400
 4775SOL    HW225788   1.170   2.860   6.290  0.3746 -0.3408 -0.2023
 4776SOL     OW25789   1.130   2.401   2.911  0.1827  0.4980 -0.5323
 4776SOL    HW125790   1.124   2.384   3.005 -1.2072  2.1288 -0.3345
 4776SOL    HW225791   1.061   2.347   2.871 -0.0459 -0.9416  1.8145
 4777SOL     OW25792   1.309   3.721   2.427 -0.4593  0.2521 -0.4916
 4777SOL    HW125793   1.295   3.810   2.394 -1.5627 -0.2763 -1.4516
 4777SOL    HW225794   1.403   3.725   2.408 -0.0920  0.9202  1.5175
 4778SOL     OW25795   0.188   4.498  16.000  0.0342 -0.1669 -0.3460
 4778SOL    HW125796   0.179   4.404  16.015  2.5628 -0.8674 -3.3525
 4778SOL    HW225797   0.158   4.498  15.909  1.7986  0.3633 -0.9384
 4779SOL     OW25798   0.803   2.137   6.983  0.0780 -0.1136 -0.2593
 4779SOL    HW125799   0.757   2.214   7.015  1.3763  1.5633 -2.3747
 4779SOL    HW225800   0.882   2.138   7.037 -0.7766 -1.2361  0.9832
 4780SOL     OW25801   0.350   2.213   2.822  0.2291  0.8632  0.1141
 4780SOL    HW125802   0.312   2.287   2.774  0.9516 -0.9826 -3.2852
 4780SOL    HW225803   0.274   2.163   2.853  0.6628  0.3151  0.2738
 4781SOL     OW25804   0.445   1.168   7.324  0.2344  0.0246 -0.1950
 4781SOL    HW125805   0.513   1.226   7.358 -1.0279  0.3740  1.7237
 4781SOL    HW225806   0.403   1.225   7.259 -0.1074  1.4264  1.2711
 4782SOL     OW25807   3.457   3.622   4.816 -0.6968  0.3992  0.2599
 4782SOL    HW125808   3.486   3.571   4.891 -3.3674  1.3408  1.9168
 4782SOL    HW225809   3.367   3.645   4.840 -0.3810  2.1205 -0.1741
 4783SOL     OW25810   1.323   3.542  14.455  0.3167 -0.1320 -0.1433
 4783SOL    HW125811   1.312   3.476  14.387  1.4509  0.3973 -0.8475
 4783SOL    HW225812   1.285   3.613  14.402  3.1559  1.0203 -0.6518
 4784SOL     OW25813   1.630   3.922   5.158  0.1617  0.2070  0.5271
 4784SOL    HW125814   1.652   4.004   5.202 -1.5877  0.8194  0.2807
 4784SOL    HW225815   1.536   3.933   5.144  0.1896  1.1103  1.1122
 4785SOL     OW25816   1.228   3.740   5.460  0.4549  0.0257 -0.1038
 4785SOL    HW125817   1.197   3.826   5.487  0.2143  0.4418 -1.7003
 4785SOL    HW225818   1.318   3.756   5.431  0.9894 -1.4567  0.7248
 4786SOL     OW25819   4.115   2.900   5.358 -0.1356  0.0922  0.2361
 4786SOL    HW125820   4.065   2.819   5.350  0.5014 -0.1461 -1.4861
 4786SOL    HW225821   4.040   2.952   5.385  0.0463 -0.3399  1.5500
 4787SOL     OW25822   3.009   3.686   6.312 -0.2562  0.2330  0.6301
 4787SOL    HW125823   3.074   3.628   6.352 -0.9049 -1.0661 -0.2011
 4787SOL    HW225824   2.930   3.659   6.359 -0.6995  0.0396 -0.2205
 4788SOL     OW25825   4.333   1.443   6.253 -0.4479  0.4527 -0.0125
 4788SOL    HW125826   4.424   1.426   6.229 -1.1618 -0.3426 -2.1641
 4788SOL    HW225827   4.301   1.488   6.175  2.8000  1.2922 -0.8687
 4789SOL     OW25828   1.465   1.395  14.713 -0.0052  0.0455 -0.1729
 4789SOL    HW125829   1.503   1.308  14.720 -2.1848 -0.5937  4.1286
 4789SOL    HW225830   1.468   1.414  14.619 -2.0247 -0.6251 -0.3759
 4790SOL     OW25831   1.608   4.311   5.509  0.1546 -0.1635  0.9118
 4790SOL    HW125832   1.680   4.257   5.477  0.5774 -1.1265  3.4235
 4790SOL    HW225833   1.644   4.351   5.589 -0.5677  0.4161  0.9470
 4791SOL     OW25834   2.871   0.233   3.079 -0.1298 -0.2555 -0.3859
 4791SOL    HW125835   2.885   0.206   3.170  0.3843 -0.3182 -0.4860
 4791SOL    HW225836   2.788   0.281   3.086  1.2801  2.1346 -0.0770
 4792SOL     OW25837   4.717   1.272   0.675  0.4370  0.1352  0.3587
 4792SOL    HW125838   0.033   1.304   0.755 -1.0302  0.0123  1.1949
 4792SOL    HW225839   0.053   1.314   0.616 -1.0142  0.6894 -0.7762
 4793SOL     OW25840   2.264   2.132   3.940 -0.5306 -0.1876  0.4646
 4793SOL    HW125841   2.304   2.158   4.023 -0.5575  0.0380  0.4065
 4793SOL    HW225842   2.296   2.196   3.876  0.8206 -0.9439  0.3776
 4794SOL     OW25843   4.417   3.540  11.794 -0.3712 -0.9995 -0.2913
 4794SOL    HW125844   4.434   3.522  11.887 -2.0262 -0.9661  0.0260
 4794SOL    HW225845   4.343   3.600  11.807  0.4824 -0.0616  0.2250
 4795SOL     OW25846   2.356   1.028  13.460 -0.3064 -0.1117  0.0297
 4795SOL    HW125847   2.407   1.006  13.383 -0.2543 -1.0831  0.3382
 4795SOL    HW225848   2.384   1.119  13.468  1.5356 -0.6970  0.2547
 4796SOL     OW25849   3.027   2.167  12.485  0.1026  0.5145  0.5482
 4796SOL    HW125850   3.004   2.235  12.548  0.7803  2.2873 -1.1012
 4796SOL    HW225851   2.983   2.088  12.518  2.4067  0.0027  2.3753
 4797SOL     OW25852   2.150   2.108  12.072 -0.6888  0.2491  0.0487
 4797SOL    HW125853   2.099   2.051  12.015  0.5398  0.1431 -0.9423
 4797SOL    HW225854   2.218   2.049  12.106  0.7351  0.6767 -2.0163
 4798SOL     OW25855   3.442   2.137   9.123 -0.2339  0.4735  0.2665
 4798SOL    HW125856   3.467   2.211   9.069  1.6854 -0.3266  0.0668
 4798SOL    HW225857   3.523   2.120   9.172  0.5541 -0.2331 -1.2891
 4799SOL     OW25858   0.002   0.231  10.410  0.0909 -0.0945  0.2653
 4799SOL    HW125859   0.076   0.282  10.442 -0.0583 -0.1125  0.6399
 4799SOL    HW225860   0.017   0.234  10.315  0.0357 -0.5250  0.2422
 4800SOL     OW25861   2.021   3.010   4.531  0.6908  0.1353 -0.1484
 4800SOL    HW125862   1.926   2.998   4.531  1.1274 -3.2751 -0.8875
 4800SOL    HW225863   2.050   2.981   4.618  3.5988  0.2916 -1.1043
 4801SOL     OW25864   3.857   1.547   5.405  0.4085 -0.1370  0.0192
 4801SOL    HW125865   3.814   1.481   5.352  1.0914  2.2531 -3.4874
 4801SOL    HW225866   3.840   1.512   5.492 -0.2950 -0.0658 -0.0893
 4802SOL     OW25867   1.535   1.188  12.445  0.6657 -0.0471 -0.9859
 4802SOL    HW125868   1.553   1.248  12.518  0.7515 -2.0775  0.6857
 4802SOL    HW225869   1.454   1.218  12.405 -0.4488 -0.8952  0.6229
 4803SOL     OW25870   3.783   4.241   8.919  0.3911  0.1733 -0.0224
 4803SOL    HW125871   3.703   4.188   8.918  1.8356 -2.0058  2.0739
 4803SOL    HW225872   3.761   4.302   8.990 -1.5971  1.1496 -1.4686
 4804SOL     OW25873   2.366   2.334  16.941  0.7597  0.2758 -0.1436
 4804SOL    HW125874   2.414   2.252  16.951  1.1183  0.5822  0.6851
 4804SOL    HW225875   2.334   2.329  16.851 -0.1891  1.0689  0.1543
 4805SOL     OW25876   2.823   1.374   6.181  0.4899  0.5098 -1.0309
 4805SOL    HW125877   2.865   1.386   6.096  0.7571  1.4450 -0.7688
 4805SOL    HW225878   2.740   1.420   6.164  0.2847  1.1541  1.7351
 4806SOL     OW25879   3.394   2.470   5.626 -0.2795 -0.0584  0.0857
 4806SOL    HW125880   3.453   2.545   5.638  0.4180 -0.6432  0.3088
 4806SOL    HW225881   3.451   2.394   5.622 -2.1699 -1.3995 -1.6605
 4807SOL     OW25882   3.614   3.451   6.655 -0.8266  0.0298 -0.2150
 4807SOL    HW125883   3.544   3.428   6.716 -1.8858  1.5361 -0.8685
 4807SOL    HW225884   3.567   3.496   6.585  0.4481  1.9065  0.1153
 4808SOL     OW25885   0.870   2.533   7.660 -0.2242  0.4471  0.5532
 4808SOL    HW125886   0.940   2.544   7.724  0.7137  2.5055 -0.8287
 4808SOL    HW225887   0.803   2.592   7.696 -0.1836 -0.2163  1.7362
 4809SOL     OW25888   1.828   3.311  17.442  0.2202 -0.2641 -0.5459
 4809SOL    HW125889   1.794   3.241  17.386  1.0232 -1.3622  0.3360
 4809SOL    HW225890   1.773   3.287  17.517 -1.4167  0.5123 -1.4915
 4810SOL     OW25891   4.375   1.994   2.756  0.6451  0.1242  0.0207
 4810SOL    HW125892   4.363   2.010   2.849 -2.9277  0.9493 -0.5774
 4810SOL    HW225893   4.286   1.971   2.732 -0.1865  2.3979  0.9116
 4811SOL     OW25894   3.951   0.747   5.900  0.0709 -0.1981 -0.1526
 4811SOL    HW125895   3.918   0.680   5.960  2.1990  0.4041  1.6536
 4811SOL    HW225896   3.914   0.715   5.817  1.6073  1.5719 -1.5250
 4812SOL     OW25897   3.781   1.200  14.529 -0.4797 -0.2467 -0.6978
 4812SOL    HW125898   3.858   1.196  14.585  0.6361  1.3027 -2.1303
 4812SOL    HW225899   3.802   1.159  14.445 -1.2551 -1.6237 -0.2249
 4813SOL     OW25900   1.398   0.234   4.215  0.2582  0.2415 -0.0505
 4813SOL    HW125901   1.324   0.178   4.239 -0.7016  1.0257 -1.1520
 4813SOL    HW225902   1.367   0.319   4.246  1.8677  1.0396 -0.6365
 4814SOL     OW25903   2.032   4.107   8.941 -0.8703  0.5952  0.2614
 4814SOL    HW125904   1.974   4.044   8.898  1.9870 -2.2487  0.5965
 4814SOL    HW225905   2.072   4.040   8.997 -1.2713  0.1982  0.0754
 4815SOL     OW25906   3.415   2.940   4.916 -0.3324 -0.4962 -0.2982
 4815SOL    HW125907   3.486   2.963   4.855 -0.5336  0.7078 -0.0799
 4815SOL    HW225908   3.410   2.844   4.912 -0.2191 -0.4559 -1.3220
 4816SOL     OW25909   0.743   2.412   4.692 -0.1188 -0.5459  0.4477
 4816SOL    HW125910   0.772   2.344   4.631  1.5044 -0.3219  0.9788
 4816SOL    HW225911   0.811   2.478   4.684  1.2418 -2.1317 -1.0635
 4817SOL     OW25912   3.900   4.246   2.758  0.2821  0.4404  0.5691
 4817SOL    HW125913   3.987   4.284   2.772  0.4817 -0.3097  1.4515
 4817SOL    HW225914   3.915   4.171   2.817 -1.7617  1.6568  2.6296
 4818SOL     OW25915   0.076   0.449  15.864  0.7265  0.1176  0.3531
 4818SOL    HW125916   4.716   0.417  15.840  0.4450  1.2996 -0.2539
 4818SOL    HW225917   0.128   0.373  15.839  0.3563  0.5135 -1.6201
 4819SOL     OW25918   3.780   3.957   8.722 -0.0478 -0.1418 -0.1912
 4819SOL    HW125919   3.763   3.899   8.796 -1.1349 -0.5244 -0.7433
 4819SOL    HW225920   3.733   3.915   8.650  0.0993  0.7611 -0.8095
 4820SOL     OW25921   4.694   4.247   7.630  0.4477 -0.0710  0.7424
 4820SOL    HW125922   4.695   4.246   7.725  3.1459  0.4233  0.7196
 4820SOL    HW225923   4.626   4.183   7.608  0.8655 -0.4700  0.6371
 4821SOL     OW25924   1.466   2.357   8.692 -0.5243 -0.3803  0.1743
 4821SOL    HW125925   1.530   2.286   8.692  0.5726  0.6148  0.4318
 4821SOL    HW225926   1.527   2.429   8.713  1.0556 -1.4075 -0.8772
 4822SOL     OW25927   4.511   3.416   9.314 -0.1704 -0.4980  0.2045
 4822SOL    HW125928   4.492   3.370   9.232 -2.2712  2.6492 -1.0697
 4822SOL    HW225929   4.570   3.349   9.347  1.0849  0.1718 -0.6737
 4823SOL     OW25930   1.505   3.449   3.013  0.0962  0.2630  0.1933
 4823SOL    HW125931   1.553   3.375   2.975  0.6010  0.9174 -0.4291
 4823SOL    HW225932   1.440   3.455   2.943 -1.4216 -2.4618  1.3665
 4824SOL     OW25933   4.277   0.816   3.094  0.4284  0.0929  0.0769
 4824SOL    HW125934   4.211   0.814   3.025  0.7117  3.1251 -0.3206
 4824SOL    HW225935   4.359   0.800   3.047 -0.3421 -1.4594 -0.6923
 4825SOL     OW25936   4.358   3.891   9.481  0.1971 -0.3678 -0.6146
 4825SOL    HW125937   4.445   3.879   9.519  0.2293  1.2094 -0.1891
 4825SOL    HW225938   4.366   3.854   9.393  0.2883  2.2295 -1.6852
 4826SOL     OW25939   1.577   4.479   7.064 -0.5145 -0.1963  0.0526
 4826SOL    HW125940   1.643   4.411   7.075 -1.6894 -1.3442  0.1348
 4826SOL    HW225941   1.625   4.553   7.030 -1.0046  0.7713  1.4663
 4827SOL     OW25942   0.427   1.021   6.969  0.9294 -0.0246 -0.3885
 4827SOL    HW125943   0.394   1.103   6.931 -0.1942 -0.8013 -1.1165
 4827SOL    HW225944   0.402   0.956   6.903  0.3253 -2.0021  1.7934
 4828SOL     OW25945   4.721   0.419   1.134  0.1443  0.0345 -0.2229
 4828SOL    HW125946   0.010   0.463   1.050 -0.8338 -0.0750 -0.4621
 4828SOL    HW225947   0.023   0.489   1.193 -0.4597  1.0627 -1.1564
 4829SOL     OW25948   4.200   1.740   8.521 -0.3939  0.1065 -0.0837
 4829SOL    HW125949   4.105   1.747   8.526 -0.3565  0.8130 -0.3705
 4829SOL    HW225950   4.225   1.790   8.600  3.2381 -2.3695  0.3337
 4830SOL     OW25951   4.279   2.815   9.072  0.0654 -0.1665 -0.0866
 4830SOL    HW125952   4.303   2.901   9.104  0.5422  0.2271 -1.4966
 4830SOL    HW225953   4.247   2.766   9.148  2.6816 -3.1149 -0.8521
 4831SOL     OW25954   0.793   2.730   4.623  0.2555 -0.2065  0.1883
 4831SOL    HW125955   0.834   2.730   4.710  2.0256 -0.6902 -0.6358
 4831SOL    HW225956   0.863   2.689   4.573  1.3655 -0.4079  1.8875
 4832SOL     OW25957   1.964   4.609   7.500  0.7332 -0.2193 -0.1360
 4832SOL    HW125958   1.976   4.700   7.473  0.6883  0.2948  1.6044
 4832SOL    HW225959   1.902   4.584   7.431 -0.5009  0.3373  0.7632
 4833SOL     OW25960   0.623   0.646   8.140  0.4533 -0.2974  0.3913
 4833SOL    HW125961   0.583   0.636   8.053 -0.8650  1.6237  0.7722
 4833SOL    HW225962   0.548   0.683   8.186 -0.9169 -0.6438 -1.5816
 4834SOL     OW25963   2.011   2.105  16.995  0.5968  0.5730  0.1539
 4834SOL    HW125964   2.020   2.162  16.919  0.6893  2.8111  1.8163
 4834SOL    HW225965   1.946   2.161  17.037  1.7061  1.6784  0.4267
 4835SOL     OW25966   4.609   0.246   6.024  0.2786 -0.6812  0.0355
 4835SOL    HW125967   4.605   0.191   5.946 -0.0542 -0.9209  0.2244
 4835SOL    HW225968   4.627   0.328   5.978  0.1337 -0.3919  0.4855
 4836SOL     OW25969   2.465   0.716   3.136  0.6275 -0.3300 -0.4687
 4836SOL    HW125970   2.535   0.779   3.152 -0.1329  0.6211 -0.9220
 4836SOL    HW225971   2.417   0.718   3.219  2.2113 -1.5074  0.4780
 4837SOL     OW25972   2.300   2.463   5.893 -0.0260  0.4128  0.0608
 4837SOL    HW125973   2.280   2.454   5.799  1.7174  1.5072 -0.4066
 4837SOL    HW225974   2.226   2.422   5.938  1.2008  0.2913  1.9414
 4838SOL     OW25975   4.297   2.281  16.636  0.1337 -0.0853  0.6362
 4838SOL    HW125976   4.270   2.287  16.728 -1.6828 -0.5833  0.1264
 4838SOL    HW225977   4.218   2.287  16.584  0.6733 -3.0794 -0.5228
 4839SOL     OW25978   1.623   3.563   5.951 -0.4195  0.6504 -0.1453
 4839SOL    HW125979   1.652   3.637   5.896 -1.8350  0.8294 -0.6386
 4839SOL    HW225980   1.633   3.609   6.034 -0.7781 -0.8595  0.7378
 4840SOL     OW25981   0.972   1.383   0.324 -0.1061 -0.2952 -0.4030
 4840SOL    HW125982   0.926   1.300   0.337  1.5245 -1.2766 -0.9479
 4840SOL    HW225983   0.905   1.437   0.281  2.7188  1.6321 -2.3623
 4841SOL     OW25984   0.858   4.600   3.870 -0.1240  0.2401 -0.0040
 4841SOL    HW125985   0.813   4.630   3.948 -1.4467 -0.8883 -0.3288
 4841SOL    HW225986   0.853   4.505   3.883  1.7003  0.0644 -0.5561
 4842SOL     OW25987   3.278   4.371   7.435 -0.2315 -0.4293 -0.1666
 4842SOL    HW125988   3.288   4.294   7.491 -1.8926 -1.3015 -1.0789
 4842SOL    HW225989   3.208   4.415   7.483  0.0979 -1.7165  1.4837
 4843SOL     OW25990   4.215   0.725   8.806 -0.5259  0.0071  0.1075
 4843SOL    HW125991   4.288   0.769   8.849  0.0174 -0.4915 -0.3060
 4843SOL    HW225992   4.150   0.794   8.795 -1.2196 -1.2030 -3.4868
 4844SOL     OW25993   4.177   1.003   8.486 -0.1679  0.0368 -0.3667
 4844SOL    HW125994   4.180   1.095   8.462  1.7391 -0.3024 -1.4024
 4844SOL    HW225995   4.160   0.965   8.399  0.7450  0.2328 -0.6258
 4845SOL     OW25996   4.166   2.885   1.678 -0.3654 -0.1105  0.2018
 4845SOL    HW125997   4.087   2.868   1.730 -1.6372 -1.8245 -2.2300
 4845SOL    HW225998   4.136   2.838   1.599  1.4112  0.0689 -0.5723
 4846SOL     OW25999   4.264   3.659   5.345 -0.4080  0.4488  0.5941
 4846SOL    HW126000   4.255   3.569   5.315 -0.1309  0.5922  0.0723
 4846SOL    HW226001   4.357   3.671   5.363 -0.7410  2.7430  0.7831
 4847SOL     OW26002   0.561   3.433   6.518 -0.2654  0.1295 -0.7570
 4847SOL    HW126003   0.535   3.368   6.454  0.5354 -1.3565  0.4442
 4847SOL    HW226004   0.652   3.450   6.494 -0.5779  1.3862 -1.0962
 4848SOL     OW26005   2.872   1.194   2.365  0.3681 -0.3186  0.8428
 4848SOL    HW126006   2.826   1.202   2.448  0.3202 -1.7821  0.9608
 4848SOL    HW226007   2.958   1.230   2.386 -0.0779  1.8228 -0.9844
 4849SOL     OW26008   2.442   2.169  11.776 -0.0816  0.2822  0.1307
 4849SOL    HW126009   2.372   2.182  11.712  0.6984  0.8756 -0.6033
 4849SOL    HW226010   2.446   2.073  11.780 -0.6762  0.2409 -0.2315
 4850SOL     OW26011   1.533   4.040   3.409  0.3842  0.1947  0.0135
 4850SOL    HW126012   1.519   4.074   3.497  2.9322  0.5687  0.2526
 4850SOL    HW226013   1.454   3.985   3.411  0.2340  0.3565 -2.0209
 4851SOL     OW26014   3.775   4.656   3.281 -0.5283  0.1021  0.1141
 4851SOL    HW126015   3.684   4.653   3.254 -0.1520 -1.3389 -0.9767
 4851SOL    HW226016   3.804   0.002   3.224  0.3613  0.0495  0.4907
 4852SOL     OW26017   3.248   4.409   4.837  0.0077  0.4186 -0.0019
 4852SOL    HW126018   3.280   4.494   4.869  0.3297  1.2258 -2.4872
 4852SOL    HW226019   3.324   4.355   4.857 -0.7135 -0.7016 -0.3108
 4853SOL     OW26020   0.042   3.919   3.717  0.1840 -0.1129  0.6987
 4853SOL    HW126021   0.011   3.838   3.675  0.8813  0.7000 -1.4035
 4853SOL    HW226022   0.055   3.882   3.804 -0.2249  0.2209  0.8978
 4854SOL     OW26023   0.352   1.685   7.811 -0.0259  0.2038 -0.0401
 4854SOL    HW126024   0.389   1.607   7.769 -0.1114 -0.1587  0.5713
 4854SOL    HW226025   0.259   1.667   7.815 -0.1918  0.8499 -0.8878
 4855SOL     OW26026   2.483   2.049   6.339  0.4038  0.3947  0.0452
 4855SOL    HW126027   2.494   2.121   6.401  0.6420 -1.6340  2.3909
 4855SOL    HW226028   2.564   2.001   6.355 -0.9888 -1.8390  0.4200
 4856SOL     OW26029   0.594   1.482   3.462  0.0123  0.2262  0.7081
 4856SOL    HW126030   0.530   1.535   3.508 -0.9494  0.5641 -1.0195
 4856SOL    HW226031   0.547   1.398   3.459  1.1698 -0.5042  3.4763
 4857SOL     OW26032   1.586   1.383   2.432 -0.5003  0.2249  0.2400
 4857SOL    HW126033   1.651   1.383   2.362  1.6478 -1.9661  2.2226
 4857SOL    HW226034   1.541   1.299   2.417 -1.0014  0.5246  0.0654
 4858SOL     OW26035   3.410   0.505   0.598 -0.0736  0.0370 -0.6530
 4858SOL    HW126036   3.341   0.447   0.629  2.3565 -1.6484  1.5480
 4858SOL    HW226037   3.479   0.478   0.658 -1.4227 -0.3202  0.7639
 4859SOL     OW26038   1.917   1.947   6.114 -0.6666 -0.2843 -0.4989
 4859SOL    HW126039   1.975   1.886   6.068 -1.8951 -0.7081 -1.5076
 4859SOL    HW226040   1.971   1.975   6.187 -0.7600 -1.6346  0.0944
 4860SOL     OW26041   1.165   2.436   3.396 -0.5582 -0.6127  0.1507
 4860SOL    HW126042   1.086   2.487   3.409 -1.0898 -1.1984 -0.7686
 4860SOL    HW226043   1.230   2.488   3.443  0.1426 -1.9615  0.6896
 4861SOL     OW26044   1.232   4.478  16.062  0.4102 -0.5772 -0.3201
 4861SOL    HW126045   1.273   4.533  16.129 -0.8203 -0.6515  0.4997
 4861SOL    HW226046   1.254   4.388  16.085 -2.5563 -1.1930  0.1146
 4862SOL     OW26047   3.712   2.416   5.287 -0.1989 -0.5841  0.6560
 4862SOL    HW126048   3.679   2.501   5.258  0.8755 -0.2258  0.4627
 4862SOL    HW226049   3.774   2.437   5.357  0.2465 -1.1914  0.4443
 4863SOL     OW26050   0.773   1.237   3.313  0.5842  0.2428  0.4980
 4863SOL    HW126051   0.762   1.165   3.376  0.3538  0.3732  0.6070
 4863SOL    HW226052   0.805   1.190   3.236 -0.6353  1.1025 -0.5332
 4864SOL     OW26053   1.920   1.752   4.423 -0.2928 -0.1592  0.3783
 4864SOL    HW126054   1.834   1.793   4.434 -0.3603  0.1157 -1.1598
 4864SOL    HW226055   1.911   1.686   4.491 -0.9894  0.9002  1.3062
 4865SOL     OW26056   2.953   4.268   8.700 -0.2128  0.3294 -0.2274
 4865SOL    HW126057   2.886   4.207   8.731  0.2359  0.0200  0.1196
 4865SOL    HW226058   3.010   4.258   8.776 -2.7679 -1.2342  1.5043
 4866SOL     OW26059   1.372   1.452   3.539  0.0455 -0.2016 -0.1353
 4866SOL    HW126060   1.429   1.380   3.512  1.3787  1.2756 -1.2889
 4866SOL    HW226061   1.427   1.523   3.505 -0.3666 -1.2437 -2.9986
 4867SOL     OW26062   3.181   2.571  10.775 -0.7315 -0.8193 -0.5347
 4867SOL    HW126063   3.085   2.576  10.769 -0.8345 -1.3381  0.9082
 4867SOL    HW226064   3.197   2.600  10.865  2.7694  2.2107 -2.1181
 4868SOL     OW26065   2.679   0.517   3.191  0.4363  0.8255 -0.1976
 4868SOL    HW126066   2.595   0.476   3.168 -0.2618  0.7678  2.4707
 4868SOL    HW226067   2.652   0.556   3.274 -0.0729 -0.4333  0.2404
 4869SOL     OW26068   3.353   2.468  15.226  0.3148 -0.0639  0.1135
 4869SOL    HW126069   3.333   2.508  15.310 -0.2852  2.2794 -1.1321
 4869SOL    HW226070   3.330   2.378  15.249  0.2911 -0.4324 -1.3124
 4870SOL     OW26071   0.835   1.404   4.871 -0.1266 -0.1625  0.2113
 4870SOL    HW126072   0.804   1.412   4.781  0.0962  2.3795  0.3592
 4870SOL    HW226073   0.843   1.309   4.878 -1.1744 -0.2370  0.5240
 4871SOL     OW26074   3.373   4.041   5.477  0.1978 -0.1645  0.0433
 4871SOL    HW126075   3.282   4.041   5.449  0.1364 -0.7086  0.2529
 4871SOL    HW226076   3.365   3.998   5.562  1.0896 -2.5814 -1.1111
 4872SOL     OW26077   4.067   0.998   6.214  0.2564 -0.2482  0.6015
 4872SOL    HW126078   4.117   0.965   6.140  0.5143  2.1988 -0.3085
 4872SOL    HW226079   3.981   0.973   6.179 -0.4314  0.8899  1.4625
 4873SOL     OW26080   3.268   0.326   0.794 -0.2927 -1.0277 -0.4578
 4873SOL    HW126081   3.319   0.294   0.868 -0.9368 -0.5183  0.2106
 4873SOL    HW226082   3.237   0.240   0.766 -2.1594 -0.9152  1.2243
 4874SOL     OW26083   0.604   1.642   4.688 -0.2493 -0.0468  0.6034
 4874SOL    HW126084   0.594   1.655   4.782  1.4698 -0.4289  0.8365
 4874SOL    HW226085   0.691   1.605   4.673 -0.5975  0.4213 -2.5145
 4875SOL     OW26086   2.876   0.753   8.158  0.2176  0.2911  0.3002
 4875SOL    HW126087   2.897   0.842   8.129 -1.7468 -0.2827 -2.9272
 4875SOL    HW226088   2.968   0.729   8.172 -0.1643 -2.5112 -1.9429
 4876SOL     OW26089   1.905   0.956   3.386  0.6263 -0.1352  0.0325
 4876SOL    HW126090   1.835   0.952   3.320  1.2550 -0.8256 -0.5890
 4876SOL    HW226091   1.941   1.043   3.370  0.2372  0.0096 -0.0709
 4877SOL     OW26092   0.863   1.438   2.724  0.0370 -0.5446 -0.4435
 4877SOL    HW126093   0.788   1.395   2.683 -1.1449  1.2442 -0.1818
 4877SOL    HW226094   0.909   1.472   2.647 -0.7482 -0.7464 -1.0079
 4878SOL     OW26095   1.005   0.951  13.843  0.6031 -0.3062  0.2115
 4878SOL    HW126096   0.919   0.987  13.866  0.1876 -0.0464 -1.7641
 4878SOL    HW226097   1.052   0.952  13.927  1.4394  1.4139 -0.2881
 4879SOL     OW26098   3.480   4.083   4.034 -0.0323 -0.0714  0.6084
 4879SOL    HW126099   3.497   4.055   4.124 -0.5460  0.5558  0.9023
 4879SOL    HW226100   3.566   4.065   3.996 -0.3988 -2.3259  0.8599
 4880SOL     OW26101   0.273   0.184   7.155 -0.5079  0.6473 -1.3586
 4880SOL    HW126102   0.251   0.093   7.132 -3.6578  0.2081  3.3722
 4880SOL    HW226103   0.195   0.233   7.129 -1.6282 -0.2803  0.1910
 4881SOL     OW26104   1.198   2.573  11.392 -0.2914  0.5675 -0.4244
 4881SOL    HW126105   1.182   2.571  11.486  0.0664 -2.3709 -0.4235
 4881SOL    HW226106   1.189   2.667  11.372  0.8482  0.8915  0.6141
 4882SOL     OW26107   0.052   0.501   6.140  0.4147 -0.5123  0.0866
 4882SOL    HW126108   0.005   0.498   6.056 -2.3585  0.0978  1.6413
 4882SOL    HW226109   0.106   0.422   6.147 -0.2202 -0.9238  0.2824
 4883SOL     OW26110   3.461   2.244   5.251  1.0125 -0.2536 -0.0832
 4883SOL    HW126111   3.550   2.278   5.263  0.1885  1.9011 -0.1197
 4883SOL    HW226112   3.464   2.171   5.313 -1.2311 -1.5704 -1.5482
 4884SOL     OW26113   3.672   0.194   0.831 -0.6615  0.1006 -0.1253
 4884SOL    HW126114   3.686   0.193   0.926 -0.8145  0.3881 -0.0989
 4884SOL    HW226115   3.701   0.105   0.810  0.3757  0.7408 -1.3817
 4885SOL     OW26116   4.527   0.557  17.703 -0.3231  0.0470  0.1459
 4885SOL    HW126117   4.531   0.505   0.076  0.4506  0.6283  0.4824
 4885SOL    HW226118   4.504   0.492  17.637  0.4149  0.0010 -0.0612
 4886SOL     OW26119   0.585   1.231  16.433  0.0173  0.1553 -0.3524
 4886SOL    HW126120   0.534   1.151  16.423  0.6923 -0.0333 -2.2595
 4886SOL    HW226121   0.558   1.259  16.521  1.3528 -1.2686  0.5273
 4887SOL     OW26122   0.216   2.040   4.231  0.4769 -0.2264  0.1253
 4887SOL    HW126123   0.128   2.004   4.242 -0.1281  1.4321  0.7042
 4887SOL    HW226124   0.240   2.070   4.319  3.0694  3.6527 -1.9293
 4888SOL     OW26125   1.772   1.324   4.975  0.0304 -0.5224  0.1573
 4888SOL    HW126126   1.704   1.260   5.000 -1.0210 -0.7386 -3.3278
 4888SOL    HW226127   1.717   1.396   4.945 -2.4933 -2.7598 -0.6183
 4889SOL     OW26128   3.507   3.071  15.540  0.2425  0.0240  0.1828
 4889SOL    HW126129   3.523   3.049  15.448 -1.3053  0.5687 -0.2098
 4889SOL    HW226130   3.582   3.035  15.587  0.0667 -1.1962 -0.4647
 4890SOL     OW26131   4.630   1.218   6.679  0.1247 -0.6991  0.2665
 4890SOL    HW126132   4.563   1.161   6.641  0.2842 -0.4584 -0.3615
 4890SOL    HW226133   4.710   1.166   6.690 -0.0331 -0.7162  1.4021
 4891SOL     OW26134   0.602   3.614   1.907 -0.7289  0.3480 -0.1421
 4891SOL    HW126135   0.672   3.558   1.873 -0.6653  1.0752 -1.2051
 4891SOL    HW226136   0.620   3.708   1.904  1.1885 -0.0070  0.3708
 4892SOL     OW26137   4.518   4.576   8.854  0.1732 -0.0754  0.3394
 4892SOL    HW126138   4.518   4.669   8.831 -0.1187 -0.5317 -1.5557
 4892SOL    HW226139   4.439   4.555   8.903 -0.7765 -0.3064 -1.2784
 4893SOL     OW26140   0.452   1.126   3.067 -0.4270 -0.3647 -1.5498
 4893SOL    HW126141   0.510   1.087   3.002  1.5326 -0.1981  0.0942
 4893SOL    HW226142   0.440   1.211   3.027 -0.7252  0.8244  1.0329
 4894SOL     OW26143   1.075   2.951   3.798 -0.9448 -0.0404  0.5142
 4894SOL    HW126144   1.130   3.009   3.745  3.2673 -1.5534  3.2584
 4894SOL    HW226145   1.023   2.906   3.731 -0.8104 -1.8249  1.6216
 4895SOL     OW26146   3.516   2.008   5.389  0.1953 -0.0447  0.5594
 4895SOL    HW126147   3.493   1.932   5.334 -2.3743  0.4802  0.9075
 4895SOL    HW226148   3.509   1.973   5.478  0.8666  1.9569  1.3855
 4896SOL     OW26149   0.163   3.029  10.089  0.2339  0.2298 -0.3855
 4896SOL    HW126150   0.148   3.029  10.183  2.0190 -0.9679 -0.0877
 4896SOL    HW226151   0.177   3.123  10.076 -1.4043  0.5817  0.4472
 4897SOL     OW26152   4.230   4.129   3.288 -0.7857 -0.1453  0.1710
 4897SOL    HW126153   4.293   4.059   3.307 -0.7092 -0.1787 -0.2065
 4897SOL    HW226154   4.158   4.086   3.244 -2.3474  0.4310  2.1734
 4898SOL     OW26155   1.192   4.630   2.378 -0.7942 -0.1762  0.2536
 4898SOL    HW126156   1.185   4.535   2.366 -1.6946  0.0492 -0.9751
 4898SOL    HW226157   1.187   4.673   2.292 -0.3654 -1.8817 -0.6307
 4899SOL     OW26158   3.948   4.718   4.478 -0.0184 -0.1713 -0.2375
 4899SOL    HW126159   4.006   4.651   4.443 -0.6369 -1.8735  2.0250
 4899SOL    HW226160   3.891   0.014   4.404 -1.4900  0.9532  1.2300
 4900SOL     OW26161   1.776   3.635   6.177 -0.4198  0.5753 -0.1570
 4900SOL    HW126162   1.856   3.688   6.175  1.2558 -1.9878 -0.4747
 4900SOL    HW226163   1.803   3.552   6.137  0.7765  0.5213  0.7620
 4901SOL     OW26164   4.702   3.948   9.010  0.4366  0.5844  0.4406
 4901SOL    HW126165   4.685   4.022   8.952  2.3766  0.3730 -0.3873
 4901SOL    HW226166   0.042   3.982   9.070 -0.3056  1.1240  0.9514
 4902SOL     OW26167   3.835   3.324  13.881  0.3151 -0.4364  0.6592
 4902SOL    HW126168   3.893   3.333  13.806 -0.5322  0.0336  0.0628
 4902SOL    HW226169   3.842   3.415  13.909 -1.1561 -0.2770  0.4847
 4903SOL     OW26170   1.524   2.895  11.028  0.0038 -0.1756  0.6689
 4903SOL    HW126171   1.617   2.916  11.032 -0.0672  0.3639 -0.4037
 4903SOL    HW226172   1.489   2.978  11.060  2.2988  0.7587  0.7470
 4904SOL     OW26173   3.007   0.993   8.119 -0.4005 -0.6812 -0.2081
 4904SOL    HW126174   2.960   1.059   8.170  0.4660 -0.0347 -0.2305
 4904SOL    HW226175   3.097   1.014   8.144 -0.7476  3.3008 -2.3294
 4905SOL     OW26176   4.526   0.455   5.677 -0.6684  0.4653  0.4857
 4905SOL    HW126177   4.590   0.461   5.606 -0.5348  1.6155  0.7082
 4905SOL    HW226178   4.444   0.485   5.636 -0.8192 -1.4287 -0.5889
 4906SOL     OW26179   4.234   4.247   8.114  0.2630  0.0960 -0.0650
 4906SOL    HW126180   4.178   4.220   8.187 -0.1974  0.9499 -0.0987
 4906SOL    HW226181   4.301   4.288   8.168  0.7013  0.7641 -1.1141
 4907SOL     OW26182   0.858   3.310   8.931 -0.6788  0.9550 -0.4305
 4907SOL    HW126183   0.808   3.238   8.892  1.0853  0.5357 -1.9192
 4907SOL    HW226184   0.829   3.382   8.875 -0.7188  2.9167  2.1194
 4908SOL     OW26185   4.316   0.727   2.636  0.1113 -0.1807  0.1680
 4908SOL    HW126186   4.233   0.679   2.630 -1.1687  2.1030 -0.7892
 4908SOL    HW226187   4.365   0.702   2.714  1.6412  0.6363 -0.5240
 4909SOL     OW26188   0.260   4.328  16.407 -0.1760  0.4262 -0.4183
 4909SOL    HW126189   0.262   4.234  16.387 -0.4888  0.0049  1.5418
 4909SOL    HW226190   0.188   4.327  16.470 -0.9156 -1.3708 -1.2820
 4910SOL     OW26191   1.743   3.099   4.529  0.9295 -0.0059  0.1197
 4910SOL    HW126192   1.665   3.153   4.547  0.9269  0.0159  0.0407
 4910SOL    HW226193   1.770   3.143   4.449  1.1985  1.1168  0.8236
 4911SOL     OW26194   1.981   1.484   7.227 -0.3899 -0.7412 -0.1289
 4911SOL    HW126195   2.022   1.507   7.310  1.7115  2.2787 -2.0209
 4911SOL    HW226196   2.055   1.483   7.166  0.6729  1.4666  1.1417
 4912SOL     OW26197   4.060   0.459   4.424 -0.2682 -0.5025 -0.3002
 4912SOL    HW126198   4.043   0.479   4.516 -1.6152  1.3972 -0.9618
 4912SOL    HW226199   4.148   0.493   4.406 -0.7817  1.3005  0.6194
 4913SOL     OW26200   1.677   3.386  12.421 -0.0941  0.1949 -0.0063
 4913SOL    HW126201   1.583   3.388  12.406 -0.1829 -1.4362  0.3425
 4913SOL    HW226202   1.698   3.341  12.339  1.4790 -2.2824  1.7365
 4914SOL     OW26203   1.259   3.360  12.108 -0.0332  0.1792  0.3292
 4914SOL    HW126204   1.173   3.399  12.094 -0.7854 -2.0676 -1.2823
 4914SOL    HW226205   1.281   3.335  12.018  1.5881 -2.0132  1.3582
 4915SOL     OW26206   1.273   1.427   8.038 -0.0923  0.4723  0.6686
 4915SOL    HW126207   1.240   1.455   8.123  0.8798  2.3094  0.4457
 4915SOL    HW226208   1.357   1.397   8.072 -0.9060 -0.0456  2.2270
 4916SOL     OW26209   2.666   3.387   0.264 -0.1420 -0.2367  0.4924
 4916SOL    HW126210   2.581   3.430   0.277 -0.6558 -1.2212  0.4188
 4916SOL    HW226211   2.638   3.302   0.227  1.3954  0.1512 -1.5354
 4917SOL     OW26212   1.658   0.487   8.542 -0.1123 -0.0144  0.1930
 4917SOL    HW126213   1.691   0.572   8.570  0.2171 -0.1715  0.2814
 4917SOL    HW226214   1.737   0.441   8.515 -0.3097  0.1630 -0.6990
 4918SOL     OW26215   3.107   3.452   8.037  0.2732  0.3772 -0.2100
 4918SOL    HW126216   3.081   3.543   8.025  0.8063  0.5099 -0.3623
 4918SOL    HW226217   3.048   3.406   7.977 -0.0410 -2.0196  1.9102
 4919SOL     OW26218   3.260   0.019   6.891  0.1261  0.5604  0.1279
 4919SOL    HW126219   3.345   4.715   6.920  0.5291  1.9723  0.4087
 4919SOL    HW226220   3.220   4.660   6.874  0.8542  0.3891 -0.7215
 4920SOL     OW26221   2.360   4.128   6.175 -0.1749 -0.0285 -0.3845
 4920SOL    HW126222   2.377   4.084   6.258 -0.3550  0.6493  0.0111
 4920SOL    HW226223   2.316   4.057   6.127 -0.0249 -0.7818  0.5934
 4921SOL     OW26224   1.402   1.903   3.166 -0.2619 -0.1793  0.1027
 4921SOL    HW126225   1.457   1.897   3.088 -0.9072  0.8819 -0.4380
 4921SOL    HW226226   1.436   1.983   3.205 -0.0090  0.1935 -0.8810
 4922SOL     OW26227   3.016   3.947   7.825 -0.0095  0.6169 -0.1098
 4922SOL    HW126228   3.045   4.015   7.886  1.3430  1.1719 -1.3571
 4922SOL    HW226229   2.942   3.995   7.787  0.6737  0.8075 -1.1979
 4923SOL     OW26230   3.866   0.684  15.894 -0.9427 -0.3899 -0.4152
 4923SOL    HW126231   3.928   0.757  15.894 -1.3255 -0.0642 -0.7251
 4923SOL    HW226232   3.795   0.719  15.840  0.1194 -0.3148 -1.7616
 4924SOL     OW26233   2.317   1.541   1.006  0.4039 -0.2890 -0.6750
 4924SOL    HW126234   2.356   1.479   0.944  2.9453  1.8213 -1.1781
 4924SOL    HW226235   2.371   1.535   1.085  0.6990 -1.6349 -0.9749
 4925SOL     OW26236   4.134   3.131   5.192 -0.0590  0.4502 -0.2230
 4925SOL    HW126237   4.137   3.042   5.226 -0.4162  1.1946  1.7186
 4925SOL    HW226238   4.057   3.169   5.233 -0.2811 -1.0394  0.7230
 4926SOL     OW26239   0.329   0.619   3.331  0.2759 -0.0392  0.5090
 4926SOL    HW126240   0.313   0.578   3.416  1.0419  1.0334  1.1793
 4926SOL    HW226241   0.249   0.605   3.280 -0.3711  1.0385  1.2161
 4927SOL     OW26242   3.871   1.261   3.449  0.1179  0.1530  0.0908
 4927SOL    HW126243   3.924   1.240   3.526 -1.4039  0.8033  1.3210
 4927SOL    HW226244   3.928   1.327   3.410  1.0269 -1.5464 -1.4211
 4928SOL     OW26245   0.950   3.999   0.694  0.0699  0.1770  0.1729
 4928SOL    HW126246   1.039   4.029   0.675  0.2784 -1.9051 -2.1866
 4928SOL    HW226247   0.900   4.059   0.640 -0.5299  0.6224  1.2267
 4929SOL     OW26248   2.386   1.606  13.609 -0.0253  0.6833  0.1887
 4929SOL    HW126249   2.338   1.548  13.550  1.7665  0.8160 -1.4243
 4929SOL    HW226250   2.420   1.676  13.552  0.8152  1.5662  1.7938
 4930SOL     OW26251   3.027   2.138   3.483 -0.0460  0.2563  0.7353
 4930SOL    HW126252   2.989   2.207   3.537 -2.1054 -0.2835 -0.0086
 4930SOL    HW226253   3.117   2.139   3.515 -0.2059 -0.5046  1.2106
 4931SOL     OW26254   2.993   3.459   5.833  0.3758  0.1323 -0.2686
 4931SOL    HW126255   2.973   3.416   5.750  2.4884  1.4190 -1.4323
 4931SOL    HW226256   3.077   3.501   5.815  1.1942 -0.5904  1.7559
 4932SOL     OW26257   2.661   3.751   5.575 -0.1538 -0.1406  0.6608
 4932SOL    HW126258   2.611   3.680   5.617 -0.3750 -0.5474 -0.2995
 4932SOL    HW226259   2.610   3.771   5.496  2.0405  0.9028 -0.4758
 4933SOL     OW26260   2.433   2.167   3.085 -0.2074 -0.0637 -0.1801
 4933SOL    HW126261   2.499   2.142   3.020  0.0409 -0.1366  0.0978
 4933SOL    HW226262   2.463   2.258   3.086  0.9712 -0.4488  0.4929
 4934SOL     OW26263   1.993   3.602   8.832  0.1162 -0.7473 -0.0826
 4934SOL    HW126264   1.940   3.527   8.805 -1.5056 -0.6076  2.7592
 4934SOL    HW226265   2.053   3.568   8.898  0.1886  0.6562  0.5792
 4935SOL     OW26266   1.150   2.693   9.302 -0.3197  0.1283  0.1284
 4935SOL    HW126267   1.121   2.770   9.252  2.4248 -0.0037 -1.7094
 4935SOL    HW226268   1.135   2.614   9.250  0.4021  0.7403 -1.0038
 4936SOL     OW26269   3.541   1.522   8.948 -0.1249  0.1730 -0.0909
 4936SOL    HW126270   3.474   1.589   8.964 -0.5320 -0.5195  1.0914
 4936SOL    HW226271   3.628   1.562   8.952  0.7501 -1.8409  1.1271
 4937SOL     OW26272   2.847   2.865   5.026 -0.0053 -0.6438  0.2864
 4937SOL    HW126273   2.846   2.954   5.061 -0.5030 -0.6325  0.2367
 4937SOL    HW226274   2.768   2.833   5.069 -1.5857  1.6090 -0.9684
 4938SOL     OW26275   1.646   2.208  10.575  0.3408  0.2258 -0.1903
 4938SOL    HW126276   1.657   2.169  10.662 -0.8472 -2.2746 -1.1739
 4938SOL    HW226277   1.739   2.223  10.561  0.6676 -1.0911  0.5181
 4939SOL     OW26278   4.714   1.732   5.104  0.2549  0.3731 -0.2631
 4939SOL    HW126279   4.680   1.704   5.018 -1.4132  0.0554  0.5004
 4939SOL    HW226280   4.638   1.783   5.132  0.1673 -0.0192  0.2224
 4940SOL     OW26281   1.811   3.053   9.085 -0.9658 -0.2255  0.0645
 4940SOL    HW126282   1.719   3.031   9.067 -0.6978 -0.5102 -0.9729
 4940SOL    HW226283   1.815   3.147   9.106  1.2844 -0.4858  0.7717
 4941SOL     OW26284   3.253   0.169   5.834 -0.3506 -0.0310 -0.0448
 4941SOL    HW126285   3.300   0.246   5.802  0.6078 -0.9545 -0.8519
 4941SOL    HW226286   3.323   0.115   5.870  0.6151 -0.6986 -2.9145
 4942SOL     OW26287   0.937   3.264   1.724  0.1445 -0.4544 -0.4091
 4942SOL    HW126288   0.872   3.211   1.770 -0.5429  1.2213  0.5400
 4942SOL    HW226289   1.017   3.257   1.775 -1.0360 -1.6765  1.2794
 4943SOL     OW26290   0.587   0.097   1.301 -0.0745 -0.4423  0.4267
 4943SOL    HW126291   0.579   0.115   1.207 -1.4480 -1.1490  0.4124
 4943SOL    HW226292   0.620   0.007   1.299 -0.3581 -0.4878 -2.6527
 4944SOL     OW26293   0.795   1.493   4.311  0.7953  0.5261  0.2501
 4944SOL    HW126294   0.705   1.478   4.281  0.5341 -0.1083  1.3621
 4944SOL    HW226295   0.840   1.451   4.238  0.3012  0.4307 -0.0031
 4945SOL     OW26296   3.217   2.171  14.388 -0.1064 -0.6409  0.0930
 4945SOL    HW126297   3.142   2.163  14.447 -1.0099 -0.8685 -1.0714
 4945SOL    HW226298   3.255   2.251  14.423  1.2364 -1.9596  1.6633
 4946SOL     OW26299   2.846   2.419   4.063 -0.2482  0.1659  0.1312
 4946SOL    HW126300   2.893   2.495   4.098 -3.3368  2.0213  0.2907
 4946SOL    HW226301   2.832   2.372   4.145 -0.5286 -0.4887 -0.2920
 4947SOL     OW26302   1.841   1.697   6.724  0.2820  0.0036  0.4057
 4947SOL    HW126303   1.775   1.747   6.772  1.8498  3.0770 -0.6923
 4947SOL    HW226304   1.799   1.666   6.644 -2.1730  0.0179  1.6869
 4948SOL     OW26305   0.221   3.117   9.306  0.1456  0.5673 -0.4479
 4948SOL    HW126306   0.246   3.183   9.371 -0.4846  0.4257 -0.0654
 4948SOL    HW226307   0.233   3.159   9.221 -3.0509  1.7309 -0.3232
 4949SOL     OW26308   0.772   3.956   1.637  0.5184 -0.4401  0.2320
 4949SOL    HW126309   0.819   3.906   1.570  1.2819 -1.4195  1.5032
 4949SOL    HW226310   0.829   4.031   1.652  0.2606 -0.5299  1.7121
 4950SOL     OW26311   4.180   0.171   1.941 -0.1249 -0.0687  0.5638
 4950SOL    HW126312   4.106   0.141   1.995  0.5004  1.6672  2.3911
 4950SOL    HW226313   4.222   0.088   1.918  0.6610  0.7716 -1.0279
 4951SOL     OW26314   1.177   2.014   3.816 -0.0089  0.0718 -0.3385
 4951SOL    HW126315   1.170   2.067   3.895 -0.5842  1.4668 -1.3249
 4951SOL    HW226316   1.094   2.033   3.771  0.7721  0.0420 -1.7995
 4952SOL     OW26317   4.274   4.610   5.579  0.4009 -0.0901  0.3337
 4952SOL    HW126318   4.285   4.584   5.488 -1.1263 -0.5127  0.2621
 4952SOL    HW226319   4.289   4.705   5.585 -1.6520  0.3033 -0.6059
 4953SOL     OW26320   3.317   3.254   4.011 -0.2428  0.3249  0.2139
 4953SOL    HW126321   3.333   3.258   4.105 -2.4883  0.2232  0.5959
 4953SOL    HW226322   3.235   3.205   4.007  0.5054 -1.0390  1.6123
 4954SOL     OW26323   4.116   4.063   1.479  0.1689  0.8574 -0.5400
 4954SOL    HW126324   4.042   4.114   1.512 -1.0994 -1.3561  0.0493
 4954SOL    HW226325   4.124   3.991   1.542 -0.2121  2.3469  1.2261
 4955SOL     OW26326   0.485   2.598   9.538 -0.5700  0.4906 -0.5449
 4955SOL    HW126327   0.461   2.620   9.449 -1.0359  0.1525 -0.5016
 4955SOL    HW226328   0.417   2.635   9.595  1.7635 -0.8148  3.1300
 4956SOL     OW26329   4.593   1.419   0.295 -0.0981 -0.4907  0.3976
 4956SOL    HW126330   4.557   1.360   0.360 -1.1367  0.2425  0.4892
 4956SOL    HW226331   4.593   1.501   0.344  0.8397 -1.5789  2.1866
 4957SOL     OW26332   3.086   3.928   5.762  0.5645  0.7966 -0.0711
 4957SOL    HW126333   3.083   3.905   5.670 -0.5957  1.2522 -0.1547
 4957SOL    HW226334   3.019   3.995   5.775 -1.6556 -1.2045 -1.1474
 4958SOL     OW26335   4.189   3.139  17.566 -0.2547  0.0435 -0.2711
 4958SOL    HW126336   4.203   3.059  17.618  0.6514  1.7215  2.0544
 4958SOL    HW226337   4.121   3.172  17.625 -1.1597 -0.8823 -0.7989
 4959SOL     OW26338   3.405   4.080   5.133 -0.3310  0.2088 -0.0033
 4959SOL    HW126339   3.339   4.013   5.120 -0.1234  0.0011  0.0087
 4959SOL    HW226340   3.478   4.026   5.166  0.4037  1.4650  0.4403
 4960SOL     OW26341   2.428   3.473   3.852 -0.1576  0.4723 -0.0986
 4960SOL    HW126342   2.408   3.421   3.774  0.9365 -1.3280  0.8377
 4960SOL    HW226343   2.344   3.518   3.861 -0.6700 -0.1147 -1.8722
 4961SOL     OW26344   0.312   3.823   4.188  0.9988  0.1037  0.3629
 4961SOL    HW126345   0.241   3.838   4.250  1.6279  0.2165  1.0500
 4961SOL    HW226346   0.259   3.848   4.112  1.3388 -1.0246 -0.2317
 4962SOL     OW26347   0.142   0.746  16.484  0.2017  0.1092 -0.3801
 4962SOL    HW126348   0.205   0.685  16.447  0.0822  1.1587 -2.3075
 4962SOL    HW226349   0.066   0.690  16.494 -0.5536  1.1611 -0.2081
 4963SOL     OW26350   4.128   2.814   9.386  0.4322 -0.1461 -0.0270
 4963SOL    HW126351   4.120   2.725   9.352 -0.1916  0.0591 -0.4139
 4963SOL    HW226352   4.034   2.827   9.396  0.5501  1.5414 -1.1418
 4964SOL     OW26353   4.099   1.122   2.607  0.6823 -0.1626 -0.1966
 4964SOL    HW126354   4.136   1.073   2.534  1.6028  1.5922 -0.9055
 4964SOL    HW226355   4.009   1.122   2.575  0.2332 -3.9202  1.0430
 4965SOL     OW26356   0.373   2.877   7.282 -0.6319 -0.3166 -0.0320
 4965SOL    HW126357   0.354   2.787   7.254  0.1891 -0.4420 -0.1789
 4965SOL    HW226358   0.309   2.882   7.352  2.2914  6.0773  2.1400
 4966SOL     OW26359   4.029   2.551  16.759 -0.4208  0.0289 -0.1599
 4966SOL    HW126360   4.052   2.563  16.851 -1.1126 -0.1774  0.0375
 4966SOL    HW226361   4.120   2.548  16.727 -0.1021 -1.7536  0.9560
 4967SOL     OW26362   2.547   3.229   2.552  0.3899 -0.4571  0.2326
 4967SOL    HW126363   2.612   3.237   2.622  1.1954  2.0476 -0.8079
 4967SOL    HW226364   2.546   3.134   2.550  0.6509 -0.4191 -1.7955
 4968SOL     OW26365   3.787   1.598   2.820 -0.2169 -0.6443 -0.1390
 4968SOL    HW126366   3.780   1.530   2.887 -2.1773 -0.5801 -0.2738
 4968SOL    HW226367   3.698   1.600   2.785 -1.7338 -0.4225  3.7266
 4969SOL     OW26368   2.123   3.275   6.839  0.2691 -0.2739 -0.4904
 4969SOL    HW126369   2.175   3.333   6.783  0.9648 -2.0010 -1.6139
 4969SOL    HW226370   2.037   3.276   6.796 -1.4457  0.2885  2.8969
 4970SOL     OW26371   2.872   0.816   4.798  0.0714 -0.6064  0.3141
 4970SOL    HW126372   2.851   0.796   4.707 -1.3639 -2.0613  0.9688
 4970SOL    HW226373   2.850   0.732   4.838  1.1112 -0.5630  0.9700
 4971SOL     OW26374   1.540   3.639  17.695 -0.1958  0.2645  0.0684
 4971SOL    HW126375   1.462   3.592   0.018 -0.1224  0.3183  0.3436
 4971SOL    HW226376   1.520   3.665  17.605 -2.1128  0.9051  0.6599
 4972SOL     OW26377   4.571   0.724   7.402 -0.0990 -0.2693  0.0783
 4972SOL    HW126378   4.616   0.804   7.431  3.0044 -1.6627 -0.8449
 4972SOL    HW226379   4.636   0.706   7.334  0.4774 -0.0060  0.5562
 4973SOL     OW26380   0.372   1.905   0.886  0.0910 -0.2799 -0.0849
 4973SOL    HW126381   0.402   1.853   0.811 -0.9305  0.6790 -1.1604
 4973SOL    HW226382   0.350   1.981   0.832  0.4924 -0.4857 -0.5342
 4974SOL     OW26383   3.188   2.614  16.109 -0.3322 -0.0899 -0.1870
 4974SOL    HW126384   3.104   2.570  16.100 -0.3980  0.3686 -1.8610
 4974SOL    HW226385   3.251   2.546  16.088 -0.9490 -0.1827 -1.6926
 4975SOL     OW26386   4.642   0.264   4.507 -0.5698 -0.7621  0.1532
 4975SOL    HW126387   4.688   0.180   4.505  0.4678 -0.2261  1.0354
 4975SOL    HW226388   4.693   0.316   4.570 -0.8273 -1.2595  0.7715
 4976SOL     OW26389   0.825   1.079  16.401  0.9397 -0.5730 -0.0095
 4976SOL    HW126390   0.756   1.145  16.400 -0.6391 -2.2234 -0.4452
 4976SOL    HW226391   0.772   1.000  16.390 -1.1756  1.2090 -2.4456
 4977SOL     OW26392   0.956   1.134   3.138  0.2513  0.1791  0.1361
 4977SOL    HW126393   0.953   1.049   3.094  0.1096  0.0666  0.3614
 4977SOL    HW226394   0.958   1.183   3.056 -1.0046  0.0990  0.0596
 4978SOL     OW26395   0.733   3.967   3.098 -0.4826 -0.0356 -0.6104
 4978SOL    HW126396   0.642   3.974   3.126 -1.1884 -0.1212 -2.8594
 4978SOL    HW226397   0.742   4.054   3.058  1.2533  0.3826  0.6573
 4979SOL     OW26398   3.186   3.361  15.977  0.0215 -0.5712 -1.1410
 4979SOL    HW126399   3.135   3.292  15.935  0.0438  0.7197 -3.2626
 4979SOL    HW226400   3.125   3.434  15.989 -0.4892 -1.2267  0.2273
 4980SOL     OW26401   1.962   2.004  16.561 -0.5390 -0.0777  0.2412
 4980SOL    HW126402   2.035   2.057  16.593 -1.8074  0.1399  2.7875
 4980SOL    HW226403   1.897   2.071  16.537 -0.9686 -0.9504 -0.9921
 4981SOL     OW26404   2.329   3.092   8.154 -0.3580  0.4242  0.0544
 4981SOL    HW126405   2.412   3.138   8.171  0.8480 -1.2291 -1.3694
 4981SOL    HW226406   2.325   3.030   8.226  1.7283  0.0141 -0.1682
 4982SOL     OW26407   2.445   3.579   5.228  0.0202  0.0468 -0.2626
 4982SOL    HW126408   2.366   3.621   5.194  0.3200 -0.0170 -1.0494
 4982SOL    HW226409   2.403   3.496   5.251  0.9041 -0.2872  0.1729
 4983SOL     OW26410   2.974   3.505  15.940 -0.9340  0.3680  0.1396
 4983SOL    HW126411   2.891   3.503  15.989 -1.7544  3.8077 -1.1259
 4983SOL    HW226412   2.956   3.438  15.874 -1.5185  0.1923  0.4714
 4984SOL     OW26413   4.439   3.800   5.760  0.1098 -0.0149 -0.0228
 4984SOL    HW126414   4.488   3.786   5.841 -1.2683 -0.1036  0.7796
 4984SOL    HW226415   4.370   3.734   5.758 -0.2428  0.3417  0.2542
 4985SOL     OW26416   3.440   4.621   3.218  0.9206  0.5250  0.1960
 4985SOL    HW126417   3.450   4.526   3.215  0.7469  0.4445  2.1760
 4985SOL    HW226418   3.426   4.639   3.311 -0.0719  2.9352 -0.4133
 4986SOL     OW26419   1.291   1.203  12.327 -0.3215  0.6984  0.5617
 4986SOL    HW126420   1.315   1.206  12.235 -1.0592 -1.3790  0.3107
 4986SOL    HW226421   1.278   1.297  12.341 -0.8558  0.4062  2.0294
 4987SOL     OW26422   3.766   0.931  17.613 -0.0608 -0.6053  0.0982
 4987SOL    HW126423   3.749   0.932   0.000  0.4784 -0.9969  0.2021
 4987SOL    HW226424   3.694   0.983  17.579  1.6162 -0.2158 -2.8964
 4988SOL     OW26425   4.697   4.142   4.019 -0.1865  0.2360  0.2339
 4988SOL    HW126426   4.603   4.144   4.005 -0.2475 -0.9633  0.4784
 4988SOL    HW226427   4.708   4.197   4.096 -1.0586 -2.3554  2.1854
 4989SOL     OW26428   0.573   4.260   9.200  0.5565 -0.5314  0.4131
 4989SOL    HW126429   0.540   4.235   9.286 -0.0468 -2.3591 -0.3364
 4989SOL    HW226430   0.492   4.295   9.162  0.4530  2.6846  3.6655
 4990SOL     OW26431   3.726   0.817   7.341  0.1363 -0.3487 -0.0815
 4990SOL    HW126432   3.728   0.902   7.296 -1.7681  0.8601  2.1256
 4990SOL    HW226433   3.733   0.841   7.434 -1.3555 -0.1048 -0.0322
 4991SOL     OW26434   1.005   2.646   1.441  0.0036  0.0006  0.3840
 4991SOL    HW126435   1.075   2.601   1.489 -0.0481 -0.8755 -0.3550
 4991SOL    HW226436   0.929   2.632   1.496  0.7049  0.0160  1.3531
 4992SOL     OW26437   2.378   4.654   1.007 -0.0953  0.7037 -0.1797
 4992SOL    HW126438   2.291   4.673   1.042 -1.4948 -3.3873 -1.3499
 4992SOL    HW226439   2.408   0.017   0.995 -0.5777  0.9906  0.7586
 4993SOL     OW26440   2.151   2.596   9.072 -0.3946  0.4015 -0.1470
 4993SOL    HW126441   2.082   2.532   9.056 -0.6926  0.9500 -1.0152
 4993SOL    HW226442   2.107   2.677   9.100 -1.8175 -0.4867  0.2086
 4994SOL     OW26443   1.014   4.547  11.838 -0.0258  0.0041 -0.3214
 4994SOL    HW126444   0.922   4.574  11.842  0.3806  1.1314  1.4590
 4994SOL    HW226445   1.030   4.549  11.932 -1.3186 -2.9554 -0.0279
 4995SOL     OW26446   0.814   3.121   5.312  0.4083 -0.3927  0.1572
 4995SOL    HW126447   0.775   3.207   5.302 -0.0959 -0.7773 -1.1323
 4995SOL    HW226448   0.733   3.070   5.305  1.2419 -1.6100 -0.7447
 4996SOL     OW26449   2.793   4.412   2.463 -0.2335  0.7878 -0.0478
 4996SOL    HW126450   2.727   4.450   2.521 -0.7513  0.6215 -0.5381
 4996SOL    HW226451   2.868   4.468   2.483 -0.0084  0.5750 -0.3057
 4997SOL     OW26452   3.557   3.150  11.414 -0.6922 -0.4251 -0.0447
 4997SOL    HW126453   3.598   3.154  11.328  1.0572  0.2436  0.8031
 4997SOL    HW226454   3.501   3.227  11.406  0.8149  0.6636 -0.2994
 4998SOL     OW26455   4.271   3.891  14.662  0.1177 -0.0440 -0.3592
 4998SOL    HW126456   4.353   3.904  14.710  1.0354 -1.8790 -1.4116
 4998SOL    HW226457   4.211   3.865  14.731 -0.7958  0.4459 -0.9793
 4999SOL     OW26458   0.661   1.211   4.129 -0.2831  0.4022  0.1103
 4999SOL    HW126459   0.709   1.224   4.047 -0.0814 -1.9328 -0.1283
 4999SOL    HW226460   0.703   1.129   4.153 -1.2126  0.7006  2.7583
 5000SOL     OW26461   0.392   2.253  15.899 -0.6636 -0.0709 -0.1343
 5000SOL    HW126462   0.368   2.316  15.831  1.8371  0.4381 -0.5562
 5000SOL    HW226463   0.379   2.306  15.978  2.1657  0.0132  0.2798
 5001SOL     OW26464   3.887   2.061  11.842  0.0071  0.1903  0.4446
 5001SOL    HW126465   3.883   2.088  11.750 -0.4306 -1.6496 -0.0916
 5001SOL    HW226466   3.941   2.128  11.883 -0.8113  1.2826 -0.2837
 5002SOL     OW26467   1.329   1.548  10.947  0.4423 -0.3290  0.2096
 5002SOL    HW126468   1.355   1.632  10.985  2.6463 -1.3896  1.0632
 5002SOL    HW226469   1.404   1.515  10.897 -0.0234 -1.6481  0.4036
 5003SOL     OW26470   1.485   3.208   3.437 -0.1468 -0.1974 -0.5162
 5003SOL    HW126471   1.423   3.251   3.497  2.5340  2.1941  0.5245
 5003SOL    HW226472   1.433   3.199   3.357 -1.0316 -3.5368  0.4164
 5004SOL     OW26473   2.657   1.811   5.689 -0.5490 -0.0699 -0.5910
 5004SOL    HW126474   2.702   1.893   5.714 -1.9264 -0.4693  3.1168
 5004SOL    HW226475   2.725   1.749   5.714  1.8089  2.0106 -1.7359
 5005SOL     OW26476   4.109   0.004   8.009  0.5723  0.0071  0.0121
 5005SOL    HW126477   4.166   0.023   7.935  2.1663 -1.2200  0.9061
 5005SOL    HW226478   4.085   4.638   8.014 -1.2849  0.4476 -0.7761
 5006SOL     OW26479   2.236   0.359   6.664 -0.0654 -0.8056  0.0291
 5006SOL    HW126480   2.229   0.280   6.609  1.2249 -0.8099 -0.1327
 5006SOL    HW226481   2.186   0.331   6.740  1.3775  0.1950  1.3218
 5007SOL     OW26482   1.275   2.894   2.824  0.0938  0.0965 -0.0021
 5007SOL    HW126483   1.210   2.895   2.893 -0.1823 -0.7461 -0.2544
 5007SOL    HW226484   1.262   2.807   2.785  4.1540  0.4476 -2.1743
 5008SOL     OW26485   0.453   2.968  15.715 -0.3960  0.6361 -0.3071
 5008SOL    HW126486   0.545   2.990  15.706 -0.5572  1.0834 -0.8592
 5008SOL    HW226487   0.427   3.056  15.744 -1.1173  0.1497  0.5443
 5009SOL     OW26488   0.124   0.993  16.414  0.2023 -0.0319  0.1070
 5009SOL    HW126489   0.131   0.904  16.449 -0.0287 -0.5377 -1.1321
 5009SOL    HW226490   0.037   1.030  16.433  0.1700  0.4810 -1.0763
 5010SOL     OW26491   2.741   2.579   1.692 -0.0448  0.1879  0.1789
 5010SOL    HW126492   2.741   2.584   1.597 -1.5134  0.5297  0.2042
 5010SOL    HW226493   2.720   2.489   1.716 -1.0795  0.4675  0.3203
 5011SOL     OW26494   1.365   1.846   5.887 -0.1181  0.2421 -0.1754
 5011SOL    HW126495   1.294   1.907   5.869 -0.5030  0.0402  0.6700
 5011SOL    HW226496   1.421   1.868   5.813  0.0617 -1.7307 -0.6175
 5012SOL     OW26497   4.708   3.214  11.310  0.3755  0.2454 -0.3566
 5012SOL    HW126498   4.636   3.196  11.371  1.1195  1.0674  0.7748
 5012SOL    HW226499   0.017   3.299  11.336 -0.3838  0.5780 -0.4049
 5013SOL     OW26500   1.094   4.118   7.307  0.6040  0.4722  0.2058
 5013SOL    HW126501   1.135   4.125   7.221 -3.4994  0.5154 -1.7700
 5013SOL    HW226502   1.114   4.025   7.319 -2.1287  0.0461  1.4802
 5014SOL     OW26503   3.644   4.144   2.655  0.6440 -0.2925  0.0659
 5014SOL    HW126504   3.720   4.148   2.713  1.7630  1.6132 -1.5460
 5014SOL    HW226505   3.631   4.239   2.654 -0.2476 -0.4172 -0.1631
 5015SOL     OW26506   3.829   3.587  12.562 -0.3007  0.4113  0.2206
 5015SOL    HW126507   3.899   3.636  12.520 -0.7090  1.2987  0.5758
 5015SOL    HW226508   3.820   3.630  12.648  0.0421  1.9682 -0.5260
 5016SOL     OW26509   1.745   3.971   3.787 -0.5447 -0.0931  0.0428
 5016SOL    HW126510   1.762   4.027   3.862 -0.1257 -0.8862  0.5380
 5016SOL    HW226511   1.828   3.975   3.738 -1.0969 -0.4622 -0.9353
 5017SOL     OW26512   3.825   1.433   4.037  0.1125 -0.1752 -0.0616
 5017SOL    HW126513   3.766   1.360   4.019 -0.7219  0.4344  0.1698
 5017SOL    HW226514   3.892   1.417   3.971  0.7151 -0.3834  0.5944
 5018SOL     OW26515   1.875   0.618   2.492 -0.6527 -0.1350  0.6134
 5018SOL    HW126516   1.864   0.707   2.459  0.3622  0.8763  2.9843
 5018SOL    HW226517   1.947   0.631   2.554  0.8401 -0.7416 -0.9743
 5019SOL     OW26518   4.402   4.408   5.733 -0.8946  0.0639 -0.1376
 5019SOL    HW126519   4.365   4.468   5.668  1.7601  2.3939  0.4724
 5019SOL    HW226520   4.395   4.464   5.810  0.6946 -0.5775  0.4814
 5020SOL     OW26521   0.779   3.883   5.118  0.5274  0.2389  1.0069
 5020SOL    HW126522   0.860   3.914   5.077  0.1950 -0.5242 -0.2498
 5020SOL    HW226523   0.716   3.948   5.085 -1.1521 -2.0981 -0.4636
 5021SOL     OW26524   1.998   2.688   8.828 -0.3358  0.1509  0.1144
 5021SOL    HW126525   1.980   2.594   8.818 -1.1122  0.0405  2.6239
 5021SOL    HW226526   1.973   2.711   8.917  1.3780 -1.0689  0.9163
 5022SOL     OW26527   3.353   1.973   5.985  0.2236 -0.3751  0.0058
 5022SOL    HW126528   3.294   1.985   5.910 -1.7721  1.0011  1.8071
 5022SOL    HW226529   3.299   1.917   6.040  1.0551 -0.7860  0.3936
 5023SOL     OW26530   3.094   4.540   6.823 -0.2672 -0.7332 -0.3041
 5023SOL    HW126531   3.023   4.476   6.820 -0.6171 -0.4033  0.9407
 5023SOL    HW226532   3.132   4.523   6.737 -0.4587  0.5474 -0.6351
 5024SOL     OW26533   0.048   1.261   1.650 -0.0518 -0.8701  0.6043
 5024SOL    HW126534   0.092   1.316   1.585  0.9093  1.2247  3.0666
 5024SOL    HW226535   4.721   1.202   1.596  0.5595  0.1547 -1.1310
 5025SOL     OW26536   1.872   0.340   7.993 -0.4467 -0.3101  0.4829
 5025SOL    HW126537   1.784   0.325   7.958  0.1873 -0.5752 -0.9702
 5025SOL    HW226538   1.863   0.325   8.088  0.5083 -1.1982  0.4357
 5026SOL     OW26539   4.425   2.914   8.798 -0.1423  0.0687 -0.3633
 5026SOL    HW126540   4.390   2.879   8.880  0.4194 -0.4150 -0.3315
 5026SOL    HW226541   4.377   2.997   8.805 -1.6297 -0.9358  1.4833
 5027SOL     OW26542   0.476   3.397  15.083 -0.5073  0.3544  0.0348
 5027SOL    HW126543   0.537   3.434  15.147  0.2449 -0.2372 -0.3547
 5027SOL    HW226544   0.392   3.439  15.103 -0.2371  1.5724 -1.3718
 5028SOL     OW26545   4.059   1.552   4.268  0.2190  0.1094  0.1637
 5028SOL    HW126546   3.996   1.614   4.230 -0.2120 -0.4394 -0.0177
 5028SOL    HW226547   4.006   1.474   4.283 -1.5678  1.0171 -1.3123
 5029SOL     OW26548   0.137   1.455   1.456  0.3303 -0.6765  0.2375
 5029SOL    HW126549   0.091   1.512   1.395  2.6737  1.3724  0.3791
 5029SOL    HW226550   0.212   1.513   1.468 -1.2161  1.3676 -0.0524
 5030SOL     OW26551   3.234   0.911   0.224  0.0764 -0.0484 -0.5324
 5030SOL    HW126552   3.199   0.825   0.248  2.2507 -0.6873  0.4252
 5030SOL    HW226553   3.242   0.940   0.315 -2.2075 -1.8158  0.2300
 5031SOL     OW26554   1.094   1.393  15.015  0.4120  0.4304  0.3821
 5031SOL    HW126555   1.120   1.304  14.992 -1.3076 -0.0462  0.2722
 5031SOL    HW226556   1.111   1.438  14.933  1.2299 -0.3343  0.1280
 5032SOL     OW26557   4.249   3.801   8.136  0.1183 -0.6008 -0.7787
 5032SOL    HW126558   4.270   3.722   8.086  0.1811 -1.7138  0.9890
 5032SOL    HW226559   4.331   3.814   8.183 -0.6552  1.4117 -0.0091
 5033SOL     OW26560   4.220   1.888   7.157  0.4220  0.2186 -0.2864
 5033SOL    HW126561   4.180   1.828   7.094  1.9352  1.3471 -2.3007
 5033SOL    HW226562   4.226   1.970   7.109  3.8773  0.2830  0.2487
 5034SOL     OW26563   2.076   0.279   2.083 -0.3987  0.4797 -0.0256
 5034SOL    HW126564   2.168   0.303   2.090 -0.1858 -0.3239 -0.0417
 5034SOL    HW226565   2.088   0.210   2.017  0.0936 -1.2189  1.8232
 5035SOL     OW26566   3.287   2.439   5.353  0.3969  0.0240 -0.2740
 5035SOL    HW126567   3.320   2.468   5.439  1.2303  0.1906 -0.6530
 5035SOL    HW226568   3.360   2.390   5.318  2.2115  1.2171  1.8015
 5036SOL     OW26569   4.456   3.243   2.186 -0.5012  0.4680  0.4031
 5036SOL    HW126570   4.450   3.239   2.091  3.0753 -0.2994  0.2032
 5036SOL    HW226571   4.512   3.321   2.188  1.1251 -0.7111  0.0637
 5037SOL     OW26572   4.675   3.704  14.537 -0.8096 -0.4012  0.2122
 5037SOL    HW126573   0.041   3.702  14.562 -1.0343 -0.4569  1.0635
 5037SOL    HW226574   4.656   3.776  14.597 -0.6082 -1.0973  1.1289
 5038SOL     OW26575   4.266   1.814   5.288 -0.3763 -0.0168  0.1257
 5038SOL    HW126576   4.190   1.756   5.298  0.6330 -1.2837  0.4850
 5038SOL    HW226577   4.214   1.894   5.289 -2.1203 -1.0980 -2.4351
 5039SOL     OW26578   0.942   0.732   6.558 -0.6233 -0.1363 -0.4816
 5039SOL    HW126579   0.916   0.724   6.466  0.8264 -0.2420 -0.8727
 5039SOL    HW226580   1.012   0.667   6.556 -0.6435 -0.1869  0.8312
 5040SOL     OW26581   3.777   3.285  14.323  0.2219 -0.0442  0.0083
 5040SOL    HW126582   3.818   3.226  14.387  0.2622 -0.0205  0.0041
 5040SOL    HW226583   3.698   3.299  14.375  1.0749  0.4672  1.1688
 5041SOL     OW26584   4.582   2.835   5.057  0.5806 -0.0665  0.4651
 5041SOL    HW126585   4.584   2.801   4.968  1.7696 -0.7989  0.7626
 5041SOL    HW226586   4.664   2.884   5.061  0.2946  0.5642 -1.6291
 5042SOL     OW26587   1.720   3.336   4.867  0.2606 -0.0137 -0.6255
 5042SOL    HW126588   1.661   3.322   4.941  0.2250  1.8243 -0.2916
 5042SOL    HW226589   1.702   3.260   4.812  1.0446 -1.4074  1.0376
 5043SOL     OW26590   0.197   0.737   4.095 -0.1928  0.5930  0.1946
 5043SOL    HW126591   0.234   0.698   4.174  0.6278 -0.7541 -0.8627
 5043SOL    HW226592   0.211   0.830   4.113  1.3492  0.7823 -1.9606
 5044SOL     OW26593   4.494   3.997   4.199  0.1273  0.0690 -0.4468
 5044SOL    HW126594   4.475   3.935   4.129  0.8143 -1.4596  0.7166
 5044SOL    HW226595   4.409   4.025   4.231 -1.3926 -2.4029 -2.3542
 5045SOL     OW26596   0.340   1.770   1.807 -0.3894 -0.4255 -0.5947
 5045SOL    HW126597   0.361   1.679   1.830  0.2590 -0.4370 -1.2464
 5045SOL    HW226598   0.248   1.786   1.826 -0.0684 -1.9979  2.3838
 5046SOL     OW26599   4.110   0.070   1.639  0.2084 -0.6935 -0.0749
 5046SOL    HW126600   4.107   0.037   1.728  1.7067  1.9715  0.9529
 5046SOL    HW226601   4.066   4.722   1.597 -1.0625  0.0296 -0.0485
 5047SOL     OW26602   1.695   0.811   4.687  0.1622  0.2091  0.6969
 5047SOL    HW126603   1.763   0.756   4.727 -0.5087  0.9056  2.7808
 5047SOL    HW226604   1.705   0.802   4.592  2.0875  1.5626  0.7774
 5048SOL     OW26605   3.131   2.643   1.436  0.3487 -0.0062  0.4907
 5048SOL    HW126606   3.117   2.736   1.455  0.5211  0.2902 -0.8409
 5048SOL    HW226607   3.178   2.647   1.353 -0.8297  0.5882 -0.1624
 5049SOL     OW26608   4.078   0.772   1.196  0.0239  0.2162  0.3062
 5049SOL    HW126609   4.121   0.714   1.259 -2.8317 -0.0516  2.0007
 5049SOL    HW226610   4.114   0.858   1.217 -0.2011  0.2348  0.6236
 5050SOL     OW26611   3.103   1.898   1.622  0.4563  0.0199  0.4462
 5050SOL    HW126612   3.166   1.828   1.602  0.6372 -0.3499  2.3825
 5050SOL    HW226613   3.024   1.852   1.652  0.7266 -1.0460 -0.4414
 5051SOL     OW26614   2.395   3.547   2.258 -0.6362 -0.0437 -0.0383
 5051SOL    HW126615   2.347   3.487   2.315 -2.8787  2.7807  1.0367
 5051SOL    HW226616   2.400   3.631   2.305 -0.9236  0.5200 -1.0147
 5052SOL     OW26617   2.778   1.046  14.554  0.0318  0.0689  0.4488
 5052SOL    HW126618   2.831   0.969  14.571  1.3972  1.0169  0.4932
 5052SOL    HW226619   2.785   1.092  14.638  0.7927 -1.5550  1.2553
 5053SOL     OW26620   2.643   0.016  17.527  0.1682  0.8714 -0.2232
 5053SOL    HW126621   2.708   0.086  17.518  1.4507 -0.3639 -0.5888
 5053SOL    HW226622   2.622   4.722  17.436  0.9531 -0.4805 -0.0997
 5054SOL     OW26623   2.805   3.620   0.189  0.2176  0.3080  0.0207
 5054SOL    HW126624   2.776   3.539   0.231 -0.2631  0.1843 -0.5602
 5054SOL    HW226625   2.719   3.655   0.165 -0.8620 -3.2472 -1.3508
 5055SOL     OW26626   1.667   4.060  17.156  0.0820 -0.4277  0.5065
 5055SOL    HW126627   1.625   4.013  17.084  1.0227  3.0811 -2.3484
 5055SOL    HW226628   1.761   4.047  17.144  0.5977  1.8595  2.1250
 5056SOL     OW26629   3.871   1.288   8.805 -0.5041 -0.0064 -0.0836
 5056SOL    HW126630   3.953   1.240   8.796 -1.1581 -1.1791  0.1001
 5056SOL    HW226631   3.901   1.377   8.786  0.2575 -0.4334 -0.8775
 5057SOL     OW26632   2.819   2.923   4.595  0.4131  0.1405  0.0592
 5057SOL    HW126633   2.898   2.923   4.540  0.0730  0.5118 -0.4296
 5057SOL    HW226634   2.848   2.990   4.658 -0.3762 -1.2243  1.8582
 5058SOL     OW26635   2.469   2.783   3.661 -0.0935 -0.5110  1.6104
 5058SOL    HW126636   2.401   2.846   3.636  0.8787  0.2341  0.8382
 5058SOL    HW226637   2.539   2.846   3.680  2.5761 -1.7815 -3.9081
 5059SOL     OW26638   1.785   1.723  17.005 -0.5823  0.1158 -0.1997
 5059SOL    HW126639   1.704   1.672  16.998  0.4971 -1.7471  0.6405
 5059SOL    HW226640   1.832   1.670  17.070 -0.8596 -0.9271 -0.8453
 5060SOL     OW26641   0.896   1.351  11.645  0.1045  1.0791 -0.3145
 5060SOL    HW126642   0.812   1.322  11.680  0.7585 -2.2131 -1.4529
 5060SOL    HW226643   0.894   1.446  11.650  2.5037  1.1221 -0.0250
 5061SOL     OW26644   4.718   1.796   6.442  0.8641  0.2395  0.0572
 5061SOL    HW126645   4.647   1.768   6.384  0.2463 -0.1073  0.9797
 5061SOL    HW226646   0.020   1.866   6.383 -2.4789 -0.9498 -2.9667
 5062SOL     OW26647   0.643   3.157  17.297 -0.4263 -0.2399 -0.5369
 5062SOL    HW126648   0.660   3.203  17.214  1.9204 -0.8263 -0.3914
 5062SOL    HW226649   0.720   3.101  17.311  1.7760  3.2337  1.3782
 5063SOL     OW26650   1.325   4.585   4.379  0.6319 -0.1561  0.5668
 5063SOL    HW126651   1.250   4.525   4.377  0.6109 -0.1080 -0.0609
 5063SOL    HW226652   1.392   4.531   4.336  0.6799 -0.1608  0.6476
 5064SOL     OW26653   2.884   4.108   9.150  0.2987 -0.2150  0.2080
 5064SOL    HW126654   2.869   4.202   9.163 -2.4261 -0.7201  0.7145
 5064SOL    HW226655   2.812   4.064   9.195  0.7847  0.4579  1.6480
 5065SOL     OW26656   4.141   2.281   3.063 -0.6672  0.3562 -1.2423
 5065SOL    HW126657   4.228   2.301   3.097 -1.7892  0.6681  1.4930
 5065SOL    HW226658   4.142   2.333   2.982 -1.8772 -1.4041 -2.3970
 5066SOL     OW26659   4.289   1.901   4.684 -0.1035 -0.1039  0.2940
 5066SOL    HW126660   4.197   1.891   4.658 -0.0433  0.3684 -0.1081
 5066SOL    HW226661   4.272   1.969   4.749 -1.0073 -0.6532  0.6345
 5067SOL     OW26662   1.005   3.173  17.081  0.2314 -0.5171 -0.0274
 5067SOL    HW126663   1.060   3.225  17.021 -1.1701  0.7524 -0.1941
 5067SOL    HW226664   1.066   3.101  17.100  2.0667  0.5553 -1.8767
 5068SOL     OW26665   0.051   0.920   6.357  0.0128 -0.9199  0.7417
 5068SOL    HW126666   0.108   0.984   6.400  1.0374 -1.5325  0.2840
 5068SOL    HW226667   0.053   0.855   6.428  4.5238 -0.9937  0.5198
 5069SOL     OW26668   0.551   4.638  13.070 -0.3749 -0.3699  0.8910
 5069SOL    HW126669   0.619   4.637  13.137  2.0152 -0.1252 -1.5040
 5069SOL    HW226670   0.592   4.707  13.017 -2.1379  0.3928  0.5209
 5070SOL     OW26671   0.390   2.217   6.922  0.2971 -0.2011 -0.3576
 5070SOL    HW126672   0.419   2.148   6.982 -0.3605 -0.0373  0.1503
 5070SOL    HW226673   0.312   2.250   6.966 -0.1703  0.0181 -1.3582
 5071SOL     OW26674   4.378   1.156   5.344 -0.0076 -0.0442  0.3901
 5071SOL    HW126675   4.336   1.117   5.267  0.6624 -1.2445  0.6429
 5071SOL    HW226676   4.438   1.221   5.307 -0.4068 -1.2380 -2.2861
 5072SOL     OW26677   1.690   2.091   8.429 -0.4771  0.3843 -0.1427
 5072SOL    HW126678   1.705   1.997   8.431 -5.0507 -0.4087 -2.0493
 5072SOL    HW226679   1.595   2.101   8.432 -0.1532  2.9009  1.7512
 5073SOL     OW26680   3.256   3.964   0.873 -0.2604 -0.2562  0.6749
 5073SOL    HW126681   3.258   3.967   0.778 -1.2291 -1.8543  0.6156
 5073SOL    HW226682   3.260   4.058   0.892  0.3663 -0.4264  1.4444
 5074SOL     OW26683   4.269   4.142   0.135 -0.0586 -0.5831  0.3717
 5074SOL    HW126684   4.211   4.114   0.206 -0.9936 -2.5949 -1.1896
 5074SOL    HW226685   4.347   4.171   0.181 -0.2731  2.3975 -1.1287
 5075SOL     OW26686   0.432   2.186  16.358  0.3440 -0.2315  0.2426
 5075SOL    HW126687   0.498   2.152  16.419 -1.7304 -0.8095  2.1498
 5075SOL    HW226688   0.448   2.133  16.279  0.4449 -0.5676  0.4902
 5076SOL     OW26689   4.536   1.985   3.580 -0.2202 -0.0630  0.0346
 5076SOL    HW126690   4.517   2.030   3.498 -0.2644  1.2954  0.7904
 5076SOL    HW226691   4.496   2.031   3.654  0.4403 -1.7848  1.4965
 5077SOL     OW26692   2.832   3.153   2.128  0.5441 -0.1490  0.5703
 5077SOL    HW126693   2.752   3.201   2.105  0.3404 -1.0804 -0.6803
 5077SOL    HW226694   2.810   3.069   2.088  0.8270  0.3913 -0.7539
 5078SOL     OW26695   0.679   2.393   6.177  0.2264 -0.3908  0.5782
 5078SOL    HW126696   0.751   2.341   6.214 -0.1163 -2.6646 -1.9655
 5078SOL    HW226697   0.718   2.419   6.094 -0.6305  2.3052  1.0112
 5079SOL     OW26698   1.081   0.689   4.000  0.4005  0.9732  0.5528
 5079SOL    HW126699   1.030   0.755   3.952  1.2786 -0.0833 -1.8307
 5079SOL    HW226700   1.152   0.678   3.937  0.0409 -1.2345  0.5558
 5080SOL     OW26701   0.745   3.109   8.782 -0.0574  0.4882 -0.0751
 5080SOL    HW126702   0.753   3.174   8.712  0.3390 -0.4707 -0.9300
 5080SOL    HW226703   0.665   3.119   8.833  1.5884  1.4981  2.3271
 5081SOL     OW26704   0.647   3.642   9.060  0.3692  0.1086  0.7226
 5081SOL    HW126705   0.575   3.678   9.008 -0.9171 -3.0754  0.3312
 5081SOL    HW226706   0.633   3.676   9.148  1.9300 -1.5459  1.6217
 5082SOL     OW26707   1.237   0.567   5.245  0.4040  0.2310  0.2027
 5082SOL    HW126708   1.256   0.559   5.151 -2.1375  0.9864 -0.3721
 5082SOL    HW226709   1.142   0.567   5.238  0.3047 -0.7039  1.5423
 5083SOL     OW26710   2.167   4.572   6.323  0.1110  0.1611 -0.2112
 5083SOL    HW126711   2.133   4.659   6.304 -1.4426 -0.2314  0.7799
 5083SOL    HW226712   2.096   4.526   6.368  2.3517  1.7642  4.9842
 5084SOL     OW26713   4.190   2.247   7.294 -0.2383  0.4699 -0.1974
 5084SOL    HW126714   4.190   2.195   7.214 -2.1845  2.3899 -1.4417
 5084SOL    HW226715   4.223   2.184   7.358  1.0249 -0.2169 -1.5177
 5085SOL     OW26716   1.975   2.482   8.066  0.1448 -0.3371  0.4290
 5085SOL    HW126717   1.973   2.558   8.007  0.3188  1.0419  2.2240
 5085SOL    HW226718   1.910   2.502   8.133 -0.6908  0.1081 -0.5061
 5086SOL     OW26719   0.506   4.268   0.537  0.1119  0.1492  0.3163
 5086SOL    HW126720   0.461   4.308   0.462  1.8761  1.0447 -0.2769
 5086SOL    HW226721   0.527   4.177   0.519  1.0548  0.4837 -0.2702
 5087SOL     OW26722   1.758   4.471   2.389  0.1769 -0.0465  0.4380
 5087SOL    HW126723   1.839   4.518   2.369 -1.0905  0.8044 -2.6665
 5087SOL    HW226724   1.715   4.526   2.455  1.4209  2.2671 -0.6821
 5088SOL     OW26725   1.809   2.514   3.185  0.4718 -0.3726 -0.4146
 5088SOL    HW126726   1.847   2.435   3.147 -1.0002 -0.2581 -2.1172
 5088SOL    HW226727   1.805   2.561   3.102  1.4098  0.8765  0.2567
 5089SOL     OW26728   1.079   4.349   2.439 -0.2981 -0.2907 -0.9392
 5089SOL    HW126729   1.009   4.412   2.418  1.7293  1.4651 -2.4260
 5089SOL    HW226730   1.031   4.270   2.465  1.0245 -0.2191  1.6925
 5090SOL     OW26731   4.671   2.829   8.164  0.5202  0.0217 -0.3834
 5090SOL    HW126732   0.019   2.776   8.193  0.9002  0.4885 -0.4998
 5090SOL    HW226733   4.685   2.836   8.070 -1.5531  0.1972 -0.6781
 5091SOL     OW26734   2.469   1.384   6.274  0.0737 -0.4745 -0.1164
 5091SOL    HW126735   2.505   1.434   6.201  0.5887  0.6068  0.8758
 5091SOL    HW226736   2.479   1.451   6.342 -1.1947 -0.4582  0.0548
 5092SOL     OW26737   2.874   3.521   8.754  0.8032 -0.0552 -0.2314
 5092SOL    HW126738   2.961   3.506   8.791 -0.1288  0.7994  2.3312
 5092SOL    HW226739   2.821   3.532   8.833 -2.7024  0.1789 -2.6332
 5093SOL     OW26740   3.472   4.276   1.455  0.0856  0.7136  0.2852
 5093SOL    HW126741   3.456   4.185   1.430  2.0189  1.4594 -3.6630
 5093SOL    HW226742   3.505   4.267   1.545 -1.0420  1.6664  0.7938
 5094SOL     OW26743   0.062   2.434   5.094 -0.7766  0.1966 -0.4361
 5094SOL    HW126744   0.156   2.418   5.083 -0.9856 -1.1677 -0.2414
 5094SOL    HW226745   0.018   2.361   5.050 -0.9134  0.4763 -0.7690
 5095SOL     OW26746   2.878   0.298   6.594 -0.4050 -0.3468  0.0098
 5095SOL    HW126747   2.824   0.377   6.593  0.3787  0.1806  0.1157
 5095SOL    HW226748   2.963   0.339   6.578 -2.1296  3.3339  0.3491
 5096SOL     OW26749   3.479   0.447   6.059  0.5278  0.5330 -0.2817
 5096SOL    HW126750   3.405   0.391   6.078  0.1750  0.9472 -0.4340
 5096SOL    HW226751   3.554   0.388   6.057 -0.6520 -0.9977  2.1160
 5097SOL     OW26752   1.526   0.791   3.747  0.5256  0.7817 -0.6732
 5097SOL    HW126753   1.515   0.701   3.719 -2.1242  1.1664 -0.9186
 5097SOL    HW226754   1.596   0.776   3.810 -0.4269  2.6554  0.8294
 5098SOL     OW26755   1.768   4.321  10.110 -0.1573 -0.0420  0.0996
 5098SOL    HW126756   1.685   4.327  10.063 -0.5054 -1.8327  0.5134
 5098SOL    HW226757   1.776   4.226  10.113 -3.2878 -0.3069  0.5442
 5099SOL     OW26758   3.728   2.423  13.852  0.1735  0.3265  0.2170
 5099SOL    HW126759   3.728   2.516  13.876 -2.1463  0.6934 -1.2519
 5099SOL    HW226760   3.711   2.432  13.758 -1.1699 -1.1403  0.3290
 5100SOL     OW26761   3.499   2.301   4.157 -0.6927  0.6848 -0.2444
 5100SOL    HW126762   3.413   2.276   4.125 -0.5028  0.9513 -0.9731
 5100SOL    HW226763   3.532   2.225   4.204 -0.2361 -0.3084 -2.1413
 5101SOL     OW26764   3.152   4.207  11.394  0.1477 -0.1001 -0.1236
 5101SOL    HW126765   3.165   4.286  11.447 -0.0697  0.0867 -0.3475
 5101SOL    HW226766   3.099   4.252  11.328 -0.3991 -1.3808 -0.5626
 5102SOL     OW26767   4.297   1.286   6.785 -0.0366  0.4515 -0.1661
 5102SOL    HW126768   4.256   1.300   6.700 -0.7514 -3.2839 -0.4586
 5102SOL    HW226769   4.234   1.230   6.831 -0.0558  0.2205 -0.4713
 5103SOL     OW26770   0.775   2.421   5.919 -0.1958  0.0228  0.5000
 5103SOL    HW126771   0.841   2.458   5.860 -3.1823  2.0237 -1.6432
 5103SOL    HW226772   0.701   2.477   5.896  0.0101 -0.6353 -1.7380
 5104SOL     OW26773   4.714   1.326   3.375  0.2189 -0.1031 -0.1767
 5104SOL    HW126774   4.710   1.278   3.293  2.2354 -0.9828  0.2294
 5104SOL    HW226775   0.014   1.258   3.437  0.1328  0.1320  0.1212
 5105SOL     OW26776   3.461   0.860   5.968  0.0981 -0.0685 -0.3620
 5105SOL    HW126777   3.483   0.906   5.887  0.2447  0.2825 -0.1277
 5105SOL    HW226778   3.462   0.928   6.036 -0.9361 -0.3237 -0.0935
 5106SOL     OW26779   1.177   2.910   6.455 -0.5117 -0.3164 -0.5504
 5106SOL    HW126780   1.225   2.929   6.536 -1.8800  1.4641 -0.1344
 5106SOL    HW226781   1.130   2.993   6.440 -1.3707 -1.0666 -1.9712
 5107SOL     OW26782   3.548   3.012   1.161  0.2305 -0.6367  0.3817
 5107SOL    HW126783   3.500   2.929   1.160  0.5769 -0.8705  2.4025
 5107SOL    HW226784   3.489   3.074   1.203  3.3758  2.4659  0.1974
 5108SOL     OW26785   3.501   2.872  12.868 -0.3031 -0.9330 -0.0657
 5108SOL    HW126786   3.580   2.845  12.915  2.1175  1.2615 -2.8464
 5108SOL    HW226787   3.512   2.967  12.875  0.3068 -0.9337 -1.1133
 5109SOL     OW26788   1.341   4.321   2.930 -0.2267  0.0997  0.0178
 5109SOL    HW126789   1.300   4.347   2.847  0.0841  0.0275 -0.1566
 5109SOL    HW226790   1.421   4.277   2.902 -0.5113  0.3175 -1.1669
 5110SOL     OW26791   3.170   1.930   5.739 -0.1712  0.3733  0.3596
 5110SOL    HW126792   3.117   2.010   5.745  2.3351  2.1447 -1.4529
 5110SOL    HW226793   3.127   1.892   5.662 -0.9078  0.9273  0.4895
 5111SOL     OW26794   1.659   1.480   2.965 -0.0761 -0.0509  0.1521
 5111SOL    HW126795   1.606   1.404   2.940 -2.0891  1.7239 -0.9814
 5111SOL    HW226796   1.591   1.546   2.948 -2.0528 -1.5006  2.4310
 5112SOL     OW26797   0.756   0.189   7.821  0.4794 -0.5639  0.0333
 5112SOL    HW126798   0.780   0.224   7.736  0.4626 -0.6417 -0.0038
 5112SOL    HW226799   0.743   0.266   7.877  0.5255 -0.6422  0.1535
 5113SOL     OW26800   2.584   0.478   9.036 -0.4635 -0.1812  0.1333
 5113SOL    HW126801   2.641   0.518   9.102  0.4943  0.6330 -1.2141
 5113SOL    HW226802   2.502   0.519   9.064 -0.3445 -0.2348  0.5601
 5114SOL     OW26803   1.240   3.212   0.108  0.0021  0.0404  0.8422
 5114SOL    HW126804   1.171   3.199   0.172 -0.1799  0.7157  0.7784
 5114SOL    HW226805   1.249   3.306   0.118 -1.3290  0.5643 -2.8433
 5115SOL     OW26806   1.219   2.633   8.030 -0.2063 -0.2511  0.9760
 5115SOL    HW126807   1.280   2.560   8.030 -1.2684 -1.1449 -1.5238
 5115SOL    HW226808   1.244   2.663   8.117  0.5820  1.4969  0.1420
 5116SOL     OW26809   2.305   3.924   8.603 -0.1181 -0.3161  0.4881
 5116SOL    HW126810   2.340   3.844   8.641  0.7686 -0.1935 -0.0697
 5116SOL    HW226811   2.387   3.973   8.591  0.6532 -1.9603 -0.7938
 5117SOL     OW26812   1.155   0.526   4.975 -0.5775  0.0628 -0.0953
 5117SOL    HW126813   1.134   0.602   4.920 -2.0860 -1.4264 -1.6024
 5117SOL    HW226814   1.076   0.481   4.946 -0.9236  0.1519  0.6990
 5118SOL     OW26815   0.775   0.502  15.651 -0.3738 -0.5873 -0.3274
 5118SOL    HW126816   0.714   0.574  15.634 -0.8801 -0.3758  2.4469
 5118SOL    HW226817   0.855   0.522  15.603 -0.2201 -0.9424 -0.2162
 5119SOL     OW26818   1.500   2.168   8.116 -0.1466  0.4034 -0.2652
 5119SOL    HW126819   1.472   2.130   8.033  0.9390 -0.8094 -0.0781
 5119SOL    HW226820   1.589   2.200   8.101 -0.9236  0.8794 -3.8486
 5120SOL     OW26821   3.694   3.820   8.335  0.4324  0.3753  0.1336
 5120SOL    HW126822   3.789   3.807   8.326  0.2891  1.1616 -2.4827
 5120SOL    HW226823   3.680   3.754   8.403 -3.6385  0.3606 -0.7354
 5121SOL     OW26824   0.304   2.533  11.591  0.0417  0.0204 -0.1717
 5121SOL    HW126825   0.263   2.453  11.623  0.6300 -0.9142 -1.7159
 5121SOL    HW226826   0.398   2.512  11.592 -0.5022 -2.5516 -1.8492
 5122SOL     OW26827   1.759   2.597   2.927  0.2503 -0.1117  0.3740
 5122SOL    HW126828   1.683   2.556   2.886 -0.0458 -0.2796  1.1026
 5122SOL    HW226829   1.831   2.559   2.876 -0.8249 -0.3227 -0.9972
 5123SOL     OW26830   4.594   3.424   0.900 -0.5004 -0.6158  0.2582
 5123SOL    HW126831   4.552   3.422   0.814 -2.2167 -0.2821  1.0851
 5123SOL    HW226832   4.522   3.402   0.960 -0.3711 -0.2981  0.5275
 5124SOL     OW26833   2.901   2.852  11.107 -0.0814  0.7239  0.1216
 5124SOL    HW126834   2.936   2.872  11.194 -0.6109  0.0043  0.5086
 5124SOL    HW226835   2.823   2.908  11.102 -0.1454  0.7827  1.5423
 5125SOL     OW26836   2.922   1.203   8.812 -0.0364  0.0591 -0.1566
 5125SOL    HW126837   2.953   1.149   8.740 -0.0677 -2.1796  1.5363
 5125SOL    HW226838   2.902   1.284   8.764 -0.8317 -0.1693 -0.2033
 5126SOL     OW26839   2.575   3.795  14.182  0.0129 -0.2985 -0.3701
 5126SOL    HW126840   2.577   3.888  14.204  0.6675 -0.5536  0.6337
 5126SOL    HW226841   2.635   3.797  14.107 -0.7208  1.3565 -0.9237
 5127SOL     OW26842   2.789   0.388   8.858 -0.5215 -0.3277  0.0929
 5127SOL    HW126843   2.731   0.397   8.933  0.3281  1.9757  0.4667
 5127SOL    HW226844   2.816   0.479   8.848  0.6087 -0.6070  0.5528
 5128SOL     OW26845   3.460   3.547  11.016  0.1213  0.3916  0.4740
 5128SOL    HW126846   3.436   3.527  10.926  3.5332 -2.3406  0.1712
 5128SOL    HW226847   3.511   3.472  11.047 -0.1275  1.3608  3.2006
 5129SOL     OW26848   3.207   1.213  12.683 -0.4880 -0.6653  0.1301
 5129SOL    HW126849   3.263   1.193  12.758 -1.1816 -1.1584  0.5173
 5129SOL    HW226850   3.259   1.282  12.643  1.1741 -1.0728  1.6313
 5130SOL     OW26851   0.925   2.030   3.688  0.3547 -0.1396  0.0011
 5130SOL    HW126852   0.899   2.050   3.778 -1.0956 -0.4824 -0.3494
 5130SOL    HW226853   0.869   2.096   3.646  1.5672  1.4500  0.8619
 5131SOL     OW26854   2.912   1.047   6.049 -0.0600 -0.3586  0.0535
 5131SOL    HW126855   2.976   1.102   6.002 -0.8179 -0.7668 -1.4695
 5131SOL    HW226856   2.889   0.978   5.987 -1.3425 -1.0908  1.3476
 5132SOL     OW26857   4.506   2.366   9.760 -0.3323 -0.3533 -0.2058
 5132SOL    HW126858   4.413   2.380   9.776 -0.1835 -0.8305  1.1000
 5132SOL    HW226859   4.529   2.370   9.853  2.3521  1.9178 -0.9700
 5133SOL     OW26860   4.700   3.230   8.619 -0.5001  0.0378  0.2420
 5133SOL    HW126861   4.706   3.172   8.543  0.6133  0.3118  0.1220
 5133SOL    HW226862   4.708   3.315   8.576 -2.3103  0.5756  0.9448
 5134SOL     OW26863   0.821   1.802   6.258 -0.1174  0.1208 -0.7100
 5134SOL    HW126864   0.779   1.846   6.185 -2.7749 -1.1858  0.0241
 5134SOL    HW226865   0.839   1.715   6.223 -0.2693 -0.1432 -0.1451
 5135SOL     OW26866   2.232   3.685   6.088  0.5029  0.0979  0.2599
 5135SOL    HW126867   2.162   3.658   6.148 -0.7850 -0.6943 -1.5941
 5135SOL    HW226868   2.226   3.624   6.015  0.3170 -0.1108  0.4466
 5136SOL     OW26869   0.554   1.042   8.376 -0.5825 -0.5106 -0.7984
 5136SOL    HW126870   0.629   1.096   8.350  0.6221 -3.0626 -2.6417
 5136SOL    HW226871   0.483   1.105   8.391 -1.9733 -1.4794 -3.2426
 5137SOL     OW26872   4.606   4.048  17.154 -0.1540 -0.2431 -0.3719
 5137SOL    HW126873   4.526   4.100  17.153 -0.4364 -0.6884 -1.3436
 5137SOL    HW226874   4.569   3.961  17.170  3.0087 -1.6725 -0.8588
 5138SOL     OW26875   4.488   1.524   1.626 -0.0745 -0.3051  0.0940
 5138SOL    HW126876   4.414   1.518   1.687  0.0584  0.9670  0.3792
 5138SOL    HW226877   4.452   1.477   1.550  0.0733  0.1328 -0.2470
 5139SOL     OW26878   3.524   4.412   9.805  0.7939  0.3029  0.2123
 5139SOL    HW126879   3.506   4.372   9.890 -1.7352  0.4091 -0.2766
 5139SOL    HW226880   3.500   4.504   9.818  1.8014  0.9099 -2.1292
 5140SOL     OW26881   0.280   2.476   8.526 -0.0671 -0.2392 -0.5643
 5140SOL    HW126882   0.215   2.406   8.535  2.0935 -2.0634  0.8309
 5140SOL    HW226883   0.362   2.430   8.541  1.8073  2.3834 -2.6126
 5141SOL     OW26884   4.657   1.932   9.761 -0.2253 -0.2331 -0.4924
 5141SOL    HW126885   4.613   1.862   9.712  0.2236 -1.0267  0.2308
 5141SOL    HW226886   4.625   2.009   9.714 -1.4487 -0.8021 -0.5907
 5142SOL     OW26887   0.722   1.943   2.202  0.4161  0.3207 -0.0639
 5142SOL    HW126888   0.695   1.909   2.287  2.2027  2.2822  1.2944
 5142SOL    HW226889   0.656   1.903   2.146 -2.2070  2.5780  1.4421
 5143SOL     OW26890   3.170   1.259  17.611 -0.2413  0.2809 -0.8153
 5143SOL    HW126891   3.125   1.340  17.587  1.3346  2.4389  3.4102
 5143SOL    HW226892   3.101   1.223  17.667 -0.2050  2.0461  0.3609
 5144SOL     OW26893   3.174   3.912  16.772 -0.1722 -0.2187  0.4527
 5144SOL    HW126894   3.152   3.844  16.709  0.1854  1.9067 -1.9668
 5144SOL    HW226895   3.086   3.934  16.804 -1.0817  0.0373 -2.1961
 5145SOL     OW26896   2.556   2.224   4.123  0.5926 -0.4982 -0.4984
 5145SOL    HW126897   2.551   2.138   4.081  1.8124 -1.6572  1.6837
 5145SOL    HW226898   2.646   2.233   4.155  0.5273  1.6051 -0.9659
 5146SOL     OW26899   3.324   0.362   7.355  0.7222 -0.1103  0.1177
 5146SOL    HW126900   3.359   0.279   7.325 -1.5168 -0.7805 -0.6455
 5146SOL    HW226901   3.408   0.408   7.360 -1.3792  3.4289  3.2651
 5147SOL     OW26902   0.254   3.580  14.423 -0.0174 -0.4035  0.3976
 5147SOL    HW126903   0.211   3.632  14.491 -0.2794  1.5436 -1.2697
 5147SOL    HW226904   0.286   3.654  14.371 -2.7441  0.3347 -0.2424
 5148SOL     OW26905   2.788   2.335   3.166  0.1745 -0.2488 -0.1644
 5148SOL    HW126906   2.786   2.379   3.251 -0.0799 -1.0546  0.2437
 5148SOL    HW226907   2.702   2.361   3.133  0.4794  0.3310 -0.5099
 5149SOL     OW26908   1.899   2.439  12.497 -0.6750  0.1755  0.2521
 5149SOL    HW126909   1.925   2.417  12.586  1.3619 -0.3829 -0.4728
 5149SOL    HW226910   1.815   2.394  12.488 -0.3706 -0.7980  2.3060
 5150SOL     OW26911   4.527   0.396   4.203 -0.1180  0.0595  0.0777
 5150SOL    HW126912   4.524   0.472   4.145  2.3000  2.0386  2.5569
 5150SOL    HW226913   4.603   0.423   4.255  0.0161  0.7523 -0.4830
 5151SOL     OW26914   1.496   1.865   2.334  0.5015  0.3668  0.3668
 5151SOL    HW126915   1.439   1.803   2.290 -0.7687  1.9908 -0.2881
 5151SOL    HW226916   1.584   1.829   2.322  0.3505  0.5934 -1.3855
 5152SOL     OW26917   3.972   3.577  17.628  0.1597  0.0665 -0.2125
 5152SOL    HW126918   3.998   3.567   0.013 -0.9465 -0.1694  0.0725
 5152SOL    HW226919   3.948   3.670  17.621  0.2457  0.2563  1.9001
 5153SOL     OW26920   0.365   1.810   9.962 -0.2127 -0.4142  0.0305
 5153SOL    HW126921   0.385   1.790  10.054 -1.5190  0.6419  0.5509
 5153SOL    HW226922   0.290   1.869   9.965  1.2518  1.7060 -4.9987
 5154SOL     OW26923   3.200   2.534  14.060 -0.1084 -0.0514  0.7518
 5154SOL    HW126924   3.134   2.469  14.084 -0.2188 -0.0713  0.3891
 5154SOL    HW226925   3.158   2.585  13.991  0.9819 -0.5847 -0.3133
 5155SOL     OW26926   2.914   3.468   1.088 -0.0711  0.0431  0.3866
 5155SOL    HW126927   2.964   3.482   1.008  1.9865 -0.1778  1.6317
 5155SOL    HW226928   2.955   3.389   1.123 -1.8890 -1.7831 -1.5802
 5156SOL     OW26929   2.396   2.335   7.329 -0.4426 -0.5691  1.0129
 5156SOL    HW126930   2.483   2.367   7.351 -0.7864  2.0031 -1.2816
 5156SOL    HW226931   2.372   2.306   7.417 -1.7419  0.2491  0.9315
 5157SOL     OW26932   0.557   0.609  12.286 -0.6803 -0.0787 -0.3678
 5157SOL    HW126933   0.532   0.669  12.356 -1.7080 -0.3220 -0.5260
 5157SOL    HW226934   0.652   0.619  12.288 -0.7674  0.4977  1.4297
 5158SOL     OW26935   0.949   2.771   4.239 -0.7992  0.0229  0.3916
 5158SOL    HW126936   1.025   2.787   4.183 -0.4764 -1.2330  0.4688
 5158SOL    HW226937   0.942   2.856   4.281  1.1958  0.9828 -1.2540
 5159SOL     OW26938   1.137   0.245   4.568  0.5054 -0.4458 -0.2045
 5159SOL    HW126939   1.172   0.332   4.587  0.2788 -0.4209  0.0880
 5159SOL    HW226940   1.187   0.188   4.628 -1.0646 -0.7059  0.8487
 5160SOL     OW26941   3.949   4.559   9.244 -0.3743 -0.8934  0.1113
 5160SOL    HW126942   3.897   4.608   9.307  1.4370  1.9438 -0.5791
 5160SOL    HW226943   4.005   4.496   9.290  1.9608  1.6838  0.7905
 5161SOL     OW26944   2.734   3.799   6.440  0.2182  0.1102 -0.1235
 5161SOL    HW126945   2.716   3.879   6.391 -0.9757  1.0507  1.8201
 5161SOL    HW226946   2.688   3.740   6.380  1.3692 -1.8889  0.9589
 5162SOL     OW26947   2.048   0.456  13.538 -0.1475 -0.2061 -0.3963
 5162SOL    HW126948   2.064   0.364  13.515  0.6291 -0.2951  0.4913
 5162SOL    HW226949   2.142   0.478  13.539 -0.1872 -0.1430  1.0767
 5163SOL     OW26950   3.134   2.220   5.458 -0.2544  0.0626 -0.3811
 5163SOL    HW126951   3.194   2.267   5.400  0.6754 -1.3346 -0.5439
 5163SOL    HW226952   3.056   2.254   5.415 -0.3772  0.4498  0.1386
 5164SOL     OW26953   3.502   0.185   0.438 -0.4620  0.0575 -0.1609
 5164SOL    HW126954   3.485   0.139   0.356 -0.3085 -1.2137  0.5151
 5164SOL    HW226955   3.434   0.252   0.435  0.8797  1.3501 -1.7906
 5165SOL     OW26956   0.211   0.608  17.214 -0.0719  0.0822  0.3506
 5165SOL    HW126957   0.174   0.632  17.299  0.9769 -1.6166  1.2851
 5165SOL    HW226958   0.136   0.626  17.157 -0.7627  0.5763  1.4048
 5166SOL     OW26959   3.128   0.702   8.811 -0.3060  0.0716 -0.4477
 5166SOL    HW126960   3.201   0.702   8.873 -0.3775 -0.2311 -0.3640
 5166SOL    HW226961   3.158   0.759   8.739  4.1548 -2.6844 -0.7730
 5167SOL     OW26962   4.244   3.966   8.490  0.4909 -0.3445  0.0233
 5167SOL    HW126963   4.236   4.036   8.425  0.1495  1.8738  2.4305
 5167SOL    HW226964   4.307   3.998   8.555 -0.6184 -2.1659  1.9880
 5168SOL     OW26965   2.409   0.532   0.979  0.1430 -0.1316 -0.6669
 5168SOL    HW126966   2.394   0.625   0.994  0.4692 -0.3948  1.3243
 5168SOL    HW226967   2.328   0.499   1.019 -1.0921  1.4707 -1.8649
 5169SOL     OW26968   0.443   3.839  15.841  0.2913 -0.1944 -0.0135
 5169SOL    HW126969   0.500   3.792  15.902 -1.4394  1.3754  2.8184
 5169SOL    HW226970   0.374   3.779  15.811  0.7849  0.0508 -1.6575
 5170SOL     OW26971   1.476   0.488  12.362  0.1098  0.5582 -1.0485
 5170SOL    HW126972   1.433   0.417  12.316 -1.8223  0.2503  1.2448
 5170SOL    HW226973   1.396   0.540  12.364  0.3353  0.9652 -2.5079
 5171SOL     OW26974   1.821   3.165   9.958 -0.1804 -0.7978 -0.1127
 5171SOL    HW126975   1.828   3.148  10.052  0.6699 -2.8679 -0.5549
 5171SOL    HW226976   1.897   3.115   9.928 -1.0751 -0.4838 -2.9080
 5172SOL     OW26977   3.145   2.274   5.997  0.6572 -0.0500  0.2884
 5172SOL    HW126978   3.238   2.290   6.012  0.7451 -0.5589  0.2669
 5172SOL    HW226979   3.129   2.296   5.905  0.0308 -1.0426  0.1680
 5173SOL     OW26980   3.452   1.443   4.527 -0.0934 -0.3043 -0.5801
 5173SOL    HW126981   3.526   1.503   4.538  1.0189 -1.2873 -2.6528
 5173SOL    HW226982   3.496   1.358   4.533 -0.6868 -0.5486  0.4784
 5174SOL     OW26983   3.283   4.481   6.048  0.5710  0.0823 -0.3189
 5174SOL    HW126984   3.305   4.462   6.139 -1.5731 -1.2284 -0.0610
 5174SOL    HW226985   3.339   4.423   5.996 -1.0154 -1.0110 -0.8200
 5175SOL     OW26986   4.556   3.812   2.555 -0.1882 -0.9035 -0.3174
 5175SOL    HW126987   4.546   3.881   2.490  2.1948 -0.5376 -0.3245
 5175SOL    HW226988   4.596   3.746   2.498 -0.1240 -0.1759 -1.1185
 5176SOL     OW26989   0.498   4.077   3.041 -0.1046 -0.5016 -0.6434
 5176SOL    HW126990   0.509   4.088   2.946  0.7362  0.1882 -0.4696
 5176SOL    HW226991   0.414   4.033   3.052 -0.7579  0.0618 -3.3379
 5177SOL     OW26992   4.161   1.329   4.912  0.1153 -0.0499 -0.4502
 5177SOL    HW126993   4.255   1.322   4.897 -0.3410 -2.9635 -2.1267
 5177SOL    HW226994   4.162   1.337   5.007 -1.0549 -2.0442 -0.2578
 5178SOL     OW26995   4.023   0.732   5.499 -0.1773 -0.3701  0.7816
 5178SOL    HW126996   4.050   0.675   5.428  0.0931  0.1523  0.4691
 5178SOL    HW226997   3.995   0.805   5.444  0.5825 -0.0832  0.7767
 5179SOL     OW26998   4.536   4.397   2.397  0.4353 -0.0299 -0.1040
 5179SOL    HW126999   4.494   4.357   2.321 -1.8485  1.4472  0.4044
 5179SOL    HW227000   4.624   4.411   2.360  0.2790 -0.4375 -0.6391
 5180SOL     OW27001   2.349   3.765   3.817 -0.1478  0.5332 -0.2028
 5180SOL    HW127002   2.419   3.795   3.759 -1.4667  2.7137 -0.6846
 5180SOL    HW227003   2.300   3.844   3.841  0.9506  1.4282 -0.9577
 5181SOL     OW27004   4.348   0.444  10.382  0.2009  0.4170 -0.5964
 5181SOL    HW127005   4.344   0.471  10.290 -0.9735 -3.3871 -1.6644
 5181SOL    HW227006   4.349   0.532  10.419 -0.9474 -0.0456  0.5448
 5182SOL     OW27007   1.768   0.961   3.988 -0.0182 -0.1370  0.8164
 5182SOL    HW127008   1.683   1.003   3.974 -0.4743 -1.5627 -0.6765
 5182SOL    HW227009   1.742   0.868   3.988 -0.5910  0.0174  2.4521
 5183SOL     OW27010   4.506   1.913  12.919  0.1026 -0.1115  0.0456
 5183SOL    HW127011   4.493   2.007  12.917  2.0323  0.1156 -1.8948
 5183SOL    HW227012   4.417   1.897  12.952 -0.3032  0.3601 -0.8234
 5184SOL     OW27013   3.067   0.767   2.993  0.1490  0.2917  0.7068
 5184SOL    HW127014   2.980   0.730   2.978 -0.0569 -0.4325  3.5342
 5184SOL    HW227015   3.066   0.782   3.088 -0.4415  2.0206  0.4360
 5185SOL     OW27016   3.925   2.281   1.933 -0.0182  0.0346  0.4207
 5185SOL    HW127017   3.890   2.222   1.866 -0.3236 -0.3265  0.8929
 5185SOL    HW227018   3.994   2.226   1.971 -1.3089  0.6834  3.6942
 5186SOL     OW27019   3.765   0.810   6.534  0.5675  0.5824  0.7126
 5186SOL    HW127020   3.682   0.764   6.544  1.1371 -0.5444  0.2152
 5186SOL    HW227021   3.825   0.750   6.489 -2.4707 -2.9812  1.4551
 5187SOL     OW27022   2.206   3.621  12.833  0.6985  0.4995  0.6155
 5187SOL    HW127023   2.125   3.587  12.873  1.2179  1.4005  2.4422
 5187SOL    HW227024   2.259   3.621  12.912  0.1452 -1.0975  0.9829
 5188SOL     OW27025   2.753   4.146   2.589  0.4535 -0.1153 -0.5365
 5188SOL    HW127026   2.790   4.233   2.603  1.7873 -0.6669 -0.5486
 5188SOL    HW227027   2.835   4.097   2.581 -0.8954 -2.8093  2.4532
 5189SOL     OW27028   3.902   2.973   6.972  0.0077 -0.3205 -0.8357
 5189SOL    HW127029   3.902   3.060   6.930 -0.6640  0.2169  0.2976
 5189SOL    HW227030   3.809   2.953   6.966 -0.0333 -0.6408  0.9207
 5190SOL     OW27031   3.607   4.596  10.929 -0.2434 -0.0500 -0.1752
 5190SOL    HW127032   3.548   4.663  10.892 -0.1368  0.7815  1.1807
 5190SOL    HW227033   3.616   4.629  11.018  1.1047  2.0788 -1.1050
 5191SOL     OW27034   3.824   0.392  15.039  0.2607  0.8734  0.0739
 5191SOL    HW127035   3.812   0.302  15.010 -1.7194  0.4828  2.0627
 5191SOL    HW227036   3.747   0.426  14.993 -0.0420  0.6684  0.4264
 5192SOL     OW27037   0.626   4.031   6.130 -0.4477  0.2477 -0.3079
 5192SOL    HW127038   0.717   4.026   6.101  0.7797 -2.5479  3.9778
 5192SOL    HW227039   0.639   4.079   6.212 -0.1804 -0.9684  0.3759
 5193SOL     OW27040   0.017   4.630   2.022 -0.1809  0.5600  0.2240
 5193SOL    HW127041   4.687   4.591   1.955  1.6550  0.8793 -1.4936
 5193SOL    HW227042   0.102   4.601   1.989  0.6653  2.1093  1.0291
 5194SOL     OW27043   2.979   0.821   2.686  0.2585 -0.3283 -0.2805
 5194SOL    HW127044   3.062   0.813   2.731 -0.2101 -0.5765  0.5425
 5194SOL    HW227045   2.999   0.783   2.600 -0.0630  1.1827 -1.0396
 5195SOL     OW27046   4.308   2.611   4.199  0.0778 -0.8413  0.2041
 5195SOL    HW127047   4.351   2.673   4.141 -0.2390 -1.6720 -0.9258
 5195SOL    HW227048   4.219   2.617   4.164  1.3143 -1.1580 -3.0603
 5196SOL     OW27049   3.955   1.220   5.755  0.3952 -0.2951  0.0024
 5196SOL    HW127050   3.990   1.157   5.692  0.6420  1.5808 -1.7297
 5196SOL    HW227051   4.022   1.212   5.823  0.2591  0.3548  0.2101
 5197SOL     OW27052   4.415   0.221   6.430 -0.9287  0.2353  0.5060
 5197SOL    HW127053   4.497   0.206   6.383 -2.1097  0.1568 -1.5388
 5197SOL    HW227054   4.409   0.137   6.474 -0.0188  0.6964  1.5022
 5198SOL     OW27055   0.349   0.376   3.485  0.0792 -0.2790  0.5917
 5198SOL    HW127056   0.423   0.318   3.497  0.6590  0.7366  2.0248
 5198SOL    HW227057   0.278   0.344   3.541 -0.7048  1.0372  0.3642
 5199SOL     OW27058   3.462   0.399   5.411 -0.1419  0.4010  0.1384
 5199SOL    HW127059   3.486   0.314   5.374  1.3128 -0.1256  2.2400
 5199SOL    HW227060   3.375   0.418   5.375  0.2135  0.9877 -0.3945
 5200SOL     OW27061   2.581   2.932   7.342 -0.0282 -0.4258  0.0226
 5200SOL    HW127062   2.589   2.849   7.294 -0.7203 -1.1613  1.1943
 5200SOL    HW227063   2.508   2.919   7.402  0.9830  1.7773  1.7409
 5201SOL     OW27064   0.840   1.546   6.118 -0.3833 -0.5878  0.8273
 5201SOL    HW127065   0.794   1.536   6.035 -1.1842 -0.1790  1.2183
 5201SOL    HW227066   0.812   1.464   6.159 -1.0060 -0.3852  0.8068
 5202SOL     OW27067   1.256   2.198   2.223 -0.3442 -0.4213  0.0505
 5202SOL    HW127068   1.241   2.107   2.198 -0.6926  0.2137 -2.0003
 5202SOL    HW227069   1.341   2.188   2.268  0.4312  0.3594 -1.2471
 5203SOL     OW27070   4.694   4.295   2.109  0.4781 -0.5083 -0.1429
 5203SOL    HW127071   4.599   4.303   2.118  0.4557  1.0833 -1.8258
 5203SOL    HW227072   4.722   4.358   2.176 -0.6290 -0.7112  0.5119
 5204SOL     OW27073   0.714   0.677   4.843  0.4525  0.4366 -0.2515
 5204SOL    HW127074   0.752   0.592   4.819 -3.9644 -1.5071 -0.4672
 5204SOL    HW227075   0.636   0.646   4.889  1.7836 -0.5078  1.3980
 5205SOL     OW27076   3.689   1.261   6.136  0.2298 -0.1497 -0.4955
 5205SOL    HW127077   3.598   1.271   6.165  0.2293  0.9886 -0.9159
 5205SOL    HW227078   3.711   1.336   6.191 -0.8787 -2.7438  3.5281
 5206SOL     OW27079   3.938   3.212   8.318  0.7019  0.2978  0.2084
 5206SOL    HW127080   3.900   3.143   8.372 -2.0803 -1.1881 -3.7148
 5206SOL    HW227081   4.021   3.165   8.311  0.7315 -0.1715  3.3862
 5207SOL     OW27082   4.308   1.192   7.606 -0.1928  0.1857 -0.5293
 5207SOL    HW127083   4.290   1.230   7.692  1.4712 -2.6170  1.0694
 5207SOL    HW227084   4.257   1.249   7.548 -1.2143 -0.3014 -0.1194
 5208SOL     OW27085   4.655   2.642   2.355 -0.0981  0.0553 -0.1788
 5208SOL    HW127086   4.599   2.674   2.425  1.3380  0.3077  0.8656
 5208SOL    HW227087   4.591   2.634   2.284 -1.4809  3.6886  0.6241
 5209SOL     OW27088   4.526   1.578   2.201  0.0062 -0.5672 -0.5196
 5209SOL    HW127089   4.461   1.629   2.152  2.8210  1.4034 -2.1969
 5209SOL    HW227090   4.491   1.489   2.200  0.1671 -0.6001 -2.2662
 5210SOL     OW27091   3.683   4.632  13.634  0.0502  0.7265 -0.5679
 5210SOL    HW127092   3.768   4.657  13.672 -0.2177  1.3997 -0.4084
 5210SOL    HW227093   3.697   4.539  13.619 -0.1773  0.0049  3.7431
 5211SOL     OW27094   1.957   1.721   8.173  0.2740  0.1020  0.2312
 5211SOL    HW127095   1.892   1.776   8.217  0.2137  0.5226 -0.3805
 5211SOL    HW227096   2.008   1.683   8.244  1.4687 -0.0825 -0.7211
 5212SOL     OW27097   0.729   2.616   2.975  0.3895 -0.7430  0.1607
 5212SOL    HW127098   0.649   2.660   2.947  0.6041  0.3110  1.1865
 5212SOL    HW227099   0.706   2.527   2.950 -0.2890 -1.5050  3.5514
 5213SOL     OW27100   2.774   0.604  13.339  0.3249  0.4228  0.4250
 5213SOL    HW127101   2.851   0.658  13.319  0.7804 -0.2481  0.3758
 5213SOL    HW227102   2.713   0.670  13.374  0.6087  0.7908  0.2275
 5214SOL     OW27103   2.021   3.313   2.347 -0.0571 -0.3629 -0.5766
 5214SOL    HW127104   2.009   3.351   2.434 -2.2893  0.3379 -1.1920
 5214SOL    HW227105   2.054   3.386   2.295  0.1615 -0.1380 -0.1198
 5215SOL     OW27106   3.242   4.396   4.544 -0.5543  0.3385 -0.1767
 5215SOL    HW127107   3.270   4.404   4.635 -0.3179 -1.8910 -0.0582
 5215SOL    HW227108   3.157   4.438   4.549 -0.3876  0.5961  0.4013
 5216SOL     OW27109   3.113   3.928  16.107 -0.0322  0.2691 -0.3583
 5216SOL    HW127110   3.141   4.018  16.087 -0.9317  0.8032  0.7597
 5216SOL    HW227111   3.076   3.898  16.024  0.8325 -2.3780  0.2130
 5217SOL     OW27112   0.747   2.258  12.101  0.1717 -0.0556  0.3006
 5217SOL    HW127113   0.743   2.264  12.196  1.3229  1.4494  0.2481
 5217SOL    HW227114   0.660   2.227  12.074 -0.1601  0.0359  1.2701
 5218SOL     OW27115   3.132   3.576   2.094  0.0039  0.5702 -0.1162
 5218SOL    HW127116   3.101   3.487   2.112  0.6067  0.2610 -0.6352
 5218SOL    HW227117   3.049   3.620   2.078 -0.7909 -0.7016  0.5000
 5219SOL     OW27118   3.154   3.119   5.893  0.3528  0.0848  0.7454
 5219SOL    HW127119   3.091   3.099   5.963  0.5963 -1.4970  0.5229
 5219SOL    HW227120   3.231   3.070   5.922  1.0323  1.0030  0.4855
 5220SOL     OW27121   2.360   1.078  15.498  0.0009 -0.5759  0.0001
 5220SOL    HW127122   2.443   1.126  15.508 -0.4727  0.0765  0.7550
 5220SOL    HW227123   2.308   1.145  15.454  0.8499 -0.3234 -0.6332
 5221SOL     OW27124   1.213   3.002  17.126  0.3500  0.4685 -0.5134
 5221SOL    HW127125   1.268   3.026  17.200  1.1448  0.1669 -1.0057
 5221SOL    HW227126   1.190   2.912  17.150  2.1490  0.7140  2.0457
 5222SOL     OW27127   2.805   4.586   4.309  0.0043 -0.7495  0.3396
 5222SOL    HW127128   2.718   4.620   4.328  0.5961  1.2031 -0.3458
 5222SOL    HW227129   2.776   4.512   4.256  0.2586  0.1572 -1.0974
 5223SOL     OW27130   1.057   2.060   5.081  0.5647 -0.6156 -0.2709
 5223SOL    HW127131   1.004   2.050   5.160  1.1278  1.2384  0.3440
 5223SOL    HW227132   1.047   1.975   5.037 -0.7033 -0.0968 -0.9952
 5224SOL     OW27133   1.561   1.622   9.564 -0.6729 -0.1008  0.2903
 5224SOL    HW127134   1.492   1.593   9.504 -0.0626  0.1130 -0.5139
 5224SOL    HW227135   1.549   1.716   9.550  2.1445  0.4051  1.2337
 5225SOL     OW27136   3.808   1.412  14.888  0.8274 -0.2158  0.1231
 5225SOL    HW127137   3.868   1.446  14.956  3.1470 -1.3758 -1.3455
 5225SOL    HW227138   3.815   1.319  14.910  2.1717 -0.3018 -0.6738
 5226SOL     OW27139   1.637   1.945  14.247 -0.1330  0.0414 -0.2566
 5226SOL    HW127140   1.561   1.983  14.202 -0.4150 -1.5824 -1.1463
 5226SOL    HW227141   1.696   1.934  14.172 -1.3732  0.0536 -1.2288
 5227SOL     OW27142   1.094   2.170   7.861  0.0182  0.1984  0.1443
 5227SOL    HW127143   1.102   2.135   7.950 -3.8670 -0.1136  0.4006
 5227SOL    HW227144   1.000   2.185   7.852  0.3775  0.4807 -2.9941
 5228SOL     OW27145   2.192   3.949   3.925  0.6525  0.2883  0.3171
 5228SOL    HW127146   2.192   4.006   4.002 -1.0966 -0.8154  1.1413
 5228SOL    HW227147   2.127   3.883   3.951  1.2211 -1.1469 -1.8320
 5229SOL     OW27148   2.789   1.612  14.748 -0.5735 -0.0363 -0.5153
 5229SOL    HW127149   2.810   1.525  14.715  0.8286  1.0096 -2.3711
 5229SOL    HW227150   2.696   1.612  14.770 -0.8102  0.1812 -1.4936
 5230SOL     OW27151   0.006   1.933   7.614  0.2981  0.1855 -0.5250
 5230SOL    HW127152   4.677   1.879   7.558 -0.9921  0.2143  0.7247
 5230SOL    HW227153   0.048   1.861   7.660 -2.2310  0.1772  1.7866
 5231SOL     OW27154   1.309   2.712   8.265 -0.3454 -0.5927 -0.0856
 5231SOL    HW127155   1.356   2.721   8.349  1.2804 -2.0367 -0.8447
 5231SOL    HW227156   1.221   2.733   8.296  0.2423  2.1495 -0.2541
 5232SOL     OW27157   2.357   1.410  14.997  0.5978  0.0677 -0.2962
 5232SOL    HW127158   2.357   1.321  14.963  0.3043  1.1350 -3.0256
 5232SOL    HW227159   2.263   1.425  15.014  0.3625  0.1282 -1.6857
 5233SOL     OW27160   0.837   1.784   5.198  0.5435  0.0979  0.3438
 5233SOL    HW127161   0.768   1.727   5.163  2.1320 -0.2015 -2.2866
 5233SOL    HW227162   0.896   1.790   5.123  1.2391 -2.5300  0.7032
 5234SOL     OW27163   0.585   4.683  10.609 -0.1186  0.2012  0.0514
 5234SOL    HW127164   0.632   4.694  10.527  0.2592 -0.7428  0.1370
 5234SOL    HW227165   0.651   4.632  10.657  0.6019  0.2279 -0.9147
 5235SOL     OW27166   2.238   0.647  14.304 -0.3120 -0.1689 -0.2548
 5235SOL    HW127167   2.228   0.725  14.358  2.1090 -0.8971  1.2359
 5235SOL    HW227168   2.209   0.673  14.217  0.9719 -1.5587 -1.1025
 5236SOL     OW27169   2.348   1.873  10.172  0.2789 -0.2851 -0.6226
 5236SOL    HW127170   2.271   1.869  10.115  1.2262  2.0033 -2.0466
 5236SOL    HW227171   2.355   1.967  10.186 -0.9720 -0.1965 -0.5892
 5237SOL     OW27172   0.360   3.703   5.667  0.1085  0.0984  0.9186
 5237SOL    HW127173   0.307   3.631   5.700  0.0266  0.8884  2.5083
 5237SOL    HW227174   0.396   3.734   5.750  2.1534  0.8642 -0.2619
 5238SOL     OW27175   4.039   0.163   4.686 -0.1804  0.4427 -0.2172
 5238SOL    HW127176   3.959   0.206   4.656 -0.4840 -0.5622 -0.8762
 5238SOL    HW227177   4.016   0.074   4.657 -1.7170  0.6187  0.4846
 5239SOL     OW27178   0.528   4.166   4.160 -0.0198  0.5891  0.5143
 5239SOL    HW127179   0.552   4.123   4.078 -2.5346 -1.0234  0.6462
 5239SOL    HW227180   0.550   4.097   4.223 -1.0306 -0.1909 -0.0028
 5240SOL     OW27181   2.770   2.423   8.675 -0.1980 -0.0542  0.4868
 5240SOL    HW127182   2.677   2.442   8.690  0.0614  1.0318  0.7362
 5240SOL    HW227183   2.780   2.472   8.594 -1.4692 -2.4425 -1.1256
 5241SOL     OW27184   4.454   1.687   4.605  0.0176 -0.1790 -0.1904
 5241SOL    HW127185   4.424   1.778   4.600  0.1439 -0.2175 -1.6322
 5241SOL    HW227186   4.490   1.678   4.517  0.5044  0.1851 -0.0264
 5242SOL     OW27187   1.103   2.434   7.210  0.4853  0.1599  0.2682
 5242SOL    HW127188   1.083   2.483   7.290 -0.1960  0.5403 -0.1399
 5242SOL    HW227189   1.033   2.464   7.152  1.7947 -0.7043 -1.7502
 5243SOL     OW27190   0.327   2.160   8.382 -0.7715  0.1295  0.1578
 5243SOL    HW127191   0.363   2.206   8.458 -1.5008 -1.6451  1.5854
 5243SOL    HW227192   0.233   2.168   8.396 -0.7626  0.9125 -0.2314
 5244SOL     OW27193   1.144   2.011   3.220 -0.2362 -0.8294  0.2169
 5244SOL    HW127194   1.215   1.949   3.235  0.8067  0.8069  2.0870
 5244SOL    HW227195   1.134   2.044   3.309  0.7419  1.0070 -0.3359
 5245SOL     OW27196   2.143   3.048   8.926 -0.5730  0.5250 -0.4720
 5245SOL    HW127197   2.144   2.952   8.929  2.4011  0.5631 -0.6250
 5245SOL    HW227198   2.059   3.064   8.969 -1.1827  0.8072 -1.7702
 5246SOL     OW27199   0.811   3.156   5.602 -0.0112  0.0889 -0.3450
 5246SOL    HW127200   0.893   3.192   5.634  0.0428  0.6922 -1.1763
 5246SOL    HW227201   0.796   3.194   5.516 -1.2814  0.9335  0.2362
 5247SOL     OW27202   0.029   2.671   3.100  0.3904  0.3145 -0.0243
 5247SOL    HW127203   0.089   2.599   3.080 -0.4790 -0.5346  0.4230
 5247SOL    HW227204   4.678   2.636   3.055 -0.8751  0.9728  1.6858
 5248SOL     OW27205   1.851   0.320   5.554 -0.3203  0.3660 -0.2506
 5248SOL    HW127206   1.945   0.337   5.559 -0.3235  0.1294  0.6718
 5248SOL    HW227207   1.842   0.234   5.598  2.1633  0.6811  0.8585
 5249SOL     OW27208   2.083   0.282  17.706 -0.2332  0.8699 -0.0804
 5249SOL    HW127209   2.066   0.362   0.048 -2.4769  0.2968  0.0495
 5249SOL    HW227210   2.139   0.310  17.633  2.0082 -1.6985  0.6456
 5250SOL     OW27211   4.428   0.004   0.730  1.2472  0.0454 -0.3669
 5250SOL    HW127212   4.398   0.078   0.782  0.9412  0.5102 -1.2047
 5250SOL    HW227213   4.499   0.047   0.681  1.2934  0.7545  0.3290
 5251SOL     OW27214   3.144   3.481   6.889  0.2244  0.2094 -0.0567
 5251SOL    HW127215   3.177   3.486   6.979 -0.1766 -3.6704  0.3030
 5251SOL    HW227216   3.055   3.516   6.897 -0.0338 -0.3902 -0.2549
 5252SOL     OW27217   2.389   2.387   2.808 -0.1971 -0.1541  0.9712
 5252SOL    HW127218   2.337   2.314   2.775  0.0130 -0.1868  0.7086
 5252SOL    HW227219   2.407   2.436   2.728  0.2652  0.0899  1.2248
 5253SOL     OW27220   2.140   2.969   7.767 -0.0063 -0.2731 -0.4619
 5253SOL    HW127221   2.221   2.934   7.803  0.5252  1.4179 -0.0043
 5253SOL    HW227222   2.087   2.906   7.816 -1.8474 -0.0777 -2.2045
 5254SOL     OW27223   4.386   0.532   4.763  0.1938 -0.5736 -0.4961
 5254SOL    HW127224   4.406   0.590   4.690  2.4083 -1.1254 -0.3290
 5254SOL    HW227225   4.381   0.450   4.714  0.3693 -0.8050 -0.1217
 5255SOL     OW27226   2.942   1.574   1.816 -0.2912  0.7700  0.1791
 5255SOL    HW127227   2.950   1.667   1.835 -1.8024  0.8812  0.2950
 5255SOL    HW227228   2.908   1.532   1.895  0.3488  0.0297  0.0596
 5256SOL     OW27229   0.653   1.222   4.494  0.5869 -0.1647  0.2581
 5256SOL    HW127230   0.590   1.154   4.470  1.9402 -2.9240  4.2910
 5256SOL    HW227231   0.587   1.290   4.494 -2.1740 -2.8760 -2.1678
 5257SOL     OW27232   1.306   3.837   1.210  0.2065  0.2424  0.1666
 5257SOL    HW127233   1.386   3.847   1.261  0.4478 -1.0932  0.0437
 5257SOL    HW227234   1.260   3.922   1.209  0.8683  0.5943  0.0134
 5258SOL     OW27235   1.584   2.701  10.000 -0.5078  0.1938  0.2091
 5258SOL    HW127236   1.626   2.762  10.060  3.1728 -1.0426 -1.1017
 5258SOL    HW227237   1.656   2.660   9.952 -1.9131 -1.7908 -0.2057
 5259SOL     OW27238   0.889   4.501   8.470  0.1329  0.0743 -0.7503
 5259SOL    HW127239   0.933   4.468   8.548 -4.6148 -2.6986  0.7433
 5259SOL    HW227240   0.823   4.432   8.465 -0.7473  0.7736  1.2989
 5260SOL     OW27241   0.693   3.907   8.335 -0.5192  0.0498 -0.4400
 5260SOL    HW127242   0.744   3.987   8.321 -1.3811  0.8341  0.9328
 5260SOL    HW227243   0.630   3.935   8.401  1.9066 -1.1961  2.4000
 5261SOL     OW27244   0.427   0.897   7.221 -0.6093  0.0456  0.7274
 5261SOL    HW127245   0.407   0.951   7.145 -0.6422 -1.4627 -0.3275
 5261SOL    HW227246   0.428   0.970   7.284  0.6146 -0.6012  1.4476
 5262SOL     OW27247   4.046   4.220   7.823  0.2115 -0.4313 -0.5115
 5262SOL    HW127248   4.027   4.167   7.745  0.5530 -2.0452  0.5142
 5262SOL    HW227249   4.052   4.149   7.886 -0.6013 -0.5439 -0.5544
 5263SOL     OW27250   3.191   2.824  14.987 -0.1946  0.2510  0.2384
 5263SOL    HW127251   3.253   2.824  15.060 -0.9218 -1.0523  0.8501
 5263SOL    HW227252   3.113   2.826  15.042 -1.2700  0.4091 -1.3091
 5264SOL     OW27253   2.014   2.311  16.794 -0.0475  0.0730 -0.4195
 5264SOL    HW127254   2.101   2.302  16.756  0.9152  0.6339  1.6557
 5264SOL    HW227255   2.024   2.386  16.852 -2.0824 -0.0208  0.0559
 5265SOL     OW27256   4.381   3.182   6.491 -0.3709 -0.3873  0.4153
 5265SOL    HW127257   4.391   3.181   6.586 -1.6979  2.0832  0.5834
 5265SOL    HW227258   4.314   3.114   6.483 -0.0152 -0.6778 -0.1191
 5266SOL     OW27259   3.160   1.773   4.331  0.1305  0.4234 -0.1884
 5266SOL    HW127260   3.195   1.732   4.410 -0.8632  2.6088  1.3780
 5266SOL    HW227261   3.238   1.765   4.276 -0.7866 -2.1565 -1.1357
 5267SOL     OW27262   2.002   1.842   0.037 -0.2293 -0.5358 -0.1890
 5267SOL    HW127263   2.002   1.920  17.688 -0.9072 -0.8167 -0.5764
 5267SOL    HW227264   1.918   1.800   0.021 -0.2690 -0.6128  0.2156
 5268SOL     OW27265   4.126   0.826   4.724  0.6637 -0.2085 -0.0360
 5268SOL    HW127266   4.146   0.851   4.634  2.6471 -1.3353  0.1016
 5268SOL    HW227267   4.082   0.903   4.760 -1.4793 -1.3110 -0.2647
 5269SOL     OW27268   0.119   0.581  16.096 -0.5158  0.2745  0.1483
 5269SOL    HW127269   0.075   0.539  16.023 -2.0635 -0.1779  1.3410
 5269SOL    HW227270   0.053   0.647  16.119  2.1054  3.0993 -0.4233
 5270SOL     OW27271   0.532   1.918   7.710 -0.7723  0.4092  0.4096
 5270SOL    HW127272   0.486   1.854   7.765 -2.0670  0.1120 -1.0142
 5270SOL    HW227273   0.617   1.905   7.753 -1.1084 -2.3696  0.2080
 5271SOL     OW27274   3.077   3.404   8.903  0.1424  0.1541  0.4953
 5271SOL    HW127275   3.019   3.333   8.874  0.7452  0.2570 -0.9848
 5271SOL    HW227276   3.042   3.424   8.989 -0.1637 -1.4481  0.7484
 5272SOL     OW27277   3.944   3.642   8.770  0.1502 -0.1458  0.6556
 5272SOL    HW127278   3.988   3.720   8.736  0.2539 -1.4223 -2.1205
 5272SOL    HW227279   3.942   3.681   8.857 -0.6764 -0.2702  0.6873
 5273SOL     OW27280   4.398   4.253  17.173  0.2698  0.1562  0.2971
 5273SOL    HW127281   4.344   4.227  17.098  1.0291 -1.5253  0.3374
 5273SOL    HW227282   4.409   4.346  17.153 -1.0732  0.5430  1.3668
 5274SOL     OW27283   2.808   1.825   7.249  0.1522  0.0157  0.5266
 5274SOL    HW127284   2.759   1.858   7.323  2.2915  2.3219  0.9188
 5274SOL    HW227285   2.890   1.793   7.287  1.1771  1.5614 -0.3652
 5275SOL     OW27286   3.301   3.521   8.818 -0.6955  0.3488 -0.1039
 5275SOL    HW127287   3.222   3.492   8.864 -0.4310  0.3624  0.3499
 5275SOL    HW227288   3.298   3.615   8.837 -0.5429 -0.2952  2.9896
 5276SOL     OW27289   4.018   2.151  14.224  0.8420  0.2453  0.1208
 5276SOL    HW127290   3.942   2.094  14.234 -0.2821  1.2708 -2.5795
 5276SOL    HW227291   4.074   2.121  14.296 -1.2438 -0.9352  1.2534
 5277SOL     OW27292   3.460   3.567   9.908 -0.1469 -0.4006 -0.4353
 5277SOL    HW127293   3.509   3.537   9.832  2.9129  0.6884  1.0820
 5277SOL    HW227294   3.395   3.498   9.922  1.5689 -2.0549 -0.7238
 5278SOL     OW27295   2.283   4.187   3.397  0.1482 -0.3088 -0.1654
 5278SOL    HW127296   2.202   4.136   3.393  0.4847 -0.7747 -1.1224
 5278SOL    HW227297   2.256   4.259   3.340 -1.7959 -0.3941  0.6358
 5279SOL     OW27298   0.274   4.254   3.156 -0.2393  0.0016 -0.1021
 5279SOL    HW127299   0.218   4.331   3.145 -0.9088 -0.5407 -0.5190
 5279SOL    HW227300   0.305   4.268   3.246  3.1610 -1.0693 -1.1445
 5280SOL     OW27301   3.585   1.071  17.453  0.9405  0.1902 -0.8031
 5280SOL    HW127302   3.588   1.159  17.490  0.1579 -0.4681  0.8133
 5280SOL    HW227303   3.621   1.074  17.364 -1.2342 -0.1228 -1.6993
 5281SOL     OW27304   0.442   2.004   7.101  0.0083  0.3105  0.2912
 5281SOL    HW127305   0.529   1.968   7.114 -0.0605  1.2534  3.3948
 5281SOL    HW227306   0.380   1.932   7.089 -0.6483  1.1794 -1.5499
 5282SOL     OW27307   1.988   0.823   6.507 -0.2567 -0.0023  0.4021
 5282SOL    HW127308   1.984   0.756   6.575 -0.2802  0.9530  1.3473
 5282SOL    HW227309   2.047   0.783   6.443 -2.9181 -2.2132 -0.6619
 5283SOL     OW27310   0.265   0.510   4.680  0.1645 -0.1596  0.0922
 5283SOL    HW127311   0.178   0.531   4.646 -0.0510  0.1337  0.8309
 5283SOL    HW227312   0.291   0.591   4.723  1.4513 -0.8046  0.5294
 5284SOL     OW27313   3.717   2.912   7.743  0.4199 -0.4599  0.4527
 5284SOL    HW127314   3.810   2.934   7.730  0.3501 -0.3088  0.2146
 5284SOL    HW227315   3.694   2.884   7.654 -1.2347 -0.6192  0.9415
 5285SOL     OW27316   0.065   0.771   6.077  0.4454  0.4775  0.0936
 5285SOL    HW127317   0.091   0.800   6.165  0.8440  1.3191 -0.3017
 5285SOL    HW227318   0.072   0.677   6.093  0.7871  0.5548  0.4016
 5286SOL     OW27319   1.866   2.180   8.882 -0.1769  0.7019 -0.2276
 5286SOL    HW127320   1.886   2.272   8.901 -1.8362  1.0227 -0.0690
 5286SOL    HW227321   1.795   2.179   8.946 -1.1155 -2.0391 -1.3570
 5287SOL     OW27322   2.814   2.292   4.679 -0.0814 -0.2548 -0.0402
 5287SOL    HW127323   2.759   2.344   4.620 -0.3975  0.0067  0.4919
 5287SOL    HW227324   2.900   2.334   4.675  0.2417 -0.9178  0.0226
 5288SOL     OW27325   0.915   3.351   6.579 -0.4059  0.1471 -0.2667
 5288SOL    HW127326   0.892   3.411   6.508  1.1673  0.4419 -0.5154
 5288SOL    HW227327   0.961   3.419   6.628  0.0232 -1.0438  1.0004
 5289SOL     OW27328   0.788   3.665   4.209 -0.5019  0.3094 -0.1849
 5289SOL    HW127329   0.718   3.724   4.238 -2.2569 -2.5050  1.2351
 5289SOL    HW227330   0.774   3.662   4.115 -0.3746  1.2931 -0.2429
 5290SOL     OW27331   2.869   3.895   5.277  0.3484  0.8037  0.1241
 5290SOL    HW127332   2.786   3.937   5.252 -0.8573 -1.1210  0.9135
 5290SOL    HW227333   2.857   3.815   5.227  0.5638  1.2862 -0.6976
 5291SOL     OW27334   0.883   1.211  14.880 -0.8852  0.6440 -0.2203
 5291SOL    HW127335   0.975   1.197  14.858 -1.0398 -0.5019 -0.1095
 5291SOL    HW227336   0.895   1.295  14.926  0.5310  0.5719 -0.4605
 5292SOL     OW27337   0.004   3.286  17.688  0.2801  0.1246  0.7351
 5292SOL    HW127338   4.652   3.241  17.655  1.3924  0.6018 -2.4671
 5292SOL    HW227339   0.062   3.210  17.678 -0.1712  0.1146 -1.7634
 5293SOL     OW27340   3.847   3.873   9.259  0.4060  0.0083 -0.1880
 5293SOL    HW127341   3.853   3.790   9.307  0.1305  0.7643  1.1502
 5293SOL    HW227342   3.752   3.886   9.254  0.5568  0.5931 -1.5293
 5294SOL     OW27343   3.862   1.745   3.354 -0.2820 -1.0927  0.1158
 5294SOL    HW127344   3.795   1.677   3.356 -1.0731 -0.4562 -4.3394
 5294SOL    HW227345   3.802   1.819   3.367  0.6491 -0.2341 -0.4011
 5295SOL     OW27346   1.059   2.485   8.253  0.3064 -0.5318 -0.1622
 5295SOL    HW127347   1.116   2.429   8.201 -0.3823 -2.2560  0.9283
 5295SOL    HW227348   0.989   2.422   8.273 -1.6131  1.1829 -1.4860
 5296SOL     OW27349   3.658   3.946   9.611 -0.0605  0.3205 -0.1398
 5296SOL    HW127350   3.654   4.015   9.678 -0.1932  0.8640 -0.7103
 5296SOL    HW227351   3.673   4.008   9.539 -0.9411  1.2539  0.4769
 5297SOL     OW27352   2.482   3.415   7.397 -0.4628 -0.2584  0.5137
 5297SOL    HW127353   2.564   3.444   7.436 -0.1219  0.3174 -0.6192
 5297SOL    HW227354   2.451   3.360   7.469 -0.0958 -1.6106 -0.3568
 5298SOL     OW27355   1.860   0.358   3.832 -0.3014  0.3010 -1.3735
 5298SOL    HW127356   1.877   0.264   3.832 -0.4795  0.2655 -1.9111
 5298SOL    HW227357   1.787   0.362   3.894 -0.5483 -0.9758 -1.5739
 5299SOL     OW27358   4.510   4.057   7.627 -0.3010 -0.5219 -0.8424
 5299SOL    HW127359   4.503   3.976   7.677  0.0823  1.3644  2.2498
 5299SOL    HW227360   4.488   4.025   7.539 -2.4542 -1.2000 -0.0552
 5300SOL     OW27361   4.110   0.654  11.482 -0.2804 -0.1024 -0.3688
 5300SOL    HW127362   4.076   0.592  11.418  0.3317  1.2691 -2.0235
 5300SOL    HW227363   4.138   0.726  11.426  1.1043  0.4346  1.0011
 5301SOL     OW27364   3.905   0.665  14.909  1.0327 -0.1423  0.5936
 5301SOL    HW127365   3.872   0.575  14.918  0.7812 -0.0360  0.7250
 5301SOL    HW227366   3.982   0.665  14.967  1.2334  0.7352  0.3309
 5302SOL     OW27367   1.427   1.356   1.257 -0.3686  0.2665 -0.1004
 5302SOL    HW127368   1.472   1.438   1.238 -0.9823  0.7248  0.4218
 5302SOL    HW227369   1.356   1.351   1.193 -1.5034  0.1925  1.1615
 5303SOL     OW27370   1.317   0.358   7.973  0.6913 -0.7126 -0.4678
 5303SOL    HW127371   1.338   0.443   8.011  2.1131 -0.9404 -0.7668
 5303SOL    HW227372   1.344   0.310   8.051 -0.3040 -0.8292 -0.1913
 5304SOL     OW27373   4.499   0.369  10.598  0.0851 -0.0885 -0.3909
 5304SOL    HW127374   4.486   0.413  10.514 -0.1597 -0.7295 -0.6883
 5304SOL    HW227375   4.411   0.352  10.631  0.0716  0.7898  0.0234
 5305SOL     OW27376   2.133   3.583  13.188  0.6284  0.3348  0.1436
 5305SOL    HW127377   2.218   3.542  13.202  0.4397 -0.0836  0.0740
 5305SOL    HW227378   2.074   3.538  13.248 -0.4506  3.1551  1.1891
 5306SOL     OW27379   4.273   1.610  11.687  0.1121 -0.1346  0.2033
 5306SOL    HW127380   4.210   1.682  11.699 -0.7789 -0.5878 -1.7421
 5306SOL    HW227381   4.294   1.634  11.596 -2.0361  0.7541 -0.0637
 5307SOL     OW27382   4.580   3.418   7.917 -0.3131 -0.2346 -0.4062
 5307SOL    HW127383   4.553   3.388   8.003  0.2623  1.3449  0.3260
 5307SOL    HW227384   4.632   3.342   7.889  2.5593  1.2008  0.9713
 5308SOL     OW27385   2.522   3.129  10.246 -0.7858 -0.3352  0.2328
 5308SOL    HW127386   2.512   3.221  10.271 -0.4738 -0.3767  0.5153
 5308SOL    HW227387   2.539   3.134  10.151  0.2861  0.5410  0.4695
 5309SOL     OW27388   2.465   0.452   6.234 -0.5113  0.1692 -0.2957
 5309SOL    HW127389   2.472   0.502   6.153 -2.2575  0.3956 -0.3064
 5309SOL    HW227390   2.557   0.442   6.258 -0.8512  0.2290  1.0916
 5310SOL     OW27391   2.877   1.243   4.368 -0.4060  0.1392 -0.5655
 5310SOL    HW127392   2.944   1.206   4.310  0.7890  0.0473  0.8894
 5310SOL    HW227393   2.909   1.225   4.456 -0.3130  2.0382 -0.2136
 5311SOL     OW27394   3.560   3.581   6.367 -0.1226  0.4090 -0.0508
 5311SOL    HW127395   3.489   3.536   6.322 -0.1050  0.9574 -0.6309
 5311SOL    HW227396   3.628   3.542   6.311 -1.3971 -0.6163 -0.8780
 5312SOL     OW27397   1.671   2.751   7.678 -0.2335  0.2770  0.5322
 5312SOL    HW127398   1.735   2.789   7.617 -2.5697  0.1071 -1.9942
 5312SOL    HW227399   1.591   2.762   7.628 -1.5308 -0.8118  2.3797
 5313SOL     OW27400   3.486   3.126  12.869  0.8436  0.3639 -0.2007
 5313SOL    HW127401   3.410   3.125  12.927  1.1592 -0.2298  0.2035
 5313SOL    HW227402   3.515   3.217  12.870 -0.3204  0.7246  0.1332
 5314SOL     OW27403   3.616   3.631   3.981 -0.1676 -0.2194 -0.3903
 5314SOL    HW127404   3.551   3.578   3.935  1.7899 -1.2295 -2.0047
 5314SOL    HW227405   3.593   3.721   3.957  0.8730 -0.0761 -0.8848
 5315SOL     OW27406   2.834   4.376   5.584 -0.3728 -0.3728  0.3268
 5315SOL    HW127407   2.879   4.446   5.536  0.5761 -0.0882  1.6218
 5315SOL    HW227408   2.750   4.414   5.609 -0.0237  0.7524 -0.1769
 5316SOL     OW27409   0.776   0.965   7.839 -0.2683 -0.4805 -0.1326
 5316SOL    HW127410   0.776   0.937   7.747  0.4696 -3.4369  0.7531
 5316SOL    HW227411   0.699   1.020   7.831 -1.2621 -1.8768 -0.2440
 5317SOL     OW27412   4.532   3.959  11.862 -0.4435 -0.2887  0.1551
 5317SOL    HW127413   4.607   3.905  11.888  0.1880  0.0540 -0.9863
 5317SOL    HW227414   4.555   3.951  11.770 -0.9798  0.2262 -0.0222
 5318SOL     OW27415   2.312   4.370   2.438 -0.5144 -0.0848  0.0992
 5318SOL    HW127416   2.280   4.296   2.489  1.8412 -0.6249  0.8398
 5318SOL    HW227417   2.404   4.343   2.430  0.1419  2.1177  0.1206
 5319SOL     OW27418   2.661   4.050   5.905 -0.5407 -0.1718  0.0340
 5319SOL    HW127419   2.676   3.960   5.933 -0.2115 -0.2897 -0.5140
 5319SOL    HW227420   2.749   4.088   5.913 -0.7394  0.4629 -0.7705
 5320SOL     OW27421   1.029   1.757   0.745 -0.1498  0.2616 -0.2572
 5320SOL    HW127422   1.036   1.678   0.692  0.6680 -0.4529  0.9262
 5320SOL    HW227423   1.111   1.794   0.714  0.3327 -1.1097 -0.6113
 5321SOL     OW27424   3.933   0.816  17.454  0.0241  0.4665  0.1797
 5321SOL    HW127425   3.894   0.876  17.518 -1.1597  0.9976 -1.0331
 5321SOL    HW227426   3.920   0.867  17.374  1.2059  3.0747  1.6325
 5322SOL     OW27427   1.656   4.194   5.216 -0.1494 -0.3185  0.1680
 5322SOL    HW127428   1.734   4.184   5.271 -0.2824  0.4164  0.4880
 5322SOL    HW227429   1.594   4.243   5.270 -0.3211 -1.6122  1.1458
 5323SOL     OW27430   2.233   4.235   7.958 -0.1122 -0.2837 -0.8549
 5323SOL    HW127431   2.221   4.200   7.869  0.6511 -0.8687 -0.7224
 5323SOL    HW227432   2.181   4.169   8.004 -1.5731  0.0314 -2.0572
 5324SOL     OW27433   0.100   1.061  16.092 -0.1171 -0.0682 -0.1112
 5324SOL    HW127434   0.066   0.985  16.046  1.2110 -0.3891 -0.5623
 5324SOL    HW227435   0.037   1.067  16.164 -0.0398  0.5206 -0.0913
 5325SOL     OW27436   1.772   2.212  15.243 -0.5693  0.4571 -0.0741
 5325SOL    HW127437   1.828   2.289  15.234 -0.6899  0.6146  0.5063
 5325SOL    HW227438   1.770   2.169  15.157 -1.7674 -0.8965  0.6280
 5326SOL     OW27439   1.493   0.664   7.018  0.0332  0.1984 -0.0223
 5326SOL    HW127440   1.499   0.632   7.108  0.3781  1.4727  0.4103
 5326SOL    HW227441   1.542   0.747   7.025 -1.9539  1.3219  0.4437
 5327SOL     OW27442   1.863   2.064  17.286  0.3251  0.0117  0.0100
 5327SOL    HW127443   1.932   2.040  17.349  3.5966  0.8913 -3.2208
 5327SOL    HW227444   1.814   1.982  17.292  1.8656 -1.0538 -1.7407
 5328SOL     OW27445   0.211   1.725   5.460 -0.1727  0.3642  0.2958
 5328SOL    HW127446   0.127   1.679   5.454 -0.2634  0.5838 -0.0913
 5328SOL    HW227447   0.253   1.709   5.375  0.8703 -1.9908  1.2547
 5329SOL     OW27448   4.108   2.808   6.172  0.4084 -0.3884  0.0727
 5329SOL    HW127449   4.079   2.753   6.245  1.3502 -1.0371 -0.0439
 5329SOL    HW227450   4.156   2.749   6.113  2.0803  1.0557  0.0029
 5330SOL     OW27451   4.433   1.385   4.894  0.1005 -0.3674 -0.4462
 5330SOL    HW127452   4.439   1.473   4.931 -0.7194 -1.1646  1.5921
 5330SOL    HW227453   4.520   1.351   4.913 -1.2196 -1.5220  3.4690
 5331SOL     OW27454   3.816   1.826   0.462 -0.7790  0.1793 -0.1494
 5331SOL    HW127455   3.793   1.751   0.516  1.0367  0.1021  0.5265
 5331SOL    HW227456   3.870   1.880   0.520  1.6361 -0.1854 -2.0787
 5332SOL     OW27457   2.293   0.350   3.478  0.0940 -0.2474 -0.0144
 5332SOL    HW127458   2.380   0.312   3.472  0.0968 -0.3934  1.0307
 5332SOL    HW227459   2.307   0.429   3.530  0.7692 -1.5037  1.6926
 5333SOL     OW27460   4.595   2.324   5.281  0.3671  0.3112  0.2491
 5333SOL    HW127461   4.664   2.376   5.240 -0.9834  2.1125  0.2331
 5333SOL    HW227462   4.634   2.237   5.272  0.4915  0.3628  0.3007
 5334SOL     OW27463   4.089   4.036  14.224 -0.4151 -1.0810  0.2312
 5334SOL    HW127464   4.014   4.092  14.246  0.6384  0.6845 -0.7186
 5334SOL    HW227465   4.120   4.033  14.315  1.2370 -0.3518 -0.3165
 5335SOL     OW27466   1.694   2.097   4.405 -0.4589  0.5305  0.1452
 5335SOL    HW127467   1.701   2.149   4.324 -1.7624  0.5389  0.0395
 5335SOL    HW227468   1.668   2.157   4.475  1.1455 -0.9847  2.0068
 5336SOL     OW27469   1.863   0.829   3.618 -0.1491 -0.0120  0.2202
 5336SOL    HW127470   1.882   0.863   3.530 -0.0998  2.0525  1.0390
 5336SOL    HW227471   1.812   0.905   3.646  1.4952  1.3920 -0.6452
 5337SOL     OW27472   2.092   3.318   7.415 -0.1562 -0.3440 -0.3367
 5337SOL    HW127473   2.173   3.281   7.450 -0.8674 -2.0039 -0.4423
 5337SOL    HW227474   2.063   3.381   7.482 -0.0279 -1.0830  0.4245
 5338SOL     OW27475   4.285   4.520   5.317  0.1555 -0.7846  0.3577
 5338SOL    HW127476   4.210   4.539   5.260  2.0979  0.9481 -1.6289
 5338SOL    HW227477   4.346   4.568   5.261  0.7603 -4.4004 -2.1067
 5339SOL     OW27478   2.282   0.963   8.509  0.1322 -0.4128 -0.6621
 5339SOL    HW127479   2.199   0.953   8.461  0.3639 -0.0885 -1.1263
 5339SOL    HW227480   2.308   1.051   8.481 -0.4008 -0.2452 -0.6289
 5340SOL     OW27481   4.106   0.888  13.030  0.3368  0.5909 -0.1924
 5340SOL    HW127482   4.165   0.829  12.984 -1.0434 -0.1298 -1.0498
 5340SOL    HW227483   4.124   0.864  13.121 -0.6164  0.5995  0.0003
 5341SOL     OW27484   4.069   2.385  12.246 -0.0583 -0.0179 -0.4242
 5341SOL    HW127485   3.977   2.398  12.272  0.0595  0.8513 -0.4425
 5341SOL    HW227486   4.071   2.405  12.153 -0.2550  0.5381 -0.3142
 5342SOL     OW27487   1.600   2.484   6.886 -0.7049  0.3141  0.0954
 5342SOL    HW127488   1.566   2.449   6.968  0.6504  0.4185  0.7144
 5342SOL    HW227489   1.657   2.419   6.844  1.9376  1.9867  1.1096
 5343SOL     OW27490   0.306   3.800   8.481 -0.1668 -0.1972  0.2750
 5343SOL    HW127491   0.218   3.837   8.476  0.2564  0.5591 -1.3955
 5343SOL    HW227492   0.332   3.822   8.392 -0.1849 -1.1048  0.0451
 5344SOL     OW27493   1.732   0.816   1.707 -0.3686  0.0432 -0.1167
 5344SOL    HW127494   1.793   0.756   1.665 -0.7495  0.1690 -0.8485
 5344SOL    HW227495   1.704   0.861   1.627 -2.0004  2.2887  1.7357
 5345SOL     OW27496   0.154   3.908   2.343  0.0071  0.0359  0.0799
 5345SOL    HW127497   0.220   3.945   2.285 -0.5349 -1.9702 -1.7852
 5345SOL    HW227498   0.084   3.973   2.347  1.6853  1.7312  1.7720
 5346SOL     OW27499   2.575   2.793  10.893  0.5542  0.0759  0.4496
 5346SOL    HW127500   2.641   2.757  10.953 -0.6368 -4.2896 -0.8089
 5346SOL    HW227501   2.625   2.791  10.812  1.6138  1.4285  1.0569
 5347SOL     OW27502   0.087   1.582   4.479 -0.0965 -0.2170  0.2183
 5347SOL    HW127503   0.182   1.576   4.476  0.0163  3.0265 -2.2130
 5347SOL    HW227504   0.057   1.550   4.394 -0.5230  1.6184 -0.3290
 5348SOL     OW27505   4.207   2.570   4.550  0.8313  0.2319  0.2062
 5348SOL    HW127506   4.139   2.524   4.501  0.7616 -0.0764  0.5902
 5348SOL    HW227507   4.209   2.662   4.525 -0.4055 -0.4699 -2.4707
 5349SOL     OW27508   3.219   3.697  14.248 -0.6622  1.0051 -0.1121
 5349SOL    HW127509   3.250   3.765  14.308 -0.6045 -1.6908  2.9040
 5349SOL    HW227510   3.250   3.615  14.287  2.2783  3.1396  2.0069
 5350SOL     OW27511   1.329   4.676   3.681 -0.0179 -0.1181  0.5196
 5350SOL    HW127512   1.333   0.026   3.624 -1.9629  0.5408  1.2349
 5350SOL    HW227513   1.264   4.694   3.749 -1.1528 -0.4053 -0.4894
 5351SOL     OW27514   0.913   2.121   1.710 -0.1410 -0.6835 -0.4548
 5351SOL    HW127515   0.860   2.041   1.712 -1.4521  0.2082  0.3140
 5351SOL    HW227516   0.965   2.096   1.633  0.3687 -0.6660 -0.1131
 5352SOL     OW27517   4.557   1.470  13.110  0.2990  0.6885  0.1971
 5352SOL    HW127518   4.629   1.532  13.101  0.6767 -0.1646 -2.4916
 5352SOL    HW227519   4.501   1.516  13.047  1.6579  0.5349 -1.1116
 5353SOL     OW27520   3.994   0.045   3.381  0.0972  0.2659 -0.3994
 5353SOL    HW127521   3.905   0.025   3.353 -0.3173 -0.2095  1.2535
 5353SOL    HW227522   3.999   0.002   3.466 -0.8686 -1.4812 -1.2235
 5354SOL     OW27523   0.373   4.162   6.516  0.1965 -0.5280 -0.6924
 5354SOL    HW127524   0.422   4.080   6.521  0.5757 -0.1684  1.2103
 5354SOL    HW227525   0.295   4.144   6.463 -0.1014  2.8835 -1.3795
 5355SOL     OW27526   4.484   0.203   4.041 -0.2434 -0.2865  0.4323
 5355SOL    HW127527   4.520   0.275   4.092 -0.5284  0.6232 -0.6392
 5355SOL    HW227528   4.403   0.180   4.086 -0.9110  2.5799  0.6706
 5356SOL     OW27529   1.615   0.171   4.747  0.4101  0.2991 -0.1048
 5356SOL    HW127530   1.555   0.210   4.810 -0.9559 -2.3825  0.2463
 5356SOL    HW227531   1.562   0.105   4.704  1.0887 -0.0731 -0.3713
 5357SOL     OW27532   1.376   2.605   9.848  0.3279 -0.0258 -0.3126
 5357SOL    HW127533   1.302   2.561   9.889  0.9137 -1.0929 -0.3942
 5357SOL    HW227534   1.456   2.588   9.898 -1.0453 -0.0522  1.8307
 5358SOL     OW27535   0.642   2.617   1.338  0.5218  0.0065  0.5327
 5358SOL    HW127536   0.714   2.615   1.402  2.0022 -0.0563 -1.1438
 5358SOL    HW227537   0.565   2.639   1.391  0.2830 -0.1945  0.2623
 5359SOL     OW27538   3.798   2.181   5.598 -0.2512  0.0432  0.0052
 5359SOL    HW127539   3.746   2.239   5.653 -0.4808 -0.5504  0.4098
 5359SOL    HW227540   3.756   2.096   5.613 -0.1841  0.4819  2.6040
 5360SOL     OW27541   1.382   1.418   3.928 -0.2452 -0.0756  0.0390
 5360SOL    HW127542   1.461   1.433   3.981  0.1797  2.2153 -1.2163
 5360SOL    HW227543   1.363   1.325   3.936  2.2821 -0.5359  0.8402
 5361SOL     OW27544   0.305   0.221   0.820  0.6557 -0.3070  0.0154
 5361SOL    HW127545   0.279   0.277   0.893  0.4744  1.9217 -1.7746
 5361SOL    HW227546   0.400   0.214   0.822  0.6273 -0.7681 -0.2562
 5362SOL     OW27547   3.317   4.444   6.341  0.4456  0.5993  0.1457
 5362SOL    HW127548   3.350   4.372   6.394 -0.5808 -1.0417 -1.4594
 5362SOL    HW227549   3.254   4.482   6.402  0.2480 -0.0513  0.3459
 5363SOL     OW27550   2.586   2.505   5.886  0.0417 -0.3218  0.3214
 5363SOL    HW127551   2.567   2.596   5.910 -0.0347  0.2223 -1.8361
 5363SOL    HW227552   2.503   2.464   5.911 -0.0416 -0.0442  0.5020
 5364SOL     OW27553   1.725   1.857   7.555 -0.0829  0.0441 -0.7594
 5364SOL    HW127554   1.759   1.776   7.518  0.6323 -0.0932  0.1810
 5364SOL    HW227555   1.793   1.922   7.536  0.5339 -0.8191 -1.4714
 5365SOL     OW27556   2.612   2.570  12.788  0.4306  0.2629 -0.1025
 5365SOL    HW127557   2.649   2.607  12.707 -1.3759  0.8029 -0.6921
 5365SOL    HW227558   2.518   2.589  12.787  0.8300  2.1974 -0.6191
 5366SOL     OW27559   0.226   3.120  16.465  0.0792 -0.1034 -0.5496
 5366SOL    HW127560   0.151   3.139  16.409  0.2423  1.3219 -0.2643
 5366SOL    HW227561   0.291   3.160  16.407  0.6116 -1.7984 -1.1232
 5367SOL     OW27562   0.198   4.444   1.247 -0.7366 -0.0254 -0.2195
 5367SOL    HW127563   0.176   4.523   1.198 -2.4719 -0.3270  0.0817
 5367SOL    HW227564   0.286   4.415   1.221 -1.1524 -2.5949  1.1528
 5368SOL     OW27565   0.430   3.782   8.914  0.6520  0.0026 -0.3225
 5368SOL    HW127566   0.394   3.827   8.991  0.6146 -1.9898  0.8156
 5368SOL    HW227567   0.374   3.830   8.853  0.9544 -1.6033 -1.8557
 5369SOL     OW27568   3.741   2.302   6.283  0.1825 -0.0682 -0.0089
 5369SOL    HW127569   3.651   2.312   6.252 -0.1666  0.3972  1.1732
 5369SOL    HW227570   3.735   2.349   6.366 -0.7553  1.7444 -1.1222
 5370SOL     OW27571   1.989   4.129   8.040  1.1506  0.8111  0.8808
 5370SOL    HW127572   1.930   4.084   8.100 -0.2162 -0.9833 -1.7891
 5370SOL    HW227573   1.947   4.211   8.016  1.6119  0.7515 -0.1231
 5371SOL     OW27574   3.511   1.934   9.379 -0.3189 -0.3411  0.5648
 5371SOL    HW127575   3.465   1.933   9.295 -2.0518 -1.0212  1.5402
 5371SOL    HW227576   3.435   1.918   9.434 -0.4413 -1.9155 -0.0683
 5372SOL     OW27577   0.638   0.990   2.898 -0.1576 -0.5614 -0.1380
 5372SOL    HW127578   0.690   1.071   2.889  2.7613 -2.1891  2.1290
 5372SOL    HW227579   0.674   0.928   2.834  1.5269  0.5926 -0.3316
 5373SOL     OW27580   0.580   0.217   7.460 -0.0788  0.0859 -0.4579
 5373SOL    HW127581   0.640   0.280   7.502 -1.6403  0.8784  0.6020
 5373SOL    HW227582   0.531   0.279   7.406  1.0878  1.7554  0.3638
 5374SOL     OW27583   0.493   3.373   0.761  0.5698  0.1601 -0.1034
 5374SOL    HW127584   0.472   3.462   0.733  0.6807  1.0947  2.8358
 5374SOL    HW227585   0.505   3.388   0.855  2.5502  1.4469 -0.5659
 5375SOL     OW27586   1.033   0.948   3.747  0.2617 -0.3816 -0.1748
 5375SOL    HW127587   1.064   1.025   3.699 -1.9614 -0.8340 -2.3499
 5375SOL    HW227588   1.026   0.880   3.680  1.6964 -1.4808  0.8140
 5376SOL     OW27589   3.397   1.957   1.578  0.2603 -0.2083 -0.2861
 5376SOL    HW127590   3.308   1.973   1.548  0.1728 -1.0547 -0.4651
 5376SOL    HW227591   3.380   1.876   1.626  1.3448 -1.4574 -2.0166
 5377SOL     OW27592   2.908   3.801   8.600 -0.3087  0.3120  0.0993
 5377SOL    HW127593   2.842   3.870   8.607  0.6834  1.2326  0.3229
 5377SOL    HW227594   2.902   3.757   8.685  0.0968  0.7238  0.3394
 5378SOL     OW27595   2.295   1.894   4.700  0.1085  0.1941 -0.0329
 5378SOL    HW127596   2.304   1.823   4.637 -1.8281  0.0133 -0.1192
 5378SOL    HW227597   2.200   1.904   4.704  0.2291  1.2063  0.2377
 5379SOL     OW27598   3.858   2.860   0.049  0.1490  0.8389  0.2273
 5379SOL    HW127599   3.817   2.924  17.698 -0.2000 -1.1415 -1.7462
 5379SOL    HW227600   3.804   2.878   0.126 -0.4660 -0.2382  0.0494
 5380SOL     OW27601   0.530   4.402  14.083  0.0620  0.7490  0.0025
 5380SOL    HW127602   0.586   4.476  14.106  1.6078 -0.0459 -1.2303
 5380SOL    HW227603   0.475   4.391  14.160 -1.7517 -1.6487 -1.6050
 5381SOL     OW27604   1.433   1.533   8.545 -0.1822  0.3206 -0.2313
 5381SOL    HW127605   1.467   1.539   8.456  1.0424 -1.3886  0.1168
 5381SOL    HW227606   1.505   1.521   8.607  0.3698  0.0458 -0.9292
 5382SOL     OW27607   2.580   1.671  13.043 -0.7900  0.2516  0.2160
 5382SOL    HW127608   2.611   1.700  12.957 -1.4321 -1.3553 -0.5797
 5382SOL    HW227609   2.601   1.754  13.084  0.1755  1.2983 -2.3653
 5383SOL     OW27610   4.159   1.300   7.830  0.8523 -0.2833  0.2850
 5383SOL    HW127611   4.110   1.230   7.788 -1.8592  1.0767  1.1702
 5383SOL    HW227612   4.149   1.277   7.923  1.3991  0.5700  0.5540
 5384SOL     OW27613   1.227   3.379  17.100  0.0592 -0.1864 -0.4820
 5384SOL    HW127614   1.319   3.360  17.120 -0.1313 -0.1948  0.3732
 5384SOL    HW227615   1.220   3.474  17.110  2.4153 -0.0024 -0.4968
 5385SOL     OW27616   3.191   1.706   6.621  0.0590 -0.1060  0.0982
 5385SOL    HW127617   3.241   1.639   6.573  0.8983 -1.4962  2.9100
 5385SOL    HW227618   3.223   1.695   6.711 -2.0928 -2.5015  0.5799
 5386SOL     OW27619   4.651   4.546  12.248  0.1541 -0.1350  0.2017
 5386SOL    HW127620   4.589   4.605  12.205  2.5396 -0.5234 -3.7298
 5386SOL    HW227621   4.714   4.534  12.178  1.4454  1.2914  1.1118
 5387SOL     OW27622   3.897   1.616   5.973 -0.5561 -0.4784  0.0987
 5387SOL    HW127623   3.912   1.710   5.981  1.4985 -0.9124  1.3112
 5387SOL    HW227624   3.893   1.593   6.066  1.1562  0.0571  0.3133
 5388SOL     OW27625   0.573   3.656  16.000  0.9476 -0.2955 -0.1645
 5388SOL    HW127626   0.640   3.633  16.064 -0.5401  0.2563  1.5791
 5388SOL    HW227627   0.573   3.577  15.945 -1.6810 -2.0269  2.2902
 5389SOL     OW27628   4.208   4.085   4.254 -0.2013 -0.2027 -0.2759
 5389SOL    HW127629   4.175   4.068   4.166  3.1270 -1.1341 -1.3355
 5389SOL    HW227630   4.138   4.141   4.287 -0.9214 -0.9002 -0.6412
 5390SOL     OW27631   1.902   1.940   0.992 -0.1367 -0.3840 -0.6263
 5390SOL    HW127632   1.920   1.846   0.993 -1.1311 -0.5648  0.1850
 5390SOL    HW227633   1.991   1.971   0.976 -0.1214  1.3656  2.9975
 5391SOL     OW27634   3.688   2.362   7.280  0.8795 -0.3212  0.4641
 5391SOL    HW127635   3.776   2.328   7.265  0.5196 -0.6617 -0.8840
 5391SOL    HW227636   3.669   2.386   7.189 -0.6261 -0.7511  0.6635
 5392SOL     OW27637   0.362   0.965   4.157  0.7224  0.0839 -0.0227
 5392SOL    HW127638   0.452   0.948   4.128  0.4618  0.2000 -0.9201
 5392SOL    HW227639   0.355   1.057   4.131  0.4316  0.3370  0.9787
 5393SOL     OW27640   1.836   3.919   8.142  0.1446 -0.7108  0.4238
 5393SOL    HW127641   1.874   3.896   8.227  0.4496 -0.9037  0.2312
 5393SOL    HW227642   1.882   3.871   8.074  1.9769 -0.8791  1.7959
 5394SOL     OW27643   1.542   0.166   7.069  0.1361  0.4579 -0.3638
 5394SOL    HW127644   1.475   0.234   7.077  1.0916  1.4231 -0.5642
 5394SOL    HW227645   1.567   0.153   7.160  0.3803 -1.3701 -0.6992
 5395SOL     OW27646   4.603   4.424  16.204  0.0737  0.1159  0.3293
 5395SOL    HW127647   4.634   4.515  16.205  2.1090 -0.5299 -2.3289
 5395SOL    HW227648   4.515   4.434  16.170  0.6744  0.0356 -1.2424
 5396SOL     OW27649   4.415   2.380   8.937 -0.3166 -0.9309  0.1522
 5396SOL    HW127650   4.480   2.448   8.956  0.6905 -2.0830  0.8788
 5396SOL    HW227651   4.336   2.434   8.933 -0.2364 -0.6713  1.9379
 5397SOL     OW27652   3.737   0.426   4.038 -0.2934  0.4267 -0.2210
 5397SOL    HW127653   3.831   0.408   4.027 -0.2039  1.0085 -0.4486
 5397SOL    HW227654   3.728   0.485   4.112  2.1547 -1.5695  1.6791
 5398SOL     OW27655   1.983   0.162   7.442  0.0257 -0.5567 -0.1293
 5398SOL    HW127656   1.948   0.227   7.502 -0.0162  1.3832 -2.2260
 5398SOL    HW227657   1.988   0.211   7.359 -1.0348 -2.3159 -1.2325
 5399SOL     OW27658   3.611   2.251  15.285 -0.4573  0.1567 -0.1084
 5399SOL    HW127659   3.601   2.241  15.191  0.6237 -0.7008 -0.1321
 5399SOL    HW227660   3.540   2.191  15.308 -1.5189  0.7274 -1.9775
 5400SOL     OW27661   0.832   0.207   6.778 -0.3322 -0.2902 -0.3710
 5400SOL    HW127662   0.833   0.126   6.829 -0.3998 -0.8183 -1.2056
 5400SOL    HW227663   0.920   0.200   6.741  1.0255  2.2874  2.3251
 5401SOL     OW27664   1.471   0.065   1.562  0.5795  0.3335 -0.1229
 5401SOL    HW127665   1.383   0.099   1.576 -0.1422 -2.1134  1.2060
 5401SOL    HW227666   1.476   0.080   1.468 -0.7314  2.2741  0.1164
 5402SOL     OW27667   0.360   0.438  15.530 -0.9148  0.4827 -0.3187
 5402SOL    HW127668   0.345   0.488  15.449 -0.9168  1.8083  0.5086
 5402SOL    HW227669   0.309   0.363  15.498 -0.5798  0.2433 -0.2874
 5403SOL     OW27670   2.247   4.172   4.910  0.6600 -0.3742 -0.6773
 5403SOL    HW127671   2.227   4.239   4.844 -1.2885 -1.1347 -0.8361
 5403SOL    HW227672   2.238   4.223   4.990  0.6886 -2.5958  0.7297
 5404SOL     OW27673   1.176   4.360   0.912  0.2999 -0.2413  0.3628
 5404SOL    HW127674   1.177   4.382   0.819 -0.5083 -0.8544  0.2109
 5404SOL    HW227675   1.144   4.270   0.905 -0.7061  0.1288  0.3090
 5405SOL     OW27676   2.726   1.817  10.012  1.0492 -0.1708  0.5844
 5405SOL    HW127677   2.801   1.771  10.051  0.3496 -1.0041  0.9685
 5405SOL    HW227678   2.703   1.887  10.072 -2.5098 -0.6922 -0.1921
 5406SOL     OW27679   0.849   3.363   4.777  0.1543 -0.2620 -0.2575
 5406SOL    HW127680   0.764   3.405   4.787  0.0197 -0.6330  0.1708
 5406SOL    HW227681   0.893   3.407   4.849 -1.0039  0.0252  0.2784
 5407SOL     OW27682   1.671   1.000   7.796  0.4164  0.1438  0.8111
 5407SOL    HW127683   1.580   0.978   7.778  0.2700  1.2166  0.1755
 5407SOL    HW227684   1.705   0.975   7.710  0.4367  0.0385  0.8503
 5408SOL     OW27685   3.835   2.536   3.899  0.2593 -0.3130 -0.1437
 5408SOL    HW127686   3.844   2.463   3.959  1.2650 -1.2710 -1.4668
 5408SOL    HW227687   3.785   2.599   3.952  0.9173  0.8746 -0.9357
 5409SOL     OW27688   1.093   2.404  14.667 -0.3259  0.4626 -0.3966
 5409SOL    HW127689   1.109   2.496  14.686 -2.4364  0.7210  0.0654
 5409SOL    HW227690   1.124   2.396  14.577  0.2134 -2.2561  0.0104
 5410SOL     OW27691   1.024   1.224   2.862  0.4425  0.1226  0.6323
 5410SOL    HW127692   0.954   1.269   2.815  1.7587  0.1660 -1.2787
 5410SOL    HW227693   1.049   1.166   2.790 -1.1302 -1.8505  1.6776
 5411SOL     OW27694   0.758   4.638   1.005  0.5225 -0.3928  0.1630
 5411SOL    HW127695   0.753   4.552   0.963 -0.2562  0.1174 -0.7716
 5411SOL    HW227696   0.807   4.695   0.946  1.7093  0.2616  1.7662
 5412SOL     OW27697   0.061   1.323   2.242  0.0671  0.3560  0.4973
 5412SOL    HW127698   0.067   1.239   2.195  1.0936  0.3177  0.7085
 5412SOL    HW227699   4.703   1.357   2.213 -0.2576  0.2813  1.3689
 5413SOL     OW27700   1.294   2.718   2.104 -0.3317 -0.3233 -0.2936
 5413SOL    HW127701   1.205   2.699   2.075 -0.0494 -3.6040  0.9276
 5413SOL    HW227702   1.336   2.751   2.025  0.0711  0.6899  0.3515
 5414SOL     OW27703   4.039   3.178  17.298 -0.0337  0.1099  0.2565
 5414SOL    HW127704   4.080   3.124  17.230  0.1456  0.2382  0.2619
 5414SOL    HW227705   4.099   3.162  17.372 -0.2892 -0.5444  0.3231
 5415SOL     OW27706   0.228   3.436  15.199  0.3805 -0.1961  0.1527
 5415SOL    HW127707   0.153   3.453  15.143 -1.2584 -0.5298  2.2725
 5415SOL    HW227708   0.224   3.341  15.206  1.6761 -0.3099 -0.4859
 5416SOL     OW27709   2.091   0.389   4.625 -0.2828  0.0275 -0.1751
 5416SOL    HW127710   2.100   0.372   4.719  0.6583  1.2390 -0.0530
 5416SOL    HW227711   1.999   0.418   4.625 -0.2447  0.1439  0.9637
 5417SOL     OW27712   0.974   4.068   1.937  0.2330 -0.1582 -0.6929
 5417SOL    HW127713   0.891   4.069   1.985 -0.3941  0.8829 -1.8001
 5417SOL    HW227714   1.035   4.029   1.999 -0.0061 -2.3088 -1.8097
 5418SOL     OW27715   1.026   0.030  11.264 -0.4554  0.3470 -0.3510
 5418SOL    HW127716   1.077   0.099  11.221  0.1620  0.0085 -0.1655
 5418SOL    HW227717   1.084   4.680  11.264  1.6976  1.9910  2.1756
 5419SOL     OW27718   3.156   0.539   3.646  0.0429 -0.3320  0.4381
 5419SOL    HW127719   3.083   0.504   3.697  1.1045  0.5022  2.5543
 5419SOL    HW227720   3.103   0.583   3.580 -1.6156 -0.9021  1.3931
 5420SOL     OW27721   0.416   3.613  15.359 -0.3412  0.1732 -0.4493
 5420SOL    HW127722   0.353   3.544  15.335  0.6785 -0.7951 -0.3690
 5420SOL    HW227723   0.496   3.583  15.315  2.2070 -0.5330  4.6264
 5421SOL     OW27724   1.306   3.695  15.420  0.3127 -0.3092 -0.4857
 5421SOL    HW127725   1.215   3.667  15.405  1.0081 -2.3267 -0.9123
 5421SOL    HW227726   1.349   3.671  15.338  0.3487 -2.2861  0.1105
 5422SOL     OW27727   2.429   4.065   4.206  0.1916  0.1051 -0.6241
 5422SOL    HW127728   2.394   4.102   4.125  1.1462 -0.5117 -1.3158
 5422SOL    HW227729   2.482   3.994   4.170 -1.2668 -1.1774 -0.2906
 5423SOL     OW27730   3.746   0.938  16.645 -0.5381  0.2164  0.2008
 5423SOL    HW127731   3.731   1.031  16.664 -0.5481  0.3033 -0.2405
 5423SOL    HW227732   3.765   0.937  16.551 -1.4937 -0.4199  0.0194
 5424SOL     OW27733   0.571   4.074  12.589  0.5695 -0.0756  0.2598
 5424SOL    HW127734   0.524   4.037  12.515  1.6194  1.8672 -1.3836
 5424SOL    HW227735   0.517   4.143  12.628 -1.2077 -3.0340  3.0791
 5425SOL     OW27736   3.655   3.301   9.965 -0.6845  0.7882  0.2745
 5425SOL    HW127737   3.616   3.389   9.967 -3.3769 -0.3987 -0.7833
 5425SOL    HW227738   3.707   3.295  10.045  0.0459  1.8567 -0.1169
 5426SOL     OW27739   0.665   2.813   2.544 -0.3564 -0.0836  0.0083
 5426SOL    HW127740   0.732   2.799   2.611  0.6186 -1.3780 -1.2538
 5426SOL    HW227741   0.613   2.885   2.581 -1.7598 -0.9808 -0.2390
 5427SOL     OW27742   2.867   3.416   3.571 -0.1904 -0.5434 -0.7707
 5427SOL    HW127743   2.903   3.503   3.556  1.1404 -0.6774  1.7198
 5427SOL    HW227744   2.949   3.377   3.602  0.2322  1.1344  0.2431
 5428SOL     OW27745   1.340   3.357  14.179 -0.6856  0.0963 -0.0086
 5428SOL    HW127746   1.344   3.271  14.136 -0.3048  0.2131 -0.2103
 5428SOL    HW227747   1.417   3.348  14.235  0.6394  1.3745 -1.6130
 5429SOL     OW27748   2.973   4.151  12.169 -0.4076 -0.2403  0.2613
 5429SOL    HW127749   2.939   4.067  12.137 -1.8044  1.3586 -2.4180
 5429SOL    HW227750   2.906   4.184  12.229 -1.4100  0.5636 -1.2985
 5430SOL     OW27751   0.293   0.975  10.180  0.4094 -0.6289  0.1352
 5430SOL    HW127752   0.281   1.027  10.259  0.4162 -0.6302  0.1371
 5430SOL    HW227753   0.384   0.987  10.152  0.6025 -0.4823  0.8173
 5431SOL     OW27754   2.533   2.202  16.345  0.2305 -0.3080  0.5512
 5431SOL    HW127755   2.620   2.173  16.371  1.1795  0.9686 -1.2307
 5431SOL    HW227756   2.488   2.202  16.430 -0.7653 -1.6404  0.0285
 5432SOL     OW27757   0.868   1.620  13.099 -0.0622 -0.0440 -0.2651
 5432SOL    HW127758   0.829   1.540  13.132  0.5659 -1.0564 -1.9861
 5432SOL    HW227759   0.822   1.682  13.156 -2.3698 -0.4550 -1.6806
 5433SOL     OW27760   0.042   4.258   7.055 -0.3450 -0.0986 -0.3766
 5433SOL    HW127761   0.108   4.191   7.072 -0.4484 -0.3820 -1.1045
 5433SOL    HW227762   0.055   4.281   6.963  3.1424 -1.8286 -0.3066
 5434SOL     OW27763   0.306   1.975   8.843 -0.4722  0.0962 -0.5228
 5434SOL    HW127764   0.317   1.914   8.770 -2.7003 -1.1191  0.1339
 5434SOL    HW227765   0.393   2.012   8.856  0.0109 -0.8705 -1.0365
 5435SOL     OW27766   4.594   1.528   7.815 -0.0659 -0.0791  0.0367
 5435SOL    HW127767   4.579   1.613   7.773 -0.0135  0.1356  0.4539
 5435SOL    HW227768   4.576   1.473   7.739 -0.1112  0.8152 -0.6131
 5436SOL     OW27769   4.024   3.828  16.599 -0.0689 -0.1299 -0.1764
 5436SOL    HW127770   3.931   3.835  16.576 -0.2571  0.8904  0.8772
 5436SOL    HW227771   4.031   3.892  16.671  1.7426 -0.4874 -0.0372
 5437SOL     OW27772   3.064   2.590  12.488 -0.4137  0.1746  0.1471
 5437SOL    HW127773   3.052   2.559  12.398  1.4011  3.1546 -1.1300
 5437SOL    HW227774   3.049   2.681  12.461  0.3911  0.4319  0.5367
 5438SOL     OW27775   1.863   0.392  10.312 -0.0506  0.2218  0.4824
 5438SOL    HW127776   1.942   0.441  10.336  0.0953  0.2865 -0.1216
 5438SOL    HW227777   1.806   0.421  10.383 -1.6317 -2.4101  0.2566
 5439SOL     OW27778   2.484   2.529   1.428 -0.2917  0.6214 -0.2127
 5439SOL    HW127779   2.414   2.546   1.365  1.1880  1.7466 -1.5539
 5439SOL    HW227780   2.447   2.535   1.516  4.0627 -0.5639  1.6979
 5440SOL     OW27781   2.947   2.670   4.854  0.2957  0.2133 -0.1944
 5440SOL    HW127782   2.914   2.732   4.919  1.4016 -1.8319  2.3356
 5440SOL    HW227783   2.863   2.658   4.810  0.4868 -2.3096  0.1049
 5441SOL     OW27784   3.102   2.436   8.475 -0.0663 -0.0434  0.2377
 5441SOL    HW127785   3.012   2.407   8.467 -0.0889 -0.0954  0.6915
 5441SOL    HW227786   3.089   2.529   8.496  0.3743  0.8059 -3.1886
 5442SOL     OW27787   3.491   3.643   5.869  0.0078  0.2900  0.7926
 5442SOL    HW127788   3.564   3.704   5.858 -0.4124  0.5914 -0.2847
 5442SOL    HW227789   3.424   3.700   5.906 -1.0256 -0.2823 -0.2027
 5443SOL     OW27790   3.094   2.602   9.217 -0.0907  0.0856 -0.1616
 5443SOL    HW127791   3.140   2.581   9.298 -3.9371  2.6914  2.7239
 5443SOL    HW227792   3.043   2.681   9.235  1.1575  1.2396 -1.6487
 5444SOL     OW27793   1.500   1.262   2.877 -0.4289 -0.0314 -0.0003
 5444SOL    HW127794   1.426   1.314   2.844 -0.0404  0.3740 -0.2286
 5444SOL    HW227795   1.506   1.198   2.806 -2.3400 -0.1122 -0.0910
 5445SOL     OW27796   2.645   2.104   3.766  0.2441 -0.2419  0.4898
 5445SOL    HW127797   2.590   2.180   3.749  0.6518 -0.4665 -1.8291
 5445SOL    HW227798   2.725   2.149   3.794  0.1951  0.3703 -0.3758
 5446SOL     OW27799   2.328   0.517   4.544  0.4828 -0.6612  0.2173
 5446SOL    HW127800   2.297   0.553   4.461  2.7260  0.2033 -0.2418
 5446SOL    HW227801   2.257   0.465   4.581  0.0473 -1.8752 -2.3777
 5447SOL     OW27802   3.294   4.187   8.895  0.2613 -0.1002 -0.7587
 5447SOL    HW127803   3.296   4.263   8.954  2.2825 -1.4749  0.9461
 5447SOL    HW227804   3.203   4.158   8.899  0.2586  0.1504  0.9072
 5448SOL     OW27805   3.582   3.912   9.168  0.0234  0.7594 -0.4455
 5448SOL    HW127806   3.599   3.872   9.082 -0.8221  0.3091 -0.4000
 5448SOL    HW227807   3.507   3.858   9.192 -0.3504  1.1477 -0.7343
 5449SOL     OW27808   3.772   2.442  14.816 -0.4516  0.1639  0.0556
 5449SOL    HW127809   3.687   2.473  14.787 -1.0203 -0.1532  1.3998
 5449SOL    HW227810   3.787   2.461  14.909  1.1137  1.8566 -0.5375
 5450SOL     OW27811   1.999   2.424   7.468  0.0319 -0.1979  0.3926
 5450SOL    HW127812   1.934   2.494   7.472 -0.8262 -0.9115 -1.0206
 5450SOL    HW227813   1.949   2.344   7.449  0.6482 -0.6121  0.5202
 5451SOL     OW27814   4.190   0.241   7.557 -0.2551 -0.4473  0.1781
 5451SOL    HW127815   4.172   0.193   7.477 -0.2630 -0.1117 -0.0223
 5451SOL    HW227816   4.132   0.318   7.559 -0.4579 -0.6109  0.5503
 5452SOL     OW27817   2.955   1.753   6.522  0.5051 -0.2499  0.1186
 5452SOL    HW127818   2.896   1.708   6.582 -1.7652 -1.7100 -3.2283
 5452SOL    HW227819   3.041   1.744   6.564  0.0833 -0.2172  0.9781
 5453SOL     OW27820   1.877   0.075   5.715  0.2176  0.4333 -0.0894
 5453SOL    HW127821   1.965   0.096   5.747 -0.2292 -0.7030  1.9017
 5453SOL    HW227822   1.827   0.095   5.795 -0.9870  1.5290 -1.1137
 5454SOL     OW27823   2.703   0.066   6.019 -0.1182 -0.6782 -0.0075
 5454SOL    HW127824   2.778   0.014   5.991  1.1668  1.6133 -0.8599
 5454SOL    HW227825   2.636   0.017   5.972 -0.7395 -1.7624  2.0401
 5455SOL     OW27826   0.903   1.235   3.615 -0.2769  0.6593 -0.7828
 5455SOL    HW127827   0.985   1.278   3.589  1.4937 -1.9319  0.5341
 5455SOL    HW227828   0.895   1.172   3.544  0.5053  0.5059 -0.7412
 5456SOL     OW27829   3.095   0.622   9.761 -0.3242  0.5551  0.3255
 5456SOL    HW127830   3.133   0.710   9.765 -1.4612  1.0451  0.3280
 5456SOL    HW227831   3.005   0.638   9.733 -0.7818 -1.3555  0.7652
 5457SOL     OW27832   3.273   2.686  15.423  0.1222 -0.0259 -0.2528
 5457SOL    HW127833   3.275   2.736  15.505  1.4679 -0.7108  0.1335
 5457SOL    HW227834   3.292   2.606  15.471 -1.0641  0.2127  0.6219
 5458SOL     OW27835   4.448   1.318   2.275 -0.6144 -0.6292  0.2278
 5458SOL    HW127836   4.359   1.287   2.260 -0.3558 -0.8888 -0.7739
 5458SOL    HW227837   4.468   1.313   2.368  0.4439 -0.0652  0.0280
 5459SOL     OW27838   0.915   2.678  10.153  0.1666  0.1121  0.3404
 5459SOL    HW127839   0.960   2.597  10.130 -3.2463 -1.4812 -0.7612
 5459SOL    HW227840   0.871   2.708  10.074 -1.9215  0.1487  1.5185
 5460SOL     OW27841   1.652   2.659   5.724 -0.0368  0.0285  0.2001
 5460SOL    HW127842   1.690   2.601   5.658  0.3053  0.9879 -0.4480
 5460SOL    HW227843   1.584   2.691   5.665  2.7448 -0.2271 -3.1558
 5461SOL     OW27844   2.838   4.536  16.532  0.4537  0.1904  0.1493
 5461SOL    HW127845   2.835   4.478  16.608  0.8364  2.0664  1.6072
 5461SOL    HW227846   2.877   4.484  16.462 -1.0254 -1.3361  0.4737
 5462SOL     OW27847   2.535   3.145   6.293  0.1777 -0.2496 -0.7625
 5462SOL    HW127848   2.603   3.169   6.356 -1.6051  3.7989 -0.4087
 5462SOL    HW227849   2.545   3.204   6.218  1.1793  0.2400 -0.2468
 5463SOL     OW27850   1.171   4.632   3.364  0.3308  0.5907  0.2466
 5463SOL    HW127851   1.124   4.596   3.439  0.4676  0.1848  0.1401
 5463SOL    HW227852   1.179   4.549   3.316 -0.2696  1.7679 -1.8853
 5464SOL     OW27853   0.785   3.099   0.427 -0.0317 -0.4320 -0.2580
 5464SOL    HW127854   0.772   3.028   0.490 -1.6860  0.7511  0.7210
 5464SOL    HW227855   0.720   3.160   0.461  1.9332  1.6333 -0.1926
 5465SOL     OW27856   1.362   2.251   0.599  0.7463 -0.9097 -0.0307
 5465SOL    HW127857   1.450   2.247   0.636  1.2176  3.2900 -0.7096
 5465SOL    HW227858   1.377   2.222   0.508  4.6286 -0.9986  0.6211
 5466SOL     OW27859   0.140   2.513  14.264 -0.4249 -0.4387  0.7491
 5466SOL    HW127860   0.129   2.577  14.334  0.2061 -1.2189  1.5496
 5466SOL    HW227861   0.073   2.449  14.289  0.2329 -0.4331  2.5410
 5467SOL     OW27862   1.186   2.130   7.606 -0.6024 -0.4208 -0.3876
 5467SOL    HW127863   1.259   2.181   7.570 -2.1428  2.1363  0.0756
 5467SOL    HW227864   1.200   2.138   7.700 -1.1512 -1.6580 -0.2090
 5468SOL     OW27865   4.626   2.056   7.127 -0.1139  0.2319  0.2178
 5468SOL    HW127866   4.545   2.058   7.178  0.0031 -0.7791  0.4576
 5468SOL    HW227867   4.595   2.127   7.071 -1.0221 -1.4319 -1.3881
 5469SOL     OW27868   4.290   0.870  10.675 -0.1779 -0.0762 -0.0221
 5469SOL    HW127869   4.314   0.960  10.701  0.6221  0.1490 -1.5327
 5469SOL    HW227870   4.253   0.838  10.757  0.5011  1.0774  0.7444
 5470SOL     OW27871   1.551   3.052   4.840 -0.4725  0.1026  0.4202
 5470SOL    HW127872   1.543   2.985   4.907 -0.7195 -1.1301 -0.8461
 5470SOL    HW227873   1.479   3.023   4.784 -0.1936  1.0562 -0.4403
 5471SOL     OW27874   3.328   0.559   3.867  0.7913  0.0009 -0.0479
 5471SOL    HW127875   3.303   0.467   3.864 -0.3519  0.2812  1.2047
 5471SOL    HW227876   3.294   0.584   3.781  2.2667  0.5539 -0.4825
 5472SOL     OW27877   0.039   1.529   7.377 -0.3387 -0.4926  0.1423
 5472SOL    HW127878   0.134   1.539   7.372 -0.3462 -0.4021  0.1835
 5472SOL    HW227879   0.019   1.520   7.284  3.2743 -3.6771 -0.3645
 5473SOL     OW27880   1.101   2.773  17.559  0.0301  0.6803 -0.5329
 5473SOL    HW127881   1.051   2.772  17.641  0.9148 -1.2245 -0.0242
 5473SOL    HW227882   1.120   2.866  17.547 -0.4718  1.1451  2.1406
 5474SOL     OW27883   1.473   3.999   2.565  0.2667  0.5553  0.1150
 5474SOL    HW127884   1.558   4.038   2.545  0.4393 -0.9479 -2.1270
 5474SOL    HW227885   1.435   4.026   2.482  0.4752 -1.8649 -0.7765
 5475SOL     OW27886   1.870   1.757   3.776  0.3726  0.3437 -0.4614
 5475SOL    HW127887   1.882   1.717   3.862 -0.8950 -1.2080 -1.0050
 5475SOL    HW227888   1.775   1.757   3.768  0.4725  1.5954 -1.6196
 5476SOL     OW27889   0.048   3.915   7.922  0.1222  0.0375  0.3569
 5476SOL    HW127890   4.699   3.886   7.973  1.3657 -0.8999  1.6268
 5476SOL    HW227891   0.022   4.001   7.888  0.9402 -0.2721 -1.0441
 5477SOL     OW27892   2.201   2.175   9.182 -0.0113  0.2170 -0.2654
 5477SOL    HW127893   2.140   2.182   9.255 -0.2164  2.5969 -0.6642
 5477SOL    HW227894   2.279   2.129   9.212 -1.6110 -1.7435  0.9213
 5478SOL     OW27895   3.997   1.294   3.045  0.6790 -0.2609  0.3072
 5478SOL    HW127896   3.968   1.209   3.078  0.2169 -0.8699 -1.7191
 5478SOL    HW227897   3.914   1.341   3.054  0.6721 -0.3030  0.4733
 5479SOL     OW27898   2.389   4.074   2.215 -0.0259  0.2688 -0.0626
 5479SOL    HW127899   2.465   4.105   2.265  0.7325  0.8343 -1.5825
 5479SOL    HW227900   2.349   4.154   2.181 -2.0611  0.0993  1.9209
 5480SOL     OW27901   0.616   1.754   5.458  0.5904  0.1948  0.0166
 5480SOL    HW127902   0.565   1.792   5.529 -0.1562 -0.7430 -0.0100
 5480SOL    HW227903   0.567   1.798   5.389  0.7056 -1.5101 -1.1622
 5481SOL     OW27904   2.676   2.886  13.698 -0.0381  0.4058 -0.4185
 5481SOL    HW127905   2.654   2.804  13.744  1.1707 -0.2431 -1.0220
 5481SOL    HW227906   2.715   2.938  13.768 -2.1232  1.9478 -0.3755
 5482SOL     OW27907   2.045   4.548   5.280 -0.1725 -0.1925 -0.7406
 5482SOL    HW127908   2.082   4.590   5.358 -0.5540 -2.4251  0.6460
 5482SOL    HW227909   1.954   4.579   5.283 -0.4404 -0.9743 -0.6487
 5483SOL     OW27910   4.563   1.686   6.255 -0.4596 -0.2624 -0.1585
 5483SOL    HW127911   4.574   1.592   6.243 -2.7207 -0.5060 -0.2963
 5483SOL    HW227912   4.487   1.695   6.197  0.6163 -1.3469 -1.7220
 5484SOL     OW27913   0.064   2.806  12.566  0.3252  0.2342  0.1842
 5484SOL    HW127914   0.010   2.831  12.491 -2.2445 -0.8353  1.6787
 5484SOL    HW227915   0.151   2.782  12.534 -0.3699 -0.3470 -1.2736
 5485SOL     OW27916   3.664   0.410   4.921 -0.1199  0.2111 -0.4103
 5485SOL    HW127917   3.616   0.455   4.991  1.1689 -0.9932  1.2293
 5485SOL    HW227918   3.712   0.348   4.975  0.2313 -0.9406 -2.0397
 5486SOL     OW27919   2.921   3.301   6.346 -0.1500  0.1238 -0.1031
 5486SOL    HW127920   2.916   3.347   6.262  1.7999  0.7829  0.1383
 5486SOL    HW227921   2.995   3.241   6.335  0.5584  1.0614 -0.5224
 5487SOL     OW27922   1.426   0.244   8.180 -0.4242  0.2383 -0.1032
 5487SOL    HW127923   1.430   0.294   8.261  0.8184  1.8431 -1.1477
 5487SOL    HW227924   1.411   0.154   8.208 -1.8683  1.4238  2.8915
 5488SOL     OW27925   0.460   0.142  10.397  0.6959 -0.0798  0.4793
 5488SOL    HW127926   0.401   0.212  10.372 -1.7157 -1.2659  2.7892
 5488SOL    HW227927   0.468   0.149  10.492  0.0880 -1.3069  0.6254
 5489SOL     OW27928   1.816   3.846   5.484 -0.6292  0.3788 -0.3600
 5489SOL    HW127929   1.906   3.852   5.517 -2.0518  1.9597  3.2167
 5489SOL    HW227930   1.823   3.805   5.398  2.7433  0.5443 -0.1961
 5490SOL     OW27931   1.322   2.515   4.579  0.0735  0.2273 -0.0579
 5490SOL    HW127932   1.268   2.536   4.502  0.6075  2.5681  0.2206
 5490SOL    HW227933   1.313   2.420   4.583 -1.9416  0.3873 -0.6853
 5491SOL     OW27934   4.343   2.204   9.999 -0.3265 -0.2947 -0.4422
 5491SOL    HW127935   4.308   2.127  10.045 -0.4662  0.7274  1.1320
 5491SOL    HW227936   4.271   2.218   9.937 -1.8106 -0.4128  1.2409
 5492SOL     OW27937   2.663   0.454   4.554 -0.7349  0.0161 -1.0513
 5492SOL    HW127938   2.595   0.405   4.508 -1.3021 -0.6108  0.4454
 5492SOL    HW227939   2.647   0.535   4.506 -4.2212 -0.3259 -0.4699
 5493SOL     OW27940   3.047   4.187   5.067  0.1227 -0.6165 -0.1344
 5493SOL    HW127941   3.119   4.210   5.126 -0.6683  0.8095  0.2555
 5493SOL    HW227942   2.977   4.199   5.130  1.6230  2.7469  0.8837
 5494SOL     OW27943   0.709   2.280   6.651  0.3126  0.3915  0.8004
 5494SOL    HW127944   0.643   2.218   6.684  0.1688  0.9375  1.5390
 5494SOL    HW227945   0.736   2.329   6.729  2.1555 -0.1503  0.5091
 5495SOL     OW27946   2.106   3.541   2.220  0.0108  0.3937  0.2592
 5495SOL    HW127947   2.190   3.576   2.190  0.6843  0.0994  1.7790
 5495SOL    HW227948   2.075   3.626   2.252 -0.0111  1.4601 -2.6191
 5496SOL     OW27949   2.373   3.361  12.424  0.1250  0.0924 -0.1429
 5496SOL    HW127950   2.288   3.374  12.381 -0.5368  0.9095  1.3931
 5496SOL    HW227951   2.341   3.342  12.513  2.6075  1.5452  1.0420
 5497SOL     OW27952   0.209   0.972   5.986  0.0961 -0.0086  0.1415
 5497SOL    HW127953   0.167   0.888   5.998  0.3996  0.0071  1.2764
 5497SOL    HW227954   0.202   0.984   5.891 -0.1955 -0.1410  0.1481
 5498SOL     OW27955   0.656   2.390   8.720  0.0255  0.1094  0.3995
 5498SOL    HW127956   0.723   2.359   8.780  2.0395 -0.5774 -2.1821
 5498SOL    HW227957   0.665   2.485   8.725 -0.1512  0.1125  0.6327
 5499SOL     OW27958   2.081   1.617   2.472 -0.1163 -0.8170  0.1273
 5499SOL    HW127959   2.067   1.566   2.551  0.2080  1.0839  1.4195
 5499SOL    HW227960   2.176   1.612   2.479  0.1142 -0.9371 -3.1554
 5500SOL     OW27961   2.173   3.123  15.934 -0.0921  0.2987  0.5937
 5500SOL    HW127962   2.251   3.075  15.959 -1.3044 -1.8690  0.1737
 5500SOL    HW227963   2.101   3.064  15.958 -0.3845  0.2567 -0.3522
 5501SOL     OW27964   2.996   0.104   5.917  0.1011 -0.2244  0.1209
 5501SOL    HW127965   3.080   0.130   5.880 -0.2532  0.9491  0.1600
 5501SOL    HW227966   3.006   0.124   6.010 -0.3090 -0.1320  0.1488
 5502SOL     OW27967   0.587   3.039   2.283  0.6058  0.3544  0.0332
 5502SOL    HW127968   0.527   2.967   2.305  1.4521 -0.6624 -1.0226
 5502SOL    HW227969   0.672   2.998   2.266  0.8741  1.5724 -1.5106
 5503SOL     OW27970   4.368   1.988   9.205  0.6904 -0.4382 -0.1519
 5503SOL    HW127971   4.394   1.967   9.295 -2.0056  2.6835  1.3501
 5503SOL    HW227972   4.418   2.070   9.199 -0.2541  0.1354 -0.0717
 5504SOL     OW27973   3.403   1.587   5.526  0.6622  0.0428  0.2238
 5504SOL    HW127974   3.354   1.562   5.448 -2.3398  1.5607  1.5997
 5504SOL    HW227975   3.348   1.535   5.585 -0.0959 -2.4292 -2.6668
 5505SOL     OW27976   4.588   0.102   5.789  0.9169 -0.0057  0.3570
 5505SOL    HW127977   4.541   0.167   5.737  1.4971  2.0402  2.3966
 5505SOL    HW227978   4.623   0.048   5.718 -0.5256 -1.3026  0.6322
 5506SOL     OW27979   0.432   1.801   9.628 -0.2475  0.1418 -0.2582
 5506SOL    HW127980   0.439   1.876   9.686  0.7823  1.3951 -1.9653
 5506SOL    HW227981   0.412   1.727   9.685  1.9656 -0.3986 -0.1875
 5507SOL     OW27982   2.277   1.151  12.150 -0.3823 -0.2613 -0.5155
 5507SOL    HW127983   2.262   1.230  12.202  0.2051  0.9845 -2.2118
 5507SOL    HW227984   2.275   1.189  12.062 -1.8120 -1.9610 -1.1971
 5508SOL     OW27985   1.659   2.871  17.501 -0.2191 -0.5691  0.1565
 5508SOL    HW127986   1.580   2.874  17.555  0.6702 -2.8315  1.5909
 5508SOL    HW227987   1.638   2.795  17.446 -2.1603  0.4000 -0.4599
 5509SOL     OW27988   3.046   3.522   2.526  0.7703 -0.1839 -0.2160
 5509SOL    HW127989   3.001   3.462   2.467 -0.2590  0.6391 -0.2712
 5509SOL    HW227990   2.985   3.596   2.538  0.7839 -0.0446 -1.0056
 5510SOL     OW27991   2.713   0.522   8.132  0.0426  0.3385 -0.0019
 5510SOL    HW127992   2.711   0.616   8.113 -1.8425  0.0208 -1.3727
 5510SOL    HW227993   2.792   0.525   8.186 -0.1911 -0.9712  0.4156
 5511SOL     OW27994   0.957   0.163  17.250  1.0115 -0.3571 -0.0586
 5511SOL    HW127995   1.013   0.200  17.182 -1.1870  1.5912 -0.8079
 5511SOL    HW227996   1.007   0.176  17.330  1.7673  0.5706 -0.6726
 5512SOL     OW27997   0.541   0.005   7.188 -0.7144  0.1879  0.1235
 5512SOL    HW127998   0.450   0.012   7.160 -0.1257  0.2118 -1.8109
 5512SOL    HW227999   0.538   4.714   7.282 -0.3998 -1.8834 -0.2455
 5513SOL     OW28000   1.263   0.654   3.828  0.0011  0.5481  0.1678
 5513SOL    HW128001   1.315   0.579   3.857  0.9366  0.8484 -0.7459
 5513SOL    HW228002   1.310   0.665   3.746 -2.1584 -2.1769 -1.4524
 5514SOL     OW28003   3.929   3.847   3.716  0.4166 -0.2272  0.2886
 5514SOL    HW128004   4.023   3.829   3.712  0.3925 -0.0072 -1.0491
 5514SOL    HW228005   3.932   3.942   3.727  0.3078 -0.2236  0.2832
 5515SOL     OW28006   0.660   1.135   6.186  0.9493 -0.4932  0.2896
 5515SOL    HW128007   0.674   1.230   6.188  3.3487 -0.8773  2.6787
 5515SOL    HW228008   0.694   1.112   6.273  3.2798  1.8713  0.0215
 5516SOL     OW28009   4.699   2.093  13.271  0.2373 -0.3873  0.1482
 5516SOL    HW128010   4.676   2.117  13.361 -0.1056 -1.8516  0.4579
 5516SOL    HW228011   4.724   2.180  13.242 -0.6974  0.3381  1.5392
 5517SOL     OW28012   2.297   0.986  11.159  0.3234 -0.0115 -0.0037
 5517SOL    HW128013   2.299   1.066  11.105  0.8537 -0.7079 -1.0062
 5517SOL    HW228014   2.243   1.017  11.232 -0.6904  0.3778 -0.9053
 5518SOL     OW28015   1.622   1.067   5.291 -0.0731  0.5056  0.2564
 5518SOL    HW128016   1.716   1.080   5.300 -0.1819  0.9879  0.7104
 5518SOL    HW228017   1.612   0.997   5.356  2.5867 -0.5816 -0.5333
 5519SOL     OW28018   0.406   0.021   2.893  0.0597 -0.3318 -0.6301
 5519SOL    HW128019   0.357   0.053   2.818 -3.3037 -1.0226  1.2651
 5519SOL    HW228020   0.463   0.096   2.907 -0.8402  0.6287 -2.1758
 5520SOL     OW28021   0.349   2.615   3.678 -0.3129 -0.4472 -0.4001
 5520SOL    HW128022   0.328   2.694   3.629  0.5945  0.5493  0.8379
 5520SOL    HW228023   0.426   2.632   3.732 -0.3612 -2.6328  0.3970
 5521SOL     OW28024   2.000   1.775  17.433 -0.1784 -0.1548  0.4367
 5521SOL    HW128025   2.021   1.868  17.441 -1.4582 -0.1077  3.3135
 5521SOL    HW228026   1.995   1.773  17.338  0.1100  0.4844  0.4108
 5522SOL     OW28027   2.458   3.712  13.245 -0.6194 -0.1514 -0.1716
 5522SOL    HW128028   2.413   3.796  13.257 -1.3647 -0.2127 -2.5626
 5522SOL    HW228029   2.530   3.746  13.297  1.8616 -1.6130 -2.6838
 5523SOL     OW28030   0.155   4.533   3.690  0.5083 -0.2279 -0.6576
 5523SOL    HW128031   0.248   4.550   3.672  0.5159  0.7116  0.2234
 5523SOL    HW228032   0.164   4.446   3.729 -2.4964 -0.3998 -0.3770
 5524SOL     OW28033   1.346   3.418  11.837 -0.3514 -0.5368 -0.1622
 5524SOL    HW128034   1.293   3.497  11.829  0.7119  0.2885  0.7909
 5524SOL    HW228035   1.297   3.362  11.777 -2.2599  1.1561 -0.1704
 5525SOL     OW28036   2.931   2.913   6.380  0.3962 -0.1569 -0.1456
 5525SOL    HW128037   2.896   2.824   6.382  2.8094 -1.1486 -1.2933
 5525SOL    HW228038   2.847   2.950   6.408 -0.0500  0.7809 -2.6811
 5526SOL     OW28039   1.618   2.822   3.059  0.1530  0.6392  0.1156
 5526SOL    HW128040   1.677   2.838   2.985  1.8806 -0.3731  1.2708
 5526SOL    HW228041   1.592   2.731   3.051  0.9028  0.4028  0.3956
 5527SOL     OW28042   1.744   1.312   3.461 -0.3437 -0.5028  0.6709
 5527SOL    HW128043   1.829   1.303   3.418  0.5228 -0.2126  2.3445
 5527SOL    HW228044   1.766   1.314   3.554 -0.0355  0.6383  0.5733
 5528SOL     OW28045   0.760   0.932   4.748 -0.2663 -0.0980  0.3517
 5528SOL    HW128046   0.738   0.840   4.761 -0.0458 -0.4064 -1.3890
 5528SOL    HW228047   0.668   0.953   4.731  0.1622  1.8322  0.4056
 5529SOL     OW28048   2.123   4.392   8.169  0.2120 -0.0648 -0.2520
 5529SOL    HW128049   2.170   4.344   8.101 -0.1650 -0.9603  0.1224
 5529SOL    HW228050   2.198   4.431   8.214  1.6409 -0.7875 -1.9984
 5530SOL     OW28051   4.529   1.117   4.437  0.4814  0.9209 -0.3372
 5530SOL    HW128052   4.486   1.170   4.369  3.1131  2.3710 -0.8571
 5530SOL    HW228053   4.494   1.156   4.516  3.3015  0.6171  1.0468
 5531SOL     OW28054   2.889   3.127   4.795 -0.3315  0.0972 -0.0489
 5531SOL    HW128055   2.977   3.134   4.833 -0.4321  2.6357 -0.2875
 5531SOL    HW228056   2.835   3.150   4.871  0.6517  0.1742  0.6277
 5532SOL     OW28057   0.103   0.653   9.631 -0.1568  0.4965  0.1051
 5532SOL    HW128058   0.137   0.727   9.581 -0.7801  0.1036 -0.9080
 5532SOL    HW228059   0.187   0.609   9.642 -0.2286  0.8432  2.0338
 5533SOL     OW28060   2.968   3.673   3.448  0.6484 -0.3336  0.5509
 5533SOL    HW128061   3.031   3.672   3.376 -0.3642 -0.5113 -0.3297
 5533SOL    HW228062   2.885   3.684   3.402  1.9084  5.2400 -0.3864
 5534SOL     OW28063   4.477   0.312  16.969 -0.1470  0.1238  0.4526
 5534SOL    HW128064   4.481   0.388  16.911  3.2795 -0.8021 -0.4769
 5534SOL    HW228065   4.386   0.281  16.970 -0.2244  0.3253 -0.4185
 5535SOL     OW28066   3.288   0.314   8.838 -0.0123  0.0279 -0.0366
 5535SOL    HW128067   3.246   0.362   8.768  1.1356 -0.1422 -0.8447
 5535SOL    HW228068   3.250   0.226   8.835  0.7363 -0.2856 -0.2472
 5536SOL     OW28069   4.304   3.030   3.027  0.0628  0.5367 -0.3999
 5536SOL    HW128070   4.233   3.058   2.969  0.8022 -0.5876 -1.8366
 5536SOL    HW228071   4.270   3.047   3.115 -0.7173 -1.6516 -0.2877
 5537SOL     OW28072   1.681   4.696  10.308  1.0956  0.7306  0.3895
 5537SOL    HW128073   1.711   0.053  10.272 -2.1604  1.9845  0.5565
 5537SOL    HW228074   1.728   4.630  10.257  1.5406  1.3662 -0.0264
 5538SOL     OW28075   2.493   2.305   2.222  1.0457 -0.3473 -0.1656
 5538SOL    HW128076   2.548   2.310   2.301 -0.1170  1.5710  0.5444
 5538SOL    HW228077   2.409   2.325   2.264  0.7396  1.4909 -1.6314
 5539SOL     OW28078   4.718   1.609   3.821 -0.1118  0.0347 -0.1639
 5539SOL    HW128079   0.040   1.684   3.785  2.2159 -0.3712  2.1655
 5539SOL    HW228080   0.051   1.541   3.791  0.7512  1.4590 -1.7008
 5540SOL     OW28081   0.160   3.950   3.444 -0.5627 -0.2469  0.0290
 5540SOL    HW128082   0.112   3.899   3.510 -2.2673 -0.0763 -1.0968
 5540SOL    HW228083   0.098   4.022   3.432 -3.2253 -2.5971 -0.1992
 5541SOL     OW28084   2.022   0.487   7.803 -0.2924  0.0344 -0.2466
 5541SOL    HW128085   1.999   0.568   7.848 -1.2129  0.0523 -0.7411
 5541SOL    HW228086   1.989   0.437   7.877  1.9617  0.5718  1.1222
 5542SOL     OW28087   3.418   1.262  16.637  0.5457 -0.7235  0.8503
 5542SOL    HW128088   3.384   1.316  16.709  1.6998  0.3215  0.6124
 5542SOL    HW228089   3.345   1.203  16.618 -0.0470  0.4137 -0.4248
 5543SOL     OW28090   1.851   0.469   7.017 -0.1223 -0.4704 -0.2934
 5543SOL    HW128091   1.865   0.504   6.929  0.5307  2.0035  0.7949
 5543SOL    HW228092   1.756   0.459   7.012 -0.2719 -0.0126  1.4858
 5544SOL     OW28093   0.642   0.600  15.325  0.0316  0.5541  0.7176
 5544SOL    HW128094   0.567   0.657  15.331 -2.5814 -2.6395 -1.4409
 5544SOL    HW228095   0.706   0.647  15.379  1.6824 -0.0889 -0.6687
 5545SOL     OW28096   4.545   2.511  13.062 -0.2337  0.0622 -0.7146
 5545SOL    HW128097   4.617   2.571  13.044 -0.3141  0.3675 -0.0188
 5545SOL    HW228098   4.535   2.462  12.980  0.8279  2.0047 -2.0026
 5546SOL     OW28099   2.341   2.661   6.473  0.1867 -0.0979  0.6944
 5546SOL    HW128100   2.433   2.643   6.453  0.5073  1.6580  0.6055
 5546SOL    HW228101   2.333   2.697   6.561  2.0269  0.3953  0.6766
 5547SOL     OW28102   3.870   1.757  13.728 -0.0916 -0.5046 -0.1217
 5547SOL    HW128103   3.809   1.824  13.695 -0.0550  0.2382  1.2968
 5547SOL    HW228104   3.955   1.800  13.735 -0.0291 -0.5491 -0.6086
 5548SOL     OW28105   0.467   4.130   7.225 -0.4830  0.1526 -0.1514
 5548SOL    HW128106   0.469   4.089   7.312  1.8156  2.1849  0.7592
 5548SOL    HW228107   0.377   4.123   7.195 -1.2415  1.2828  1.8867
 5549SOL     OW28108   2.014   0.427   5.143  0.3457 -0.4523  0.0768
 5549SOL    HW128109   1.967   0.396   5.066  0.8172 -1.9279  0.3730
 5549SOL    HW228110   2.104   0.412   5.115  0.6703  0.0764  0.8439
 5550SOL     OW28111   1.247   0.557   1.615  0.4232  0.0312  0.2988
 5550SOL    HW128112   1.335   0.565   1.578 -0.6035 -1.1847 -2.3866
 5550SOL    HW228113   1.228   0.650   1.605 -0.6517 -0.0582  1.5624
 5551SOL     OW28114   2.278   1.321   7.192 -0.0660 -0.1416 -0.0536
 5551SOL    HW128115   2.250   1.372   7.115 -0.6590  0.4782  0.5640
 5551SOL    HW228116   2.238   1.369   7.264 -1.7388 -2.8947  0.8425
 5552SOL     OW28117   2.081   1.753   7.603 -0.3000 -0.1591 -0.2313
 5552SOL    HW128118   2.135   1.830   7.585  3.1411 -2.7236 -0.8675
 5552SOL    HW228119   2.026   1.760   7.525 -0.8434 -0.6513  0.1101
 5553SOL     OW28120   2.038   3.460   6.247  0.2704  0.1211 -0.3125
 5553SOL    HW128121   1.969   3.427   6.305  1.6313 -2.1877  0.0029
 5553SOL    HW228122   2.000   3.459   6.159  1.6459  1.0235 -0.9110
 5554SOL     OW28123   1.813   0.078  11.496 -0.0471  0.3220 -0.3721
 5554SOL    HW128124   1.770   0.077  11.582 -1.7288  0.0233 -1.2143
 5554SOL    HW228125   1.742   0.118  11.446 -0.2942  1.5350  0.9466
 5555SOL     OW28126   2.688   4.418   4.539  0.6063  0.2985  0.0672
 5555SOL    HW128127   2.618   4.369   4.496  1.9125 -1.6393  0.1710
 5555SOL    HW228128   2.664   4.506   4.510 -1.4770 -0.2298  0.1730
 5556SOL     OW28129   4.084   4.415  15.346 -0.0004 -0.0601  0.0565
 5556SOL    HW128130   4.131   4.355  15.404  1.7108 -0.2491 -1.5469
 5556SOL    HW228131   4.153   4.471  15.312 -0.2442 -0.6639 -1.4572
 5557SOL     OW28132   4.182   4.308   5.907 -0.0200  0.1258  0.1419
 5557SOL    HW128133   4.220   4.384   5.952 -0.7757  0.5323  0.1075
 5557SOL    HW228134   4.193   4.341   5.818  1.2770  2.7021  1.2551
 5558SOL     OW28135   4.711   3.159   4.708 -0.5108  0.0380 -0.1856
 5558SOL    HW128136   4.695   3.068   4.734  1.7559 -0.8632 -1.9366
 5558SOL    HW228137   4.624   3.196   4.693 -0.0952  1.5341  1.0212
 5559SOL     OW28138   0.208   2.997   8.035 -0.4453 -0.6846  0.0999
 5559SOL    HW128139   0.143   2.927   8.022 -1.2232  0.0857 -0.1311
 5559SOL    HW228140   0.161   3.077   8.058  1.5225  0.6135 -0.4032
 5560SOL     OW28141   3.310   1.775   8.620  1.1713  0.1705  0.2451
 5560SOL    HW128142   3.349   1.717   8.555 -2.3914 -0.6702 -1.0964
 5560SOL    HW228143   3.320   1.722   8.700 -1.3177  0.0251  0.4338
 5561SOL     OW28144   4.228   0.229   4.865  0.7297  0.1251 -0.0457
 5561SOL    HW128145   4.254   0.298   4.803  0.0230 -0.4362 -0.9727
 5561SOL    HW228146   4.171   0.173   4.813 -1.0980  1.8899  0.0667
 5562SOL     OW28147   1.754   3.782   2.120 -0.2365  0.0558  0.6823
 5562SOL    HW128148   1.711   3.859   2.082 -1.7900  0.0175  2.3667
 5562SOL    HW228149   1.834   3.819   2.158  0.6595 -2.0540  0.8527
 5563SOL     OW28150   1.735   0.133   2.714  0.2408  0.3136  0.5625
 5563SOL    HW128151   1.778   0.135   2.799  1.8009 -2.9559 -0.1378
 5563SOL    HW228152   1.727   0.227   2.695 -3.4307 -0.7476 -3.2333
 5564SOL     OW28153   1.358   2.790   7.706  0.1527  0.0284  0.1758
 5564SOL    HW128154   1.273   2.820   7.673  1.0516 -0.9572 -3.0523
 5564SOL    HW228155   1.342   2.695   7.711 -1.3339  0.3578  1.7029
 5565SOL     OW28156   3.054   2.950   5.669  0.0525  0.0031 -0.0083
 5565SOL    HW128157   3.131   2.984   5.714 -0.6203  0.3044  0.9215
 5565SOL    HW228158   3.025   3.029   5.624 -1.3584  1.0562  2.6955
 5566SOL     OW28159   4.364   1.912  10.387 -0.0460  0.3604 -0.2810
 5566SOL    HW128160   4.437   1.892  10.329 -1.2523 -0.9479 -1.3517
 5566SOL    HW228161   4.338   2.001  10.365  0.3443  0.6748  0.5253
 5567SOL     OW28162   4.597   4.707  11.218  0.9211  0.0166  0.3739
 5567SOL    HW128163   4.620   4.662  11.136 -4.5246 -0.6045 -0.8050
 5567SOL    HW228164   4.583   0.072  11.194 -2.0083 -0.6930 -0.6026
 5568SOL     OW28165   2.574   4.282   4.739 -0.3745 -0.4180 -0.4399
 5568SOL    HW128166   2.631   4.322   4.673  2.7260 -1.4960  1.5711
 5568SOL    HW228167   2.491   4.310   4.703 -0.5398  0.7078  0.8025
 5569SOL     OW28168   0.573   3.998   7.943  0.2585 -0.4336  0.4260
 5569SOL    HW128169   0.574   4.048   7.861  0.8366 -0.5500  0.3651
 5569SOL    HW228170   0.658   3.956   7.942  0.3443 -0.1845 -2.9990
 5570SOL     OW28171   1.902   4.547   1.915 -0.2588  0.4720  0.6443
 5570SOL    HW128172   1.861   4.633   1.909 -2.0308 -0.5514 -1.5021
 5570SOL    HW228173   1.978   4.572   1.968 -0.7020  0.2829  1.3602
 5571SOL     OW28174   2.321   3.897   9.736  0.1289 -0.0682 -0.0620
 5571SOL    HW128175   2.282   3.932   9.816  3.7316 -0.6882  1.9576
 5571SOL    HW228176   2.369   3.973   9.704  0.8272  0.0314  1.2266
 5572SOL     OW28177   4.622   2.414  17.312  0.2190  0.2978 -0.1573
 5572SOL    HW128178   4.598   2.480  17.377  0.3239  0.6977 -0.5247
 5572SOL    HW228179   4.587   2.462  17.237  1.2676  1.8316  0.3418
 5573SOL     OW28180   3.738   0.341   5.510  0.0886  0.3787 -0.1602
 5573SOL    HW128181   3.724   0.251   5.481 -0.8604  0.1356  1.0551
 5573SOL    HW228182   3.647   0.370   5.509 -0.4111 -1.2202 -1.1583
 5574SOL     OW28183   3.464   0.726   0.182  0.6073 -0.1619  0.4698
 5574SOL    HW128184   3.530   0.663   0.153 -1.3384 -0.2069 -3.7990
 5574SOL    HW228185   3.460   0.705   0.275  0.4846 -2.7651 -0.1350
 5575SOL     OW28186   1.129   0.387   5.670  0.1620 -0.3348  0.2353
 5575SOL    HW128187   1.061   0.401   5.604 -0.2111 -0.3451  0.6166
 5575SOL    HW228188   1.173   0.472   5.672  1.1805 -0.8317 -0.9334
 5576SOL     OW28189   0.370   1.967   3.502  0.4635 -0.1675 -0.4218
 5576SOL    HW128190   0.289   2.010   3.530 -1.1232 -2.5266 -1.3762
 5576SOL    HW228191   0.372   1.983   3.408  0.2630 -0.3851 -0.4608
 5577SOL     OW28192   1.242   2.211   8.626 -0.5187  0.7949  0.0376
 5577SOL    HW128193   1.264   2.211   8.533  0.8289  1.7276  0.3516
 5577SOL    HW228194   1.293   2.286   8.658  0.3711 -0.6773  2.0766
 5578SOL     OW28195   2.250   3.400   9.334  0.2267  0.5442  0.3539
 5578SOL    HW128196   2.173   3.354   9.301 -0.8478  1.4104  1.6387
 5578SOL    HW228197   2.315   3.369   9.271 -2.0520 -1.9759 -0.7315
 5579SOL     OW28198   2.757   2.934   8.213  0.2754 -0.7386 -0.1176
 5579SOL    HW128199   2.707   2.910   8.291 -0.2989 -1.7332 -0.7926
 5579SOL    HW228200   2.808   2.853   8.210 -0.6801 -1.3676  0.7993
 5580SOL     OW28201   0.615   0.164   6.593  0.9316 -0.7353 -0.9997
 5580SOL    HW128202   0.648   0.159   6.504  0.0555  2.6695 -1.5130
 5580SOL    HW228203   0.698   0.161   6.641 -1.7365 -0.5443  3.7347
 5581SOL     OW28204   3.011   2.778   7.798 -0.6683  0.1001 -0.0851
 5581SOL    HW128205   3.103   2.775   7.773 -0.6407 -0.6910  0.1091
 5581SOL    HW228206   3.011   2.718   7.872 -0.2562  1.0280  0.6572
 5582SOL     OW28207   0.738   4.212   2.944 -0.3271  0.0529  0.1103
 5582SOL    HW128208   0.743   4.170   2.858 -1.8684  0.0087  0.0449
 5582SOL    HW228209   0.657   4.263   2.940  2.6549  4.8252 -0.1400
 5583SOL     OW28210   2.183   1.155   0.368 -0.3330  0.2163 -0.4351
 5583SOL    HW128211   2.114   1.221   0.369 -0.4930  0.0638 -1.3529
 5583SOL    HW228212   2.251   1.186   0.428  0.0874 -0.9848 -0.2989
 5584SOL     OW28213   0.991   2.020  11.285  0.0478  0.0211 -0.1277
 5584SOL    HW128214   1.033   2.096  11.245  2.5437 -1.4934 -0.3888
 5584SOL    HW228215   0.913   2.064  11.317 -0.3912 -0.0986 -1.0468
 5585SOL     OW28216   4.097   2.559  15.164 -0.0063  0.1125  0.3569
 5585SOL    HW128217   4.027   2.503  15.130 -0.4312  0.7232  0.2229
 5585SOL    HW228218   4.053   2.608  15.233  0.9102 -1.0738  1.7705
 5586SOL     OW28219   3.635   4.404   4.548 -0.2900  0.2735  0.1078
 5586SOL    HW128220   3.669   4.386   4.635  3.3192 -0.3011 -1.4415
 5586SOL    HW228221   3.552   4.447   4.571 -0.7731 -0.4563 -0.3007
 5587SOL     OW28222   1.859   1.149   0.029 -0.6073 -0.0762  0.6267
 5587SOL    HW128223   1.815   1.069  17.704  0.9827 -0.7675  0.1500
 5587SOL    HW228224   1.816   1.176   0.110 -1.0249  0.9166  0.0668
 5588SOL     OW28225   4.560   1.460   9.843  0.0809  0.6412 -0.6909
 5588SOL    HW128226   4.480   1.497   9.806 -0.2136  0.9277  0.2311
 5588SOL    HW228227   4.570   1.506   9.926 -0.4546 -2.6119  1.1944
 5589SOL     OW28228   2.910   2.230   5.254 -0.3968  0.0804 -0.1566
 5589SOL    HW128229   2.860   2.150   5.275  1.3207 -1.2629 -1.2245
 5589SOL    HW228230   2.856   2.295   5.299  0.5093  1.3947 -1.0145
 5590SOL     OW28231   1.120   1.721  16.953 -0.2822 -0.4355 -0.3643
 5590SOL    HW128232   1.181   1.729  16.880  1.6179  1.2735  1.4346
 5590SOL    HW228233   1.090   1.812  16.955 -0.4888 -0.4932 -0.8579
 5591SOL     OW28234   3.693   3.424   5.959  0.3084  0.6923 -0.1729
 5591SOL    HW128235   3.637   3.482   5.909 -1.8746 -2.4787 -1.4245
 5591SOL    HW228236   3.775   3.444   5.913  0.0312  0.7049 -0.6539
 5592SOL     OW28237   2.966   0.829  16.711  0.6075 -0.8110  0.2107
 5592SOL    HW128238   3.017   0.906  16.735  0.8038 -1.5667  2.2105
 5592SOL    HW228239   2.897   0.823  16.777  0.3189  0.7073  0.0431
 5593SOL     OW28240   4.561   1.758  16.219  0.2052 -0.1008 -0.5975
 5593SOL    HW128241   4.635   1.781  16.162  0.2940 -0.6688 -0.7096
 5593SOL    HW228242   4.490   1.751  16.155 -1.3467  1.8185  0.8971
 5594SOL     OW28243   4.667   0.845  16.008 -0.4484 -0.0600  0.0488
 5594SOL    HW128244   4.626   0.761  15.987  1.2230 -1.4848  2.5455
 5594SOL    HW228245   4.632   0.864  16.096  0.0287 -2.2578  0.7066
 5595SOL     OW28246   2.640   2.592   8.950  0.3484 -0.2825 -0.4542
 5595SOL    HW128247   2.660   2.670   9.003  0.8637 -0.2501 -0.7016
 5595SOL    HW228248   2.727   2.557   8.966 -0.2842 -2.0091 -0.8094
 5596SOL     OW28249   0.051   0.816  12.797  0.0121  0.0008 -0.3290
 5596SOL    HW128250   0.119   0.798  12.862 -1.2814 -0.6516  0.8329
 5596SOL    HW228251   0.052   0.911  12.794  0.3222 -0.0883 -2.9432
 5597SOL     OW28252   1.787   4.522   3.325  0.4392 -0.1165  0.6122
 5597SOL    HW128253   1.706   4.520   3.273  0.7508 -1.8990  0.1934
 5597SOL    HW228254   1.771   4.576   3.402 -1.6534  0.3770 -0.1670
 5598SOL     OW28255   1.078   4.388   0.653  0.4790 -0.5303 -0.1902
 5598SOL    HW128256   1.090   4.332   0.577 -2.5265  1.0909 -1.8772
 5598SOL    HW228257   1.085   4.474   0.612 -0.4529  0.0170  0.8016
 5599SOL     OW28258   1.982   3.184  16.295 -0.2692 -0.1754 -0.4481
 5599SOL    HW128259   2.007   3.117  16.230  1.2867  0.6925 -0.7520
 5599SOL    HW228260   2.042   3.254  16.268  0.6074 -0.1339  1.5914
 5600SOL     OW28261   0.421   2.072   9.723 -0.1841 -0.5326 -0.4023
 5600SOL    HW128262   0.449   2.110   9.640 -0.1369  1.4716  0.5492
 5600SOL    HW228263   0.353   2.134   9.747 -0.7740 -1.5637  0.6241
 5601SOL     OW28264   1.265   3.007   7.432 -0.0057 -0.3140 -0.3336
 5601SOL    HW128265   1.322   3.044   7.500  1.6634 -1.2017 -1.2589
 5601SOL    HW228266   1.228   2.935   7.483  0.5043  1.3204  2.3562
 5602SOL     OW28267   4.073   4.406   6.252 -0.1042  0.2490  0.2949
 5602SOL    HW128268   4.050   4.322   6.211  1.4372  0.3546 -0.7973
 5602SOL    HW228269   4.168   4.400   6.241 -0.2963  0.3272 -1.4816
 5603SOL     OW28270   1.304   4.248   1.881  0.1573 -0.2627 -0.2162
 5603SOL    HW128271   1.318   4.257   1.787  0.6906 -1.4040 -0.2490
 5603SOL    HW228272   1.215   4.284   1.886 -0.4904 -1.7327 -1.2611
 5604SOL     OW28273   3.570   0.637   9.138  0.0132  0.3981 -0.5321
 5604SOL    HW128274   3.614   0.552   9.136 -1.7409 -0.5794  3.2430
 5604SOL    HW228275   3.637   0.688   9.092 -1.4981  1.9082 -1.0748
 5605SOL     OW28276   0.410   1.756   0.660  0.6476 -0.0613  0.4657
 5605SOL    HW128277   0.489   1.720   0.618 -0.5008 -1.9296 -0.0789
 5605SOL    HW228278   0.366   1.795   0.584 -0.2017  1.8343  1.9402
 5606SOL     OW28279   0.891   2.505   2.284  0.7791 -0.3577 -0.0997
 5606SOL    HW128280   0.805   2.485   2.322  0.4525 -0.8205 -1.0728
 5606SOL    HW228281   0.935   2.562   2.347 -0.3607  1.0767 -0.5778
 5607SOL     OW28282   0.145   0.298   5.255 -0.6461  0.3591  0.5551
 5607SOL    HW128283   0.227   0.341   5.281 -0.2976  1.0966 -1.7169
 5607SOL    HW228284   0.123   0.334   5.169  1.0419 -0.7953 -0.3571
 5608SOL     OW28285   1.479   3.634   4.591 -0.2613 -0.1577  0.0060
 5608SOL    HW128286   1.570   3.665   4.591 -0.3094  0.0226  1.9605
 5608SOL    HW228287   1.479   3.577   4.668 -0.8070 -0.9473 -0.5827
 5609SOL     OW28288   3.792   3.515  12.865  0.3494  0.1227  0.1203
 5609SOL    HW128289   3.885   3.503  12.847  0.2768  1.2846 -0.9869
 5609SOL    HW228290   3.794   3.564  12.948  0.6818  0.5414 -0.1377
 5610SOL     OW28291   3.130   3.673   1.356 -0.3573 -0.0541  0.0049
 5610SOL    HW128292   3.057   3.644   1.301  0.3417  1.0279 -1.4842
 5610SOL    HW228293   3.105   3.761   1.383 -0.5943  0.0650 -0.6156
 5611SOL     OW28294   4.592   1.866   8.619 -0.1679  0.6615  0.2338
 5611SOL    HW128295   4.500   1.884   8.599 -0.3568 -1.0557 -0.5090
 5611SOL    HW228296   4.601   1.896   8.710 -0.8768  1.5208  0.0179
 5612SOL     OW28297   0.159   2.570   2.456 -0.0094 -0.2080 -0.3419
 5612SOL    HW128298   0.078   2.619   2.441 -0.3440 -0.4097  0.7536
 5612SOL    HW228299   0.123   2.503   2.514  0.4531  0.9733  1.3206
 5613SOL     OW28300   0.010   1.824   9.982  0.2960 -0.1217  0.0491
 5613SOL    HW128301   4.700   1.865   9.903 -0.3700 -1.1787 -0.1966
 5613SOL    HW228302   0.092   1.872   9.995  0.0668  0.2567  0.1236
 5614SOL     OW28303   2.528   0.670  10.607 -1.1304 -0.3198  0.4872
 5614SOL    HW128304   2.613   0.636  10.636 -0.2811  0.5915 -0.9607
 5614SOL    HW228305   2.542   0.763  10.629 -0.2060 -0.4466  0.4442
 5615SOL     OW28306   3.254   4.130   4.482  0.1576 -0.2158  0.1760
 5615SOL    HW128307   3.162   4.106   4.495 -0.2502  2.5366  2.4966
 5615SOL    HW228308   3.237   4.222   4.504  1.5124 -0.3243  1.7040
 5616SOL     OW28309   1.783   1.744   1.421  0.0934 -0.4038  0.0349
 5616SOL    HW128310   1.836   1.702   1.488  0.5247  0.2711  0.1150
 5616SOL    HW228311   1.853   1.751   1.357  0.1670 -1.3311  0.0184
 5617SOL     OW28312   1.024   2.691   2.094  0.1651 -0.8513 -0.1494
 5617SOL    HW128313   1.007   2.627   2.164  1.4086  0.1348  1.0633
 5617SOL    HW228314   0.942   2.678   2.047  0.2175 -2.7207  0.2578
 5618SOL     OW28315   3.608   3.988  13.781  0.5211  0.0578  0.3744
 5618SOL    HW128316   3.557   3.996  13.862 -0.1439 -1.2930  0.0947
 5618SOL    HW228317   3.541   4.021  13.721  0.1003  3.3580  2.6679
 5619SOL     OW28318   0.165   2.646   9.131 -0.7213  0.3238 -0.0323
 5619SOL    HW128319   0.255   2.678   9.131 -0.6604  0.1464  0.8587
 5619SOL    HW228320   0.121   2.704   9.068  0.0541  0.5639 -0.3481
 5620SOL     OW28321   1.632   1.874   2.990  0.1607  0.1165  0.5019
 5620SOL    HW128322   1.707   1.860   3.049  0.8342 -0.9486 -0.6024
 5620SOL    HW228323   1.679   1.879   2.906 -1.3194  2.3512 -0.1846
 5621SOL     OW28324   2.698   3.488   1.876 -0.8258 -0.0764 -0.4657
 5621SOL    HW128325   2.671   3.580   1.885 -1.0010 -0.1395 -0.3307
 5621SOL    HW228326   2.702   3.463   1.968 -1.7096 -2.6014 -1.1052
 5622SOL     OW28327   4.238   3.953  15.576 -0.1818  0.3045  0.0400
 5622SOL    HW128328   4.332   3.954  15.596 -0.4607  1.5726  1.2177
 5622SOL    HW228329   4.235   3.882  15.511 -2.4611  1.0829 -0.6852
 5623SOL     OW28330   1.914   0.649   6.806 -0.4699  0.4379 -0.0708
 5623SOL    HW128331   1.912   0.742   6.828  1.8768  0.6477 -0.7995
 5623SOL    HW228332   2.009   0.641   6.797 -0.4432  1.4183 -0.6602
 5624SOL     OW28333   1.386   4.581   7.367  0.1734  0.0325 -0.0242
 5624SOL    HW128334   1.380   4.658   7.310  0.4718  0.0197 -0.0731
 5624SOL    HW228335   1.419   4.623   7.446  1.1630  2.7001 -1.8396
 5625SOL     OW28336   4.330   4.330   4.847 -0.2312  0.3386 -0.3225
 5625SOL    HW128337   4.263   4.285   4.794 -0.7469  1.8172 -0.9387
 5625SOL    HW228338   4.391   4.342   4.774  1.4276 -2.0856  0.6682
 5626SOL     OW28339   2.255   0.326   5.870 -0.4796 -0.2891 -0.0500
 5626SOL    HW128340   2.293   0.404   5.829  1.8892 -0.5918  1.5786
 5626SOL    HW228341   2.326   0.290   5.923 -0.7510 -1.2991 -0.3748
 5627SOL     OW28342   4.293   2.225   3.510  0.5580  0.3471  0.3993
 5627SOL    HW128343   4.349   2.197   3.438 -0.1711  1.8091 -0.7195
 5627SOL    HW228344   4.237   2.148   3.522  0.2638  0.4467 -0.3560
 5628SOL     OW28345   3.659   2.683  11.416  0.0475 -0.5575  0.1875
 5628SOL    HW128346   3.715   2.749  11.458 -0.5429  1.3022 -1.9044
 5628SOL    HW228347   3.706   2.605  11.444  1.2906 -0.3639 -1.4088
 5629SOL     OW28348   4.509   3.560   5.943 -0.0790  0.0985 -0.4280
 5629SOL    HW128349   4.574   3.508   5.989 -0.1321 -0.3340 -0.8483
 5629SOL    HW228350   4.510   3.517   5.858 -2.1944 -0.9461  0.0817
 5630SOL     OW28351   2.573   0.691   4.945 -0.5798  0.3430 -0.2375
 5630SOL    HW128352   2.663   0.663   4.928 -1.0596 -1.2995 -0.0146
 5630SOL    HW228353   2.539   0.608   4.977 -0.2085  0.4157  0.3494
 5631SOL     OW28354   1.694   1.800   5.160  0.3738 -0.0555 -0.2326
 5631SOL    HW128355   1.637   1.741   5.110 -4.1457  3.2302  1.0142
 5631SOL    HW228356   1.633   1.874   5.160  0.8667  0.3413  0.5051
 5632SOL     OW28357   4.600   2.280   1.882 -0.1468  0.0117  0.0499
 5632SOL    HW128358   4.687   2.320   1.879 -0.1906  0.4681  4.0475
 5632SOL    HW228359   4.548   2.360   1.871 -0.5651 -0.4378 -1.1860
 5633SOL     OW28360   0.311   2.256  14.921  0.3274  0.6424 -0.1103
 5633SOL    HW128361   0.297   2.324  14.855 -1.7845  0.1612 -0.1415
 5633SOL    HW228362   0.394   2.218  14.892  0.3147  0.1819  0.4708
 5634SOL     OW28363   3.286   0.038   4.189 -0.4021  0.1515  0.0359
 5634SOL    HW128364   3.304   4.671   4.206 -0.9128 -0.2230 -1.5395
 5634SOL    HW228365   3.260   0.045   4.098 -0.0391 -1.8448 -0.2323
 5635SOL     OW28366   3.193   3.611  13.143  0.8114 -0.1325 -0.1601
 5635SOL    HW128367   3.234   3.561  13.072  2.4159  0.4937  0.3101
 5635SOL    HW228368   3.256   3.593  13.213 -0.6494  1.6096  1.5673
 5636SOL     OW28369   0.084   1.470   5.716  0.6024 -0.1533  0.3410
 5636SOL    HW128370   0.130   1.526   5.779 -0.6817 -0.4347  1.5186
 5636SOL    HW228371   0.048   1.532   5.653  0.4297 -2.2160 -1.5650
 5637SOL     OW28372   3.149   3.290   7.630  0.1563  0.2784  0.8271
 5637SOL    HW128373   3.109   3.221   7.684  1.3060  0.0615  1.4068
 5637SOL    HW228374   3.087   3.301   7.558  0.6891 -1.2625  0.1359
 5638SOL     OW28375   1.031   3.112   4.249  0.1741 -0.2740 -0.1532
 5638SOL    HW128376   0.993   3.199   4.263  1.7781  0.7567 -2.1213
 5638SOL    HW228377   0.999   3.072   4.329 -0.9708  2.1376  0.6014
 5639SOL     OW28378   2.350   1.871   3.632  0.4127 -0.1131  0.2121
 5639SOL    HW128379   2.275   1.931   3.626 -0.2790 -0.9799  0.2413
 5639SOL    HW228380   2.327   1.820   3.710 -3.1534 -2.4648 -2.3917
 5640SOL     OW28381   0.498   3.615   2.877 -0.3400  0.6659  0.2844
 5640SOL    HW128382   0.442   3.693   2.872 -0.8120  0.2889 -0.4423
 5640SOL    HW228383   0.451   3.554   2.934 -1.2133  0.4355 -0.6755
 5641SOL     OW28384   3.494   0.155   0.135  0.2839  0.1457 -0.1510
 5641SOL    HW128385   3.399   0.161   0.124  0.5943  0.2981 -2.7320
 5641SOL    HW228386   3.509   0.061   0.126  0.0757  0.1978 -1.0093
 5642SOL     OW28387   2.518   1.074   3.724 -0.0019  0.3182 -0.3101
 5642SOL    HW128388   2.443   1.090   3.668 -0.3731 -0.5934 -0.0729
 5642SOL    HW228389   2.583   1.085   3.655 -1.1449 -0.8330 -1.5620
 5643SOL     OW28390   2.399   3.664   4.160  0.0289 -0.1675 -0.3016
 5643SOL    HW128391   2.307   3.685   4.148  0.0571  0.4049  0.4984
 5643SOL    HW228392   2.387   3.573   4.187  3.9009 -0.9833 -1.3199
 5644SOL     OW28393   2.063   0.672   9.829  0.2732  0.1631 -0.0144
 5644SOL    HW128394   2.039   0.639   9.916  0.7406  0.5465  0.2646
 5644SOL    HW228395   2.108   0.596   9.792 -0.6149 -0.3857  0.0445
 5645SOL     OW28396   3.708   1.487   1.500  0.1187  0.6380  0.5777
 5645SOL    HW128397   3.671   1.399   1.495  1.4807  0.0447  0.9293
 5645SOL    HW228398   3.643   1.551   1.473 -0.6975 -0.3269  0.2952
 5646SOL     OW28399   4.327   3.774   9.197  0.4195 -0.2968  0.1292
 5646SOL    HW128400   4.316   3.685   9.163  0.4788  0.1692 -1.1150
 5646SOL    HW228401   4.360   3.816   9.118 -0.0082 -0.6204 -0.2150
 5647SOL     OW28402   1.620   0.555   5.276 -0.1428 -0.0203  0.4176
 5647SOL    HW128403   1.561   0.539   5.349 -0.8494  1.6993  0.2346
 5647SOL    HW228404   1.699   0.572   5.328  0.4365 -0.2332 -0.3924
 5648SOL     OW28405   2.781   0.808   7.828  0.0012 -0.4521 -0.1313
 5648SOL    HW128406   2.702   0.806   7.882  1.4538  1.1580  2.0314
 5648SOL    HW228407   2.842   0.785   7.898  1.2872  0.8711 -0.8070
 5649SOL     OW28408   3.243   0.102   6.607 -0.3172 -0.2903  0.1062
 5649SOL    HW128409   3.211   0.192   6.615 -0.9090 -0.4644 -0.3061
 5649SOL    HW228410   3.262   0.091   6.700 -1.8977  2.3381  0.7369
 5650SOL     OW28411   3.159   1.952  11.295  0.1333 -0.1309  0.0619
 5650SOL    HW128412   3.136   1.866  11.328 -1.9219  0.4903  0.2244
 5650SOL    HW228413   3.074   1.995  11.290  0.2829 -0.0312 -1.7423
 5651SOL     OW28414   3.805   2.503   5.548 -0.3804  0.0663 -0.1094
 5651SOL    HW128415   3.744   2.544   5.609 -1.3595 -1.0020 -0.3731
 5651SOL    HW228416   3.885   2.535   5.589 -1.1866  0.3146  1.2849
 5652SOL     OW28417   1.785   3.952   8.667 -0.1437 -0.1773  0.5525
 5652SOL    HW128418   1.782   3.939   8.761 -0.0357  0.3167  0.6235
 5652SOL    HW228419   1.869   3.997   8.658  0.4928 -1.2022  1.3853
 5653SOL     OW28420   4.488   0.578  12.408 -0.1665  0.0334  0.6472
 5653SOL    HW128421   4.495   0.660  12.457 -0.2328  0.6772 -0.4162
 5653SOL    HW228422   4.483   0.617  12.321  3.0834  0.8284  0.8190
 5654SOL     OW28423   4.666   3.190  16.335 -0.0261 -0.5444 -0.2713
 5654SOL    HW128424   4.612   3.148  16.268 -0.5506  0.5996 -0.5567
 5654SOL    HW228425   4.682   3.281  16.312 -1.0136 -0.0093  1.2119
 5655SOL     OW28426   0.951   3.813   8.406 -0.6911  0.3499  0.7285
 5655SOL    HW128427   0.885   3.804   8.474 -0.2431  1.4300  1.3026
 5655SOL    HW228428   0.902   3.861   8.340  1.0539  0.3732 -0.5508
 5656SOL     OW28429   2.519   4.710   4.884 -0.3067 -0.3334 -0.6528
 5656SOL    HW128430   2.477   0.019   4.806  0.1621 -1.6832 -1.5386
 5656SOL    HW228431   2.608   4.699   4.850 -0.3416 -0.8501 -0.5885
 5657SOL     OW28432   2.550   0.897   1.342 -0.4060 -0.2208 -0.1090
 5657SOL    HW128433   2.483   0.953   1.379  0.1705  1.5803 -1.7980
 5657SOL    HW228434   2.506   0.855   1.268  0.4105 -1.8604  0.3400
 5658SOL     OW28435   4.315   4.657   7.195  0.1084 -0.5008  0.3069
 5658SOL    HW128436   4.234   4.626   7.156  0.1713 -1.5715  1.0458
 5658SOL    HW228437   4.350   4.571   7.216 -0.1820 -0.5764  0.4727
 5659SOL     OW28438   3.033   3.389  12.929 -0.2145 -0.3062 -0.5703
 5659SOL    HW128439   2.962   3.451  12.911 -0.0743  0.7494  2.6255
 5659SOL    HW228440   3.105   3.447  12.955 -2.9917  2.2762  1.3087
 5660SOL     OW28441   1.967   2.319  13.712 -0.2458  0.2627 -0.3288
 5660SOL    HW128442   1.981   2.270  13.631 -2.0227 -0.8141  0.0061
 5660SOL    HW228443   1.962   2.242  13.769 -0.8523  0.9185  0.4990
 5661SOL     OW28444   0.608   1.912   9.887  0.1580  0.4167  0.3238
 5661SOL    HW128445   0.534   1.852   9.889  0.3128  0.2068 -0.4096
 5661SOL    HW228446   0.559   1.993   9.877 -2.7630 -1.3353  0.6268
 5662SOL     OW28447   1.432   2.381  14.524 -0.2605  0.0944  0.0461
 5662SOL    HW128448   1.404   2.448  14.586 -0.5613  0.1010 -0.0986
 5662SOL    HW228449   1.351   2.338  14.499  0.8145 -2.2341  0.6000
 5663SOL     OW28450   3.180   2.991  16.073 -0.0818 -0.3053 -0.3950
 5663SOL    HW128451   3.134   3.046  16.010  2.1348  1.1452 -0.7654
 5663SOL    HW228452   3.108   2.961  16.128 -0.6839 -1.8285 -1.9964
 5664SOL     OW28453   0.463   1.404   4.552  0.5842 -0.5207 -0.4602
 5664SOL    HW128454   0.439   1.441   4.467 -0.0411 -0.8381 -0.4223
 5664SOL    HW228455   0.518   1.464   4.602  0.6698 -2.1032  1.3525
 5665SOL     OW28456   0.672   1.699   0.552  0.2599  0.4280 -0.0327
 5665SOL    HW128457   0.668   1.657   0.638 -1.6875 -0.0427 -0.3657
 5665SOL    HW228458   0.697   1.625   0.498 -2.4564  0.0476 -0.7671
 5666SOL     OW28459   3.666   4.324   6.526  0.4486 -0.3279 -0.0050
 5666SOL    HW128460   3.750   4.302   6.567  0.1164  0.8788  1.2940
 5666SOL    HW228461   3.691   4.385   6.456  2.8858 -0.2663  0.9169
 5667SOL     OW28462   3.637   1.705  13.597  0.0147 -0.7524 -0.3591
 5667SOL    HW128463   3.683   1.723  13.679  0.3228  2.7479 -1.2878
 5667SOL    HW228464   3.554   1.680  13.637  0.4908 -1.9548 -0.1478
 5668SOL     OW28465   0.399   0.238   7.949  0.1341 -0.0381 -0.1016
 5668SOL    HW128466   0.359   0.180   8.013 -0.6298 -0.1310 -0.6590
 5668SOL    HW228467   0.317   0.263   7.905  0.0353 -1.5212 -0.7559
 5669SOL     OW28468   2.631   2.909   3.331  0.0644 -0.1503  0.5574
 5669SOL    HW128469   2.587   2.994   3.324  0.3795 -0.0109  0.2540
 5669SOL    HW228470   2.659   2.897   3.240  0.9780  0.1484  0.8007
 5670SOL     OW28471   1.060   4.105   0.950  0.5130  0.3051  0.0924
 5670SOL    HW128472   1.078   4.078   0.860 -2.2233 -0.9437 -0.0761
 5670SOL    HW228473   0.967   4.086   0.959  0.7164 -0.3232  0.9145
 5671SOL     OW28474   2.338   1.298  10.796  0.7258  0.4762 -0.2352
 5671SOL    HW128475   2.335   1.238  10.722 -1.2776  2.5143 -1.8421
 5671SOL    HW228476   2.408   1.357  10.768  0.5965  1.0559  0.6539
 5672SOL     OW28477   1.717   2.348   8.297  0.3609 -0.4492  0.2254
 5672SOL    HW128478   1.756   2.303   8.222  0.4258  2.8285 -1.7359
 5672SOL    HW228479   1.718   2.271   8.354  0.2983 -0.8249 -0.2824
 5673SOL     OW28480   3.240   0.131   9.725  0.2252 -0.0790  0.6375
 5673SOL    HW128481   3.254   0.162   9.635 -1.1182  1.7146  1.0448
 5673SOL    HW228482   3.283   0.046   9.717  0.5259  0.0787  0.6003
 5674SOL     OW28483   0.767   1.308  15.161  0.1190  0.1195 -0.0197
 5674SOL    HW128484   0.678   1.296  15.128 -0.6429  0.3759  1.9242
 5674SOL    HW228485   0.816   1.226  15.153 -2.6581 -1.4821 -0.3563
 5675SOL     OW28486   1.407   3.012   3.827  0.2008 -0.1303 -0.2625
 5675SOL    HW128487   1.376   3.102   3.813 -2.8509 -1.4287 -1.8308
 5675SOL    HW228488   1.418   2.996   3.733 -1.4495 -0.7688 -0.3507
 5676SOL     OW28489   2.377   0.743   2.684  0.3261 -0.5002  0.2320
 5676SOL    HW128490   2.472   0.743   2.696  0.3598  0.4308 -0.0397
 5676SOL    HW228491   2.375   0.795   2.604 -2.4776 -0.6881  0.1877
 5677SOL     OW28492   2.348   2.441   5.359 -0.1746  0.3533  0.3801
 5677SOL    HW128493   2.358   2.480   5.272  1.9370  0.4304  0.6445
 5677SOL    HW228494   2.414   2.498   5.399  0.3455 -0.7107  1.0257
 5678SOL     OW28495   0.376   4.700   1.462  0.1138  0.1890 -0.5617
 5678SOL    HW128496   0.351   0.029   1.388 -0.8197 -1.3759 -1.4236
 5678SOL    HW228497   0.454   4.653   1.431  0.1105  0.4869 -1.0316
 5679SOL     OW28498   1.366   1.024   3.675 -0.1170  0.2754  0.2741
 5679SOL    HW128499   1.369   1.057   3.585  1.7191  1.6425  0.8456
 5679SOL    HW228500   1.434   0.957   3.675 -0.2222  0.1776  1.1938
 5680SOL     OW28501   3.312   0.758   0.659 -0.1970  0.0410  0.3891
 5680SOL    HW128502   3.241   0.714   0.707  0.0613  0.0122  0.7427
 5680SOL    HW228503   3.343   0.678   0.617 -1.2836 -1.7461  2.9892
 5681SOL     OW28504   0.728   4.374  15.014  0.1551 -0.2772  0.1765
 5681SOL    HW128505   0.792   4.402  15.079 -0.2033 -1.8643  1.2405
 5681SOL    HW228506   0.675   4.453  15.024 -0.7407 -1.1366  2.3459
 5682SOL     OW28507   1.204   3.243   2.967  0.1307  0.2586 -0.8201
 5682SOL    HW128508   1.204   3.186   2.890  0.2808  0.5792 -1.0593
 5682SOL    HW228509   1.215   3.326   2.921  0.1799  0.1936 -0.9259
 5683SOL     OW28510   0.851   4.353   0.934  0.0166  0.1495  0.4829
 5683SOL    HW128511   0.809   4.383   0.854 -0.3188 -0.2581  0.5088
 5683SOL    HW228512   0.832   4.259   0.935  1.7814 -0.1921  1.1291
 5684SOL     OW28513   4.121   1.131  16.779 -0.0280 -0.4695  0.2743
 5684SOL    HW128514   4.051   1.167  16.725 -1.1287 -1.2300  1.1979
 5684SOL    HW228515   4.197   1.185  16.759 -2.5971  2.0500 -2.6594
 5685SOL     OW28516   1.568   0.525   2.455  0.3826 -0.1263  0.4788
 5685SOL    HW128517   1.543   0.497   2.543  0.9182 -0.1890  0.6098
 5685SOL    HW228518   1.488   0.505   2.405 -0.8808  1.1873  2.0055
 5686SOL     OW28519   3.927   0.941   6.733  0.0526 -0.3631 -0.3929
 5686SOL    HW128520   4.003   0.886   6.748 -0.4977 -0.3000  2.5844
 5686SOL    HW228521   3.877   0.881   6.677  0.6948 -0.9707 -0.3097
 5687SOL     OW28522   2.457   2.191   4.580  0.1580  0.0900  0.6306
 5687SOL    HW128523   2.408   2.145   4.512  2.8448 -2.0227  0.1582
 5687SOL    HW228524   2.492   2.118   4.629  1.3397 -0.6053 -1.2662
 5688SOL     OW28525   3.278   1.171   1.798  0.2254 -0.0019 -0.2005
 5688SOL    HW128526   3.273   1.249   1.853 -2.1452 -0.9773  0.9633
 5688SOL    HW228527   3.184   1.159   1.781  0.2868  0.8491 -1.1073
 5689SOL     OW28528   2.990   3.152  13.089  0.0290  0.0133  0.8524
 5689SOL    HW128529   2.981   3.222  13.025  1.1213 -0.1836  0.4769
 5689SOL    HW228530   2.981   3.203  13.170 -1.4836  0.9587  0.0661
 5690SOL     OW28531   3.308   3.973   2.178 -0.3614  0.0982  0.1150
 5690SOL    HW128532   3.387   3.926   2.204  1.6243  3.6652  0.4714
 5690SOL    HW228533   3.246   3.908   2.210  0.0919 -0.2822  0.2232
 5691SOL     OW28534   0.324   2.300   5.121 -0.7549  0.1453  0.5871
 5691SOL    HW128535   0.354   2.292   5.031  0.3007 -0.2742  0.9803
 5691SOL    HW228536   0.295   2.210   5.137 -1.6268  0.1333 -1.0965
 5692SOL     OW28537   4.658   1.632   2.433 -1.3611  0.1919 -0.2792
 5692SOL    HW128538   4.636   1.712   2.481 -0.1235  0.5742 -0.3536
 5692SOL    HW228539   4.601   1.633   2.356  0.0450 -1.3971 -1.3424
 5693SOL     OW28540   2.450   2.177   4.970 -0.5597 -0.4421  0.0206
 5693SOL    HW128541   2.400   2.236   5.026 -1.1085  0.4433 -1.3899
 5693SOL    HW228542   2.497   2.243   4.919 -1.6950  0.3251 -0.0236
 5694SOL     OW28543   4.097   2.219   3.943  0.1919 -0.6441 -0.0091
 5694SOL    HW128544   4.077   2.156   3.873 -0.3763 -0.7903  0.2831
 5694SOL    HW228545   4.164   2.274   3.903 -0.7391  1.1436  0.8835
 5695SOL     OW28546   0.757   4.492  12.108 -0.8909  0.3352  0.6997
 5695SOL    HW128547   0.816   4.422  12.080 -1.4703  1.2730 -2.9210
 5695SOL    HW228548   0.754   4.558  12.039 -0.7694  0.9414  1.2784
 5696SOL     OW28549   3.078   2.897  15.670  0.0964 -0.2012 -0.4210
 5696SOL    HW128550   3.093   2.853  15.754 -2.0250 -1.0262 -0.4848
 5696SOL    HW228551   3.170   2.889  15.643 -0.5968  0.4939 -2.9288
 5697SOL     OW28552   1.930   0.463   6.323 -0.5062  0.4015  0.0693
 5697SOL    HW128553   2.019   0.486   6.350  0.2435  0.4255 -2.4292
 5697SOL    HW228554   1.887   0.475   6.408  0.5334 -4.0614  1.2042
 5698SOL     OW28555   4.031   4.388   8.947 -0.9976  0.6326  0.4389
 5698SOL    HW128556   4.027   4.362   9.039 -1.6180  0.4955  0.3698
 5698SOL    HW228557   3.961   4.340   8.902 -1.2659 -0.8486  2.4604
 5699SOL     OW28558   3.171   3.050   8.047 -0.0894  0.2622  0.2730
 5699SOL    HW128559   3.087   3.051   8.094  0.3005  1.3539  0.9520
 5699SOL    HW228560   3.219   3.112   8.102 -0.1133  1.2827 -0.8707
 5700SOL     OW28561   0.625   2.302   5.295  0.0538  0.1856  0.0681
 5700SOL    HW128562   0.603   2.350   5.215 -0.4939  0.4828  0.4014
 5700SOL    HW228563   0.613   2.212   5.262 -0.8816  0.3766 -0.1145
 5701SOL     OW28564   0.869   3.938  11.773  0.8073  0.4042  0.4428
 5701SOL    HW128565   0.910   4.001  11.713  0.1373  1.0500  0.6570
 5701SOL    HW228566   0.828   3.873  11.716 -1.1619  3.6128 -1.8169
 5702SOL     OW28567   0.634   4.214  13.529  0.2090  0.1004  0.2417
 5702SOL    HW128568   0.611   4.195  13.620  0.5473  1.2318  0.5693
 5702SOL    HW228569   0.563   4.278  13.514 -0.4454 -0.9022 -0.9225
 5703SOL     OW28570   1.143   3.894   2.145  0.7292  0.0026  0.0595
 5703SOL    HW128571   1.209   3.847   2.094 -0.1143  0.1812 -1.1733
 5703SOL    HW228572   1.203   3.947   2.199  0.0676  2.1709 -1.3172
 5704SOL     OW28573   4.269   2.074  16.139 -0.1006  0.5325  0.5915
 5704SOL    HW128574   4.320   1.994  16.126  3.5475  3.0639 -0.5904
 5704SOL    HW228575   4.341   2.135  16.154 -0.5245  1.0173  0.6731
 5705SOL     OW28576   2.183   1.483   0.510  0.5379 -0.0934  0.1656
 5705SOL    HW128577   2.210   1.409   0.566 -0.0695 -0.9659 -0.7046
 5705SOL    HW228578   2.214   1.551   0.569 -2.7937  1.5652 -0.0450
 5706SOL     OW28579   3.691   2.233   2.149 -0.1934  0.7318  0.1415
 5706SOL    HW128580   3.742   2.276   2.080 -0.1206 -1.3849 -1.1150
 5706SOL    HW228581   3.693   2.300   2.217 -2.2871 -0.2363  1.1427
 5707SOL     OW28582   4.498   0.263  14.401 -0.1210 -0.4938 -0.1213
 5707SOL    HW128583   4.441   0.330  14.439  2.7895  1.2145  1.2912
 5707SOL    HW228584   4.550   0.313  14.338  1.1075 -0.2934  1.0517
 5708SOL     OW28585   4.135   1.948  16.365  0.1512 -0.0177 -0.0218
 5708SOL    HW128586   4.191   1.978  16.293 -1.1346 -1.9906 -1.8334
 5708SOL    HW228587   4.048   1.970  16.331 -0.2240 -1.6853 -0.1472
 5709SOL     OW28588   3.936   0.242  16.049  0.1727 -0.1774  0.0721
 5709SOL    HW128589   3.972   0.207  15.968  0.9615 -0.7325  0.6714
 5709SOL    HW228590   3.998   0.314  16.060  0.9769 -0.6723 -1.1955
 5710SOL     OW28591   1.098   2.798   5.018 -0.3205 -0.2205  0.3614
 5710SOL    HW128592   1.092   2.736   5.091 -1.9433 -2.6557 -1.8151
 5710SOL    HW228593   1.080   2.884   5.056  1.1918 -0.3155  1.2742
 5711SOL     OW28594   3.093   0.699  11.917 -0.4906 -0.1748 -0.3889
 5711SOL    HW128595   3.022   0.668  11.974 -0.6897  3.2034  1.1706
 5711SOL    HW228596   3.172   0.693  11.970  0.5356  0.7815 -1.8203
 5712SOL     OW28597   1.221   2.034   1.833  0.1424  0.3200  0.4699
 5712SOL    HW128598   1.221   2.107   1.771  1.7767 -1.6591 -1.8459
 5712SOL    HW228599   1.136   2.047   1.876 -0.6705 -1.8408 -0.4928
 5713SOL     OW28600   1.179   1.542   1.274  0.5738 -0.2167 -0.3264
 5713SOL    HW128601   1.191   1.584   1.359  0.5392 -2.7940  0.9440
 5713SOL    HW228602   1.171   1.453   1.308  2.7818 -0.4756 -0.5270
 5714SOL     OW28603   0.307   2.373  15.654  0.0220 -0.3241 -0.2359
 5714SOL    HW128604   0.362   2.436  15.608  1.4245 -0.0919  1.7696
 5714SOL    HW228605   0.216   2.390  15.627  0.5571  3.0369  0.0672
 5715SOL     OW28606   4.002   0.607   7.873  0.0650  0.5162 -0.5506
 5715SOL    HW128607   3.910   0.631   7.863  0.5797  2.1798 -1.1499
 5715SOL    HW228608   4.040   0.675   7.929 -1.2012  1.4012 -0.7900
 5716SOL     OW28609   4.441   3.534   3.031 -0.3560 -0.2530  0.3731
 5716SOL    HW128610   4.368   3.505   3.086 -1.5471  1.0161 -0.5608
 5716SOL    HW228611   4.428   3.629   3.029 -2.3696 -0.5202 -0.0443
 5717SOL     OW28612   2.219   3.664   8.352 -0.3333  0.7256  0.4518
 5717SOL    HW128613   2.220   3.706   8.266 -1.2212  0.4563  0.3070
 5717SOL    HW228614   2.298   3.702   8.388 -0.7857  1.0625  1.0876
 5718SOL     OW28615   2.202   2.078   8.670 -0.1248  0.2902  0.2906
 5718SOL    HW128616   2.256   2.155   8.687  1.8134 -0.7329 -1.1813
 5718SOL    HW228617   2.122   2.127   8.656 -1.2544 -0.7312  3.1501
 5719SOL     OW28618   4.671   4.517   4.564 -0.3423 -1.2640  0.3997
 5719SOL    HW128619   4.606   4.450   4.585 -1.2127 -0.8562 -0.9815
 5719SOL    HW228620   4.724   4.466   4.502  0.1566  1.1289 -1.1298
 5720SOL     OW28621   0.151   2.255   7.032 -0.1246 -0.3158  1.0433
 5720SOL    HW128622   0.111   2.283   7.115 -2.1295  0.9321 -0.3487
 5720SOL    HW228623   0.070   2.244   6.983  0.5530  1.0523 -0.3653
 5721SOL     OW28624   0.211   0.368   6.507  0.4304  0.0571  0.7700
 5721SOL    HW128625   0.270   0.376   6.432  0.0910  0.1523  0.5140
 5721SOL    HW228626   0.257   0.310   6.569  0.4348 -1.3707 -0.5508
 5722SOL     OW28627   4.264   2.894  13.604 -0.2136 -0.0192 -0.0976
 5722SOL    HW128628   4.184   2.843  13.604  0.0898 -0.4948 -0.9901
 5722SOL    HW228629   4.308   2.861  13.682  1.0553 -0.2910 -0.9205
 5723SOL     OW28630   4.367   2.538   1.385  0.3405 -0.0985  0.3737
 5723SOL    HW128631   4.353   2.444   1.395  2.2305 -0.1815  2.2176
 5723SOL    HW228632   4.343   2.560   1.295  2.0402  2.2892  0.5148
 5724SOL     OW28633   4.135   3.928   9.001  0.4770 -0.4297 -0.4031
 5724SOL    HW128634   4.224   3.961   9.014  0.0343 -0.0612  1.7720
 5724SOL    HW228635   4.098   3.993   8.942  0.0159 -1.6528 -1.4594
 5725SOL     OW28636   4.075   3.786  17.463  0.1527 -0.1182  0.1177
 5725SOL    HW128637   4.166   3.775  17.492  0.5687 -0.0339 -1.1712
 5725SOL    HW228638   4.058   3.726  17.391  0.3889  0.7063 -0.6229
 5726SOL     OW28639   0.435   0.741   5.875 -0.1906 -0.1484 -0.1044
 5726SOL    HW128640   0.413   0.806   5.942 -2.4240 -0.9987 -0.0024
 5726SOL    HW228641   0.458   0.792   5.798  1.0121  0.3864  0.6087
 5727SOL     OW28642   1.282   3.115   4.128 -0.4128 -1.0195 -0.2068
 5727SOL    HW128643   1.199   3.138   4.168 -0.5588 -0.8625 -0.6023
 5727SOL    HW228644   1.302   3.193   4.077 -0.0773 -1.4816 -0.7900
 5728SOL     OW28645   4.426   1.929  11.095 -0.3902  0.2091 -0.5241
 5728SOL    HW128646   4.444   1.873  11.170  0.5451 -0.0609 -0.9549
 5728SOL    HW228647   4.459   2.006  11.142 -2.0129  0.3930  0.3187
 5729SOL     OW28648   0.795   0.027  10.410  0.0827  0.3327 -0.1113
 5729SOL    HW128649   0.853   0.065  10.476 -0.1853  1.9500 -0.8020
 5729SOL    HW228650   0.788   0.102  10.351 -0.3611 -1.3398 -2.1649
 5730SOL     OW28651   3.901   0.200  14.792 -0.5964 -0.4588  0.0855
 5730SOL    HW128652   3.978   0.188  14.848  0.2816 -2.3095 -1.4849
 5730SOL    HW228653   3.829   0.170  14.847 -0.8375 -0.7780 -0.3995
 5731SOL     OW28654   0.812   2.523   3.553  0.4036 -0.3236  0.1113
 5731SOL    HW128655   0.802   2.507   3.459  0.0704  0.9401 -0.0685
 5731SOL    HW228656   0.740   2.585   3.564 -0.6750 -1.5733  0.1961
 5732SOL     OW28657   3.252   0.154  11.553 -0.2226 -0.6840  0.4618
 5732SOL    HW128658   3.208   0.104  11.621  1.6261 -1.5372  1.0246
 5732SOL    HW228659   3.199   0.127  11.478 -3.4047 -1.4793  3.0647
 5733SOL     OW28660   1.099   1.494  14.326 -0.1232 -0.1699 -0.1301
 5733SOL    HW128661   1.192   1.498  14.344 -0.0141 -0.6054 -0.5961
 5733SOL    HW228662   1.098   1.489  14.230  0.2836  0.3476 -0.1619
 5734SOL     OW28663   0.049   0.006   0.372  0.1033 -0.3385 -0.2604
 5734SOL    HW128664   0.048   0.002   0.276 -0.1520 -1.9722 -0.1925
 5734SOL    HW228665   0.122   4.674   0.389  1.6826  1.3352 -1.3441
 5735SOL     OW28666   2.278   4.228   8.786  0.0350 -0.2130  0.1886
 5735SOL    HW128667   2.251   4.163   8.851  0.4530  0.2953  0.8729
 5735SOL    HW228668   2.218   4.211   8.713 -0.1529 -0.0412  0.3031
 5736SOL     OW28669   1.250   3.242   3.717 -0.0903 -0.3499  0.3067
 5736SOL    HW128670   1.186   3.255   3.647  0.6156  0.0661 -0.2536
 5736SOL    HW228671   1.213   3.293   3.789  0.7457 -0.2287  0.6396
 5737SOL     OW28672   1.310   2.204   4.579  0.5441  0.4989  0.3774
 5737SOL    HW128673   1.271   2.131   4.627 -0.7528  0.5028 -0.6719
 5737SOL    HW228674   1.306   2.169   4.490  0.1094  2.0474 -0.2127
 5738SOL     OW28675   3.640   0.294   8.470  0.2633  0.0086 -0.0546
 5738SOL    HW128676   3.705   0.263   8.406 -1.2028 -1.5289 -0.7924
 5738SOL    HW228677   3.615   0.206   8.499 -0.0737 -0.1612 -0.8539
 5739SOL     OW28678   0.031   1.282   9.712 -0.5700  0.2082 -0.3078
 5739SOL    HW128679   4.725   1.200   9.751  1.7646 -0.1129  0.9777
 5739SOL    HW228680   0.020   1.342   9.786  2.7166  0.1323  0.2409
 5740SOL     OW28681   4.233   0.594   3.301  0.4913 -0.3973  0.0593
 5740SOL    HW128682   4.270   0.648   3.231  2.1760  2.3409  3.0559
 5740SOL    HW228683   4.238   0.644   3.383  1.5777  0.6418 -0.6425
 5741SOL     OW28684   0.782   2.590   8.402 -0.1988  0.1137  0.5146
 5741SOL    HW128685   0.795   2.671   8.451 -0.4131 -1.1352  2.6522
 5741SOL    HW228686   0.825   2.525   8.458  1.5524  1.1333  0.3364
 5742SOL     OW28687   0.427   0.537   2.199 -0.4433 -0.3248 -0.1831
 5742SOL    HW128688   0.443   0.572   2.112  0.3627  0.7715  0.4185
 5742SOL    HW228689   0.340   0.576   2.211 -0.9823 -1.1079 -1.6114
 5743SOL     OW28690   2.118   3.905   2.877 -0.0840  0.4889  0.3981
 5743SOL    HW128691   2.192   3.940   2.926 -0.3285  1.0671  0.3558
 5743SOL    HW228692   2.058   3.868   2.941 -0.0104  0.3848  0.4065
 5744SOL     OW28693   3.851   2.609  10.100  0.0000 -0.3735  0.4222
 5744SOL    HW128694   3.885   2.568  10.020  1.1068  1.0521  0.1403
 5744SOL    HW228695   3.762   2.576  10.093  0.7063 -2.1161 -0.3419
 5745SOL     OW28696   4.390   0.012  11.852 -0.6795  0.3509 -0.5680
 5745SOL    HW128697   4.470   0.051  11.817 -0.1765 -0.4156 -0.2579
 5745SOL    HW228698   4.410   4.645  11.845  0.6468  0.5361  0.8104
 5746SOL     OW28699   3.882   2.043  13.601  0.0745  0.4735 -0.1803
 5746SOL    HW128700   3.966   2.002  13.581 -0.0807  0.0166  0.0787
 5746SOL    HW228701   3.851   2.050  13.511  0.7771  2.8756 -0.2244
 5747SOL     OW28702   3.902   0.181   8.355 -0.0636  0.0135 -0.3740
 5747SOL    HW128703   3.991   0.201   8.324 -0.1834  1.3701  0.1958
 5747SOL    HW228704   3.876   0.108   8.299 -0.8512 -0.6681  0.8751
 5748SOL     OW28705   0.690   4.672   1.595  0.3589  0.1881 -0.6553
 5748SOL    HW128706   0.644   4.623   1.527  0.5323 -3.3918  1.7993
 5748SOL    HW228707   0.777   4.634   1.580  0.6955 -0.9074  3.9350
 5749SOL     OW28708   1.334   2.511   3.998 -0.4486  0.0079 -0.5872
 5749SOL    HW128709   1.410   2.545   4.046 -2.5134 -0.7822  3.2275
 5749SOL    HW228710   1.279   2.588   3.982  1.0081  0.5977 -2.6348
 5750SOL     OW28711   0.538   3.804   0.955 -0.4538 -0.0663  0.1186
 5750SOL    HW128712   0.547   3.858   0.876  1.4197 -2.1050 -1.0620
 5750SOL    HW228713   0.624   3.803   0.996 -0.3435  3.4517 -0.0140
 5751SOL     OW28714   2.601   1.834   8.339 -0.4876 -0.1921  0.3130
 5751SOL    HW128715   2.694   1.854   8.336 -1.0036  2.1739  0.2954
 5751SOL    HW228716   2.598   1.776   8.415 -1.6085  0.1543  0.5405
 5752SOL     OW28717   0.511   0.654  17.698 -0.1163 -0.0524 -0.1073
 5752SOL    HW128718   0.487   0.599  17.623  2.7919  0.4500 -1.3863
 5752SOL    HW228719   0.605   0.669  17.694 -0.2053  0.4662 -0.1688
 5753SOL     OW28720   3.473   3.685   2.800  0.1821 -0.3823  0.4530
 5753SOL    HW128721   3.539   3.636   2.849  0.7457 -1.7612 -1.7094
 5753SOL    HW228722   3.402   3.623   2.789  1.9279 -2.2115 -0.4138
 5754SOL     OW28723   1.639   4.649   1.701  0.2697 -0.4079  0.2447
 5754SOL    HW128724   1.582   4.707   1.650  0.1162 -0.2616  0.5821
 5754SOL    HW228725   1.615   4.563   1.666  0.8544  0.3524 -2.0253
 5755SOL     OW28726   3.467   3.911   3.013 -0.4977  0.1118  0.1318
 5755SOL    HW128727   3.442   3.893   2.922 -0.7061 -1.4172  0.4925
 5755SOL    HW228728   3.442   4.003   3.025  2.4679  0.8922  0.5423
 5756SOL     OW28729   1.648   0.487  12.559 -0.5718  0.2732 -0.5128
 5756SOL    HW128730   1.719   0.481  12.494 -0.7169  1.3345 -0.7679
 5756SOL    HW228731   1.575   0.495  12.498 -1.0700 -0.3556  0.0007
 5757SOL     OW28732   1.290   0.422   3.120  0.6820 -0.4140 -0.2889
 5757SOL    HW128733   1.281   0.341   3.169  1.2065 -0.4874 -0.3150
 5757SOL    HW228734   1.333   0.383   3.043 -0.5595  2.2351 -2.3407
 5758SOL     OW28735   0.820   4.476  10.467 -0.0010  0.2376 -0.1413
 5758SOL    HW128736   0.907   4.450  10.496 -0.4900 -1.7477 -0.4355
 5758SOL    HW228737   0.822   4.569  10.449 -1.7825  0.7683  2.2798
 5759SOL     OW28738   3.936   2.893   9.009  0.3529  0.0514 -0.3949
 5759SOL    HW128739   4.016   2.924   9.049 -0.6898 -0.1128  1.8234
 5759SOL    HW228740   3.918   2.812   9.057  2.4341  1.3349  2.4783
 5760SOL     OW28741   2.246   3.268   8.594 -0.0365 -0.0106 -0.2700
 5760SOL    HW128742   2.315   3.231   8.538  0.0128  0.0496 -0.2495
 5760SOL    HW228743   2.172   3.212   8.571  0.3182 -0.6361  0.1021
 5761SOL     OW28744   1.381   0.001  15.630 -0.0565 -0.2832 -0.0884
 5761SOL    HW128745   1.349   4.640  15.654 -1.9976  0.3114 -0.4582
 5761SOL    HW228746   1.352   0.061  15.699 -2.0837 -1.7066  0.3206
 5762SOL     OW28747   3.136   1.682   5.354  0.4303 -0.2869 -0.4635
 5762SOL    HW128748   3.042   1.665   5.362  0.4030 -0.3120 -0.8089
 5762SOL    HW228749   3.140   1.758   5.412  0.7206  0.7100 -1.7890
 5763SOL     OW28750   1.381   0.692  11.549  0.6549 -0.5267  0.2565
 5763SOL    HW128751   1.302   0.727  11.590 -1.1131 -1.5097 -2.3032
 5763SOL    HW228752   1.379   0.731  11.462 -1.4912  0.5759  0.8216
 5764SOL     OW28753   0.557   4.389   2.278 -0.1576  0.6725  0.0319
 5764SOL    HW128754   0.612   4.365   2.352  0.6555  1.6146 -0.2595
 5764SOL    HW228755   0.618   4.369   2.207  0.0474 -2.8998  1.2472
 5765SOL     OW28756   3.502   3.157  12.603  1.0156 -0.4303  0.6244
 5765SOL    HW128757   3.479   3.166  12.695 -0.3267  0.5725  0.1904
 5765SOL    HW228758   3.553   3.235  12.582  1.5013 -1.3341 -1.5489
 5766SOL     OW28759   3.575   0.783  17.297  1.0280  0.1895 -0.2066
 5766SOL    HW128760   3.593   0.720  17.227 -0.4884  1.2333 -1.5532
 5766SOL    HW228761   3.639   0.852  17.277  0.7221  0.7207  0.6512
 5767SOL     OW28762   1.619   0.713   6.443 -0.5903  0.0391  0.4919
 5767SOL    HW128763   1.714   0.702   6.433 -0.5990  0.0163  0.4340
 5767SOL    HW228764   1.610   0.803   6.474  2.3595  0.1298  1.1081
 5768SOL     OW28765   1.168   0.224   7.782  0.4549  0.6577  0.2285
 5768SOL    HW128766   1.149   0.137   7.815  1.6274  0.8214  1.3188
 5768SOL    HW228767   1.232   0.254   7.846 -3.0847  2.8806  2.7414
 5769SOL     OW28768   0.473   3.772   5.907 -0.0187  0.0690 -0.1977
 5769SOL    HW128769   0.471   3.769   6.002 -0.4126  1.7331 -0.1468
 5769SOL    HW228770   0.527   3.694   5.893  1.4757  0.9421  0.6212
 5770SOL     OW28771   1.083   3.152   5.340 -0.4360  0.0528 -0.2409
 5770SOL    HW128772   0.989   3.140   5.330 -0.7293  1.7071  0.4399
 5770SOL    HW228773   1.095   3.117   5.428  1.3104 -3.4826 -1.8918
 5771SOL     OW28774   3.056   0.886   5.576 -0.4091  0.3056  0.3582
 5771SOL    HW128775   3.056   0.921   5.487  4.2569 -1.2229 -0.2431
 5771SOL    HW228776   3.114   0.811   5.564  1.1057  1.2881  1.4476
 5772SOL     OW28777   1.264   0.888   5.216 -0.2793 -0.6806  0.3696
 5772SOL    HW128778   1.238   0.826   5.284 -2.2274 -0.7153 -0.3936
 5772SOL    HW228779   1.302   0.964   5.260 -3.1870  0.8999  0.1556
 5773SOL     OW28780   1.213   3.227   4.904 -0.0933 -0.3723  0.3773
 5773SOL    HW128781   1.129   3.182   4.909  0.7019 -1.7825  1.1673
 5773SOL    HW228782   1.232   3.252   4.994  3.6484  0.4037 -0.6277
 5774SOL     OW28783   0.786   2.644  12.691  0.0074  0.5517  0.2783
 5774SOL    HW128784   0.761   2.560  12.728  0.0722  0.2599 -0.3493
 5774SOL    HW228785   0.841   2.610  12.620 -0.6311  1.1702 -0.5217
 5775SOL     OW28786   1.177   2.719   8.943  0.0618 -0.0279  0.0188
 5775SOL    HW128787   1.195   2.625   8.950 -0.4387 -0.1480 -0.2648
 5775SOL    HW228788   1.139   2.730   8.856 -0.3560 -0.0793  0.1930
 5776SOL     OW28789   2.106   1.794   1.516 -0.1039 -0.2843 -0.1248
 5776SOL    HW128790   2.031   1.735   1.526 -0.5185 -0.0306 -1.6173
 5776SOL    HW228791   2.082   1.867   1.572  1.4985  1.0919 -1.2388
 5777SOL     OW28792   0.660   0.846   2.474  0.1725 -0.0833  0.0671
 5777SOL    HW128793   0.623   0.828   2.388 -1.0288  0.9320  0.3849
 5777SOL    HW228794   0.699   0.933   2.476  0.3770 -0.1945  1.2290
 5778SOL     OW28795   3.487   0.784   8.700  0.5710 -0.0302 -0.2358
 5778SOL    HW128796   3.569   0.828   8.722  0.5166 -0.6166  1.1884
 5778SOL    HW228797   3.506   0.692   8.683 -0.7780 -0.7788  2.3380
 5779SOL     OW28798   4.060   2.534  17.024 -0.2369 -0.0200 -0.5801
 5779SOL    HW128799   3.970   2.517  16.994  0.4832 -1.1072 -2.1219
 5779SOL    HW228800   4.065   2.484  17.106 -0.2765 -2.1299 -1.8664
 5780SOL     OW28801   2.733   2.801  14.085  0.0755 -0.1997 -0.5838
 5780SOL    HW128802   2.706   2.892  14.068 -1.3244 -0.7069 -1.0238
 5780SOL    HW228803   2.785   2.809  14.165 -0.1556 -4.6343 -0.0282
 5781SOL     OW28804   4.611   0.109   0.562 -0.1139  0.4365 -0.1982
 5781SOL    HW128805   4.564   0.176   0.512  2.0174  2.0728  0.0193
 5781SOL    HW228806   4.663   0.070   0.492  1.5221  0.1292  1.1903
 5782SOL     OW28807   2.041   4.133  13.132  0.1846 -0.4973 -0.1692
 5782SOL    HW128808   2.049   4.038  13.143  0.3623 -0.6255 -1.3938
 5782SOL    HW228809   2.108   4.143  13.065 -0.6797  0.0899 -0.9409
 5783SOL     OW28810   1.820   0.116   6.764  0.2559  0.0246 -0.0039
 5783SOL    HW128811   1.769   0.110   6.683  0.4828 -1.2793 -0.0384
 5783SOL    HW228812   1.860   0.202   6.749  0.6370  0.0065  0.9065
 5784SOL     OW28813   2.643   1.023   3.488  0.1435 -0.4807 -0.1389
 5784SOL    HW128814   2.718   1.045   3.434  0.8745 -1.9438  0.2808
 5784SOL    HW228815   2.567   1.064   3.446 -1.1956 -2.0434  0.7143
 5785SOL     OW28816   2.716   1.556   5.531  0.4732  0.6914  0.6825
 5785SOL    HW128817   2.628   1.521   5.542  0.4018  0.6575 -0.0300
 5785SOL    HW228818   2.740   1.519   5.446 -2.4888  0.6560 -0.1249
 5786SOL     OW28819   1.096   0.994   7.168 -0.9092 -0.1831 -0.7050
 5786SOL    HW128820   1.028   0.952   7.117  0.8831 -1.4189 -2.0858
 5786SOL    HW228821   1.147   0.914   7.183 -1.3485  0.2481  3.0351
 5787SOL     OW28822   0.625   2.654   0.309  0.1920  0.1414  0.1520
 5787SOL    HW128823   0.574   2.701   0.375  1.2357  0.7934  0.4892
 5787SOL    HW228824   0.701   2.711   0.297  0.7507 -0.7363 -0.4766
 5788SOL     OW28825   2.481   3.708   8.679  0.3565  0.2600 -1.0536
 5788SOL    HW128826   2.461   3.618   8.706  0.2018  0.3472 -0.8732
 5788SOL    HW228827   2.505   3.690   8.589 -0.3288 -0.8713 -1.0037
 5789SOL     OW28828   4.088   3.738   2.456  0.1146 -0.0623 -0.3577
 5789SOL    HW128829   4.044   3.699   2.531  1.4010  0.8894  0.8790
 5789SOL    HW228830   4.171   3.690   2.463  0.2691 -0.4287 -4.3466
 5790SOL     OW28831   2.720   1.932   3.036 -0.1387 -0.6582 -0.7835
 5790SOL    HW128832   2.792   1.988   3.068  0.9593 -2.6308  0.2066
 5790SOL    HW228833   2.671   1.991   2.979 -0.3317 -0.5389 -0.4917
 5791SOL     OW28834   3.180   2.784  15.892  0.2114  0.4469  0.1242
 5791SOL    HW128835   3.216   2.853  15.947 -1.0790  1.1641  0.0716
 5791SOL    HW228836   3.191   2.712  15.954 -0.5350  1.3128  1.2615
 5792SOL     OW28837   3.598   2.893  16.361 -0.0500  0.7434 -0.2787
 5792SOL    HW128838   3.529   2.951  16.330  2.5723  2.4595 -2.9550
 5792SOL    HW228839   3.635   2.941  16.435 -1.0545 -2.6658  2.4654
 5793SOL     OW28840   0.155   1.392   1.164  0.0960  0.6007  0.6282
 5793SOL    HW128841   0.163   1.485   1.183 -0.0396  0.6470  0.4661
 5793SOL    HW228842   0.059   1.388   1.169  0.0325  1.6584  0.1289
 5794SOL     OW28843   4.208   3.725  11.797  0.0177 -0.3863  0.2465
 5794SOL    HW128844   4.267   3.756  11.728 -1.2249  1.3026 -0.0688
 5794SOL    HW228845   4.137   3.698  11.738 -0.3156 -1.3544  1.0963
 5795SOL     OW28846   2.952   0.252   5.466 -0.6466 -0.5329  0.2555
 5795SOL    HW128847   2.946   0.190   5.538 -0.6795 -0.1926  0.5468
 5795SOL    HW228848   2.900   0.208   5.399  0.5041  2.0169 -2.3190
 5796SOL     OW28849   1.461   3.045   5.342 -0.2193  1.0173 -0.5260
 5796SOL    HW128850   1.544   3.081   5.374  0.9381 -2.9260  0.8714
 5796SOL    HW228851   1.406   3.123   5.342  1.0078  1.8894 -0.5508
 5797SOL     OW28852   4.484   2.413   4.037 -0.4389 -0.0911 -1.3473
 5797SOL    HW128853   4.418   2.381   4.099  0.1764 -2.0528 -1.6916
 5797SOL    HW228854   4.556   2.354   4.057 -0.7125 -0.4441 -1.3989
 5798SOL     OW28855   3.762   1.428   3.115  0.0460  0.5169  0.1275
 5798SOL    HW128856   3.731   1.489   3.181  3.0917 -0.2518  2.2529
 5798SOL    HW228857   3.717   1.346   3.134 -0.5404  1.0933  1.1636
 5799SOL     OW28858   1.070   4.632   0.530 -0.7241  0.7408 -0.0920
 5799SOL    HW128859   1.125   4.597   0.460  0.9642 -0.9376  2.0805
 5799SOL    HW228860   1.050   4.718   0.493  2.4169  0.1325 -3.0851
 5800SOL     OW28861   1.893   3.863   8.912  0.4495  0.2908  0.4841
 5800SOL    HW128862   1.941   3.787   8.877 -0.7511  0.5705 -1.7688
 5800SOL    HW228863   1.898   3.855   9.007  0.2051  0.7963  0.5361
 5801SOL     OW28864   3.647   1.898   2.929  0.0737 -0.9053 -0.4770
 5801SOL    HW128865   3.652   1.918   2.836  1.7040  0.6746 -0.0498
 5801SOL    HW228866   3.576   1.956   2.957  0.3602 -0.6690 -0.2292
 5802SOL     OW28867   2.788   0.485  13.677 -0.3986 -0.0046 -0.5829
 5802SOL    HW128868   2.789   0.562  13.620 -1.2350  1.5750  1.5254
 5802SOL    HW228869   2.874   0.444  13.688  0.2201  1.6570  0.7503
 5803SOL     OW28870   1.400   1.568   5.363  0.0687  0.2891 -0.3072
 5803SOL    HW128871   1.481   1.518   5.358 -1.7202 -2.6359  0.2805
 5803SOL    HW228872   1.400   1.612   5.448  6.4590  1.6788 -0.9961
 5804SOL     OW28873   1.481   0.723   0.807 -0.0867 -0.2823  0.0935
 5804SOL    HW128874   1.521   0.715   0.894  0.4831  0.8460 -0.0684
 5804SOL    HW228875   1.387   0.713   0.816  0.3148 -2.6058  1.7948
 5805SOL     OW28876   2.721   3.214   1.735  0.1963  0.2929  0.5939
 5805SOL    HW128877   2.714   3.289   1.795 -0.5161  0.5971  0.1349
 5805SOL    HW228878   2.729   3.134   1.787  0.3471 -0.7712 -1.0928
 5806SOL     OW28879   1.080   3.742   5.867 -0.1451  0.8134  0.3407
 5806SOL    HW128880   1.083   3.836   5.849  3.1464  0.7544  0.6300
 5806SOL    HW228881   1.119   3.707   5.786  0.2458  0.6685  0.5934
 5807SOL     OW28882   0.327   4.550   8.856 -0.1814  0.0501  0.2866
 5807SOL    HW128883   0.309   4.512   8.942  1.4187  0.8705  0.9629
 5807SOL    HW228884   0.235   4.546   8.828 -0.0801 -3.2040  0.3633
 5808SOL     OW28885   2.638   2.165   5.639  0.1867  0.0822  0.0747
 5808SOL    HW128886   2.544   2.147   5.648  0.3018 -0.1027  0.9154
 5808SOL    HW228887   2.642   2.257   5.665  0.6921 -0.3754  1.6618
 5809SOL     OW28888   2.362   1.641   7.596 -0.5887 -0.1562 -0.5436
 5809SOL    HW128889   2.394   1.551   7.607  1.8464  0.6197 -1.1924
 5809SOL    HW228890   2.377   1.669   7.686  1.3044 -2.0064 -0.2817
 5810SOL     OW28891   0.028   0.953   2.816 -0.2540  0.0921 -0.3643
 5810SOL    HW128892   4.660   0.969   2.810 -0.6835 -1.9029  1.1339
 5810SOL    HW228893   0.039   0.901   2.736 -1.5770 -0.0756 -0.4448
 5811SOL     OW28894   2.709   4.178  12.722 -0.0992  0.3337  0.3406
 5811SOL    HW128895   2.709   4.260  12.674 -1.8323 -1.3897 -2.6084
 5811SOL    HW228896   2.792   4.141  12.694 -0.1419 -1.1980  2.1711
 5812SOL     OW28897   0.524   1.832   2.030 -0.1253 -0.3125 -0.5690
 5812SOL    HW128898   0.472   1.830   1.950  2.0841 -0.4257 -2.0055
 5812SOL    HW228899   0.470   1.773   2.082 -0.0849 -0.3854 -0.6109
 5813SOL     OW28900   2.646   0.344   5.663 -0.2966  0.0585  0.0177
 5813SOL    HW128901   2.643   0.434   5.633 -0.9954  0.6378  1.8172
 5813SOL    HW228902   2.594   0.308   5.591 -1.4388  0.3754  0.6838
 5814SOL     OW28903   2.040   1.012   9.361 -0.0760 -0.6638 -0.3269
 5814SOL    HW128904   2.101   1.056   9.420 -0.2278 -0.3579 -0.3945
 5814SOL    HW228905   1.961   1.060   9.386 -0.3868 -1.6091  0.4945
 5815SOL     OW28906   1.400   2.861  17.574 -0.1625  0.5504  0.2245
 5815SOL    HW128907   1.401   2.911  17.656  1.3676 -0.9416  1.1129
 5815SOL    HW228908   1.327   2.801  17.592  1.0004 -0.6646  0.8571
 5816SOL     OW28909   3.954   4.212   9.797  0.0979 -0.3174  0.4153
 5816SOL    HW128910   3.957   4.195   9.703  1.2873 -0.2573  0.4504
 5816SOL    HW228911   4.021   4.150   9.827  0.7910 -0.0429 -0.5816
 5817SOL     OW28912   4.559   4.051   8.288  0.0512  0.4127 -0.2361
 5817SOL    HW128913   4.565   4.104   8.367  1.4205 -1.2940  0.8325
 5817SOL    HW228914   4.646   4.010   8.293  0.9349  2.3382 -0.0571
 5818SOL     OW28915   3.635   0.960  16.956  0.6867  0.3145  0.5053
 5818SOL    HW128916   3.542   0.972  16.941  0.4016 -0.6550  1.5092
 5818SOL    HW228917   3.657   0.875  16.919 -0.5049  0.2383 -0.0066
 5819SOL     OW28918   1.551   2.764   6.548 -0.8770  0.2062 -0.2515
 5819SOL    HW128919   1.615   2.727   6.608 -1.7299  1.7725  1.6133
 5819SOL    HW228920   1.489   2.690   6.543  0.5167 -0.9922  0.2763
 5820SOL     OW28921   2.732   3.606   5.021 -0.6144 -0.2320  0.3681
 5820SOL    HW128922   2.709   3.690   4.982  2.2689  0.3621 -0.0745
 5820SOL    HW228923   2.649   3.565   4.997 -1.0178 -0.2073  1.7102
 5821SOL     OW28924   4.402   3.071   4.060 -0.5670 -0.1112  0.1772
 5821SOL    HW128925   4.478   3.023   4.026  1.4465  2.6556  0.7785
 5821SOL    HW228926   4.427   3.161   4.039  0.6871 -0.4717  0.1020
 5822SOL     OW28927   3.389   2.448  10.007  0.4248 -0.2704  0.3415
 5822SOL    HW128928   3.481   2.464   9.987 -0.3287  2.3599 -1.0018
 5822SOL    HW228929   3.387   2.401  10.091 -3.4930 -0.9947 -0.1541
 5823SOL     OW28930   0.910   1.255  12.000  0.4195 -0.0835 -0.4962
 5823SOL    HW128931   0.849   1.183  12.016 -0.3151  0.6492  0.0488
 5823SOL    HW228932   0.931   1.226  11.912  2.4652  0.7399 -0.2673
 5824SOL     OW28933   1.490   4.224  11.770  0.3067 -0.2388 -0.3610
 5824SOL    HW128934   1.583   4.246  11.763 -0.2579  2.3268  0.3053
 5824SOL    HW228935   1.460   4.311  11.744  1.8648 -0.0107 -1.4487
 5825SOL     OW28936   0.255   3.983   5.919  0.2338 -0.1989 -0.7111
 5825SOL    HW128937   0.285   4.070   5.945 -1.7955  0.8270 -1.8024
 5825SOL    HW228938   0.328   3.927   5.948  1.7524  1.4775 -1.3328
 5826SOL     OW28939   4.412   4.696   3.724  0.4741  0.5978 -0.2695
 5826SOL    HW128940   4.461   4.645   3.788  0.5126 -0.5861 -1.2579
 5826SOL    HW228941   4.459   0.053   3.715  0.0574  0.6349 -1.9401
 5827SOL     OW28942   4.042   1.804   9.646  0.3799 -0.0433 -0.1993
 5827SOL    HW128943   4.088   1.868   9.701 -0.0770  0.3087 -0.2314
 5827SOL    HW228944   3.954   1.841   9.643  0.7322  0.8543  0.2557
 5828SOL     OW28945   0.354   0.807   0.345  0.1374  0.2877  0.1208
 5828SOL    HW128946   0.339   0.771   0.258  1.3126  1.6359 -0.6451
 5828SOL    HW228947   0.290   0.878   0.336 -1.4212 -1.1739 -0.2716
 5829SOL     OW28948   2.669   2.904  15.316 -0.1939 -0.3056 -0.7354
 5829SOL    HW128949   2.609   2.834  15.290 -1.0366 -0.6960  2.2844
 5829SOL    HW228950   2.640   2.973  15.257  2.6976  0.2476 -1.5236
 5830SOL     OW28951   1.051   4.460   3.556 -0.5828 -0.0202  0.2511
 5830SOL    HW128952   0.980   4.430   3.499 -0.4941 -0.5850  0.4349
 5830SOL    HW228953   1.011   4.469   3.643 -0.6316  1.4324  0.0839
 5831SOL     OW28954   3.296   3.639  14.012  0.6013 -0.7283 -0.1711
 5831SOL    HW128955   3.289   3.660  14.105  2.2429 -0.8531 -0.0031
 5831SOL    HW228956   3.205   3.621  13.990  0.8521 -0.6619 -1.2602
 5832SOL     OW28957   1.888   3.359   8.803  0.4775  0.4509  0.4249
 5832SOL    HW128958   1.810   3.369   8.749 -1.2019 -1.4237  2.5209
 5832SOL    HW228959   1.932   3.289   8.755 -3.7855 -2.1740  0.3704
 5833SOL     OW28960   3.999   1.009  11.817  0.5700  0.4193  0.3655
 5833SOL    HW128961   4.032   1.054  11.739 -0.9311 -1.6771 -1.4571
 5833SOL    HW228962   4.013   0.916  11.801 -0.8621  0.3634 -0.5147
 5834SOL     OW28963   2.133   1.252   5.750  0.9841 -0.2440 -0.1360
 5834SOL    HW128964   2.176   1.264   5.835 -1.5009  2.4785  0.7339
 5834SOL    HW228965   2.088   1.336   5.739  0.8272 -0.7344 -3.2336
 5835SOL     OW28966   1.009   3.977  17.289 -0.6164 -0.0750 -0.5621
 5835SOL    HW128967   1.039   3.933  17.209 -3.2437  0.0085 -1.6089
 5835SOL    HW228968   0.932   3.922  17.308 -0.3402  0.6890  2.7393
 5836SOL     OW28969   0.939   3.867  16.186 -0.4986 -0.3261 -0.4367
 5836SOL    HW128970   0.937   3.920  16.266 -1.3372 -0.8372 -0.1226
 5836SOL    HW228971   0.870   3.803  16.202  1.0015 -1.1744  2.6512
 5837SOL     OW28972   4.526   0.251  12.511  0.5118 -0.2356  0.1640
 5837SOL    HW128973   4.447   0.222  12.557  0.4835 -1.3075 -0.5839
 5837SOL    HW228974   4.564   0.169  12.480  1.0262 -0.4083  1.2475
 5838SOL     OW28975   0.126   3.802  17.384 -0.0933  0.0550  0.4500
 5838SOL    HW128976   0.220   3.812  17.395  0.3198 -0.1782 -2.8631
 5838SOL    HW228977   0.090   3.886  17.411  0.4968  0.2097  0.7465
 5839SOL     OW28978   1.747   2.511  10.624  1.0038 -0.2564  0.2456
 5839SOL    HW128979   1.799   2.464  10.558  0.4487 -0.5102 -0.0076
 5839SOL    HW228980   1.806   2.484  10.695  1.6049  0.0482 -0.1350
 5840SOL     OW28981   0.879   4.447   5.220  0.4605 -0.2261  0.2108
 5840SOL    HW128982   0.866   4.353   5.213  0.1070 -0.0000 -2.2729
 5840SOL    HW228983   0.948   4.449   5.286  1.4321  1.0718 -0.8168
 5841SOL     OW28984   1.302   3.464   2.829 -0.0618  0.6268  0.4121
 5841SOL    HW128985   1.277   3.556   2.817 -0.8689  0.5940  1.8082
 5841SOL    HW228986   1.341   3.450   2.743 -0.4486 -1.9814  0.6734
 5842SOL     OW28987   3.584   3.286  14.495  0.0457  0.2173 -0.2376
 5842SOL    HW128988   3.614   3.333  14.573  0.4784  0.2900 -0.4465
 5842SOL    HW228989   3.510   3.231  14.518  0.6628  0.3483  2.0030
 5843SOL     OW28990   1.825   2.899   2.859  0.0549 -0.1261 -0.0877
 5843SOL    HW128991   1.905   2.847   2.857 -0.0458 -0.3223  0.7454
 5843SOL    HW228992   1.798   2.870   2.772 -1.3771  0.4376  0.1690
 5844SOL     OW28993   4.496   1.361  12.144  0.6208 -0.2467 -0.2441
 5844SOL    HW128994   4.422   1.332  12.199  0.8590 -2.7418 -1.2604
 5844SOL    HW228995   4.542   1.286  12.106  0.5273 -0.3698 -0.1185
 5845SOL     OW28996   1.077   4.419   6.480  0.3168  0.6597  0.2189
 5845SOL    HW128997   1.053   4.380   6.564 -1.7767 -4.3261 -2.6290
 5845SOL    HW228998   0.994   4.421   6.431  0.3528  1.4113  0.1973
 5846SOL     OW28999   0.052   0.033   4.527 -0.1099 -0.0256 -0.1204
 5846SOL    HW129000   0.131   0.024   4.580  0.7778 -0.0024 -1.4409
 5846SOL    HW229001   0.007   4.676   4.540 -0.1940 -0.1279 -1.0699
 5847SOL     OW29002   3.686   4.535   8.802  0.2729  0.1502  0.6546
 5847SOL    HW129003   3.610   4.594   8.807 -0.4654 -0.8334  1.1532
 5847SOL    HW229004   3.691   4.511   8.895  1.7331  1.1474  0.8241
 5848SOL     OW29005   2.225   2.751   4.969  0.2478 -0.5244 -0.1217
 5848SOL    HW129006   2.180   2.672   4.997  2.4249 -1.8653 -0.4591
 5848SOL    HW229007   2.149   2.798   4.935  1.3337  1.6618  0.4313
 5849SOL     OW29008   2.306   0.851   6.531 -0.3703 -0.2308 -0.0628
 5849SOL    HW129009   2.274   0.815   6.614 -0.1815 -1.3549 -0.4792
 5849SOL    HW229010   2.399   0.829   6.541 -0.0709  0.3285 -1.5903
 5850SOL     OW29011   4.194   3.058   2.011 -0.1183 -0.0388  0.1112
 5850SOL    HW129012   4.180   3.129   2.073 -4.4644  0.0086 -0.9397
 5850SOL    HW229013   4.258   3.093   1.949  1.1612  1.9942  2.6145
 5851SOL     OW29014   1.983   1.335   0.365 -0.5011 -1.1235  0.1389
 5851SOL    HW129015   2.004   1.411   0.421 -0.4176  0.0592 -1.5033
 5851SOL    HW229016   1.938   1.375   0.291 -1.7163 -0.8746  1.0112
 5852SOL     OW29017   1.373   0.095   0.148  0.1358 -0.1758 -0.3018
 5852SOL    HW129018   1.313   0.116   0.076 -1.9420  0.5424  1.6464
 5852SOL    HW229019   1.367   0.171   0.206 -0.1347 -1.1364  0.9348
 5853SOL     OW29020   3.592   1.427   2.439  0.0233  0.0869 -0.0546
 5853SOL    HW129021   3.557   1.369   2.371  2.0047  0.8129 -1.6898
 5853SOL    HW229022   3.627   1.358   2.496  0.3854  0.6066  0.3459
 5854SOL     OW29023   3.032   2.732   3.454  0.6431  0.2951 -0.1870
 5854SOL    HW129024   2.942   2.759   3.472  1.5733  3.5328 -0.3138
 5854SOL    HW229025   3.021   2.684   3.372  1.9699  0.8970 -0.7245
 5855SOL     OW29026   3.888   1.362  10.783  0.0283  0.8744  0.4271
 5855SOL    HW129027   3.954   1.308  10.827 -0.2274 -0.3178 -0.6595
 5855SOL    HW229028   3.850   1.419  10.851  0.2252  1.4863  0.0180
 5856SOL     OW29029   1.576   3.056   9.914 -0.0191 -0.4087 -0.4250
 5856SOL    HW129030   1.657   3.093   9.949 -0.1364 -0.7827  0.2513
 5856SOL    HW229031   1.508   3.091   9.972 -0.5309 -1.0039 -0.6651
 5857SOL     OW29032   1.159   4.583  16.396  0.1951 -0.3924 -0.2136
 5857SOL    HW129033   1.150   4.671  16.433  2.4306 -0.5190  0.6625
 5857SOL    HW229034   1.212   4.597  16.318  0.4774 -1.9027 -0.2899
 5858SOL     OW29035   0.708   1.269  14.658  0.5994  0.5860 -0.0821
 5858SOL    HW129036   0.785   1.223  14.691 -1.1701 -1.6621  0.9219
 5858SOL    HW229037   0.759   1.339  14.617  0.6557  0.7328  0.2361
 5859SOL     OW29038   1.689   1.268   0.377 -0.1862 -0.8604 -0.3125
 5859SOL    HW129039   1.645   1.186   0.354 -0.2639 -0.8986 -0.0222
 5859SOL    HW229040   1.780   1.267   0.345 -0.0623  0.8510 -0.0215
 5860SOL     OW29041   0.908   2.478   4.364 -0.5901 -0.1795  0.8723
 5860SOL    HW129042   0.880   2.563   4.328 -0.5113  0.1475  1.5857
 5860SOL    HW229043   0.963   2.445   4.293 -0.1828  4.0527 -0.8065
 5861SOL     OW29044   3.212   0.055   0.411 -0.6834  0.1743  0.0639
 5861SOL    HW129045   3.250   0.143   0.404  1.8839 -0.7841  1.9017
 5861SOL    HW229046   3.119   0.070   0.430 -1.1925 -1.8562 -0.7811
 5862SOL     OW29047   1.986   3.006  15.141 -0.7161  0.2180  0.0023
 5862SOL    HW129048   1.988   3.073  15.209 -0.2295  0.1867  0.0182
 5862SOL    HW229049   1.894   2.982  15.156  0.0594 -3.2565 -0.8803
 5863SOL     OW29050   1.698   0.840  14.858 -0.4937 -0.1294  0.1110
 5863SOL    HW129051   1.702   0.912  14.795  0.2402 -0.4375 -0.2048
 5863SOL    HW229052   1.623   0.859  14.914  0.4558  0.3022  1.2353
 5864SOL     OW29053   3.906   3.208  11.252 -0.7409 -0.3690  0.5007
 5864SOL    HW129054   3.896   3.168  11.339 -2.4706  0.0439  0.4899
 5864SOL    HW229055   3.824   3.185  11.210 -1.1257 -0.4666  1.3043
 5865SOL     OW29056   2.066   1.100  10.535  0.1954 -0.2427  0.1186
 5865SOL    HW129057   2.141   1.156  10.516 -0.4242  0.3107 -0.7241
 5865SOL    HW229058   2.049   1.100  10.629 -0.3883  1.2649  0.0115
 5866SOL     OW29059   3.225   0.434  15.666  0.3518 -0.7305  0.2022
 5866SOL    HW129060   3.174   0.364  15.707 -0.9061 -0.5442 -1.0372
 5866SOL    HW229061   3.156   0.496  15.642  1.4004  0.6360  0.7291
 5867SOL     OW29062   1.333   2.387   2.754 -0.2374 -0.2062  0.5799
 5867SOL    HW129063   1.277   2.378   2.676 -0.1737  1.7737  0.3071
 5867SOL    HW229064   1.267   2.401   2.822 -0.7835 -1.2406  0.2689
 5868SOL     OW29065   1.936   4.008  17.157  0.3227 -0.6193  0.2428
 5868SOL    HW129066   1.938   3.948  17.231  2.3167 -2.1997 -1.0616
 5868SOL    HW229067   2.025   4.044  17.167 -0.6813  1.1399  2.7936
 5869SOL     OW29068   4.314   3.136   8.845  0.7245  0.1547  0.3104
 5869SOL    HW129069   4.231   3.184   8.851  0.6978  0.0294  0.9958
 5869SOL    HW229070   4.374   3.200   8.882 -2.1814  2.0831  1.7374
 5870SOL     OW29071   4.653   2.398   9.515 -0.1383 -0.1624 -0.7708
 5870SOL    HW129072   4.634   2.474   9.570  1.8867  0.0053 -0.2736
 5870SOL    HW229073   0.022   2.409   9.511 -0.0531 -1.1799 -1.5289
 5871SOL     OW29074   1.520   3.548   5.172  0.2528 -0.2769  0.1042
 5871SOL    HW129075   1.511   3.627   5.226 -1.1912 -0.9704  0.8698
 5871SOL    HW229076   1.472   3.487   5.228  0.6426 -1.3435 -0.7386
 5872SOL     OW29077   0.434   2.898   6.973 -0.6931  0.3010 -0.0082
 5872SOL    HW129078   0.392   2.976   7.009  0.8648 -0.4037  3.3196
 5872SOL    HW229079   0.387   2.883   6.891 -1.5780 -0.8788  0.7108
 5873SOL     OW29080   0.131   4.430   4.380 -0.5827 -0.2026 -0.0900
 5873SOL    HW129081   0.114   4.494   4.311  2.0533 -0.7841 -1.3088
 5873SOL    HW229082   0.218   4.452   4.415 -0.2043 -1.2200 -0.3866
 5874SOL     OW29083   3.986   2.621  11.628  0.2949 -0.0123  0.0745
 5874SOL    HW129084   4.014   2.642  11.718 -1.8583  2.5682  0.1558
 5874SOL    HW229085   4.042   2.679  11.576 -2.0566  0.4951 -1.8562
 5875SOL     OW29086   4.410   3.447   5.104  0.5436 -0.4610 -0.1452
 5875SOL    HW129087   4.346   3.433   5.174  0.8372 -1.7865 -0.1360
 5875SOL    HW229088   4.363   3.483   5.028  0.8810  1.6174  0.6259
 5876SOL     OW29089   4.122   4.083  17.074  0.3215  0.5598 -0.1396
 5876SOL    HW129090   4.082   4.166  17.101  1.2807  1.4877 -1.5415
 5876SOL    HW229091   4.144   4.056  17.163 -2.4375 -1.8830 -0.1809
 5877SOL     OW29092   1.785   4.651   6.037 -0.3232  0.1518  0.0899
 5877SOL    HW129093   1.736   4.632   5.957  0.0176  1.7500 -0.4880
 5877SOL    HW229094   1.721   4.624   6.104  2.2179 -1.1614  1.9839
 5878SOL     OW29095   0.652   0.642   3.839  0.5326  0.0449  0.1102
 5878SOL    HW129096   0.682   0.554   3.813 -0.3349 -0.3624  0.5004
 5878SOL    HW229097   0.639   0.629   3.932 -0.7807  2.4840  0.2680
 5879SOL     OW29098   0.596   2.881   6.647  0.3922 -0.2209 -0.3554
 5879SOL    HW129099   0.633   2.793   6.638 -0.7763 -0.9972  2.3801
 5879SOL    HW229100   0.674   2.936   6.636  0.4320 -0.1546  0.2646
 5880SOL     OW29101   2.521   0.444   5.019  0.4323  0.0808 -0.1920
 5880SOL    HW129102   2.551   0.373   4.962 -2.0604  0.3367 -1.8301
 5880SOL    HW229103   2.606   0.457   5.060 -0.5082  2.9099  0.8348
 5881SOL     OW29104   3.403   2.456   7.719 -0.0168  0.0999  0.3787
 5881SOL    HW129105   3.447   2.474   7.636  0.8517 -0.7258  0.6581
 5881SOL    HW229106   3.346   2.383   7.694 -0.3512  0.6098 -0.3378
 5882SOL     OW29107   4.668   3.566   1.321 -0.5264 -0.1483  0.1170
 5882SOL    HW129108   4.577   3.597   1.322 -0.1121  1.0892 -1.4253
 5882SOL    HW229109   4.724   3.643   1.326 -0.8126  0.0970 -0.4707
 5883SOL     OW29110   2.896   2.039   6.579 -0.4600  0.0786 -0.1532
 5883SOL    HW129111   2.869   1.998   6.661 -0.2050  0.6391  0.2170
 5883SOL    HW229112   2.991   2.046   6.591 -0.8568  1.0768  2.3703
 5884SOL     OW29113   1.368   2.174   0.322  0.2794  0.1300 -0.0724
 5884SOL    HW129114   1.406   2.099   0.276  0.8932  0.6629 -0.4327
 5884SOL    HW229115   1.336   2.220   0.244  2.4122 -2.0343 -2.2494
 5885SOL     OW29116   0.125   2.082  10.427 -0.4121  0.3536 -0.6697
 5885SOL    HW129117   0.122   2.018  10.499  2.4891  1.5688  0.5199
 5885SOL    HW229118   0.117   2.156  10.487  1.5191 -0.5743  0.7328
 5886SOL     OW29119   0.291   1.149   7.923  0.2634  0.4198 -0.0751
 5886SOL    HW129120   0.220   1.171   7.863  1.4230  1.7731 -0.9591
 5886SOL    HW229121   0.252   1.161   8.009 -2.4366  2.0970 -1.5142
 5887SOL     OW29122   0.262   1.146   6.378  0.1317  1.0405 -0.1651
 5887SOL    HW129123   0.316   1.211   6.334  0.7191  1.1285  0.6775
 5887SOL    HW229124   0.174   1.184   6.375 -0.7791 -1.0504  0.0444
 5888SOL     OW29125   3.903   3.728   7.994 -0.0265 -0.7092  0.2459
 5888SOL    HW129126   3.932   3.726   8.085 -3.6571 -0.3938  1.3862
 5888SOL    HW229127   3.885   3.821   7.981 -0.3929 -0.6006  1.5528
 5889SOL     OW29128   2.976   4.546   0.389 -0.3053 -0.7324  0.8780
 5889SOL    HW129129   3.071   4.532   0.391  0.0545  1.4739 -0.9373
 5889SOL    HW229130   2.967   4.618   0.452 -0.2664  2.0882 -2.3399
 5890SOL     OW29131   2.703   0.777   9.482 -0.7145  0.6801 -1.0953
 5890SOL    HW129132   2.674   0.711   9.420  2.1852 -0.8753 -0.7923
 5890SOL    HW229133   2.621   0.824   9.499 -0.8068 -0.3509  1.2534
 5891SOL     OW29134   1.921   0.140   8.627  0.2774 -0.2518  0.0616
 5891SOL    HW129135   2.011   0.112   8.648  0.0227 -0.7793  0.4519
 5891SOL    HW229136   1.873   0.133   8.710 -1.3530 -0.4341 -0.9159
 5892SOL     OW29137   3.211   0.934   6.402 -0.4738 -0.1465 -0.0447
 5892SOL    HW129138   3.181   0.891   6.482  0.4684 -0.1843  0.2922
 5892SOL    HW229139   3.210   1.025   6.432  0.5092 -1.2254  3.2641
 5893SOL     OW29140   2.910   4.132   5.917 -0.0502 -0.0572  0.0193
 5893SOL    HW129141   2.995   4.156   5.881  0.1932  0.1031  0.6862
 5893SOL    HW229142   2.937   4.121   6.008 -1.3716  0.3997  0.4767
 5894SOL     OW29143   2.893   3.718   2.097 -0.4107  0.0445 -0.0213
 5894SOL    HW129144   2.831   3.708   2.170  0.2790 -0.0939  0.5504
 5894SOL    HW229145   2.833   3.744   2.028 -2.1755  0.9278  1.8371
 5895SOL     OW29146   1.706   2.262  14.556  0.2698  0.2960 -0.0554
 5895SOL    HW129147   1.615   2.274  14.527  0.9526  2.2140 -1.4194
 5895SOL    HW229148   1.733   2.353  14.568  0.9889  0.1128 -0.3315
 5896SOL     OW29149   0.563   1.534   5.191  0.0729  0.6301  0.2813
 5896SOL    HW129150   0.484   1.513   5.241  0.5015  0.1664  0.7596
 5896SOL    HW229151   0.635   1.522   5.252 -1.2383 -2.0344  1.3212
 5897SOL     OW29152   2.777   0.708   0.764 -0.4330 -0.3213  0.4475
 5897SOL    HW129153   2.685   0.731   0.755  0.0114  0.6934 -1.6619
 5897SOL    HW229154   2.773   0.661   0.847 -2.6325 -0.6929  0.1364
 5898SOL     OW29155   1.479   3.661   9.241 -0.2955  0.2715 -0.3478
 5898SOL    HW129156   1.486   3.615   9.324 -1.0127 -0.9018 -0.9248
 5898SOL    HW229157   1.564   3.705   9.238 -1.2504  2.0450 -1.8191
 5899SOL     OW29158   3.832   3.048   2.682 -0.3878 -0.1357  0.0752
 5899SOL    HW129159   3.741   3.077   2.688 -0.9165 -1.8760  0.3493
 5899SOL    HW229160   3.866   3.096   2.606  0.1330  1.6759  1.4528
 5900SOL     OW29161   0.344   1.436   2.647 -0.0123  0.2385 -0.0729
 5900SOL    HW129162   0.295   1.367   2.603 -0.4004  0.0260  0.6989
 5900SOL    HW229163   0.312   1.428   2.737  1.1972 -1.1041  0.2382
 5901SOL     OW29164   4.583   2.969   1.728 -0.3621  0.4685 -0.4749
 5901SOL    HW129165   4.623   3.051   1.698  1.2413 -0.9233 -2.1309
 5901SOL    HW229166   4.494   3.006   1.732 -0.0519  1.0704  1.0330
 5902SOL     OW29167   2.581   1.350   9.396  0.2656 -0.2430  0.3330
 5902SOL    HW129168   2.644   1.280   9.380  2.3881  1.7250 -0.0491
 5902SOL    HW229169   2.573   1.344   9.491  1.7200 -1.2045  0.3951
 5903SOL     OW29170   0.346   3.423  10.392  0.4302 -0.1350 -0.1631
 5903SOL    HW129171   0.374   3.513  10.377  1.3533 -0.1488  1.4149
 5903SOL    HW229172   0.352   3.423  10.487 -1.6353  0.0285 -0.0208
 5904SOL     OW29173   1.714   1.171   5.870 -0.0383 -0.0330  0.3564
 5904SOL    HW129174   1.798   1.164   5.915 -0.9451  2.3170  2.4331
 5904SOL    HW229175   1.728   1.255   5.826 -1.2044 -0.8501 -1.5857
 5905SOL     OW29176   1.802   2.606   8.267  0.2272 -0.0460 -0.2641
 5905SOL    HW129177   1.736   2.657   8.220  0.3267 -0.2698 -0.6419
 5905SOL    HW229178   1.767   2.517   8.270 -1.2573  0.5822  0.8020
 5906SOL     OW29179   4.434   3.322  14.720 -0.2964  0.4749  0.1304
 5906SOL    HW129180   4.425   3.417  14.719 -0.2157  0.4810 -0.0358
 5906SOL    HW229181   4.465   3.309  14.630 -0.4972  2.0390 -0.1673
 5907SOL     OW29182   4.362   1.751   1.306 -0.1984  0.0641  0.1962
 5907SOL    HW129183   4.311   1.831   1.298 -1.4238 -0.6082  1.3437
 5907SOL    HW229184   4.296   1.684   1.288  0.8491 -0.8425 -0.2750
 5908SOL     OW29185   3.248   0.931   8.663 -0.4713 -0.6048 -0.1700
 5908SOL    HW129186   3.288   1.008   8.705  1.3691 -2.2261  1.0721
 5908SOL    HW229187   3.316   0.867   8.684  1.1802  0.9452 -0.6830
 5909SOL     OW29188   1.782   3.797   0.013 -0.1501  0.3142 -0.0903
 5909SOL    HW129189   1.808   3.837  17.636 -1.6697 -1.5032 -1.4278
 5909SOL    HW229190   1.705   3.745  17.698 -0.1375  0.1371  0.2985
 5910SOL     OW29191   4.682   4.549   6.827 -0.4555 -0.0847  0.4696
 5910SOL    HW129192   4.640   4.534   6.911 -1.1116  0.5762  0.2554
 5910SOL    HW229193   4.666   4.641   6.807  0.6949  0.4494  2.0103
 5911SOL     OW29194   1.872   3.428  10.335  0.0106 -0.1693 -0.2144
 5911SOL    HW129195   1.849   3.495  10.271 -0.3775  1.3527  1.5109
 5911SOL    HW229196   1.963   3.413  10.310 -0.7000  0.6499 -3.3792
 5912SOL     OW29197   1.109   2.935   2.480 -0.8259 -0.5440 -0.2762
 5912SOL    HW129198   1.172   2.976   2.539  0.7521 -0.8757 -1.7304
 5912SOL    HW229199   1.078   3.019   2.448 -4.7822 -2.0342 -0.2874
 5913SOL     OW29200   2.780   1.256   1.277  0.0617  0.3065 -0.5845
 5913SOL    HW129201   2.746   1.321   1.338  1.5070  0.0168  0.5361
 5913SOL    HW229202   2.749   1.301   1.198  0.3546  0.7847 -0.4279
 5914SOL     OW29203   1.562   3.734   3.491  0.7048 -0.4134  0.1735
 5914SOL    HW129204   1.496   3.802   3.495  0.7728 -0.2932 -0.8051
 5914SOL    HW229205   1.578   3.751   3.398  1.6535 -2.0314  0.0292
 5915SOL     OW29206   2.018   2.930   3.910 -0.2840  0.1268  0.1588
 5915SOL    HW129207   2.040   3.003   3.968  1.3619  0.7612 -1.2672
 5915SOL    HW229208   1.991   2.860   3.970 -1.7058 -0.8946 -1.6783
 5916SOL     OW29209   3.717   3.813   3.549 -0.1389  0.7783 -0.2530
 5916SOL    HW129210   3.790   3.828   3.610  0.3961  2.2346 -1.2496
 5916SOL    HW229211   3.738   3.878   3.483 -0.8733  0.4912 -0.7697
 5917SOL     OW29212   3.756   1.965   9.572  0.1439  0.0036 -0.8485
 5917SOL    HW129213   3.671   1.965   9.528 -0.6219 -1.3643  0.5901
 5917SOL    HW229214   3.734   2.031   9.637  0.7364 -1.0639  0.4424
 5918SOL     OW29215   3.602   3.941   6.350  0.3919  0.2791  0.4866
 5918SOL    HW129216   3.559   4.023   6.374 -1.0522 -0.1965 -0.4917
 5918SOL    HW229217   3.525   3.885   6.358 -0.3081  1.0928 -0.6742
 5919SOL     OW29218   4.021   0.429   7.644 -0.1010 -0.2600  0.1974
 5919SOL    HW129219   3.949   0.391   7.695 -0.8408  0.5853 -0.2287
 5919SOL    HW229220   4.034   0.505   7.702 -2.7742 -0.1907  0.7126
 5920SOL     OW29221   1.218   2.042   2.474  0.4326  0.3021  0.4094
 5920SOL    HW129222   1.287   2.105   2.499  1.6856 -2.0515  2.8720
 5920SOL    HW229223   1.189   2.080   2.392  0.8454 -0.2794 -0.0005
 5921SOL     OW29224   4.572   2.751   3.321 -0.0252  0.5027  0.3712
 5921SOL    HW129225   4.513   2.824   3.305 -2.2477 -1.1954  0.8396
 5921SOL    HW229226   4.611   2.722   3.238 -2.1606 -0.4332 -0.3053
 5922SOL     OW29227   2.767   4.651   4.806 -0.0612 -0.0058  0.0617
 5922SOL    HW129228   2.763   4.567   4.852  3.2111 -0.4848 -0.5146
 5922SOL    HW229229   2.861   4.662   4.824 -0.1800  0.4822  0.3616
 5923SOL     OW29230   4.168   4.600   4.933 -0.6345  0.1641 -0.3618
 5923SOL    HW129231   4.200   4.689   4.919 -1.0374  0.4754  0.6850
 5923SOL    HW229232   4.122   4.582   4.851 -1.1395 -0.6281  0.0989
 5924SOL     OW29233   0.142   4.708   1.093 -0.2969  0.2481  0.0405
 5924SOL    HW129234   0.073   0.033   1.135 -1.5894 -0.7496 -0.8480
 5924SOL    HW229235   0.124   0.007   1.002 -1.3248 -0.1114  0.1417
 5925SOL     OW29236   2.847   0.547  16.290  0.4528 -0.7233 -0.0723
 5925SOL    HW129237   2.924   0.491  16.280  1.3261 -0.1236  3.1538
 5925SOL    HW229238   2.812   0.524  16.376  0.6301  0.3378  0.2795
 5926SOL     OW29239   4.426   1.412   6.984 -0.2463  0.3637 -0.0713
 5926SOL    HW129240   4.511   1.370   6.970  0.1380  0.6798  1.3501
 5926SOL    HW229241   4.384   1.374   6.907  1.5579 -2.4397  0.3345
 5927SOL     OW29242   0.947   2.413   5.092  0.2518  0.0385  0.1292
 5927SOL    HW129243   1.007   2.384   5.023  0.5182 -0.4075  0.5479
 5927SOL    HW229244   0.993   2.370   5.164  1.7115  1.8792  0.2934
 5928SOL     OW29245   4.267   2.611  14.975  0.2022 -0.0514 -0.0578
 5928SOL    HW129246   4.207   2.586  15.046  0.3012 -0.9911 -0.3142
 5928SOL    HW229247   4.222   2.589  14.893 -0.2166  0.9739 -0.1090
 5929SOL     OW29248   1.899   2.932  14.790 -0.0561  0.0971 -1.0052
 5929SOL    HW129249   1.812   2.951  14.755 -0.7487  1.1575  1.3136
 5929SOL    HW229250   1.915   2.842  14.760 -0.9358 -0.7836  1.1465
 5930SOL     OW29251   3.042   0.915   7.389  0.1338 -0.5629  0.4088
 5930SOL    HW129252   3.046   0.847   7.457 -0.2774 -0.6220  0.3738
 5930SOL    HW229253   3.121   0.908   7.335  0.5919  1.7727  0.8116
 5931SOL     OW29254   0.567   2.535  16.217  0.0478  0.3599 -0.0360
 5931SOL    HW129255   0.641   2.492  16.173  0.3749 -1.5749  2.3803
 5931SOL    HW229256   0.589   2.628  16.216 -1.8610  0.7837 -1.0651
 5932SOL     OW29257   1.330   3.280  11.543  0.4268  0.1443 -0.3276
 5932SOL    HW129258   1.376   3.350  11.497  0.5981  0.4022  0.2425
 5932SOL    HW229259   1.387   3.203  11.535 -0.0812 -0.2680 -0.0172
 5933SOL     OW29260   1.574   3.731   6.842  0.0394  0.7523  0.4097
 5933SOL    HW129261   1.589   3.743   6.935  1.6109 -1.7014  0.4911
 5933SOL    HW229262   1.551   3.820   6.817 -2.1769 -0.3216 -1.3212
 5934SOL     OW29263   0.558   2.511   9.172 -0.2028 -0.0420 -0.2960
 5934SOL    HW129264   0.475   2.542   9.208  0.2255 -1.0917  1.5778
 5934SOL    HW229265   0.610   2.591   9.176 -2.7311  1.6209 -0.8496
 5935SOL     OW29266   1.510   1.096   0.270  0.0023 -0.1826  0.0925
 5935SOL    HW129267   1.520   1.001   0.281 -2.5659 -0.6500 -1.6728
 5935SOL    HW229268   1.502   1.102   0.175  0.3770  0.6096  0.1067
 5936SOL     OW29269   0.944   0.389   5.466  0.2434  0.0307  0.1055
 5936SOL    HW129270   0.948   0.399   5.371  0.1731 -0.5354  0.0440
 5936SOL    HW229271   0.911   0.476   5.486 -2.6205 -1.3889  1.5090
 5937SOL     OW29272   3.293   0.621   4.606 -0.1095 -0.0874  0.3523
 5937SOL    HW129273   3.203   0.590   4.601 -0.4934  1.2111 -0.6341
 5937SOL    HW229274   3.286   0.707   4.646 -0.2592 -0.4540  1.1105
 5938SOL     OW29275   1.146   1.951   4.170 -0.0822  0.7203  0.3396
 5938SOL    HW129276   1.189   1.970   4.087  1.1610 -1.0832  0.5821
 5938SOL    HW229277   1.085   1.880   4.150 -0.9404  1.2639  1.0067
 5939SOL     OW29278   0.584   1.535   7.821  0.4668 -0.7655 -0.1872
 5939SOL    HW129279   0.592   1.440   7.832  2.3983 -0.6151 -0.2735
 5939SOL    HW229280   0.618   1.563   7.905 -1.6228  0.3413  0.2869
 5940SOL     OW29281   3.890   2.187   3.482  0.4802  0.3331  0.0946
 5940SOL    HW129282   3.918   2.157   3.395 -0.3215  0.4906 -0.2125
 5940SOL    HW229283   3.833   2.260   3.457  3.0348  2.1846 -0.3268
 5941SOL     OW29284   4.632   0.129   9.378  0.5578 -0.5904  0.1881
 5941SOL    HW129285   4.557   0.188   9.385  1.0998  0.0204  0.7799
 5941SOL    HW229286   4.660   0.134   9.469  1.8085  2.9862 -0.3715
 5942SOL     OW29287   3.471   1.382  17.235  0.2747  0.3435  0.2301
 5942SOL    HW129288   3.432   1.322  17.299 -1.4110  1.0875 -0.0878
 5942SOL    HW229289   3.432   1.468  17.254 -1.1493  0.3024 -2.4922
 5943SOL     OW29290   0.985   2.678   4.793  0.2078 -0.4389  0.3910
 5943SOL    HW129291   1.068   2.708   4.755 -0.3564 -0.5249 -0.8993
 5943SOL    HW229292   1.015   2.683   4.884  1.9020 -0.2620 -0.1762
 5944SOL     OW29293   1.752   2.033   5.901 -0.1880 -0.2826 -0.3586
 5944SOL    HW129294   1.803   2.005   5.826  2.5803  1.3036  0.9342
 5944SOL    HW229295   1.813   2.017   5.973  0.1154  1.5909 -0.1922
 5945SOL     OW29296   4.136   3.639  12.779  0.1733  0.5604  0.6656
 5945SOL    HW129297   4.217   3.689  12.792  1.7816 -1.2829 -2.1484
 5945SOL    HW229298   4.070   3.697  12.817 -0.5812  2.1530 -3.0584
 5946SOL     OW29299   2.764   4.005   4.712 -0.4706  0.0187 -0.7318
 5946SOL    HW129300   2.699   3.948   4.754 -0.7225  0.2281 -0.8389
 5946SOL    HW229301   2.720   4.084   4.681 -1.5959  0.6178  2.4382
 5947SOL     OW29302   2.628   1.097   7.871 -0.1119 -0.5240 -0.4028
 5947SOL    HW129303   2.597   1.187   7.882 -0.0494 -0.5045 -0.3816
 5947SOL    HW229304   2.565   1.043   7.918  1.0658  0.0310  1.7955
 5948SOL     OW29305   4.371   4.502   7.980  0.2913  0.2328 -0.0021
 5948SOL    HW129306   4.462   4.513   7.952 -0.7138  1.6984 -2.7053
 5948SOL    HW229307   4.373   4.539   8.068  3.0516 -1.4533  0.6325
 5949SOL     OW29308   3.437   1.364   3.361 -0.5424 -0.7564 -0.8122
 5949SOL    HW129309   3.466   1.349   3.271 -0.6123  1.3637 -1.1778
 5949SOL    HW229310   3.478   1.288   3.402  2.2608  1.9435  1.3292
 5950SOL     OW29311   1.431   2.765  15.155  0.0018  0.1555 -0.1961
 5950SOL    HW129312   1.440   2.766  15.060 -1.3147  3.2610 -0.2894
 5950SOL    HW229313   1.443   2.860  15.168  1.9048 -0.0025 -0.7917
 5951SOL     OW29314   0.545   4.080   2.522  0.7491  0.1886  0.0057
 5951SOL    HW129315   0.591   4.159   2.494  1.9605 -0.4510  0.1972
 5951SOL    HW229316   0.571   4.070   2.614  3.6108 -2.0521 -1.0443
 5952SOL     OW29317   1.395   1.656   2.187  0.0466 -0.4220  0.7738
 5952SOL    HW129318   1.362   1.592   2.250 -2.5137  0.3181  0.1841
 5952SOL    HW229319   1.338   1.635   2.113 -2.5196 -0.6730  2.8187
 5953SOL     OW29320   4.629   1.851  10.260 -0.0424  0.4264 -0.0457
 5953SOL    HW129321   4.632   1.871  10.167  0.7848 -0.7815 -0.2800
 5953SOL    HW229322   4.700   1.787  10.267 -0.5115  0.0545  1.2541
 5954SOL     OW29323   3.616   2.675  12.172  0.5401 -0.5352  0.3732
 5954SOL    HW129324   3.529   2.635  12.169  0.7826 -1.0217 -0.2172
 5954SOL    HW229325   3.667   2.637  12.100  0.6883  1.2516 -0.4781
 5955SOL     OW29326   3.025   2.586   4.205 -0.2345 -0.5888  0.3005
 5955SOL    HW129327   3.035   2.500   4.245  0.3050  0.2595  1.9629
 5955SOL    HW229328   3.031   2.648   4.278  1.7115  1.3892 -1.5291
 5956SOL     OW29329   2.800   1.140  14.783  0.2920 -0.5208 -0.7285
 5956SOL    HW129330   2.750   1.066  14.817 -1.3047  0.3469 -1.2084
 5956SOL    HW229331   2.888   1.115  14.813  0.2303 -1.2881 -1.1963
 5957SOL     OW29332   0.354   0.478   2.782  0.0853  0.0195  0.5061
 5957SOL    HW129333   0.308   0.394   2.787  0.4414 -0.2877 -1.1922
 5957SOL    HW229334   0.302   0.513   2.710  1.1159  1.3001  0.3996
 5958SOL     OW29335   1.618   0.943  16.648 -0.0951  0.3175 -0.0337
 5958SOL    HW129336   1.628   1.026  16.695 -1.6748 -0.6001  1.9324
 5958SOL    HW229337   1.629   0.972  16.558  0.1630  0.8626  0.1690
 5959SOL     OW29338   2.973   4.111  12.644 -0.4574  0.3771  0.1947
 5959SOL    HW129339   3.025   4.108  12.724  1.1637  3.0041 -0.7620
 5959SOL    HW229340   3.046   4.082  12.591 -1.2876  1.2711 -1.4326
 5960SOL     OW29341   1.388   4.091   4.912 -0.1729  0.3118 -0.2836
 5960SOL    HW129342   1.330   4.150   4.961 -1.2308 -1.9313  1.1446
 5960SOL    HW229343   1.408   4.145   4.836  0.0213 -0.8816 -1.0830
 5961SOL     OW29344   3.537   1.685   6.399 -0.1303  0.0705 -0.0242
 5961SOL    HW129345   3.458   1.644   6.433 -0.1574 -1.4697 -1.9875
 5961SOL    HW229346   3.588   1.685   6.480  2.4940 -2.9813 -1.7142
 5962SOL     OW29347   4.612   0.103   8.768  0.3127  0.0987 -0.8772
 5962SOL    HW129348   4.577   0.105   8.857 -1.7152 -0.1228 -1.6662
 5962SOL    HW229349   4.654   0.187   8.752 -0.1193  0.8024  1.7471
 5963SOL     OW29350   0.820   0.550   2.974 -0.2433  0.2361  0.3178
 5963SOL    HW129351   0.780   0.517   2.894  2.6760  1.4190 -1.6379
 5963SOL    HW229352   0.896   0.493   2.982 -2.4806 -2.7611  0.2391
 5964SOL     OW29353   3.311   1.550   6.439 -0.4346  0.3409 -0.0685
 5964SOL    HW129354   3.222   1.528   6.412 -0.2609  1.4340 -1.5781
 5964SOL    HW229355   3.353   1.464   6.449 -0.4022  0.4790  0.9305
 5965SOL     OW29356   4.306   3.952   5.218 -0.1514  0.5608  0.1136
 5965SOL    HW129357   4.283   3.861   5.238  0.1201  0.6467  0.8108
 5965SOL    HW229358   4.331   3.942   5.126  0.4266 -0.6634  0.3996
 5966SOL     OW29359   0.153   1.331   0.908 -0.2122  0.2766 -0.6162
 5966SOL    HW129360   0.188   1.242   0.910  0.8532  0.7075  0.1368
 5966SOL    HW229361   0.163   1.358   1.000 -1.4001 -1.4100  0.0090
 5967SOL     OW29362   0.577   1.757   8.965 -0.0486 -0.7532 -1.1623
 5967SOL    HW129363   0.492   1.779   9.005  0.3669  0.5228 -0.9585
 5967SOL    HW229364   0.596   1.842   8.925  0.3804 -0.4583 -0.3312
 5968SOL     OW29365   2.060   3.872  12.945  1.2717  0.8396 -0.3429
 5968SOL    HW129366   1.975   3.830  12.961  2.1174 -1.1157 -0.9882
 5968SOL    HW229367   2.086   3.867  13.037 -0.4360  1.9856  0.2161
 5969SOL     OW29368   4.031   2.279   1.558 -0.1347  0.6317  0.1088
 5969SOL    HW129369   4.083   2.342   1.609  1.5310  0.0683 -0.9070
 5969SOL    HW229370   4.030   2.212   1.627 -1.0416  0.4523 -0.0766
 5970SOL     OW29371   0.843   0.924   6.992 -0.4993 -0.1681  0.3359
 5970SOL    HW129372   0.789   0.848   6.970  0.5514 -0.6931 -0.4851
 5970SOL    HW229373   0.897   0.926   6.913 -0.7136 -0.0383  0.1936
 5971SOL     OW29374   3.961   4.156  16.636 -0.3245  0.3831 -0.2992
 5971SOL    HW129375   3.960   4.226  16.701  0.4695 -1.1389  1.3492
 5971SOL    HW229376   4.003   4.089  16.689  1.8708 -0.1404 -2.7020
 5972SOL     OW29377   0.423   4.269  13.893  0.2372 -0.0205 -0.6347
 5972SOL    HW129378   0.442   4.316  13.812  0.2833  1.1704  0.0645
 5972SOL    HW229379   0.474   4.324  13.953 -1.2687  1.0795 -0.3720
 5973SOL     OW29380   2.914   1.309   7.962  0.2488 -0.0337  0.0021
 5973SOL    HW129381   2.885   1.398   7.983 -1.0668 -0.4358 -0.1685
 5973SOL    HW229382   2.856   1.261   8.021  2.0575 -2.4106 -0.1314
 5974SOL     OW29383   3.268   0.103   7.569  0.7450 -0.3161 -0.1924
 5974SOL    HW129384   3.268   0.092   7.474 -1.2153 -0.3125 -0.1818
 5974SOL    HW229385   3.249   0.013   7.596  1.1804  0.0431  1.3412
 5975SOL     OW29386   2.444   3.419   8.692  0.8421 -0.2700  0.5022
 5975SOL    HW129387   2.360   3.387   8.659  0.3432  0.7447  0.7892
 5975SOL    HW229388   2.465   3.366   8.768  3.9326  1.8918  1.1708
 5976SOL     OW29389   1.497   2.140   1.156  0.1543  0.2701  0.0544
 5976SOL    HW129390   1.588   2.167   1.167  1.3662 -3.7136 -0.2021
 5976SOL    HW229391   1.509   2.068   1.095  2.6507 -0.8599  1.9135
 5977SOL     OW29392   2.230   0.629  16.647 -0.7532 -0.9563 -0.3516
 5977SOL    HW129393   2.208   0.578  16.724  0.0846  1.2254  1.3256
 5977SOL    HW229394   2.219   0.714  16.690 -1.6190  0.0496 -2.5220
 5978SOL     OW29395   2.089   2.682   7.315  0.3897 -0.0306 -0.0237
 5978SOL    HW129396   2.170   2.663   7.268  0.3015  0.6224 -0.4393
 5978SOL    HW229397   2.112   2.692   7.407 -1.1955 -1.7714  0.5760
 5979SOL     OW29398   2.894   1.826   8.290 -0.9767 -0.4430  0.0932
 5979SOL    HW129399   2.953   1.840   8.365  0.4307  0.1067 -1.1288
 5979SOL    HW229400   2.915   1.735   8.267  0.3631 -0.5022  1.4728
 5980SOL     OW29401   1.323   2.924  16.555  0.0306 -0.4919  0.3671
 5980SOL    HW129402   1.391   2.955  16.495  1.2164 -0.5809  1.6547
 5980SOL    HW229403   1.330   2.831  16.575  0.4989 -0.6239 -0.4242
 5981SOL     OW29404   2.599   3.213   8.189 -0.5947 -0.0627 -0.2064
 5981SOL    HW129405   2.645   3.296   8.190  0.9052 -0.9401  2.2258
 5981SOL    HW229406   2.665   3.146   8.171 -1.6356 -1.2766  0.4867
 5982SOL     OW29407   1.273   0.554  10.353  0.9697  0.4574  0.3359
 5982SOL    HW129408   1.358   0.558  10.309 -0.3419 -0.0020 -2.2234
 5982SOL    HW229409   1.240   0.642  10.333 -0.6987 -0.4812 -0.9805
 5983SOL     OW29410   1.222   2.597   4.336  0.4252  0.0964  0.0088
 5983SOL    HW129411   1.172   2.673   4.304 -0.0878 -0.3326 -0.2136
 5983SOL    HW229412   1.306   2.617   4.295  0.7774 -0.0863  0.6410
 5984SOL     OW29413   3.413   4.377   3.782  0.4365  0.4890 -0.1082
 5984SOL    HW129414   3.344   4.443   3.773  0.0376 -0.0998 -1.4166
 5984SOL    HW229415   3.365   4.312   3.833 -0.7170  0.9413 -0.6113
 5985SOL     OW29416   2.021   1.011   5.740  0.4040  0.3502 -0.2607
 5985SOL    HW129417   1.985   1.046   5.821  1.6309  0.5686  0.1870
 5985SOL    HW229418   2.098   1.067   5.732  0.8816 -0.0408  1.5521
 5986SOL     OW29419   2.976   0.807  16.412 -0.4439 -0.3307  0.6403
 5986SOL    HW129420   2.947   0.719  16.387 -0.6467  0.4655 -1.8725
 5986SOL    HW229421   2.977   0.800  16.508 -0.4126 -1.4118  0.5547
 5987SOL     OW29422   3.047   0.906   4.441  0.2665  0.4376  0.1097
 5987SOL    HW129423   3.035   0.978   4.378  0.1873 -0.7422 -1.2378
 5987SOL    HW229424   3.066   0.833   4.382 -0.9892  0.0316  0.2101
 5988SOL     OW29425   0.119   2.539   7.398 -0.3619  0.0359  0.0748
 5988SOL    HW129426   0.125   2.447   7.373 -0.9621  0.5757 -2.0905
 5988SOL    HW229427   0.147   2.585   7.319 -0.9824  0.6974  0.2381
 5989SOL     OW29428   2.800   4.677   9.737 -0.2867 -0.0658  0.3450
 5989SOL    HW129429   2.828   0.042   9.732  0.9964 -0.4966 -0.2673
 5989SOL    HW229430   2.878   4.646   9.783 -0.5447 -2.2898 -0.7356
 5990SOL     OW29431   4.276   4.312  14.429  0.6579  0.3654 -0.2924
 5990SOL    HW129432   4.199   4.344  14.382 -0.2439 -1.1233  0.1551
 5990SOL    HW229433   4.344   4.377  14.410  0.5870  0.6219  0.3578
 5991SOL     OW29434   0.023   1.539   7.056  0.3338 -0.6422  0.3176
 5991SOL    HW129435   0.071   1.562   6.977 -0.2832  0.8425  0.3784
 5991SOL    HW229436   4.712   1.624   7.079  1.4456  0.4852 -2.0149
 5992SOL     OW29437   2.702   0.517   0.953  0.0686  0.1313 -0.5444
 5992SOL    HW129438   2.755   0.437   0.960  0.8671  0.7387  0.3250
 5992SOL    HW229439   2.612   0.486   0.941 -0.7646  1.0795  3.2601
 5993SOL     OW29440   4.627   4.296   8.484 -0.1511 -0.7382 -0.1360
 5993SOL    HW129441   4.605   4.331   8.570 -2.1719  1.4356 -1.5379
 5993SOL    HW229442   4.606   4.374   8.432 -1.9449  0.2322  2.0584
 5994SOL     OW29443   3.961   2.250  16.701  0.1908  0.1850 -0.3073
 5994SOL    HW129444   3.881   2.239  16.649  0.0552 -3.0393  0.6339
 5994SOL    HW229445   3.934   2.243  16.793 -2.0616 -0.7261 -1.0430
 5995SOL     OW29446   3.050   1.892   8.529  0.4573 -0.0511  0.2146
 5995SOL    HW129447   3.135   1.851   8.545  0.7434  0.9244  1.1879
 5995SOL    HW229448   3.067   1.979   8.566  1.8545 -0.0638 -0.3962
 5996SOL     OW29449   1.834   0.053   2.954  0.0066 -0.4548 -0.1374
 5996SOL    HW129450   1.834   4.712   3.023  0.4329  1.2588  1.5523
 5996SOL    HW229451   1.880   0.123   3.002 -0.4246 -0.6705  0.6012
 5997SOL     OW29452   0.937   0.981  12.253  0.1062  0.1575  0.0095
 5997SOL    HW129453   0.976   1.005  12.337 -0.5387  1.0702  0.0538
 5997SOL    HW229454   0.888   0.903  12.280  0.1425  0.9265  2.3175
 5998SOL     OW29455   2.785   3.942  12.129 -0.0383  0.7842  0.0376
 5998SOL    HW129456   2.773   3.895  12.212 -1.8220  0.2132 -0.5475
 5998SOL    HW229457   2.696   3.928  12.099 -0.6478  2.2957  1.1557
 5999SOL     OW29458   3.316   1.589  17.035 -0.4608 -0.2064 -0.8736
 5999SOL    HW129459   3.274   1.675  17.037 -0.3949 -0.3168  4.2439
 5999SOL    HW229460   3.407   1.595  17.064 -0.8871  0.0666  0.3913
 6000SOL     OW29461   1.451   4.489   5.361 -0.5608  0.0149  0.5598
 6000SOL    HW129462   1.496   4.572   5.381 -0.6621  0.4067 -0.8854
 6000SOL    HW229463   1.509   4.423   5.400 -1.2914  0.3614  2.2660
 6001SOL     OW29464   3.998   1.214   6.672 -0.1149 -0.9524  0.0431
 6001SOL    HW129465   3.968   1.124   6.668 -2.0412 -0.3491  0.6417
 6001SOL    HW229466   4.078   1.221   6.620 -1.7694  2.0394 -2.0776
 6002SOL     OW29467   0.270   3.352   1.916 -0.3418 -0.3292  0.1472
 6002SOL    HW129468   0.246   3.288   1.849 -2.1251  1.0073 -0.4806
 6002SOL    HW229469   0.363   3.333   1.930 -0.0126  1.2812  0.0875
 6003SOL     OW29470   4.124   2.504   7.403  0.0226  0.4188  0.2207
 6003SOL    HW129471   4.089   2.530   7.318 -2.1559 -0.5021  0.8324
 6003SOL    HW229472   4.174   2.428   7.374 -0.4962 -0.9858  2.9548
 6004SOL     OW29473   4.591   4.084   4.981  0.1529  0.5016  0.0842
 6004SOL    HW129474   4.671   4.128   4.952  0.8572 -0.3619  0.7099
 6004SOL    HW229475   4.533   4.091   4.905  1.5773  1.8516 -0.8728
 6005SOL     OW29476   2.276   0.965   4.763  0.4202  0.2497  0.2837
 6005SOL    HW129477   2.334   0.894   4.736 -1.9268 -1.6584  0.1796
 6005SOL    HW229478   2.227   0.982   4.682 -0.9031  1.0353  1.2546
 6006SOL     OW29479   3.189   3.014   1.189  0.8272  0.2133  0.2792
 6006SOL    HW129480   3.263   2.975   1.236  1.4411  1.3395  0.2609
 6006SOL    HW229481   3.153   2.936   1.147  0.2511  0.4757  0.2938
 6007SOL     OW29482   3.411   3.512  12.450 -0.3536 -0.3874  0.0688
 6007SOL    HW129483   3.489   3.459  12.433  0.4507  0.1090  2.2161
 6007SOL    HW229484   3.393   3.559  12.368  0.4382 -0.6397 -0.2543
 6008SOL     OW29485   3.619   3.891   6.817  0.7975  0.0810 -0.1105
 6008SOL    HW129486   3.550   3.935   6.767  0.6318 -0.5985 -0.4729
 6008SOL    HW229487   3.571   3.876   6.899  2.7711  1.6858  1.3372
 6009SOL     OW29488   1.214   2.915  12.697 -0.2032  0.1958  0.7266
 6009SOL    HW129489   1.153   2.891  12.766  0.1056  2.2874  1.7288
 6009SOL    HW229490   1.149   2.931  12.629  2.1445 -2.2908 -2.1260
 6010SOL     OW29491   3.778   3.843  12.694  0.2473 -0.3681 -0.0681
 6010SOL    HW129492   3.712   3.843  12.764 -1.6944 -0.2533 -1.8791
 6010SOL    HW229493   3.860   3.841  12.743 -1.3223 -1.2449  2.5479
 6011SOL     OW29494   0.308   2.780   4.951 -0.2242  0.0561  0.0288
 6011SOL    HW129495   0.375   2.767   5.017 -0.6550 -2.6268 -0.0850
 6011SOL    HW229496   0.313   2.710   4.886  1.9921 -1.4568  1.8613
 6012SOL     OW29497   2.236   0.314   4.005 -0.2179 -0.2927  0.3108
 6012SOL    HW129498   2.181   0.260   3.949  0.5053 -0.3281 -0.3667
 6012SOL    HW229499   2.255   0.389   3.949 -1.5863  1.5371  2.2958
 6013SOL     OW29500   3.895   0.414  12.219 -0.1810  0.2643  0.2342
 6013SOL    HW129501   3.801   0.400  12.207 -0.8080  3.8054  1.1237
 6013SOL    HW229502   3.919   0.397  12.128  2.1812 -1.9662  1.2535
 6014SOL     OW29503   2.037   3.606  12.235  0.3650 -0.2828 -0.3026
 6014SOL    HW129504   2.005   3.579  12.320  1.3600 -2.7689 -0.7051
 6014SOL    HW229505   1.977   3.678  12.217  1.1776 -0.1873 -2.6961
 6015SOL     OW29506   3.689   2.734  12.415 -0.2774 -0.4890  0.0670
 6015SOL    HW129507   3.667   2.740  12.322  1.6257  0.9418 -0.2942
 6015SOL    HW229508   3.616   2.686  12.454  0.1026 -1.4032 -0.3495
 6016SOL     OW29509   3.905   2.162   7.509  0.1423 -0.7376  0.4374
 6016SOL    HW129510   3.833   2.114   7.469 -0.5269  0.6160  0.0225
 6016SOL    HW229511   3.960   2.179   7.433 -2.5619  3.1105 -0.6417
 6017SOL     OW29512   2.237   0.498   3.822  0.3238  0.7018 -0.0629
 6017SOL    HW129513   2.157   0.537   3.857 -0.3560 -0.4274 -0.3327
 6017SOL    HW229514   2.248   0.552   3.744 -1.3969  0.1830 -0.6637
 6018SOL     OW29515   4.513   2.677   3.987 -0.3362 -0.1820  0.4263
 6018SOL    HW129516   4.503   2.590   4.025 -3.9319 -0.2103 -0.6198
 6018SOL    HW229517   4.460   2.683   3.908  0.8728  2.1552 -0.2219
 6019SOL     OW29518   2.046   4.254  16.235 -0.1454  0.2964  0.1460
 6019SOL    HW129519   2.050   4.349  16.247 -1.0819  0.6000 -1.9367
 6019SOL    HW229520   2.109   4.247  16.164  0.4721  0.3608  0.6975
 6020SOL     OW29521   0.901   1.519  17.345 -0.0738  0.1590 -0.3300
 6020SOL    HW129522   0.890   1.609  17.314 -0.0989 -0.4055 -1.9831
 6020SOL    HW229523   0.994   1.516  17.364 -0.6423  0.1013  2.4330
 6021SOL     OW29524   4.125   3.676   9.348  0.1183  0.0416 -0.4223
 6021SOL    HW129525   4.150   3.613   9.281 -2.1442  0.8048 -1.9635
 6021SOL    HW229526   4.171   3.758   9.327 -0.4136  0.4389 -0.0339
 6022SOL     OW29527   1.107   3.467   2.312 -0.4479  0.0786 -0.1758
 6022SOL    HW129528   1.172   3.472   2.242 -1.1457 -0.8695 -0.8919
 6022SOL    HW229529   1.098   3.374   2.335 -1.2818  0.4162  0.8435
 6023SOL     OW29530   0.202   2.293   8.829 -0.5881 -0.4356 -0.0310
 6023SOL    HW129531   0.219   2.242   8.908  0.3950  1.4544  0.9870
 6023SOL    HW229532   0.167   2.367   8.880  0.6150  2.4495 -3.3828
 6024SOL     OW29533   0.660   2.203   8.462 -0.2111  0.1185 -0.1105
 6024SOL    HW129534   0.583   2.256   8.485  0.5441  1.4117 -0.5822
 6024SOL    HW229535   0.711   2.206   8.542 -2.1321 -1.1344  1.1531
 6025SOL     OW29536   4.531   1.336   5.206 -0.2967  0.0286  0.0403
 6025SOL    HW129537   4.607   1.345   5.148 -0.1165 -1.1936  0.0907
 6025SOL    HW229538   4.464   1.396   5.172 -0.2784  0.1141  0.1547
 6026SOL     OW29539   4.397   0.387  12.179 -0.1431  0.1591  0.2589
 6026SOL    HW129540   4.482   0.363  12.217 -0.2423 -2.6640 -1.3342
 6026SOL    HW229541   4.407   0.481  12.194  0.6688  0.1897 -0.4622
 6027SOL     OW29542   2.755   0.413  10.027 -0.1255 -0.4593  0.3093
 6027SOL    HW129543   2.827   0.475  10.039  1.4672 -2.3264  0.5255
 6027SOL    HW229544   2.788   0.339  10.079 -0.5126 -0.0841  1.0906
 6028SOL     OW29545   1.661   2.791   4.479  0.4446 -0.0860  0.9040
 6028SOL    HW129546   1.583   2.833   4.441 -0.2040 -1.3487  0.8487
 6028SOL    HW229547   1.707   2.872   4.501  2.3748 -0.4783 -1.8076
 6029SOL     OW29548   0.535   2.458  16.489  0.6153 -0.6992 -0.1934
 6029SOL    HW129549   0.550   2.504  16.406  0.1830  1.2543  0.8112
 6029SOL    HW229550   0.441   2.463  16.471  0.1821  0.1529  2.4463
 6030SOL     OW29551   4.488   1.206   3.926 -0.1303 -0.0405 -0.1758
 6030SOL    HW129552   4.505   1.291   3.887 -1.1573  0.4557  0.4587
 6030SOL    HW229553   4.463   1.231   4.015  1.3187 -1.3157  0.6034
 6031SOL     OW29554   2.997   0.937   7.069  0.1125 -0.3968  0.1761
 6031SOL    HW129555   2.965   0.865   7.123 -0.5014  0.2560  0.6822
 6031SOL    HW229556   2.990   1.015   7.124  1.1922 -0.7269  0.7728
 6032SOL     OW29557   0.935   3.915  16.667  0.4939 -0.0915 -0.1928
 6032SOL    HW129558   0.976   3.938  16.750  0.9384  1.6810 -0.9110
 6032SOL    HW229559   0.860   3.973  16.655  1.5763  1.7166  1.7746
 6033SOL     OW29560   3.736   0.771   8.959 -0.0400 -0.0716 -0.6227
 6033SOL    HW129561   3.804   0.707   8.979  0.1881  1.7725  4.3445
 6033SOL    HW229562   3.751   0.777   8.865 -0.4004 -0.6472 -0.7189
 6034SOL     OW29563   0.979   3.826  12.240  0.3528 -0.1079 -0.1102
 6034SOL    HW129564   1.012   3.896  12.184  0.6614  1.1883  1.7045
 6034SOL    HW229565   0.905   3.794  12.189 -2.4256  2.6198  2.2481
 6035SOL     OW29566   4.546   0.531   7.911 -0.1526  0.3791  0.0876
 6035SOL    HW129567   4.496   0.450   7.909 -1.3107  1.1779 -2.6415
 6035SOL    HW229568   4.477   0.593   7.889 -0.5192  0.1726  0.6646
 6036SOL     OW29569   1.559   1.923  12.320 -0.0807  0.2260  0.0151
 6036SOL    HW129570   1.483   1.955  12.368 -0.5433 -2.7677  1.2605
 6036SOL    HW229571   1.595   1.863  12.386  0.9396  1.0558  0.2228
 6037SOL     OW29572   3.382   0.441  12.179  0.4623 -0.0959 -0.3266
 6037SOL    HW129573   3.292   0.475  12.173  0.4138  0.0748  1.3619
 6037SOL    HW229574   3.417   0.453  12.091  0.9588 -0.7494 -0.2154
 6038SOL     OW29575   2.733   2.644   1.428 -0.3755 -0.3587  0.2171
 6038SOL    HW129576   2.747   2.738   1.418 -2.1928 -0.1796 -0.6815
 6038SOL    HW229577   2.644   2.616   1.404 -0.2134 -0.3051 -0.4396
 6039SOL     OW29578   0.106   2.508   9.711 -0.8521  0.3211  0.2733
 6039SOL    HW129579   0.061   2.593   9.717 -2.0827 -0.1908 -1.9329
 6039SOL    HW229580   0.199   2.532   9.716 -0.6941  0.1643 -1.8125
 6040SOL     OW29581   1.842   3.785   0.452 -0.2849  0.3505  0.0460
 6040SOL    HW129582   1.809   3.712   0.399  1.3517 -0.3046 -0.0462
 6040SOL    HW229583   1.880   3.837   0.381 -1.1173 -0.4642 -1.0019
 6041SOL     OW29584   3.101   1.339   4.102 -0.1485  0.3752 -0.1888
 6041SOL    HW129585   3.105   1.435   4.106  2.0187  0.3392 -1.6789
 6041SOL    HW229586   3.193   1.334   4.079 -0.3894 -0.1716 -1.0573
 6042SOL     OW29587   2.306   3.763   6.520 -0.1341 -0.4490  0.6028
 6042SOL    HW129588   2.301   3.745   6.614  0.2357 -2.9073  0.1457
 6042SOL    HW229589   2.360   3.695   6.480  1.9482  0.8793  1.1159
 6043SOL     OW29590   1.608   3.849   7.430 -0.4682  0.6669 -0.4282
 6043SOL    HW129591   1.531   3.874   7.481 -0.5842 -1.4663  0.4450
 6043SOL    HW229592   1.649   3.935   7.429 -0.5094  0.7032  2.1594
 6044SOL     OW29593   1.045   2.561   7.427 -0.0068  0.1084 -0.5036
 6044SOL    HW129594   0.992   2.525   7.499  0.6928 -1.3206 -0.6961
 6044SOL    HW229595   1.122   2.581   7.481  2.2724  1.4805 -4.2419
 6045SOL     OW29596   0.028   4.449   7.383 -0.1790  0.9940 -0.1594
 6045SOL    HW129597   4.714   4.529   7.348 -1.2140  0.0041 -1.2303
 6045SOL    HW229598   4.677   4.414   7.427  1.8471  1.1474  3.5009
 6046SOL     OW29599   2.705   3.566   4.244 -0.3756 -0.2762  0.2428
 6046SOL    HW129600   2.727   3.655   4.274  1.2411 -0.0971 -1.5106
 6046SOL    HW229601   2.790   3.544   4.207 -0.4727  1.8627 -1.2322
 6047SOL     OW29602   2.587   0.778   5.233 -0.3939 -0.7998 -1.4289
 6047SOL    HW129603   2.614   0.801   5.145  1.9686  2.0894  0.0827
 6047SOL    HW229604   2.491   0.782   5.241 -0.2603 -0.0088 -0.2745
 6048SOL     OW29605   2.530   1.621   5.194  0.3314  0.0542  0.2903
 6048SOL    HW129606   2.622   1.641   5.214  0.7662 -0.9122 -0.7640
 6048SOL    HW229607   2.518   1.532   5.227 -2.2519  0.3547  0.0989
 6049SOL     OW29608   3.939   2.573   7.207  0.0660  0.3456  0.5355
 6049SOL    HW129609   3.990   2.643   7.168  1.9122  0.1181  2.5018
 6049SOL    HW229610   3.918   2.515   7.134 -0.0566  0.2086  0.6803
 6050SOL     OW29611   3.432   4.178   3.045  0.4178  0.1110  0.3478
 6050SOL    HW129612   3.367   4.210   2.982  1.3764  1.3332 -0.0132
 6050SOL    HW229613   3.497   4.240   3.013 -1.2484  1.5147 -0.2942
 6051SOL     OW29614   3.059   4.251   7.780 -0.6041 -0.1094 -0.1691
 6051SOL    HW129615   3.137   4.281   7.733 -0.3429 -0.4195  0.0699
 6051SOL    HW229616   2.993   4.310   7.743  1.1442  1.8034 -0.2693
 6052SOL     OW29617   1.718   0.816   4.414  0.2784 -0.1113  0.3638
 6052SOL    HW129618   1.625   0.813   4.393  0.5753  1.1105 -1.1047
 6052SOL    HW229619   1.754   0.743   4.364  1.4705 -0.0889  1.1691
 6053SOL     OW29620   0.788   1.212  12.569  0.3709 -0.0032 -0.0175
 6053SOL    HW129621   0.723   1.186  12.504  0.9560 -3.3206  0.7626
 6053SOL    HW229622   0.851   1.245  12.505  0.6008 -0.7925 -0.1944
 6054SOL     OW29623   1.536   4.555   4.756  0.2743  0.4301  0.1055
 6054SOL    HW129624   1.536   4.595   4.843  1.5806 -1.4101  0.9621
 6054SOL    HW229625   1.626   4.584   4.738 -0.2131  0.4073 -2.4346
 6055SOL     OW29626   0.254   4.688  17.692  0.1604  0.3154  0.3885
 6055SOL    HW129627   0.258   0.019  17.616 -1.5263  0.0964  0.1372
 6055SOL    HW229628   0.180   4.723   0.036  2.0414 -0.6005  3.8187
 6056SOL     OW29629   0.168   2.435   1.476 -0.0631 -0.2911  0.2298
 6056SOL    HW129630   0.075   2.435   1.501  0.1096 -1.0239  0.8693
 6056SOL    HW229631   0.191   2.342   1.479  2.0454  0.3293  2.5076
 6057SOL     OW29632   1.651   2.033  15.409  0.0791 -0.0884  0.4760
 6057SOL    HW129633   1.609   1.987  15.335  1.9836  0.4112 -0.9149
 6057SOL    HW229634   1.706   2.098  15.366  0.0028  2.0063  3.5580
 6058SOL     OW29635   4.022   4.391   3.663  0.0098 -0.3702 -0.2188
 6058SOL    HW129636   3.992   4.457   3.601 -0.0035  0.6635  0.8772
 6058SOL    HW229637   4.114   4.391   3.639  0.0380 -0.0072 -0.1053
 6059SOL     OW29638   3.463   4.164   6.465 -0.3908 -0.0724  0.0380
 6059SOL    HW129639   3.529   4.224   6.499 -1.8088  0.6010  1.6254
 6059SOL    HW229640   3.447   4.117   6.547 -1.2828  0.5102  0.1932
 6060SOL     OW29641   3.549   0.748   6.859  0.1240 -0.3328  0.6031
 6060SOL    HW129642   3.521   0.760   6.950 -2.1137 -0.7325 -0.0352
 6060SOL    HW229643   3.615   0.683   6.885  0.1793 -0.1332  0.9549
 6061SOL     OW29644   2.387   1.500   9.455  0.2832 -0.0376 -0.5333
 6061SOL    HW129645   2.456   1.439   9.429  1.1914  1.1394 -0.8657
 6061SOL    HW229646   2.432   1.579   9.485  3.0076 -1.7389 -0.0764
 6062SOL     OW29647   0.375   3.822   9.672  0.2556 -0.1100 -0.5944
 6062SOL    HW129648   0.291   3.803   9.629 -0.5749  0.5946  0.7118
 6062SOL    HW229649   0.390   3.741   9.720 -1.1036  0.2893  0.4825
 6063SOL     OW29650   3.956   0.639   3.247  0.4051  0.1678  0.4177
 6063SOL    HW129651   3.919   0.587   3.319 -1.2626  2.1727  0.9920
 6063SOL    HW229652   4.047   0.636   3.278  0.9411 -1.7557 -1.3926
 6064SOL     OW29653   0.812   1.840   7.790 -0.3316  0.2796 -0.1495
 6064SOL    HW129654   0.851   1.855   7.876 -2.9456  0.0790  1.1046
 6064SOL    HW229655   0.830   1.746   7.782  0.8733  0.5152 -0.0775
 6065SOL     OW29656   0.894   1.568   7.801  0.0860  0.2550 -0.2985
 6065SOL    HW129657   0.845   1.540   7.878  1.4708 -1.1540  0.0577
 6065SOL    HW229658   0.866   1.505   7.735 -0.2324 -0.6872  0.7360
 6066SOL     OW29659   1.675   1.086   4.416  0.0005 -0.5403  0.6467
 6066SOL    HW129660   1.596   1.070   4.364 -0.8904 -0.7743  2.0929
 6066SOL    HW229661   1.708   0.998   4.434  1.0708 -0.2525  0.1005
 6067SOL     OW29662   0.487   0.250  15.672 -0.6347  0.1560 -0.3786
 6067SOL    HW129663   0.530   0.304  15.738 -0.7093  1.0388 -1.0558
 6067SOL    HW229664   0.452   0.318  15.615  1.5194  0.1680 -1.6916
 6068SOL     OW29665   1.022   4.184   6.043  0.0906 -0.3917  0.1111
 6068SOL    HW129666   1.066   4.256   5.999  0.7377 -0.7697  0.1439
 6068SOL    HW229667   1.071   4.188   6.125 -0.4229 -0.2452  0.4135
 6069SOL     OW29668   3.804   4.226  12.392 -0.1943  0.5126 -0.1554
 6069SOL    HW129669   3.747   4.274  12.331  0.4681  0.4217 -0.8476
 6069SOL    HW229670   3.740   4.182  12.448 -0.6365  0.3499 -0.7800
 6070SOL     OW29671   0.756   1.972   8.215 -0.3110  0.4334  0.0067
 6070SOL    HW129672   0.737   2.040   8.150 -0.0047  0.4167 -0.1012
 6070SOL    HW229673   0.675   1.963   8.265 -0.1588  2.7404  0.6727
 6071SOL     OW29674   3.021   0.635  11.252  0.3036  0.2402 -0.2287
 6071SOL    HW129675   2.998   0.693  11.324  2.0289  1.1602 -0.4100
 6071SOL    HW229676   3.060   0.704  11.199  1.4320  1.4995  2.2203
 6072SOL     OW29677   0.006   3.368   6.006  1.0042 -0.8544  0.9747
 6072SOL    HW129678   0.079   3.424   6.033  0.7239  0.6374 -1.3431
 6072SOL    HW229679   4.722   3.307   6.079  1.8584  0.4378  2.1818
 6073SOL     OW29680   3.864   1.208   5.076  0.2579 -0.3134 -0.2081
 6073SOL    HW129681   3.820   1.188   4.994 -0.0439 -0.6876  0.0440
 6073SOL    HW229682   3.937   1.263   5.046 -0.4715  0.0056 -1.3826
 6074SOL     OW29683   3.300   2.598   9.022  0.0599  0.4000  0.2070
 6074SOL    HW129684   3.269   2.684   9.050  0.0586  0.2979  0.5122
 6074SOL    HW229685   3.274   2.539   9.093  1.7647  1.0773  1.3834
 6075SOL     OW29686   1.015   3.648  17.553 -0.3769 -0.0284 -0.1762
 6075SOL    HW129687   0.949   3.580  17.567  1.0130 -1.3127  0.1802
 6075SOL    HW229688   0.954   3.719  17.536 -0.5534 -0.3597 -0.9499
 6076SOL     OW29689   4.509   2.090  15.438 -0.1523  0.3182 -0.3045
 6076SOL    HW129690   4.528   2.144  15.362  1.5499 -0.5259 -0.4693
 6076SOL    HW229691   4.497   2.159  15.504 -0.7629  1.3611 -1.5106
 6077SOL     OW29692   4.097   1.431  11.955  0.4843 -0.0945  0.2001
 6077SOL    HW129693   4.059   1.517  11.939  0.6878 -0.1504 -0.6344
 6077SOL    HW229694   4.020   1.374  11.957  0.1197  0.3997  0.2411
 6078SOL     OW29695   1.434   3.666  10.908  0.8166  0.3120 -0.2105
 6078SOL    HW129696   1.416   3.575  10.885 -0.0706  0.8824 -1.8212
 6078SOL    HW229697   1.491   3.655  10.984 -0.5246  1.2192  0.9368
 6079SOL     OW29698   0.966   1.430   3.267  0.0667  0.3006  0.1243
 6079SOL    HW129699   0.897   1.364   3.280 -1.7696  2.2828  0.2904
 6079SOL    HW229700   1.014   1.405   3.346  0.8988  0.8104 -0.2217
 6080SOL     OW29701   0.692   2.569   6.568 -0.0504 -0.0125  0.1450
 6080SOL    HW129702   0.680   2.477   6.588 -1.6908 -0.1613 -1.4601
 6080SOL    HW229703   0.627   2.570   6.497 -0.1493  2.9521  0.2432
 6081SOL     OW29704   0.318   2.588   8.761 -0.0298 -0.2353  0.4102
 6081SOL    HW129705   0.317   2.558   8.670 -0.1369 -2.0982  1.0251
 6081SOL    HW229706   0.232   2.630   8.764  0.8459  1.4995  1.6728
 6082SOL     OW29707   0.580   2.820   7.955  0.5097  0.5575 -0.1775
 6082SOL    HW129708   0.568   2.725   7.948  1.2678  0.3823  0.8474
 6082SOL    HW229709   0.609   2.847   7.868 -0.1494 -1.5262 -1.0334
 6083SOL     OW29710   2.909   0.682   0.539  0.1098 -0.0379 -0.0245
 6083SOL    HW129711   2.858   0.677   0.620  0.3463  0.1410  0.1387
 6083SOL    HW229712   2.958   0.763   0.555  0.6376 -0.2920 -0.3470
 6084SOL     OW29713   3.233   4.722   3.929  0.8068  0.6405  0.0808
 6084SOL    HW129714   3.148   0.019   3.966 -0.2002  1.1224 -2.5830
 6084SOL    HW229715   3.226   4.645   3.873 -1.0897  0.6799  0.2743
 6085SOL     OW29716   3.466   1.332   1.613  0.3300  0.2352 -0.0304
 6085SOL    HW129717   3.398   1.284   1.662  1.2743  0.4648  1.5184
 6085SOL    HW229718   3.459   1.415   1.659 -0.2656  1.2991 -2.0497
 6086SOL     OW29719   2.602   1.574   9.228 -0.9009 -0.2207 -0.0905
 6086SOL    HW129720   2.619   1.515   9.301  1.6387  1.5887  0.7524
 6086SOL    HW229721   2.670   1.551   9.164 -0.7363 -2.9464  1.0624
 6087SOL     OW29722   1.694   1.876   6.933 -0.5803  0.1086 -0.3349
 6087SOL    HW129723   1.763   1.912   6.990 -0.1679 -1.8670  0.3932
 6087SOL    HW229724   1.643   1.951   6.900 -0.6060  0.1762 -0.1444
 6088SOL     OW29725   1.717   4.251   7.903 -0.6964 -0.3037 -0.0182
 6088SOL    HW129726   1.689   4.167   7.939 -0.9667 -0.6680 -1.0783
 6088SOL    HW229727   1.639   4.265   7.849 -1.2536 -1.6541  0.4246
 6089SOL     OW29728   1.346   0.360   7.136  0.3180 -0.6035  1.0090
 6089SOL    HW129729   1.268   0.409   7.113  1.1131  0.6790  1.0641
 6089SOL    HW229730   1.406   0.433   7.153 -1.5304  1.1204  0.0629
 6090SOL     OW29731   3.212   0.689   2.557  0.0441 -0.6708  0.2753
 6090SOL    HW129732   3.226   0.662   2.648  0.6614 -1.1859  0.0270
 6090SOL    HW229733   3.288   0.652   2.513  1.6951 -0.6683  3.1062
 6091SOL     OW29734   3.267   3.836   8.223  0.4138  0.5656 -0.0702
 6091SOL    HW129735   3.183   3.801   8.252  0.2662  2.4120  1.7431
 6091SOL    HW229736   3.306   3.750   8.207 -1.1868  0.0298 -1.0927
 6092SOL     OW29737   1.515   3.974   9.151 -0.5248  0.2669 -0.0931
 6092SOL    HW129738   1.592   3.918   9.158  0.2035  1.5067  1.7673
 6092SOL    HW229739   1.520   3.999   9.244 -1.3480  3.1632 -0.8044
 6093SOL     OW29740   2.716   1.110   5.116 -0.1031 -0.6592  0.1928
 6093SOL    HW129741   2.718   1.087   5.209 -0.6098  1.6683  0.7931
 6093SOL    HW229742   2.787   1.174   5.113  0.9713 -1.9162 -1.0485
 6094SOL     OW29743   0.387   1.829  13.153  0.2193 -0.3118 -0.2936
 6094SOL    HW129744   0.309   1.870  13.115  0.7426  0.4041 -0.5898
 6094SOL    HW229745   0.464   1.871  13.115  0.1947 -0.9105 -0.9910
 6095SOL     OW29746   2.585   4.236  12.972 -0.2070  0.4283  0.5678
 6095SOL    HW129747   2.634   4.221  12.891 -1.4673 -0.6318  0.0006
 6095SOL    HW229748   2.615   4.156  13.016 -0.6901  1.3524  2.5779
 6096SOL     OW29749   1.868   3.348   1.567 -0.4890  0.0412  0.1428
 6096SOL    HW129750   1.840   3.264   1.603 -0.1164 -1.2823 -2.6536
 6096SOL    HW229751   1.882   3.328   1.475  0.5961 -0.4225  0.4083
 6097SOL     OW29752   2.903   3.386   2.349 -0.1286 -0.2378 -0.5184
 6097SOL    HW129753   2.899   3.295   2.380  2.6408 -1.0417 -2.6073
 6097SOL    HW229754   2.833   3.390   2.284  1.5068  0.9956 -2.1826
 6098SOL     OW29755   3.494   2.981  10.532 -0.3824  0.2168  0.1365
 6098SOL    HW129756   3.548   3.029  10.595 -1.6012 -0.1191  1.4459
 6098SOL    HW229757   3.501   3.041  10.458  0.2456 -0.4656 -0.3488
 6099SOL     OW29758   2.484   4.050   4.883  0.0555 -0.1234  0.3741
 6099SOL    HW129759   2.398   4.087   4.903  0.0010 -0.5607  0.9506
 6099SOL    HW229760   2.517   4.124   4.831  0.9947  0.2734  1.5335
 6100SOL     OW29761   0.584   0.754   3.095  0.4925  0.4824 -0.1386
 6100SOL    HW129762   0.648   0.703   3.045 -1.3189  0.7180 -2.6810
 6100SOL    HW229763   0.509   0.698   3.072  0.2716  0.6345  0.2166
 6101SOL     OW29764   1.457   0.082   9.723 -0.2571 -0.0151  0.2767
 6101SOL    HW129765   1.459   0.175   9.744  0.0739  0.3159 -1.2651
 6101SOL    HW229766   1.383   0.061   9.780 -1.2114 -1.6368 -1.5712
 6102SOL     OW29767   1.007   3.401   5.705 -0.0374 -0.3510 -0.0538
 6102SOL    HW129768   1.098   3.374   5.693 -0.2073 -0.3610 -1.2912
 6102SOL    HW229769   0.980   3.426   5.617 -1.9135  2.7488  1.4002
 6103SOL     OW29770   3.897   0.607   5.687  0.2363 -0.3129 -0.5147
 6103SOL    HW129771   3.919   0.515   5.670 -3.1063 -1.4364  1.1222
 6103SOL    HW229772   3.934   0.647   5.608  1.0370 -1.8484 -0.9245
 6104SOL     OW29773   0.864   1.793   8.055 -0.5271  0.2354 -0.0649
 6104SOL    HW129774   0.823   1.856   8.115 -0.8083 -1.9147  1.9930
 6104SOL    HW229775   0.814   1.714   8.076  1.1058 -0.3492  1.6658
 6105SOL     OW29776   1.572   3.153   0.987 -0.1323 -0.4609 -0.5779
 6105SOL    HW129777   1.507   3.188   0.926  0.9913  1.7169 -0.5150
 6105SOL    HW229778   1.633   3.226   0.984 -1.9492  1.0600 -0.2940
 6106SOL     OW29779   2.659   4.637   8.161 -0.4868  0.7150 -0.4588
 6106SOL    HW129780   2.624   4.714   8.117 -1.5741 -0.0178 -0.8819
 6106SOL    HW229781   2.657   4.573   8.090  1.2138 -0.7212  0.7776
 6107SOL     OW29782   0.087   1.704   6.127 -0.7042  0.2678  0.4102
 6107SOL    HW129783   0.006   1.749   6.149 -0.0793  0.7953  1.6033
 6107SOL    HW229784   0.133   1.703   6.211  0.6926 -2.9067 -0.3733
 6108SOL     OW29785   4.481   4.233   2.609  0.3430 -0.1419  0.0046
 6108SOL    HW129786   4.576   4.241   2.620  0.1140  1.4838  0.8677
 6108SOL    HW229787   4.463   4.268   2.522 -0.1236  1.4486  0.7248
 6109SOL     OW29788   3.687   1.113  12.056  0.4549  0.9257 -0.2636
 6109SOL    HW129789   3.605   1.162  12.049  0.0871  0.4862  0.9979
 6109SOL    HW229790   3.664   1.040  11.999 -0.7483  1.9572 -1.1036
 6110SOL     OW29791   1.797   3.626  10.724 -0.3414  0.0076 -0.2068
 6110SOL    HW129792   1.810   3.720  10.719 -0.2862 -0.0429 -0.9920
 6110SOL    HW229793   1.705   3.616  10.699  0.4362 -0.5653 -2.8001
 6111SOL     OW29794   2.744   3.276  13.896 -0.0477  0.3071 -0.3092
 6111SOL    HW129795   2.836   3.269  13.871  0.4238  1.9018  0.9638
 6111SOL    HW229796   2.728   3.193  13.941  1.9605 -2.1730 -4.1857
 6112SOL     OW29797   1.110   2.390   4.169  0.0938  0.2431  0.2004
 6112SOL    HW129798   1.171   2.331   4.125 -0.8162  0.5855 -1.5364
 6112SOL    HW229799   1.173   2.457   4.196  0.6820  0.0482 -0.6863
 6113SOL     OW29800   4.401   4.515  11.285  0.1597  0.7115 -0.3556
 6113SOL    HW129801   4.367   4.554  11.366  1.6746 -0.1644  0.6818
 6113SOL    HW229802   4.467   4.582  11.269  0.3371  0.1225 -2.0167
 6114SOL     OW29803   0.115   3.773  10.650  0.1432  0.2834 -0.3449
 6114SOL    HW129804   0.024   3.792  10.674 -0.4364 -2.3645 -0.5092
 6114SOL    HW229805   0.110   3.679  10.661  2.7792  0.2048  0.0330
 6115SOL     OW29806   1.009   1.442  12.166 -0.0337  0.2400  0.2266
 6115SOL    HW129807   1.033   1.510  12.103  1.1512  0.6729  1.1353
 6115SOL    HW229808   1.010   1.360  12.117  0.3971  1.6587 -2.1092
 6116SOL     OW29809   2.327   4.648   2.775  0.3973 -0.0573 -0.0240
 6116SOL    HW129810   2.331   4.712   2.846 -1.2952  0.4291 -0.3840
 6116SOL    HW229811   2.371   4.708   2.715 -2.6051  1.9703 -0.1879
 6117SOL     OW29812   2.767   4.338   9.240  0.7671 -0.7288 -0.1483
 6117SOL    HW129813   2.694   4.383   9.198  0.7401  0.0209  0.7142
 6117SOL    HW229814   2.725   4.307   9.320  1.0809  0.7067  0.5629
 6118SOL     OW29815   0.123   1.241   5.840  0.4031 -0.3487  0.0442
 6118SOL    HW129816   0.099   1.327   5.807  1.6369  0.1684  0.4787
 6118SOL    HW229817   0.050   1.227   5.900  0.8391 -1.3955  0.3345
 6119SOL     OW29818   2.839   2.566   3.701 -0.2822  1.0353 -0.2781
 6119SOL    HW129819   2.837   2.644   3.645 -2.1482 -0.5576 -2.4009
 6119SOL    HW229820   2.791   2.603   3.775 -1.3633 -1.0031  0.0144
 6120SOL     OW29821   0.666   4.717   2.418 -0.0709 -0.0761 -0.5196
 6120SOL    HW129822   0.649   0.085   2.423 -0.0564  0.0682 -3.2537
 6120SOL    HW229823   0.639   4.703   2.328 -0.3638  0.9610 -0.6005
 6121SOL     OW29824   0.337   2.783  11.673  0.2644 -0.5081  0.5198
 6121SOL    HW129825   0.277   2.789  11.748  0.0382 -2.4194  0.4754
 6121SOL    HW229826   0.307   2.699  11.640 -0.4435 -0.2864  0.6075
 6122SOL     OW29827   0.098   1.832   6.705  0.1109  0.2750 -0.3419
 6122SOL    HW129828   0.084   1.817   6.612 -0.4009 -2.0795  0.1277
 6122SOL    HW229829   0.074   1.746   6.739  0.5559  0.2112 -0.1862
 6123SOL     OW29830   2.921   1.665   6.256  0.0693 -0.0300 -0.1989
 6123SOL    HW129831   2.944   1.572   6.251  2.3834  0.5890 -0.8528
 6123SOL    HW229832   2.937   1.686   6.348 -0.0940  1.3346 -0.4797
 6124SOL     OW29833   3.836   2.119   8.442  0.3406  0.4825 -0.5142
 6124SOL    HW129834   3.762   2.147   8.497  0.7783 -1.2279  0.9571
 6124SOL    HW229835   3.895   2.089   8.511  1.0939  1.8392 -0.5760
 6125SOL     OW29836   0.659   1.995  15.116 -0.0603 -0.6931  0.1837
 6125SOL    HW129837   0.728   2.035  15.063 -2.6706  0.1954 -2.5520
 6125SOL    HW229838   0.677   2.037  15.200  0.5595  0.5437 -0.5678
 6126SOL     OW29839   1.608   0.943   5.790  0.0156  0.5306 -0.3381
 6126SOL    HW129840   1.657   0.899   5.860 -2.2425 -0.7908  0.4005
 6126SOL    HW229841   1.640   1.033   5.803  1.0319  0.2558 -0.9063
 6127SOL     OW29842   2.457   0.022   0.499 -0.0936 -0.0402 -0.1150
 6127SOL    HW129843   2.466   4.665   0.544 -0.7192  0.1402  0.3437
 6127SOL    HW229844   2.430   4.713   0.414  1.2807  1.5582 -1.2079
 6128SOL     OW29845   4.630   3.128   3.411 -0.2830  0.0163  0.2719
 6128SOL    HW129846   4.704   3.137   3.471 -0.5578  0.2850  0.5662
 6128SOL    HW229847   4.567   3.100   3.477 -0.3077 -2.0172 -0.6042
 6129SOL     OW29848   1.938   1.008   5.450 -0.2267 -0.6677 -0.0396
 6129SOL    HW129849   1.900   1.095   5.462  0.6008 -0.2197 -0.6917
 6129SOL    HW229850   1.911   0.970   5.533 -1.3148  0.7364  0.2328
 6130SOL     OW29851   4.424   1.570   7.566  0.1836 -0.4233 -0.6475
 6130SOL    HW129852   4.359   1.628   7.607  1.5983 -0.8348  2.1290
 6130SOL    HW229853   4.368   1.503   7.526  1.6406 -1.5089 -0.8427
 6131SOL     OW29854   2.810   2.708  12.211  0.0988  0.2821  0.0121
 6131SOL    HW129855   2.833   2.796  12.242  0.6345 -0.0259  0.4982
 6131SOL    HW229856   2.742   2.693  12.278 -0.7234  1.1967 -0.6168
 6132SOL     OW29857   1.967   0.637   3.853  0.0157 -0.3966 -0.1307
 6132SOL    HW129858   1.988   0.725   3.823 -0.5028 -0.5462 -0.9220
 6132SOL    HW229859   1.907   0.615   3.782  1.1761 -0.2315 -1.1685
 6133SOL     OW29860   4.467   1.216  10.539 -0.3399 -0.0190  0.0630
 6133SOL    HW129861   4.495   1.294  10.491 -0.8385 -0.2539 -0.6212
 6133SOL    HW229862   4.548   1.167  10.555 -0.0933 -0.1549 -1.5695
 6134SOL     OW29863   4.417   4.211   9.203 -0.1731  0.4098  0.0008
 6134SOL    HW129864   4.358   4.269   9.156  2.9863  2.4599 -1.4891
 6134SOL    HW229865   4.441   4.264   9.278 -2.0256  0.7679  0.3357
 6135SOL     OW29866   2.205   2.076   5.879 -0.0129  0.3923  0.2535
 6135SOL    HW129867   2.283   2.076   5.936 -0.2442  1.9103  0.5708
 6135SOL    HW229868   2.162   2.151   5.921  1.8201  0.7138  1.6004
 6136SOL     OW29869   4.458   3.572   9.530 -0.3794  0.1799  0.5969
 6136SOL    HW129870   4.365   3.597   9.532 -0.2779  0.9982 -4.0870
 6136SOL    HW229871   4.463   3.522   9.448  0.8435 -0.1877  0.8959
 6137SOL     OW29872   4.254   3.923   2.253  0.0123  0.3784  0.6398
 6137SOL    HW129873   4.330   3.980   2.242 -1.4955  2.3200  0.3934
 6137SOL    HW229874   4.250   3.895   2.162  1.7989  2.6405 -0.1423
 6138SOL     OW29875   3.319   0.703  17.202 -0.1518  0.0886  0.5803
 6138SOL    HW129876   3.410   0.715  17.231 -0.4516  1.1148  1.0982
 6138SOL    HW229877   3.281   0.781  17.243 -0.1803  0.6500 -0.5238
 6139SOL     OW29878   3.399   0.911   1.874  0.4969  0.3106 -0.6978
 6139SOL    HW129879   3.469   0.882   1.815  1.4993 -0.7636  1.0235
 6139SOL    HW229880   3.371   0.991   1.830  0.3952  0.2987 -0.6539
 6140SOL     OW29881   3.668   3.474  11.282 -0.6820 -0.0049  0.0570
 6140SOL    HW129882   3.594   3.532  11.302 -0.3322  0.3413  0.3514
 6140SOL    HW229883   3.639   3.418  11.209  0.9852 -0.2361 -0.4176
 6141SOL     OW29884   4.484   1.356   9.189 -0.2493 -0.2496 -0.0523
 6141SOL    HW129885   4.541   1.430   9.209 -2.1697  0.3594  3.0648
 6141SOL    HW229886   4.448   1.335   9.275 -0.3344 -0.4923 -0.1460
 6142SOL     OW29887   3.645   0.987   4.674 -0.0581  0.4614 -0.3439
 6142SOL    HW129888   3.617   0.950   4.758  0.0289  1.5867  0.1856
 6142SOL    HW229889   3.705   0.924   4.634 -0.3203 -0.6939  1.0971
 6143SOL     OW29890   2.020   1.776   5.354  0.1079 -0.1830 -0.3533
 6143SOL    HW129891   1.996   1.866   5.377 -1.6584 -1.2920  2.1507
 6143SOL    HW229892   2.099   1.792   5.303  0.8795 -1.1698  0.5237
 6144SOL     OW29893   0.646   2.899   4.388 -0.1060 -0.2377  0.1325
 6144SOL    HW129894   0.568   2.951   4.410  0.5649  0.2485  1.3615
 6144SOL    HW229895   0.641   2.824   4.446  1.8967  0.0901  0.7204
 6145SOL     OW29896   2.967   0.924  12.175 -0.3082  0.4735 -0.0251
 6145SOL    HW129897   2.929   1.004  12.138 -2.1365 -0.7261 -0.7267
 6145SOL    HW229898   2.907   0.855  12.147 -0.1823  0.3601 -0.0163
 6146SOL     OW29899   2.223   1.210   4.878  0.0593 -0.0551  0.3546
 6146SOL    HW129900   2.230   1.122   4.840  1.2942 -0.1428  0.7850
 6146SOL    HW229901   2.151   1.257   4.837  0.3810  0.4655  0.3852
 6147SOL     OW29902   3.160   2.958   7.142  0.5033  0.3494  0.1119
 6147SOL    HW129903   3.129   2.944   7.053 -0.4575 -1.4311  0.7396
 6147SOL    HW229904   3.180   2.869   7.171  0.6319  0.1498 -0.5946
 6148SOL     OW29905   1.346   3.229   3.194  0.5352  0.0415 -0.3293
 6148SOL    HW129906   1.299   3.257   3.116  2.0986 -1.8239 -1.9569
 6148SOL    HW229907   1.434   3.204   3.165  0.9532  2.7601 -1.3767
 6149SOL     OW29908   1.323   4.470   7.891  0.0239 -0.4610  0.4971
 6149SOL    HW129909   1.267   4.536   7.933  1.6375  0.2991  1.4382
 6149SOL    HW229910   1.333   4.400   7.954  0.3064 -1.2845 -0.4604
 6150SOL     OW29911   2.503   2.643   5.447  0.0868  0.3274  0.0964
 6150SOL    HW129912   2.591   2.648   5.482 -0.0245  1.4465  0.1991
 6150SOL    HW229913   2.487   2.728   5.407  2.7590  0.6024 -0.3553
 6151SOL     OW29914   4.353   4.072  10.959  0.0172 -0.0581  0.0616
 6151SOL    HW129915   4.408   4.017  11.013  0.7645  0.2040 -0.4336
 6151SOL    HW229916   4.325   4.010  10.891 -0.1461 -0.7116  0.7357
 6152SOL     OW29917   3.665   1.484   3.780  0.2092  0.2111 -0.3451
 6152SOL    HW129918   3.745   1.525   3.813  0.6287  0.1710 -1.3211
 6152SOL    HW229919   3.633   1.535   3.706 -4.5394  0.5849  1.9435
 6153SOL     OW29920   2.308   2.072   4.377 -0.5353 -0.1993 -0.0438
 6153SOL    HW129921   2.355   2.021   4.312 -0.4582 -1.0041  0.6470
 6153SOL    HW229922   2.260   2.007   4.427 -0.9662  0.0139 -0.1795
 6154SOL     OW29923   3.383   0.451   3.311 -0.3842 -0.2514  0.4133
 6154SOL    HW129924   3.390   0.545   3.332  0.6732 -0.4837  1.1284
 6154SOL    HW229925   3.474   0.425   3.325 -0.4086  0.2146  1.4243
 6155SOL     OW29926   2.479   4.333   3.518 -0.3017 -0.1086  0.2548
 6155SOL    HW129927   2.411   4.270   3.495  0.2134 -1.1475  1.6281
 6155SOL    HW229928   2.482   4.376   3.433 -0.6796 -1.3964 -0.4100
 6156SOL     OW29929   3.941   3.751  13.327  0.6587 -0.4535  0.9199
 6156SOL    HW129930   3.981   3.837  13.315 -1.6907  1.1553  4.2815
 6156SOL    HW229931   3.975   3.711  13.407  0.4265 -0.5964  0.9481
 6157SOL     OW29932   2.293   1.022   0.149 -0.0260  0.0445  0.3528
 6157SOL    HW129933   2.228   1.052   0.084  0.4921 -2.2876 -1.2265
 6157SOL    HW229934   2.254   1.063   0.226  0.2375 -0.0071  0.5121
 6158SOL     OW29935   0.535   3.493   8.079 -0.3018 -0.3948  0.6094
 6158SOL    HW129936   0.579   3.578   8.091 -0.9118 -0.0531  0.4035
 6158SOL    HW229937   0.523   3.493   8.174  2.0347 -4.0842  0.9102
 6159SOL     OW29938   3.510   4.502   7.588 -0.5196 -0.4273 -0.4508
 6159SOL    HW129939   3.433   4.465   7.545 -0.1934 -0.2985 -1.1488
 6159SOL    HW229940   3.476   4.547   7.665  0.4737 -0.2278 -0.1218
 6160SOL     OW29941   2.149   0.995  17.622 -0.1937 -0.1502 -0.4087
 6160SOL    HW129942   2.219   1.047  17.583 -0.9492 -0.1001 -1.6823
 6160SOL    HW229943   2.154   0.929  17.553 -0.1168 -2.6757  2.0126
 6161SOL     OW29944   4.258   2.674   3.115  0.1715 -0.1864 -0.0893
 6161SOL    HW129945   4.182   2.720   3.081 -0.1921  0.4673  1.6263
 6161SOL    HW229946   4.277   2.728   3.191 -2.1776  1.0411 -0.3904
 6162SOL     OW29947   2.222   3.306   8.916 -0.1166  0.5746 -0.0351
 6162SOL    HW129948   2.226   3.269   8.828 -1.2647  0.5507 -0.0757
 6162SOL    HW229949   2.203   3.235   8.977 -0.6653  0.6245 -0.1456
 6163SOL     OW29950   1.781   3.542   6.546 -0.4621  0.4147  0.1625
 6163SOL    HW129951   1.785   3.542   6.642 -0.2366 -0.5654  0.1560
 6163SOL    HW229952   1.722   3.617   6.537  2.7726  3.0996  1.2708
 6164SOL     OW29953   2.702   2.059   5.355 -0.1390  0.3482  0.1653
 6164SOL    HW129954   2.733   1.968   5.364  0.0259  0.4022  0.1546
 6164SOL    HW229955   2.676   2.077   5.446 -4.3945  0.6130 -1.1113
 6165SOL     OW29956   2.295   1.561   5.887  0.3102 -0.5149 -0.1926
 6165SOL    HW129957   2.365   1.590   5.946  1.1218 -0.6887 -1.0602
 6165SOL    HW229958   2.295   1.466   5.892  1.2114 -0.4165  1.4938
 6166SOL     OW29959   4.630   0.148  14.695 -0.4012 -0.8629  0.3945
 6166SOL    HW129960   4.563   0.099  14.648 -0.1574 -1.1829  0.3817
 6166SOL    HW229961   4.677   0.186  14.621  0.3116 -1.0212  0.7672
 6167SOL     OW29962   3.798   0.815   8.693  0.4384  0.1851  0.3775
 6167SOL    HW129963   3.862   0.885   8.678 -0.3315  1.0053  0.8545
 6167SOL    HW229964   3.807   0.772   8.608 -0.5140  0.6299  0.0428
 6168SOL     OW29965   1.339   0.596   8.130  0.0152 -0.1572  0.6018
 6168SOL    HW129966   1.407   0.653   8.095  2.2806 -2.0554  1.9283
 6168SOL    HW229967   1.376   0.546   8.202 -0.7612  1.7727  2.3142
 6169SOL     OW29968   0.099   0.533  10.393 -0.5205 -0.1475  0.0806
 6169SOL    HW129969   0.119   0.626  10.408 -0.0867  0.1511 -2.2897
 6169SOL    HW229970   0.049   0.555  10.315 -0.3679  0.4877  0.1613
 6170SOL     OW29971   0.658   1.655   2.600  0.4256 -0.0411  0.0677
 6170SOL    HW129972   0.664   1.609   2.517 -2.4297 -2.0814  1.0058
 6170SOL    HW229973   0.563   1.658   2.609  0.2790 -1.7981 -0.9679
 6171SOL     OW29974   3.470   2.213   5.589  0.2323 -0.0150  0.4360
 6171SOL    HW129975   3.397   2.157   5.561  2.1487 -1.2855 -2.0316
 6171SOL    HW229976   3.545   2.159   5.563  1.1953  1.5064  0.0414
 6172SOL     OW29977   0.401   2.741   7.683 -0.0167  0.2198  0.2518
 6172SOL    HW129978   0.337   2.726   7.614  1.1823  1.1811 -1.0591
 6172SOL    HW229979   0.461   2.673   7.652  1.2966  1.4373  0.1090
 6173SOL     OW29980   4.305   0.319  10.792 -0.3031  0.1149 -0.1253
 6173SOL    HW129981   4.217   0.280  10.794 -0.4635  0.4543 -0.5090
 6173SOL    HW229982   4.281   0.408  10.820 -0.9952 -0.6586  1.7005
 6174SOL     OW29983   0.990   4.374  16.486  0.1280  0.3026  0.0086
 6174SOL    HW129984   1.060   4.424  16.444  0.4111 -0.3006 -0.2320
 6174SOL    HW229985   0.907   4.398  16.443 -0.1697  1.7734  1.4219
 6175SOL     OW29986   0.018   3.857   8.445 -0.2371 -0.1107  1.1510
 6175SOL    HW129987   4.708   3.778   8.405 -0.3339  0.2309  0.5778
 6175SOL    HW229988   4.678   3.878   8.510 -0.3056  2.0947  0.3516
 6176SOL     OW29989   1.607   2.875   3.327  0.3533  0.0152  0.3773
 6176SOL    HW129990   1.590   2.785   3.355  1.2381 -0.3854 -0.3722
 6176SOL    HW229991   1.626   2.866   3.234 -0.3167  0.1488  0.2248
 6177SOL     OW29992   3.994   0.317  11.090 -0.3110 -0.4021  0.2158
 6177SOL    HW129993   3.948   0.393  11.054 -2.4328 -1.7992 -0.0404
 6177SOL    HW229994   4.056   0.366  11.143  0.0766  0.4155 -0.9785
 6178SOL     OW29995   1.678   0.036  14.032 -0.5288  0.3267 -0.2104
 6178SOL    HW129996   1.714   0.030  14.121 -2.3944  1.6661  0.6475
 6178SOL    HW229997   1.754   0.064  13.981  1.6923 -1.9610  1.8548
 6179SOL     OW29998   4.436   4.031   9.879 -0.9743 -0.4168 -0.2169
 6179SOL    HW129999   4.517   3.983   9.867 -0.4032  0.4330  0.2631
 6179SOL    HW230000   4.477   4.116   9.897  0.1075 -1.1891  0.9231
 6180SOL     OW30001   4.350   0.433   3.668  0.7678 -0.4277 -0.1855
 6180SOL    HW130002   4.422   0.461   3.611  1.1874 -0.7393  0.1872
 6180SOL    HW230003   4.387   0.364   3.725 -3.0730 -1.9658  0.4614
 6181SOL     OW30004   0.441   1.749  10.219 -0.3260  0.3114 -0.5602
 6181SOL    HW130005   0.502   1.709  10.281  0.9293 -0.3678 -2.2290
 6181SOL    HW230006   0.403   1.823  10.268  1.7574  0.0507  1.4794
 6182SOL     OW30007   0.602   3.260   2.930 -0.1761 -0.1126  0.2835
 6182SOL    HW130008   0.554   3.327   2.978  0.0885  0.4124 -0.1875
 6182SOL    HW230009   0.677   3.307   2.892 -0.5820 -0.0838 -0.4795
 6183SOL     OW30010   3.766   2.155   3.739 -0.2954 -0.4174 -0.0418
 6183SOL    HW130011   3.809   2.216   3.680 -0.2738 -0.3094  0.0845
 6183SOL    HW230012   3.845   2.151   3.792 -0.2114  0.6808 -0.0680
 6184SOL     OW30013   1.579   4.699   8.142 -0.3124 -0.8342 -0.3972
 6184SOL    HW130014   1.659   4.685   8.193 -0.9701 -0.2393  0.7782
 6184SOL    HW230015   1.513   4.699   8.211  1.2305  1.7760  1.0689
 6185SOL     OW30016   1.132   0.766  11.683  0.3146  0.4733 -0.5024
 6185SOL    HW130017   1.098   0.715  11.757 -1.5290 -0.1981 -1.8238
 6185SOL    HW230018   1.073   0.729  11.618 -1.7084 -0.5858  1.9557
 6186SOL     OW30019   3.042   1.247  14.408 -0.3937 -0.5117  0.1049
 6186SOL    HW130020   3.115   1.195  14.377 -0.1328 -0.8866  1.3384
 6186SOL    HW230021   3.049   1.325  14.353 -2.4309 -0.5266 -0.1765
 6187SOL     OW30022   4.190   4.635   4.323  0.4575  0.8506  0.1784
 6187SOL    HW130023   4.251   4.646   4.251 -1.1333 -1.0294 -1.4840
 6187SOL    HW230024   4.179   4.539   4.319  1.2630  0.7131  1.3684
 6188SOL     OW30025   4.029   2.195  15.240  0.5006 -0.1146 -0.1523
 6188SOL    HW130026   4.108   2.150  15.270  0.1238 -0.8245 -0.2281
 6188SOL    HW230027   4.016   2.267  15.301 -0.0506 -1.5360  1.3882
 6189SOL     OW30028   4.380   4.371   0.682  0.4198 -0.1414 -0.0336
 6189SOL    HW130029   4.438   4.426   0.735  0.5521 -0.9466  0.6541
 6189SOL    HW230030   4.293   4.408   0.698  0.6226  1.0340 -1.6203
 6190SOL     OW30031   3.764   1.197  16.802 -0.0924 -0.0480  0.0420
 6190SOL    HW130032   3.774   1.272  16.862 -0.3302  1.3334 -1.6614
 6190SOL    HW230033   3.722   1.130  16.857  0.8935  0.3381  1.2837
 6191SOL     OW30034   3.405   1.619  17.328  0.3680 -1.0877  0.0884
 6191SOL    HW130035   3.404   1.623  17.423 -0.5635  1.3458 -0.0171
 6191SOL    HW230036   3.432   1.710  17.313 -2.5347 -0.6610 -2.5346
 6192SOL     OW30037   1.041   0.943   2.265  0.4221 -0.1426 -0.4451
 6192SOL    HW130038   1.015   0.944   2.173 -1.0278  0.0682 -0.0329
 6192SOL    HW230039   0.954   0.959   2.301 -0.0137 -3.1558 -0.1399
 6193SOL     OW30040   0.788   0.837   2.726 -0.0087  0.2350  0.5977
 6193SOL    HW130041   0.779   0.830   2.631 -0.6858  1.4374  0.5727
 6193SOL    HW230042   0.845   0.761   2.735  2.6974  2.1996  0.2871
 6194SOL     OW30043   3.066   1.155  15.270 -0.2482 -0.1278 -0.3381
 6194SOL    HW130044   3.081   1.228  15.330  0.1548  0.0143 -0.6112
 6194SOL    HW230045   3.132   1.183  15.206 -0.7560 -1.9126 -1.6369
 6195SOL     OW30046   3.710   0.451  16.910 -0.1411 -0.1876 -0.1742
 6195SOL    HW130047   3.668   0.505  16.842 -0.0046  0.5637  0.3355
 6195SOL    HW230048   3.729   0.522  16.971  0.3164 -0.4825  0.0246
 6196SOL     OW30049   4.343   1.800   2.445 -0.4539  0.3380  0.1105
 6196SOL    HW130050   4.255   1.829   2.424  0.5265  1.1931 -2.7822
 6196SOL    HW230051   4.334   1.705   2.435 -0.3456  0.4390 -0.9285
 6197SOL     OW30052   2.181   0.191  13.501 -0.0826 -0.3034  0.1486
 6197SOL    HW130053   2.252   0.155  13.447 -0.8638 -1.3985 -0.1482
 6197SOL    HW230054   2.202   0.172  13.593 -0.9793  0.2233  0.4621
 6198SOL     OW30055   3.296   1.080   3.867  0.0670  0.0639  0.2806
 6198SOL    HW130056   3.206   1.106   3.851  0.7597  1.8399 -0.7361
 6198SOL    HW230057   3.354   1.156   3.859 -1.4742  1.2031  0.0945
 6199SOL     OW30058   3.617   4.697  17.226 -0.7553 -0.5894  0.0288
 6199SOL    HW130059   3.630   4.619  17.173 -0.5470 -0.1056 -0.6307
 6199SOL    HW230060   3.672   4.668  17.299 -1.6562 -1.4626  0.3590
 6200SOL     OW30061   2.307   0.112   2.976 -0.3441 -0.5238 -0.0098
 6200SOL    HW130062   2.255   0.183   2.938  2.2467  0.1405 -2.2531
 6200SOL    HW230063   2.385   0.164   2.995 -0.9588  0.7722 -1.0154
 6201SOL     OW30064   1.502   3.873   1.407 -0.0463  0.4064  0.2640
 6201SOL    HW130065   1.572   3.932   1.379 -0.5479  0.8852  0.0322
 6201SOL    HW230066   1.531   3.858   1.497 -1.9551 -0.6972  0.6968
 6202SOL     OW30067   2.813   4.028   7.044 -0.1912 -0.5094  0.1598
 6202SOL    HW130068   2.772   4.104   7.085 -0.2375 -1.2160  1.4286
 6202SOL    HW230069   2.901   4.062   7.025 -0.7838  2.6092  3.0302
 6203SOL     OW30070   1.054   1.392   5.996 -0.1901  0.1698  0.5723
 6203SOL    HW130071   1.037   1.469   6.051 -2.1475 -0.4720  0.8818
 6203SOL    HW230072   0.989   1.415   5.928 -0.1952  0.2108  0.5909
 6204SOL     OW30073   2.317   1.295   4.276  0.5159 -0.6687 -0.7115
 6204SOL    HW130074   2.412   1.290   4.271  0.6291  3.1272 -2.0756
 6204SOL    HW230075   2.303   1.344   4.195  1.2961 -0.3212 -0.6313
 6205SOL     OW30076   3.995   2.630   8.467 -0.2588  0.2591 -0.2653
 6205SOL    HW130077   3.978   2.707   8.521 -1.4325 -0.0402 -0.1988
 6205SOL    HW230078   4.081   2.609   8.504  1.0118  2.9070 -1.7405
 6206SOL     OW30079   0.667   1.527   2.330 -0.1553 -0.0109  0.1183
 6206SOL    HW130080   0.694   1.450   2.280  1.2852  0.9479 -0.6059
 6206SOL    HW230081   0.591   1.549   2.277 -0.2183  1.5023  0.8333
 6207SOL     OW30082   2.930   1.367   5.019  0.2686 -0.3686 -0.1968
 6207SOL    HW130083   3.003   1.426   5.002  2.1725 -1.8939  2.6768
 6207SOL    HW230084   2.857   1.421   4.989  0.3904  0.6153  1.2509
 6208SOL     OW30085   2.501   1.231   2.033  0.4926  0.4131  0.3767
 6208SOL    HW130086   2.569   1.252   2.097  1.9888  0.3829 -1.1988
 6208SOL    HW230087   2.496   1.319   1.996  2.0324 -0.8738 -2.9378
 6209SOL     OW30088   3.032   4.300   1.390 -0.9321 -0.3334 -0.2672
 6209SOL    HW130089   2.984   4.334   1.314 -0.4510  0.7835 -0.0724
 6209SOL    HW230090   3.031   4.204   1.390  2.0142 -0.3400  2.8820
 6210SOL     OW30091   2.585   2.493  11.118 -0.1621 -0.1733 -0.0276
 6210SOL    HW130092   2.608   2.578  11.155 -0.6462 -0.4030  0.8205
 6210SOL    HW230093   2.522   2.466  11.186 -0.2152 -0.2486 -0.1075
 6211SOL     OW30094   4.535   0.313   1.953  0.5885 -0.3337 -0.5474
 6211SOL    HW130095   4.460   0.261   1.984  2.1921 -2.5685 -0.4623
 6211SOL    HW230096   4.610   0.264   1.983  0.8003  1.0618  1.1700
 6212SOL     OW30097   0.202   4.596  14.911 -0.8389  0.4311  0.7209
 6212SOL    HW130098   0.126   4.651  14.931 -1.8105 -1.5564  2.5369
 6212SOL    HW230099   0.157   4.512  14.903 -0.2729  0.4369 -2.7921
 6213SOL     OW30100   3.007   4.497   9.194  0.0071  0.4270 -0.1220
 6213SOL    HW130101   2.941   4.441   9.234  2.5792 -1.1541  1.9202
 6213SOL    HW230102   3.047   4.530   9.274  0.7613  0.6845 -0.6082
 6214SOL     OW30103   3.517   3.445  13.981 -0.1865  0.5860 -0.2286
 6214SOL    HW130104   3.459   3.518  13.959  0.1957  0.9005 -0.1677
 6214SOL    HW230105   3.579   3.442  13.908  0.8650  1.2500  0.6586
 6215SOL     OW30106   2.927   4.367  12.530 -0.1888  0.0645  0.0643
 6215SOL    HW130107   2.948   4.274  12.540  2.6314  0.8161  1.1810
 6215SOL    HW230108   2.996   4.411  12.580 -0.6867  0.2611  0.5798
 6216SOL     OW30109   3.924   0.330  17.064 -0.0604  0.2091 -0.5030
 6216SOL    HW130110   3.927   0.400  17.129 -0.7173  0.2294 -0.4969
 6216SOL    HW230111   3.842   0.340  17.015 -2.5583 -1.1936  3.4196
 6217SOL     OW30112   2.232   4.113   7.541  0.2155 -0.0026 -0.1557
 6217SOL    HW130113   2.234   4.023   7.508  3.2848  0.3066 -0.7795
 6217SOL    HW230114   2.164   4.150   7.484  1.2375 -1.0105 -2.0228
 6218SOL     OW30115   1.204   4.093   0.681 -0.0061  0.0097  0.0219
 6218SOL    HW130116   1.281   4.041   0.655 -0.5620  0.1289 -1.8418
 6218SOL    HW230117   1.189   4.131   0.595 -1.3109  2.6690  1.4332
 6219SOL     OW30118   2.300   2.331   8.353 -0.4279 -0.6237  0.0326
 6219SOL    HW130119   2.275   2.242   8.330 -0.9636 -0.5971  0.5148
 6219SOL    HW230120   2.221   2.384   8.342 -1.3162 -2.1055 -0.8181
 6220SOL     OW30121   2.000   3.515   7.603  0.1672  0.1525  0.4959
 6220SOL    HW130122   2.060   3.565   7.658 -1.0096  0.4241  1.5188
 6220SOL    HW230123   1.931   3.579   7.585  0.8184  1.1277  1.4476
 6221SOL     OW30124   0.808   0.755   0.286  0.4946  0.6765  0.2545
 6221SOL    HW130125   0.865   0.789   0.217  1.6447 -0.8603  0.4393
 6221SOL    HW230126   0.789   0.826   0.348  2.7141  0.9500  0.6345
 6222SOL     OW30127   0.752   3.739  13.029 -0.3063 -0.1047 -0.1172
 6222SOL    HW130128   0.809   3.806  13.067 -1.0369 -0.7966  2.1992
 6222SOL    HW230129   0.673   3.764  13.078  0.6044 -1.7845  2.1610
 6223SOL     OW30130   1.936   3.767  12.531 -0.3988  0.5343  0.1648
 6223SOL    HW130131   1.936   3.672  12.522  2.6240  0.4288  1.2737
 6223SOL    HW230132   2.026   3.770  12.563 -0.5242 -0.5082  0.6045
 6224SOL     OW30133   3.647   4.651   2.940  0.4611  0.1473 -0.4265
 6224SOL    HW130134   3.723   4.637   2.885  0.4051  4.0295 -1.5315
 6224SOL    HW230135   3.625   4.558   2.948 -1.6489  0.6980  0.3339
 6225SOL     OW30136   0.136   1.545   0.233  0.3014 -0.2667  0.4482
 6225SOL    HW130137   0.049   1.573   0.206  0.7198 -0.2973 -0.9704
 6225SOL    HW230138   0.195   1.617   0.207  0.8516 -1.5354 -1.7818
 6226SOL     OW30139   0.154   4.375  17.693  0.0275  0.2066  0.6460
 6226SOL    HW130140   0.096   4.346   0.058  0.9728 -1.3616  0.7812
 6226SOL    HW230141   0.133   4.467  17.681  0.8589  0.2662 -0.3028
 6227SOL     OW30142   1.665   0.167   3.421  0.2005 -0.2126  0.0189
 6227SOL    HW130143   1.669   0.075   3.449  1.7459  0.3634  1.7232
 6227SOL    HW230144   1.628   0.158   3.333  0.2020 -0.5940  0.0592
 6228SOL     OW30145   1.315   1.436   6.524  0.1481  0.6508  0.1141
 6228SOL    HW130146   1.387   1.489   6.492  1.3884 -1.9384 -1.3986
 6228SOL    HW230147   1.286   1.400   6.440 -0.9139  0.8567  0.3910
 6229SOL     OW30148   2.306   3.795   3.138  0.4746 -0.2540 -0.2399
 6229SOL    HW130149   2.274   3.721   3.189  3.2115 -1.0850  0.2707
 6229SOL    HW230150   2.390   3.764   3.104  0.9818  0.2110  0.5965
 6230SOL     OW30151   3.168   3.585   7.360 -0.3443 -0.0160  0.2720
 6230SOL    HW130152   3.114   3.637   7.419  1.2000  1.7226  0.1359
 6230SOL    HW230153   3.098   3.537   7.314  1.0648 -1.1446 -0.6766
 6231SOL     OW30154   1.283   1.082   6.822 -0.3009 -0.0647  0.7921
 6231SOL    HW130155   1.322   1.167   6.804  1.0942 -1.0217 -0.7789
 6231SOL    HW230156   1.196   1.109   6.849 -0.2767  0.9168 -0.1219
 6232SOL     OW30157   1.234   4.509  15.724  0.0839  0.0307 -0.0670
 6232SOL    HW130158   1.250   4.461  15.805  0.1758  0.1506 -0.0128
 6232SOL    HW230159   1.141   4.527  15.739  0.2952 -0.2593  1.5518
 6233SOL     OW30160   1.288   3.701   4.349  0.0324 -0.0378  0.3295
 6233SOL    HW130161   1.307   3.647   4.425 -0.6497  0.3324  0.7613
 6233SOL    HW230162   1.237   3.769   4.392 -1.3236 -0.8996  0.1000
 6234SOL     OW30163   1.649   0.689   5.710  0.4668 -0.3385  0.1395
 6234SOL    HW130164   1.646   0.655   5.800  1.8860 -0.6811  0.0512
 6234SOL    HW230165   1.656   0.785   5.718  4.2883 -0.4500 -1.7072
 6235SOL     OW30166   2.483   0.857  11.295 -0.3275  0.2435 -0.0271
 6235SOL    HW130167   2.422   0.900  11.236 -1.9390 -1.4215  0.4346
 6235SOL    HW230168   2.565   0.868  11.246 -2.4397  0.2493 -3.5486
 6236SOL     OW30169   3.831   4.605   4.140  0.8447  1.0376 -0.1551
 6236SOL    HW130170   3.753   4.549   4.142  1.7314 -0.2626 -1.8049
 6236SOL    HW230171   3.892   4.549   4.093  1.4852 -1.0399  3.1010
 6237SOL     OW30172   4.059   1.191   8.076  0.8572 -0.3371  0.5358
 6237SOL    HW130173   3.995   1.262   8.071 -0.3317 -1.5466 -1.9140
 6237SOL    HW230174   4.006   1.132   8.130 -2.7189  2.2119 -0.2201
 6238SOL     OW30175   0.151   0.988   0.353  0.1992  0.4751  0.9310
 6238SOL    HW130176   0.154   1.081   0.375 -2.4312  0.5958  0.8318
 6238SOL    HW230177   0.077   0.958   0.407 -1.0443  0.8965 -0.5216
 6239SOL     OW30178   0.095   1.912   3.338  0.5014  0.5841  0.2690
 6239SOL    HW130179   0.077   1.818   3.348  0.4194  0.5679 -0.0331
 6239SOL    HW230180   0.027   1.933   3.275 -1.5562  0.5538  2.4887
 6240SOL     OW30181   0.033   0.218  10.159 -0.2320  0.1513  0.2326
 6240SOL    HW130182   4.708   0.189  10.083 -0.5193  1.1653  0.0469
 6240SOL    HW230183   0.108   0.263  10.120 -0.1502 -0.1780  0.0031
 6241SOL     OW30184   1.156   1.189   7.773  0.0840 -0.1292 -0.0802
 6241SOL    HW130185   1.228   1.197   7.710 -0.3864 -0.5455 -0.6766
 6241SOL    HW230186   1.203   1.202   7.855  0.0651  1.1781 -0.2813
 6242SOL     OW30187   1.848   1.278   5.470  0.5009 -0.0216 -0.2438
 6242SOL    HW130188   1.867   1.330   5.548  0.2483  0.2828 -0.3816
 6242SOL    HW230189   1.901   1.318   5.401 -1.7007 -0.3880 -2.1774
 6243SOL     OW30190   3.641   1.798   2.331  0.0535  0.3170  0.0390
 6243SOL    HW130191   3.692   1.770   2.255  1.4776  0.3429  0.9787
 6243SOL    HW230192   3.585   1.866   2.294  1.6943  1.8594  0.3999
 6244SOL     OW30193   4.381   3.821  12.061  0.1045  0.0097 -0.0898
 6244SOL    HW130194   4.408   3.889  11.999  2.1809 -0.7662 -0.0522
 6244SOL    HW230195   4.433   3.750  12.022  0.6182 -0.0872  0.7651
 6245SOL     OW30196   4.635   0.007  12.462  0.4685 -0.2217 -0.4383
 6245SOL    HW130197   4.710   4.703  12.513 -0.9490 -1.7774  0.7012
 6245SOL    HW230198   4.620   4.670  12.392  0.9381 -1.4395  0.5625
 6246SOL     OW30199   3.171   1.015   5.800 -0.2838 -0.0789 -0.4633
 6246SOL    HW130200   3.129   0.959   5.735  0.1865  0.7959 -1.5308
 6246SOL    HW230201   3.118   1.093   5.790 -0.7987 -0.4864 -0.9233
 6247SOL     OW30202   3.905   1.242  11.951  0.1993  0.7513 -0.4014
 6247SOL    HW130203   3.913   1.183  11.876  1.3131  0.8901 -0.3868
 6247SOL    HW230204   3.859   1.176  12.002 -2.2740  0.7193 -2.6442
 6248SOL     OW30205   1.466   3.108   7.583 -0.3451  0.3632 -0.5624
 6248SOL    HW130206   1.561   3.119   7.590 -0.1459 -2.0513  0.4665
 6248SOL    HW230207   1.469   3.013   7.586  1.1053  0.4289  0.0361
 6249SOL     OW30208   3.557   1.314  13.452  0.4022  0.2588 -0.4932
 6249SOL    HW130209   3.484   1.252  13.446  0.4074  0.4416 -2.4276
 6249SOL    HW230210   3.627   1.268  13.405 -0.1063  0.5938 -1.5778
 6250SOL     OW30211   1.170   0.783  14.817  0.2957 -0.4637 -0.0670
 6250SOL    HW130212   1.110   0.764  14.745  0.8051 -1.6467 -0.1869
 6250SOL    HW230213   1.150   0.704  14.868 -0.5063 -0.6938 -0.7284
 6251SOL     OW30214   2.248   1.229  11.042  0.1764 -0.5647 -0.3286
 6251SOL    HW130215   2.248   1.226  10.947 -1.6178 -0.3005 -0.3326
 6251SOL    HW230216   2.303   1.306  11.060 -0.4486 -0.7022  2.1332
 6252SOL     OW30217   4.452   2.665  15.417 -0.2333  0.2873  0.3233
 6252SOL    HW130218   4.429   2.734  15.479  0.2519  2.2186 -1.6352
 6252SOL    HW230219   4.531   2.636  15.463  0.7746 -1.5387 -2.5218
 6253SOL     OW30220   2.455   0.135   6.167 -0.2839  0.2976 -0.2753
 6253SOL    HW130221   2.497   0.198   6.108  2.4972 -1.0174  0.2543
 6253SOL    HW230222   2.501   0.058   6.133  3.9657  0.8720  4.1827
 6254SOL     OW30223   3.048   4.010   0.578  0.4668 -0.2915 -0.0001
 6254SOL    HW130224   2.958   3.997   0.550  0.0071 -0.4741  1.5422
 6254SOL    HW230225   3.051   4.105   0.572  3.0928 -0.3629 -0.0511
 6255SOL     OW30226   3.179   1.895   6.366  0.3035  0.4156  0.7127
 6255SOL    HW130227   3.153   1.820   6.419  0.4208  0.7934  1.3126
 6255SOL    HW230228   3.170   1.965   6.432 -0.1554 -0.1607  1.2591
 6256SOL     OW30229   2.129   4.463  12.407  0.6733  0.7436 -0.0431
 6256SOL    HW130230   2.176   4.381  12.424  0.6477  1.0352  1.4518
 6256SOL    HW230231   2.131   4.467  12.311  1.6651 -1.2063 -0.1166
 6257SOL     OW30232   0.980   0.188   8.084  0.2555 -0.9147 -0.0458
 6257SOL    HW130233   0.900   0.225   8.046  0.1173  0.6161  1.7312
 6257SOL    HW230234   0.985   0.109   8.030  3.0482 -0.5770 -0.2796
 6258SOL     OW30235   3.920   4.249   4.876 -0.2451  0.5074 -0.0784
 6258SOL    HW130236   3.849   4.189   4.899 -0.5309  0.5463 -0.8604
 6258SOL    HW230237   3.929   4.233   4.782  0.1847  0.2249  0.0110
 6259SOL     OW30238   4.145   0.045   9.077 -0.2666  0.7560  0.0297
 6259SOL    HW130239   4.095   0.125   9.059 -0.7219  0.5001  0.1361
 6259SOL    HW230240   4.094   4.725   9.144  1.7153 -1.3863  0.0386
 6260SOL     OW30241   4.293   2.355   4.241 -0.3876 -0.3795 -0.4305
 6260SOL    HW130242   4.199   2.348   4.223 -0.3539 -0.1875 -0.6851
 6260SOL    HW230243   4.297   2.450   4.244 -0.8754 -0.4283  1.5725
 6261SOL     OW30244   2.391   2.576  11.741  0.1989 -0.2595 -0.2985
 6261SOL    HW130245   2.306   2.582  11.783  0.0635  1.4708 -0.8198
 6261SOL    HW230246   2.426   2.658  11.775  1.4224 -1.5342  1.5106
 6262SOL     OW30247   2.423   2.141  10.278 -0.2733 -0.5262 -0.1131
 6262SOL    HW130248   2.495   2.078  10.291  0.5776  0.3220 -0.7738
 6262SOL    HW230249   2.480   2.216  10.292 -0.1291 -0.5224 -0.7062
 6263SOL     OW30250   2.940   4.459   6.130  0.1872  0.0263 -0.0367
 6263SOL    HW130251   3.029   4.491   6.144  0.0842  0.4040 -0.2139
 6263SOL    HW230252   2.915   4.423   6.215 -0.7637 -0.1031 -0.3771
 6264SOL     OW30253   1.922   2.983   3.649 -0.2231 -0.1635 -0.6085
 6264SOL    HW130254   1.834   2.994   3.687  0.0189 -0.8781  0.1623
 6264SOL    HW230255   1.965   2.951   3.728  2.8792  2.1594 -1.3810
 6265SOL     OW30256   2.390   3.507  13.085  0.5552  0.7278  0.0937
 6265SOL    HW130257   2.462   3.499  13.022 -1.1322  0.5147 -1.7946
 6265SOL    HW230258   2.429   3.578  13.137 -2.2256  1.3726  1.3202
 6266SOL     OW30259   2.445   2.373  11.307  0.8406 -0.0545  0.4403
 6266SOL    HW130260   2.383   2.301  11.296  1.1178 -0.2842  0.3822
 6266SOL    HW230261   2.403   2.428  11.372 -0.7381  1.5403 -1.9170
 6267SOL     OW30262   4.339   4.102  11.739 -0.4459  0.0857 -0.0906
 6267SOL    HW130263   4.310   4.031  11.683  0.9259 -2.2365  2.1647
 6267SOL    HW230264   4.415   4.064  11.783  0.1358  2.4653  0.9475
 6268SOL     OW30265   4.156   3.076   3.271  0.1984 -0.3669  0.0838
 6268SOL    HW130266   4.062   3.085   3.283  0.1433 -1.7398  0.6984
 6268SOL    HW230267   4.193   3.162   3.292 -2.2088  0.7138 -0.0587
 6269SOL     OW30268   2.638   1.625  15.080  0.5226  0.7060 -0.3563
 6269SOL    HW130269   2.605   1.604  14.993 -0.1231 -0.0256  0.0687
 6269SOL    HW230270   2.554   1.652  15.117 -0.6331  0.2398 -2.6732
 6270SOL     OW30271   1.626   4.628   3.531 -0.5034  0.3218  0.0339
 6270SOL    HW130272   1.623   4.673   3.616 -1.1731  0.8037 -0.2471
 6270SOL    HW230273   1.582   4.550   3.564 -0.5002  0.0804 -0.5469
 6271SOL     OW30274   2.978   1.595   5.601 -0.0194 -0.6146 -0.5893
 6271SOL    HW130275   2.979   1.632   5.689  1.2462 -1.7301 -0.1482
 6271SOL    HW230276   2.882   1.593   5.595 -0.0649  1.0118 -0.4027
 6272SOL     OW30277   4.045   2.692   5.180 -0.1039 -0.2509 -0.0776
 6272SOL    HW130278   3.994   2.713   5.102  0.5053  0.9936 -0.1531
 6272SOL    HW230279   4.135   2.697   5.147  0.6386 -2.1989  1.6736
 6273SOL     OW30280   4.091   3.715   2.151  0.0787  0.4290 -0.2921
 6273SOL    HW130281   4.109   3.623   2.169 -0.2716  0.4562  0.1843
 6273SOL    HW230282   4.094   3.747   2.240  1.4101 -1.2896  0.2859
 6274SOL     OW30283   4.134   2.150   2.039  0.0479 -0.3360  0.4418
 6274SOL    HW130284   4.114   2.174   2.130 -1.3778 -0.4460  0.1477
 6274SOL    HW230285   4.224   2.183   2.029  0.9381 -2.5729  1.0450
 6275SOL     OW30286   2.582   1.919  13.161 -0.1198  0.0235 -0.0222
 6275SOL    HW130287   2.498   1.918  13.114 -0.1938 -2.3056  0.2001
 6275SOL    HW230288   2.583   2.013  13.183 -1.2641  0.0480 -0.0738
 6276SOL     OW30289   0.368   3.245   9.986  0.3158  0.0695 -0.2672
 6276SOL    HW130290   0.418   3.170  10.017 -0.4021  0.3670  1.5980
 6276SOL    HW230291   0.418   3.313  10.031 -1.0393  0.5377  0.5260
 6277SOL     OW30292   3.740   3.741   9.808  0.7565 -0.1378 -0.2825
 6277SOL    HW130293   3.831   3.770   9.807  0.8186 -0.3234  0.1840
 6277SOL    HW230294   3.706   3.782   9.728 -0.9115  2.7987  1.9551
 6278SOL     OW30295   3.854   4.178   5.925 -0.2956 -0.1223  0.0365
 6278SOL    HW130296   3.810   4.123   5.991  0.7193  0.2407  1.0296
 6278SOL    HW230297   3.842   4.127   5.845  0.7021  2.5640 -1.8005
 6279SOL     OW30298   2.318   3.593   4.468  0.1009 -0.8471 -0.5328
 6279SOL    HW130299   2.339   3.570   4.377 -0.7917 -1.5116 -0.5744
 6279SOL    HW230300   2.223   3.576   4.472  0.1987 -1.2315  0.2304
 6280SOL     OW30301   1.284   3.810   4.718  0.5475  0.3713  0.4057
 6280SOL    HW130302   1.348   3.750   4.679  0.4576  0.8714 -0.4956
 6280SOL    HW230303   1.323   3.839   4.801  0.7435  1.1303  0.0510
 6281SOL     OW30304   2.507   0.188   5.449  0.0126 -0.3780 -0.4824
 6281SOL    HW130305   2.475   0.132   5.520  1.8746  0.8201  1.2900
 6281SOL    HW230306   2.433   0.188   5.388 -1.5123  2.9080  1.3921
 6282SOL     OW30307   1.470   0.978  11.648  0.5283  0.1973 -0.2629
 6282SOL    HW130308   1.414   0.967  11.572 -1.7252  0.9674  1.3008
 6282SOL    HW230309   1.430   0.909  11.702  1.2485  2.4548  3.1522
 6283SOL     OW30310   4.490   1.720   9.665  0.1111 -0.3932 -0.2374
 6283SOL    HW130311   4.486   1.642   9.610 -0.5676 -1.5104  1.3961
 6283SOL    HW230312   4.430   1.703   9.738  0.1478 -0.5560 -0.2458
 6284SOL     OW30313   2.049   3.881   7.944  0.8430  0.8943 -0.1767
 6284SOL    HW130314   2.037   3.963   7.992  2.0683  2.6450 -2.8728
 6284SOL    HW230315   2.053   3.916   7.855 -0.8564  0.2084 -0.5246
 6285SOL     OW30316   2.497   3.610   6.333  0.5173  0.0353 -0.1578
 6285SOL    HW130317   2.504   3.635   6.240 -1.8396 -0.0529 -0.3682
 6285SOL    HW230318   2.437   3.537   6.316 -1.5365  1.1073  2.4816
 6286SOL     OW30319   0.786   4.575   6.618 -0.1037 -0.0954 -0.1732
 6286SOL    HW130320   0.877   4.586   6.646 -0.7889 -0.4065  2.2386
 6286SOL    HW230321   0.738   4.537   6.692  1.2228  0.4061  0.9360
 6287SOL     OW30322   2.971   4.699   3.024 -0.2782 -0.1342 -0.0995
 6287SOL    HW130323   2.928   0.058   3.018  0.3140  0.1509 -0.2165
 6287SOL    HW230324   3.064   4.716   3.012 -0.4036  0.9115  0.3810
 6288SOL     OW30325   1.467   3.141   7.116 -0.0094 -0.6071 -0.0747
 6288SOL    HW130326   1.505   3.091   7.188  1.6786 -0.4303 -0.8375
 6288SOL    HW230327   1.496   3.091   7.040  1.2392  1.6702 -1.0749
 6289SOL     OW30328   2.269   2.561  15.073  0.0017  0.0024  0.1542
 6289SOL    HW130329   2.178   2.572  15.046 -0.4844  0.7707  2.0760
 6289SOL    HW230330   2.279   2.468  15.097  1.3304  0.1074  0.0339
 6290SOL     OW30331   2.016   2.818   7.947 -0.0934 -0.2144 -0.5451
 6290SOL    HW130332   2.060   2.846   8.027 -0.4225  1.7354 -1.0471
 6290SOL    HW230333   1.924   2.827   7.972  0.0961 -1.3168  0.5360
 6291SOL     OW30334   2.613   4.568   6.630  0.0997  0.1404  0.1197
 6291SOL    HW130335   2.543   4.587   6.568  2.1888  0.7893 -2.0180
 6291SOL    HW230336   2.670   4.643   6.615  1.7162 -1.5027 -1.8306
 6292SOL     OW30337   2.132   3.474   1.600  0.2105  0.1305 -0.7690
 6292SOL    HW130338   2.130   3.532   1.677 -1.6596 -0.8465 -0.0721
 6292SOL    HW230339   2.042   3.440   1.600 -0.2668  1.3545  1.1090
 6293SOL     OW30340   3.187   2.181  12.279  0.3047  0.0055  0.2121
 6293SOL    HW130341   3.210   2.088  12.285  0.4777  0.0918  0.9823
 6293SOL    HW230342   3.102   2.187  12.322 -0.4996 -0.8441 -1.2703
 6294SOL     OW30343   3.199   1.136   9.026 -0.0537 -0.6100 -0.4223
 6294SOL    HW130344   3.147   1.192   9.083  0.0022 -1.6656  0.6522
 6294SOL    HW230345   3.288   1.147   9.059  0.3106 -0.0100 -1.5751
 6295SOL     OW30346   4.630   3.820   9.539  0.0850  0.3282  0.1438
 6295SOL    HW130347   4.579   3.741   9.554  0.8845  0.0458  1.3729
 6295SOL    HW230348   4.715   3.787   9.568  0.2577  0.1656 -0.5638
 6296SOL     OW30349   1.805   3.165   5.975 -0.4783 -0.2508  0.0168
 6296SOL    HW130350   1.739   3.222   6.015  0.0538  1.4170 -1.4657
 6296SOL    HW230351   1.743   3.103   5.935  0.4506 -1.8401  1.0360
 6297SOL     OW30352   3.779   4.164   7.412  0.6408  0.5453  0.5846
 6297SOL    HW130353   3.775   4.245   7.462 -1.2769  0.3828  0.6811
 6297SOL    HW230354   3.692   4.173   7.374  0.8031  0.9568  0.3086
 6298SOL     OW30355   3.651   2.820   2.358 -1.0628 -0.5118  0.0794
 6298SOL    HW130356   3.699   2.786   2.433  2.9058 -1.3698 -2.8453
 6298SOL    HW230357   3.724   2.863   2.315 -1.0418  0.1481  0.7841
 6299SOL     OW30358   0.209   2.360   4.129  0.0569 -0.9886  0.5636
 6299SOL    HW130359   0.210   2.293   4.061 -0.1877 -0.3012 -0.1108
 6299SOL    HW230360   0.299   2.392   4.127  0.2147 -1.5184 -0.7500
 6300SOL     OW30361   2.232   0.435   2.496 -0.0764 -0.1871 -0.2398
 6300SOL    HW130362   2.237   0.339   2.499 -1.1936 -0.2717 -1.1352
 6300SOL    HW230363   2.323   0.462   2.485 -0.1669 -0.0367 -0.6351
 6301SOL     OW30364   0.178   1.581   4.141 -0.2467  0.7327 -0.0126
 6301SOL    HW130365   0.256   1.568   4.088 -1.3907 -0.8817 -1.2639
 6301SOL    HW230366   0.205   1.661   4.188 -0.3929  1.6774 -1.5533
 6302SOL     OW30367   1.117   0.049  16.942  0.1347  0.1156 -0.2985
 6302SOL    HW130368   1.099   0.116  17.008 -0.3447  0.3078 -0.6332
 6302SOL    HW230369   1.201   0.080  16.908 -0.9686  1.8950 -1.3297
 6303SOL     OW30370   4.377   3.203   7.466  0.4197  0.7189 -0.1564
 6303SOL    HW130371   4.431   3.142   7.517 -1.3109  1.6493  2.7479
 6303SOL    HW230372   4.354   3.272   7.528 -1.5817  1.1448 -1.3804
 6304SOL     OW30373   1.325   0.651   3.555  0.3035  0.3696  0.4286
 6304SOL    HW130374   1.348   0.723   3.496 -1.2582  0.8633  0.4338
 6304SOL    HW230375   1.330   0.582   3.488  1.1484  1.5586 -0.7302
 6305SOL     OW30376   0.463   2.694   2.213 -0.2515 -0.1167  0.0601
 6305SOL    HW130377   0.517   2.726   2.140  1.6687  0.6613  1.8035
 6305SOL    HW230378   0.375   2.707   2.177  0.1267  1.8590 -0.1765
 6306SOL     OW30379   4.023   1.142  13.672 -0.0907  0.0294  0.2900
 6306SOL    HW130380   3.977   1.218  13.706 -1.4521 -1.4817  1.8033
 6306SOL    HW230381   3.944   1.088  13.664  0.8113 -0.6715 -3.9509
 6307SOL     OW30382   0.508   3.536   2.215 -0.5887 -0.3708 -0.1818
 6307SOL    HW130383   0.555   3.547   2.132 -0.5216 -0.0484 -0.1005
 6307SOL    HW230384   0.428   3.585   2.196 -0.4808  0.2663  1.0243
 6308SOL     OW30385   3.262   2.756  12.342 -0.2838 -0.4809  0.1002
 6308SOL    HW130386   3.194   2.805  12.388 -1.6226 -0.1416 -2.2249
 6308SOL    HW230387   3.335   2.764  12.403  0.3286  0.3120 -0.7412
 6309SOL     OW30388   3.530   1.702   3.058  0.3737 -0.4683  0.0449
 6309SOL    HW130389   3.460   1.765   3.075  0.9109 -0.4345  2.1607
 6309SOL    HW230390   3.584   1.761   3.005 -1.1516  0.7095 -0.1982
 6310SOL     OW30391   1.977   3.244   8.403  0.3595  0.6542 -0.5436
 6310SOL    HW130392   1.923   3.277   8.475 -0.2414 -1.0905 -0.1938
 6310SOL    HW230393   1.959   3.316   8.342 -3.6410 -1.4631 -1.8786
 6311SOL     OW30394   0.864   0.741  15.450  0.0017 -0.4542 -0.1201
 6311SOL    HW130395   0.924   0.673  15.479  1.5693  0.2945 -1.5795
 6311SOL    HW230396   0.919   0.808  15.407  0.2687 -0.9393 -0.5311
 6312SOL     OW30397   2.222   1.609   5.517 -0.2269 -0.1084 -0.1833
 6312SOL    HW130398   2.155   1.591   5.451 -0.4290  0.9711 -0.2646
 6312SOL    HW230399   2.243   1.699   5.493 -1.8626 -0.0494 -1.3808
 6313SOL     OW30400   2.065   1.231   2.332 -0.1781 -0.0726 -0.0099
 6313SOL    HW130401   2.056   1.318   2.295 -0.3153  0.5522  1.5077
 6313SOL    HW230402   2.160   1.219   2.344  0.2752  1.5114 -1.9104
 6314SOL     OW30403   2.979   3.530   4.210 -0.1099 -0.4230 -0.4300
 6314SOL    HW130404   2.990   3.623   4.190 -0.5919 -0.7015 -1.9870
 6314SOL    HW230405   3.024   3.521   4.294 -1.1535 -1.7727 -0.0024
 6315SOL     OW30406   3.219   4.514   3.018  0.3127  0.3335  0.2021
 6315SOL    HW130407   3.286   4.575   3.051  1.5225 -1.0653  0.3465
 6315SOL    HW230408   3.194   4.472   3.100 -1.7905  2.2515  0.5480
 6316SOL     OW30409   2.241   4.452   7.337  0.0483 -0.0956  0.1267
 6316SOL    HW130410   2.156   4.490   7.316  0.8671  1.4562 -0.4104
 6316SOL    HW230411   2.249   4.458   7.432  0.9364  3.0580 -0.1331
 6317SOL     OW30412   3.627   2.769  11.766  0.0758 -0.5794 -1.0248
 6317SOL    HW130413   3.632   2.860  11.739  0.3568 -0.7954 -1.6939
 6317SOL    HW230414   3.535   2.750  11.752 -0.2959 -2.2133  3.3380
 6318SOL     OW30415   4.165   1.361   5.167 -0.3847 -0.5084 -0.3083
 6318SOL    HW130416   4.205   1.406   5.242 -1.7448 -1.2286  0.8486
 6318SOL    HW230417   4.189   1.271   5.190  0.1204 -0.4778 -0.7278
 6319SOL     OW30418   1.398   1.528  14.952  0.0493 -0.3692  0.5636
 6319SOL    HW130419   1.314   1.574  14.952 -0.3106 -0.9906 -1.8961
 6319SOL    HW230420   1.411   1.499  14.862 -0.3612  0.3312  0.2735
 6320SOL     OW30421   4.028   1.471   7.183 -0.0656 -0.0539  1.0527
 6320SOL    HW130422   4.028   1.566   7.168  2.1202 -0.3303 -0.7124
 6320SOL    HW230423   4.095   1.440   7.122 -1.4763 -2.3735  0.7084
 6321SOL     OW30424   1.598   1.957   6.673  0.1423  0.4224  0.1538
 6321SOL    HW130425   1.666   1.925   6.614 -0.2000  1.3154 -0.7204
 6321SOL    HW230426   1.593   2.050   6.652  2.0409  0.4785 -0.0244
 6322SOL     OW30427   1.559   1.388   0.114  0.2330 -0.3505 -0.1767
 6322SOL    HW130428   1.559   1.292   0.109  1.3354 -0.3060 -0.9844
 6322SOL    HW230429   1.650   1.414   0.125  0.2118 -0.6895  0.8122
 6323SOL     OW30430   3.386   0.268   9.522 -0.3928 -0.2421  0.2114
 6323SOL    HW130431   3.460   0.289   9.580  0.0779  0.1948 -0.5394
 6323SOL    HW230432   3.321   0.336   9.542  1.1947  0.8838  1.6283
 6324SOL     OW30433   4.318   2.545   6.709 -0.2748 -0.0293 -0.3895
 6324SOL    HW130434   4.409   2.566   6.684 -0.0471 -1.4241 -0.7385
 6324SOL    HW230435   4.310   2.598   6.788  0.3386 -0.2741 -0.1654
 6325SOL     OW30436   0.458   3.248   6.762 -0.0362 -0.1727  0.7806
 6325SOL    HW130437   0.535   3.197   6.736 -0.8215 -0.3062 -1.2644
 6325SOL    HW230438   0.447   3.310   6.689 -0.0661  0.5524  1.4049
 6326SOL     OW30439   4.095   1.253  10.922 -0.0183  0.3281  0.1023
 6326SOL    HW130440   4.167   1.220  10.869 -0.4498 -3.9653  2.2211
 6326SOL    HW230441   4.137   1.317  10.980  0.9973 -1.7629  1.6562
 6327SOL     OW30442   2.272   1.555  15.728  0.5442 -0.2922 -0.6767
 6327SOL    HW130443   2.177   1.546  15.720  0.7012 -1.6204 -1.1526
 6327SOL    HW230444   2.289   1.565  15.635 -0.1474 -0.3058 -0.8064
 6328SOL     OW30445   2.984   3.998   7.459  0.7846  0.4026  0.0266
 6328SOL    HW130446   2.888   4.001   7.455  0.8342  1.3108 -0.5388
 6328SOL    HW230447   3.000   4.079   7.409 -0.0387  0.1988 -0.5765
 6329SOL     OW30448   1.003   0.273   3.051 -0.0052  0.4267  0.2265
 6329SOL    HW130449   0.916   0.252   3.017 -0.0390  0.8044  0.0762
 6329SOL    HW230450   1.060   0.223   2.994  0.7740  1.0861  0.4292
 6330SOL     OW30451   1.583   1.182   8.384  0.8120  0.0471  0.1197
 6330SOL    HW130452   1.543   1.186   8.297  2.1067 -1.2814 -0.5309
 6330SOL    HW230453   1.512   1.152   8.442 -0.9033  3.1800 -0.3672
 6331SOL     OW30454   3.490   0.704  13.316 -0.1129  0.6363 -0.0505
 6331SOL    HW130455   3.476   0.797  13.296  2.6683  0.8649 -1.0768
 6331SOL    HW230456   3.474   0.668  13.229  3.8635 -0.3954 -0.3593
 6332SOL     OW30457   4.588   4.375   3.223  0.0290  0.7219 -0.1793
 6332SOL    HW130458   4.638   4.294   3.228 -1.7033 -0.2859  0.8451
 6332SOL    HW230459   4.600   4.413   3.310  1.7604 -0.8919  0.2744
 6333SOL     OW30460   4.365   2.229   4.723 -0.1379  0.0312  0.3108
 6333SOL    HW130461   4.305   2.155   4.735 -0.1523  0.2480  1.5618
 6333SOL    HW230462   4.379   2.216   4.629  0.4276 -0.9566  0.5422
 6334SOL     OW30463   4.189   3.628   5.716  1.2286  0.1321 -0.5751
 6334SOL    HW130464   4.212   3.654   5.627  2.3569 -1.3833 -0.7290
 6334SOL    HW230465   4.099   3.660   5.711  1.3201  0.6018  0.6536
 6335SOL     OW30466   2.420   2.578   3.833  0.1935 -0.3078  0.1225
 6335SOL    HW130467   2.450   2.634   3.761 -0.2147 -1.7784 -1.2092
 6335SOL    HW230468   2.341   2.630   3.846  1.0282  1.0784 -0.3642
 6336SOL     OW30469   1.980   1.314   4.768 -0.4160 -0.5885 -0.3150
 6336SOL    HW130470   1.918   1.280   4.832  0.8284  0.4964  1.4536
 6336SOL    HW230471   1.920   1.319   4.693 -1.6822 -2.2633  0.5715
 6337SOL     OW30472   0.261   2.726   4.111  0.3542  0.0653  0.2494
 6337SOL    HW130473   0.201   2.654   4.091 -0.5001  0.8289  0.0651
 6337SOL    HW230474   0.286   2.705   4.202 -1.9546 -3.8881 -0.0090
 6338SOL     OW30475   4.177   3.572   4.875 -0.3836  0.4531  0.0396
 6338SOL    HW130476   4.142   3.656   4.904  0.4494  0.6674  0.4330
 6338SOL    HW230477   4.219   3.583   4.790 -1.7842 -1.8981 -0.9561
 6339SOL     OW30478   0.710   1.016   5.943 -0.4722  0.5594 -0.0373
 6339SOL    HW130479   0.684   1.056   6.026 -1.1744  1.7142 -0.8156
 6339SOL    HW230480   0.797   0.991   5.975 -1.5425  0.9009  3.1885
 6340SOL     OW30481   2.575   1.031   0.058  0.4748 -0.5075 -0.6416
 6340SOL    HW130482   2.484   1.032   0.087  1.0182 -0.2292  1.0541
 6340SOL    HW230483   2.593   1.120   0.029  1.2211  0.0599  1.5319
 6341SOL     OW30484   0.781   2.223   4.455 -0.1279  0.1984  0.4707
 6341SOL    HW130485   0.793   2.316   4.435  1.4886 -0.7093 -2.7222
 6341SOL    HW230486   0.819   2.185   4.376 -1.4813  0.7744 -0.4629
 6342SOL     OW30487   2.624   3.826   4.875  0.2351  0.0754  0.2550
 6342SOL    HW130488   2.564   3.900   4.881  1.0153  0.7491 -0.2961
 6342SOL    HW230489   2.567   3.766   4.826 -0.3233  0.4936  0.3916
 6343SOL     OW30490   3.807   2.531   9.535  0.0021  0.6906 -0.3223
 6343SOL    HW130491   3.858   2.460   9.494 -0.4082 -0.8031  1.7411
 6343SOL    HW230492   3.760   2.487   9.606 -0.6552  0.5208 -0.8716
 6344SOL     OW30493   1.958   0.731   7.945  0.6376  0.1332 -0.3634
 6344SOL    HW130494   2.038   0.780   7.926  1.9198 -1.0179  2.0363
 6344SOL    HW230495   1.926   0.772   8.026  1.6193  0.9886 -0.4082
 6345SOL     OW30496   3.753   3.818   7.102  0.4592 -0.3541 -0.0068
 6345SOL    HW130497   3.687   3.763   7.059  1.1272  0.8887 -2.6598
 6345SOL    HW230498   3.713   3.904   7.094 -0.4944 -0.8189 -0.2929
 6346SOL     OW30499   1.189   1.645   8.488  0.0922 -0.8182 -0.0353
 6346SOL    HW130500   1.268   1.609   8.529  1.8950  1.1915 -1.7067
 6346SOL    HW230501   1.206   1.739   8.480 -1.7044 -0.3741  1.6676
 6347SOL     OW30502   4.678   0.150   9.642  0.3496 -0.2602 -0.2791
 6347SOL    HW130503   0.004   0.195   9.708 -0.6767  1.8690 -0.9159
 6347SOL    HW230504   4.664   0.065   9.683  0.4556  0.3848  1.1109
 6348SOL     OW30505   1.230   0.092  13.770  0.4075 -0.3473 -0.5609
 6348SOL    HW130506   1.303   0.102  13.831  0.5603  1.3386 -1.0120
 6348SOL    HW230507   1.170   0.032  13.815 -0.8312  0.8133 -0.6522
 6349SOL     OW30508   2.453   1.960  17.652 -0.1348  0.5588  0.1608
 6349SOL    HW130509   2.448   2.035   0.005  0.3880 -1.0537  2.2202
 6349SOL    HW230510   2.400   1.905   0.003  0.9725 -0.0802  0.5865
 6350SOL     OW30511   4.687   1.693   8.149  0.2301 -0.0516  0.3709
 6350SOL    HW130512   4.606   1.650   8.175 -0.6673  2.0042  0.9836
 6350SOL    HW230513   0.011   1.654   8.219  1.3897 -0.8196 -0.8944
 6351SOL     OW30514   0.967   2.213  15.452  0.3754  0.1629  0.3557
 6351SOL    HW130515   0.881   2.173  15.440 -0.4277  1.6015  1.2168
 6351SOL    HW230516   0.945   2.262  15.531 -1.6062 -1.3123  0.6981
 6352SOL     OW30517   1.761   1.043   9.175 -0.6405  0.1501  0.5633
 6352SOL    HW130518   1.749   1.027   9.268  0.5548 -0.9317  0.5151
 6352SOL    HW230519   1.702   1.118   9.167  0.6514  1.0420 -0.6857
 6353SOL     OW30520   0.399   3.441   1.021  0.4816  0.2144  0.4099
 6353SOL    HW130521   0.346   3.368   0.989 -0.7550  1.1897  0.1929
 6353SOL    HW230522   0.465   3.402   1.078 -1.6160  1.7846  3.9647
 6354SOL     OW30523   3.856   2.913  11.151 -0.2321 -0.4847  0.1934
 6354SOL    HW130524   3.811   2.997  11.141 -0.6002 -0.6539  0.4340
 6354SOL    HW230525   3.842   2.892  11.243 -1.2583  0.1566  0.1867
 6355SOL     OW30526   2.567   1.811   9.791 -0.0009  0.0309 -0.1643
 6355SOL    HW130527   2.614   1.778   9.867  1.2607  1.5171 -0.2925
 6355SOL    HW230528   2.623   1.887   9.773 -0.4553  0.7174  1.3372
 6356SOL     OW30529   0.102   0.730   3.503 -0.4686 -0.1561  0.0972
 6356SOL    HW130530   0.134   0.663   3.565  0.4497 -0.0311 -0.2402
 6356SOL    HW230531   0.181   0.767   3.464  0.5183  0.4699  2.6769
 6357SOL     OW30532   2.064   1.206   8.586 -0.2629  0.2031 -0.4319
 6357SOL    HW130533   1.971   1.218   8.566 -0.8217  1.3581  2.7578
 6357SOL    HW230534   2.069   1.118   8.622 -2.3187  0.4505  0.5081
 6358SOL     OW30535   1.593   0.544   4.481 -0.5532 -0.1271 -0.4787
 6358SOL    HW130536   1.547   0.628   4.480 -2.1869 -1.0515 -1.4868
 6358SOL    HW230537   1.523   0.488   4.449  1.1230 -1.4624 -1.8308
 6359SOL     OW30538   0.855   4.478  16.041  0.0133 -0.2027 -0.1059
 6359SOL    HW130539   0.861   4.414  15.970  2.5909  0.9964 -0.9635
 6359SOL    HW230540   0.853   4.420  16.117 -3.0048 -0.7660 -0.6146
 6360SOL     OW30541   3.762   2.916   7.337 -0.3094 -0.0422  0.3315
 6360SOL    HW130542   3.682   2.959   7.368  0.0061  0.2123  0.7924
 6360SOL    HW230543   3.771   2.832   7.383 -0.6461 -0.7640 -0.9334
 6361SOL     OW30544   0.527   4.175   0.052  0.5314 -0.7409 -0.0184
 6361SOL    HW130545   0.576   4.247   0.091  0.0533  0.1127 -0.9693
 6361SOL    HW230546   0.481   4.225  17.691 -1.2199 -0.7377  1.1690
 6362SOL     OW30547   3.394   3.658  15.952 -0.0154 -0.0830  0.3047
 6362SOL    HW130548   3.411   3.569  15.983  1.6511  0.4402  0.9218
 6362SOL    HW230549   3.438   3.648  15.867 -0.6051 -0.6538  0.0614
 6363SOL     OW30550   1.837   1.612   2.055 -0.0635 -0.3739 -0.8100
 6363SOL    HW130551   1.869   1.635   1.968  2.8244  0.5559  0.4653
 6363SOL    HW230552   1.757   1.664   2.061  0.0497 -0.3703  0.7984
 6364SOL     OW30553   3.732   4.057   3.910  0.1138  0.2766  0.2202
 6364SOL    HW130554   3.769   4.134   3.866 -1.2210  0.5526 -0.4289
 6364SOL    HW230555   3.674   4.031   3.838 -1.1259 -0.0725  1.3593
 6365SOL     OW30556   3.261   0.523   8.563  0.0110  0.2955  0.5900
 6365SOL    HW130557   3.195   0.591   8.547 -0.7985  0.2545  3.6783
 6365SOL    HW230558   3.208   0.447   8.541  1.7384 -1.1049  1.3291
 6366SOL     OW30559   2.718   4.646   7.687  0.2716 -0.0632 -0.1116
 6366SOL    HW130560   2.678   4.693   7.614 -2.2672  1.1322  2.0324
 6366SOL    HW230561   2.687   4.699   7.760 -0.7908 -0.8819  0.0335
 6367SOL     OW30562   1.030   0.128   6.076 -0.3957 -0.0612 -0.5239
 6367SOL    HW130563   0.940   0.160   6.069 -0.9534 -2.0665 -2.6009
 6367SOL    HW230564   1.074   0.201   6.031  0.3361  0.7764  1.5720
 6368SOL     OW30565   1.440   2.808  11.346  0.3558  0.1985  0.6222
 6368SOL    HW130566   1.350   2.837  11.360  0.2729 -0.0547  0.6068
 6368SOL    HW230567   1.439   2.757  11.427 -1.3731 -0.4709  0.1711
 6369SOL     OW30568   4.494   1.493  11.912  0.3587 -0.0386 -0.2319
 6369SOL    HW130569   4.491   1.469  12.005  1.5772  0.8796  0.0470
 6369SOL    HW230570   4.550   1.570  11.921  0.7763 -0.1508 -1.8497
 6370SOL     OW30571   1.935   0.753   5.700  0.8416 -0.3574  0.0181
 6370SOL    HW130572   1.951   0.847   5.704 -0.6634 -0.1586  1.4755
 6370SOL    HW230573   1.998   0.726   5.768 -1.0582  0.4712  2.1042
 6371SOL     OW30574   1.413   2.274   3.586 -0.6089 -0.3298 -0.0046
 6371SOL    HW130575   1.447   2.307   3.669 -0.1477  0.2293 -0.4135
 6371SOL    HW230576   1.392   2.354   3.537 -0.3520 -1.0110 -1.2272
 6372SOL     OW30577   1.940   3.873   5.848 -0.4488  0.3591 -0.1087
 6372SOL    HW130578   1.849   3.852   5.870 -0.6735  2.1496  0.7266
 6372SOL    HW230579   1.965   3.895   5.938 -0.9974  0.3041  0.0627
 6373SOL     OW30580   3.896   0.202   3.742 -0.1627  0.0517 -0.1774
 6373SOL    HW130581   3.964   0.230   3.681  1.3501  0.5655  1.7445
 6373SOL    HW230582   3.954   0.163   3.807 -1.4764  0.7791  1.4194
 6374SOL     OW30583   1.647   4.643   2.564 -0.0170 -0.2988  0.0863
 6374SOL    HW130584   1.697   4.718   2.597  0.9736 -0.6186 -0.6945
 6374SOL    HW230585   1.571   4.687   2.527  0.3393  0.4282  0.2182
 6375SOL     OW30586   1.038   1.554   2.529 -0.1073  0.1981 -0.1040
 6375SOL    HW130587   1.022   1.648   2.519 -0.0953  0.3788  1.5588
 6375SOL    HW230588   1.132   1.557   2.543 -0.0323 -0.9215 -0.4432
 6376SOL     OW30589   4.468   2.233  15.190 -0.0988  0.3052 -0.3787
 6376SOL    HW130590   4.544   2.292  15.198  1.1475 -0.9835 -2.5799
 6376SOL    HW230591   4.403   2.286  15.235  0.9413 -0.1135  1.6281
 6377SOL     OW30592   2.752   0.533   2.444 -0.0463  0.4625  0.1271
 6377SOL    HW130593   2.776   0.479   2.520 -1.4978 -2.6448 -1.6318
 6377SOL    HW230594   2.834   0.524   2.396  0.5715 -0.0649  1.2624
 6378SOL     OW30595   3.246   3.130  13.026  0.2202  0.2374  0.0213
 6378SOL    HW130596   3.154   3.127  13.051  1.0400 -3.2175  2.6585
 6378SOL    HW230597   3.283   3.093  13.107  1.5141 -0.1870 -0.7632
 6379SOL     OW30598   2.923   1.225  10.412  0.5319  0.5144  0.4873
 6379SOL    HW130599   2.926   1.217  10.317 -0.7304  0.9675  0.4138
 6379SOL    HW230600   2.833   1.196  10.430  1.3679 -1.7877  0.9626
 6380SOL     OW30601   2.203   0.733   5.502  0.0578 -0.1637  0.4809
 6380SOL    HW130602   2.119   0.766   5.535  0.5959  2.6698 -0.9576
 6380SOL    HW230603   2.160   0.659   5.457  0.7890 -1.1339  1.3927
 6381SOL     OW30604   4.060   4.503   5.159 -0.3190 -0.5391 -0.0495
 6381SOL    HW130605   4.068   4.421   5.111 -0.1649 -1.1969  1.0884
 6381SOL    HW230606   4.107   4.555   5.094 -0.0051 -1.0693 -0.2492
 6382SOL     OW30607   3.818   1.418   8.371  0.0754 -0.2791 -0.3171
 6382SOL    HW130608   3.825   1.508   8.404  1.8674 -0.3265 -0.5269
 6382SOL    HW230609   3.862   1.427   8.286 -1.2315  0.3879 -0.9316
 6383SOL     OW30610   4.606   4.138   3.708  0.1522 -0.3485 -0.4428
 6383SOL    HW130611   4.676   4.073   3.712 -0.1310 -0.6383 -0.2690
 6383SOL    HW230612   4.625   4.157   3.800  1.2184 -0.5113 -0.6245
 6384SOL     OW30613   3.385   4.124  11.608 -0.0222 -0.2581 -0.3168
 6384SOL    HW130614   3.329   4.187  11.654  1.0441 -1.4328  2.6018
 6384SOL    HW230615   3.401   4.065  11.682 -0.5582 -1.8559 -1.4700
 6385SOL     OW30616   3.515   3.045  15.270  0.4320 -0.1739  0.0083
 6385SOL    HW130617   3.582   2.992  15.226 -0.5494  0.8575 -2.6720
 6385SOL    HW230618   3.434   3.014  15.229  1.6162 -0.6863 -1.9143
 6386SOL     OW30619   3.850   0.776  15.550  0.5250 -0.1505  0.5567
 6386SOL    HW130620   3.780   0.777  15.616 -0.5459 -1.8202 -0.5440
 6386SOL    HW230621   3.887   0.693  15.580  0.8840  0.2382  1.1722
 6387SOL     OW30622   2.804   1.422  15.204  0.0677  0.0350  0.5148
 6387SOL    HW130623   2.787   1.382  15.119 -0.1419 -0.7551  0.9198
 6387SOL    HW230624   2.738   1.491  15.207  0.1632  0.2948 -4.4806
 6388SOL     OW30625   2.959   4.679  10.858  0.3731 -0.0688 -0.0391
 6388SOL    HW130626   2.933   4.604  10.804  2.2632 -2.0639  1.9055
 6388SOL    HW230627   3.054   4.671  10.856  0.4280  0.7464 -1.2814
 6389SOL     OW30628   2.526   0.535   8.546  0.0192 -0.1105 -0.1025
 6389SOL    HW130629   2.502   0.617   8.503 -0.5713  0.1372  0.7029
 6389SOL    HW230630   2.621   0.529   8.533 -0.0485 -1.3596  0.0537
 6390SOL     OW30631   0.025   3.414   7.459  0.5157  0.2194  0.1234
 6390SOL    HW130632   0.089   3.423   7.388  0.6043  0.1388  0.1937
 6390SOL    HW230633   0.064   3.340   7.505 -1.6795  0.4741  2.3606
 6391SOL     OW30634   1.420   3.337   6.892 -0.2511  0.6355  0.0162
 6391SOL    HW130635   1.432   3.345   6.987  0.3400 -1.5839  0.1428
 6391SOL    HW230636   1.345   3.277   6.888  1.4440 -1.6996  2.5514
 6392SOL     OW30637   2.251   2.055   8.361  0.3578  0.7231 -0.2421
 6392SOL    HW130638   2.253   2.034   8.454  0.1786  0.7995 -0.2201
 6392SOL    HW230639   2.157   2.069   8.346 -0.0363 -0.7172  0.9105
 6393SOL     OW30640   3.500   3.110  16.508 -0.5683 -0.3895 -0.5746
 6393SOL    HW130641   3.436   3.107  16.437  1.2742  0.3576 -2.2468
 6393SOL    HW230642   3.565   3.163  16.463 -0.4979 -1.9186 -2.2622
 6394SOL     OW30643   0.954   2.220   6.525  0.0846 -0.1976  0.2551
 6394SOL    HW130644   0.921   2.142   6.481 -0.4181 -0.8058  1.7159
 6394SOL    HW230645   0.874   2.260   6.559  0.2356  1.6716 -1.5854
 6395SOL     OW30646   3.381   3.386   2.142  0.2875 -0.0020  0.4838
 6395SOL    HW130647   3.305   3.441   2.124  0.3825  0.1074  0.4122
 6395SOL    HW230648   3.347   3.297   2.153  0.8986  0.1371  3.3569
 6396SOL     OW30649   3.704   2.500  17.473 -0.5791  0.1741  0.3859
 6396SOL    HW130650   3.663   2.562  17.534 -2.0741 -1.5725  1.1657
 6396SOL    HW230651   3.718   2.559  17.400 -0.6034  0.4198  0.5773
 6397SOL     OW30652   4.702   2.587   5.627  0.7947  0.0102 -0.5053
 6397SOL    HW130653   4.634   2.523   5.607  1.2334 -0.1492 -1.4523
 6397SOL    HW230654   0.047   2.525   5.614  2.1533  1.2358  1.0251
 6398SOL     OW30655   2.917   0.956   9.767 -0.2646 -0.2955 -0.2760
 6398SOL    HW130656   2.858   0.937   9.839 -1.8838 -0.8576 -1.7638
 6398SOL    HW230657   2.992   0.903   9.793  0.1633  0.3188 -0.2430
 6399SOL     OW30658   4.075   3.838   4.970  0.2614  0.6785  0.2371
 6399SOL    HW130659   4.032   3.886   5.040 -0.0387 -1.0320  1.2404
 6399SOL    HW230660   4.164   3.870   4.985  0.1602 -0.0498  2.3699
 6400SOL     OW30661   0.277   3.899   8.733  0.0212  0.4734 -0.4523
 6400SOL    HW130662   0.304   3.862   8.649  0.8052  1.7628 -0.7676
 6400SOL    HW230663   0.301   3.991   8.723 -2.7268  1.3194  0.8368
 6401SOL     OW30664   0.434   1.916   9.384 -0.3561  0.0652  0.1586
 6401SOL    HW130665   0.450   1.999   9.430 -1.6313 -0.7392  2.0442
 6401SOL    HW230666   0.427   1.857   9.459 -1.7843 -0.2375 -0.2159
 6402SOL     OW30667   1.611   3.513   1.552  0.5860 -0.4136  0.0666
 6402SOL    HW130668   1.558   3.463   1.614 -0.9875  1.0995 -0.0454
 6402SOL    HW230669   1.698   3.499   1.590  1.3885 -1.6799 -2.2232
 6403SOL     OW30670   1.251   0.763   2.130  1.0711 -0.2162  0.3752
 6403SOL    HW130671   1.282   0.737   2.043  2.0404  1.7302  0.1534
 6403SOL    HW230672   1.156   0.756   2.122  1.2708 -1.9321 -0.6338
 6404SOL     OW30673   0.426   2.266   8.623 -0.2026 -0.6097 -0.1032
 6404SOL    HW130674   0.344   2.270   8.673  0.0727 -0.2137  0.3272
 6404SOL    HW230675   0.492   2.292   8.687 -0.7937  2.3789 -0.7063
 6405SOL     OW30676   2.608   3.115   4.965  0.1276  0.4808 -0.3881
 6405SOL    HW130677   2.526   3.149   5.000 -0.5549 -0.5684 -0.9652
 6405SOL    HW230678   2.654   3.079   5.042 -1.5124  1.3276  0.9822
 6406SOL     OW30679   1.233   1.420   8.907 -0.1440 -0.1528  0.6462
 6406SOL    HW130680   1.251   1.382   8.821 -2.0553  2.7433 -1.0212
 6406SOL    HW230681   1.286   1.499   8.901  0.5137 -0.5561  1.0533
 6407SOL     OW30682   0.598   0.802   6.165 -0.4593  0.3924  0.1562
 6407SOL    HW130683   0.511   0.836   6.182 -0.4366 -0.6245  2.2875
 6407SOL    HW230684   0.611   0.767   6.253  1.1144 -1.2493 -0.7212
 6408SOL     OW30685   2.009   0.332   2.643 -0.1926 -0.1643 -0.1538
 6408SOL    HW130686   2.056   0.388   2.581  0.3561  0.1328  0.5246
 6408SOL    HW230687   1.972   0.270   2.582  0.9223 -0.4680 -0.5301
 6409SOL     OW30688   3.000   1.153  13.024 -0.5600 -0.3501 -0.4586
 6409SOL    HW130689   3.050   1.085  12.978 -0.9458 -1.3728  0.6074
 6409SOL    HW230690   3.063   1.159  13.096 -0.4865 -1.0488 -0.4635
 6410SOL     OW30691   2.647   3.930   1.167 -0.5847 -0.3263 -0.0900
 6410SOL    HW130692   2.710   3.948   1.098 -0.9610  0.5483 -0.2080
 6410SOL    HW230693   2.651   4.014   1.211  1.2757 -0.4126 -0.1270
 6411SOL     OW30694   0.151   2.245  16.367 -0.0734  0.2529 -0.4313
 6411SOL    HW130695   0.117   2.156  16.355 -0.3707  0.4846 -1.3025
 6411SOL    HW230696   0.244   2.225  16.359 -0.3720 -2.4144  3.2063
 6412SOL     OW30697   3.586   3.810   8.922 -0.3127  0.8979 -0.5201
 6412SOL    HW130698   3.529   3.736   8.941 -0.0093  0.3874 -1.5868
 6412SOL    HW230699   3.598   3.797   8.828 -1.4085 -0.7181 -0.4338
 6413SOL     OW30700   1.360   2.233  13.175 -0.5901  0.1840 -0.3525
 6413SOL    HW130701   1.325   2.197  13.257  0.1453  2.0553  0.7702
 6413SOL    HW230702   1.333   2.321  13.199 -1.4857 -0.5318  1.3338
 6414SOL     OW30703   4.510   2.493   3.391  0.0954  0.2207  0.4585
 6414SOL    HW130704   4.542   2.579   3.363  1.0439 -0.2921 -0.0565
 6414SOL    HW230705   4.589   2.450   3.425 -0.8792 -1.2720  0.8072
 6415SOL     OW30706   0.598   2.194  14.860  0.4421 -0.7177 -0.6242
 6415SOL    HW130707   0.675   2.194  14.917  0.0692  0.1417 -0.1005
 6415SOL    HW230708   0.600   2.110  14.815  2.6481 -0.5592 -0.8045
 6416SOL     OW30709   2.229   1.711  13.243  0.3461  0.8523 -0.1015
 6416SOL    HW130710   2.141   1.708  13.281  1.0770 -0.6120  1.4609
 6416SOL    HW230711   2.241   1.626  13.201 -0.2910  0.0825  1.2643
 6417SOL     OW30712   4.403   1.873   0.588  0.0517  0.6597 -0.0215
 6417SOL    HW130713   4.425   1.911   0.673 -0.3227  0.0868  0.3309
 6417SOL    HW230714   4.314   1.905   0.578 -0.2631 -0.3190 -0.3470
 6418SOL     OW30715   2.656   3.763   1.976  0.0839  0.1258 -0.3983
 6418SOL    HW130716   2.647   3.854   2.002 -1.4335  0.2870 -1.4918
 6418SOL    HW230717   2.570   3.722   1.982  0.4682 -0.6343 -0.0940
 6419SOL     OW30718   3.859   0.558   6.067 -0.1230 -0.0215 -0.0245
 6419SOL    HW130719   3.944   0.561   6.112 -0.0317  1.0136 -0.2608
 6419SOL    HW230720   3.812   0.488   6.110 -0.0260 -0.1518 -0.1298
 6420SOL     OW30721   0.398   4.346  17.579  0.4303  0.4683 -0.5509
 6420SOL    HW130722   0.313   4.367  17.618  0.8612  0.8520  0.1897
 6420SOL    HW230723   0.381   4.324  17.488 -1.5819  1.8768 -0.5281
 6421SOL     OW30724   3.710   1.755   1.356  0.4774  0.0755  0.0131
 6421SOL    HW130725   3.776   1.821   1.335  0.5191  0.0271 -0.0081
 6421SOL    HW230726   3.658   1.769   1.276  3.1252  3.3784 -1.1117
 6422SOL     OW30727   3.295   3.899  13.702  0.5456 -0.2736  0.1867
 6422SOL    HW130728   3.223   3.932  13.756 -0.0860  1.6062 -1.7904
 6422SOL    HW230729   3.346   3.979  13.690 -0.0444  0.0160 -0.4131
 6423SOL     OW30730   1.514   0.098   3.188 -0.3887  0.1913 -0.3156
 6423SOL    HW130731   1.526   0.111   3.094  3.3781 -1.2347 -0.0283
 6423SOL    HW230732   1.517   0.002   3.185 -2.3567  0.0848  1.9561
 6424SOL     OW30733   3.117   4.695   5.346  0.3056  0.0661  0.1598
 6424SOL    HW130734   3.197   4.655   5.379 -0.5487 -0.6769  1.3276
 6424SOL    HW230735   3.060   4.672   5.419  0.1339  0.2133  0.0721
 6425SOL     OW30736   2.781   3.510  17.633 -0.5185  0.0460 -0.3914
 6425SOL    HW130737   2.799   3.538   0.016 -0.0394 -0.4385 -0.3357
 6425SOL    HW230738   2.689   3.528  17.615 -0.6164 -0.3528 -0.2916
 6426SOL     OW30739   3.816   1.329   7.305 -0.0704 -0.5141 -0.3980
 6426SOL    HW130740   3.888   1.380   7.268 -1.0316  1.5920  0.6171
 6426SOL    HW230741   3.752   1.333   7.235  1.2465  1.5422 -1.4877
 6427SOL     OW30742   2.649   2.825   8.445 -0.3482  0.3443 -0.5427
 6427SOL    HW130743   2.664   2.777   8.527 -3.2790 -1.0647 -0.8141
 6427SOL    HW230744   2.671   2.912   8.477  0.7322  0.6534 -2.1839
 6428SOL     OW30745   3.323   3.890  14.416  0.1189  0.2820 -0.2014
 6428SOL    HW130746   3.370   3.869  14.496  3.8581  2.7105 -1.7462
 6428SOL    HW230747   3.401   3.916  14.366  0.2303  0.2639 -0.0344
 6429SOL     OW30748   2.939   0.708   4.023  0.4039  0.1829 -0.1589
 6429SOL    HW130749   3.013   0.707   4.083 -0.2617  0.2142  0.6500
 6429SOL    HW230750   2.889   0.776   4.067  0.1978  0.8571 -1.4318
 6430SOL     OW30751   1.800   3.055   7.001  0.0985 -0.5813  0.3553
 6430SOL    HW130752   1.808   3.150   7.000 -0.8059 -0.5291 -1.5495
 6430SOL    HW230753   1.853   3.033   6.924  1.0991  1.1069  0.5507
 6431SOL     OW30754   2.828   1.865   1.727  0.3363 -0.1331  0.5699
 6431SOL    HW130755   2.793   1.878   1.815  0.1425 -0.4578  0.5433
 6431SOL    HW230756   2.794   1.946   1.689 -0.2107 -0.7941 -0.3547
 6432SOL     OW30757   3.276   0.594   7.839 -0.2230  0.1619 -0.1135
 6432SOL    HW130758   3.288   0.501   7.861 -0.2223  0.4676  1.2126
 6432SOL    HW230759   3.185   0.589   7.809 -0.8927  4.1304  1.2687
 6433SOL     OW30760   2.424   3.569   9.582  0.0030 -0.1002 -0.8446
 6433SOL    HW130761   2.342   3.604   9.617 -0.5223 -2.1951  0.0437
 6433SOL    HW230762   2.419   3.473   9.589  0.6065 -0.0609  0.1455
 6434SOL     OW30763   0.488   2.970  11.068 -0.2240  0.2584 -0.3905
 6434SOL    HW130764   0.516   3.012  10.987  2.1463 -2.5680 -1.0375
 6434SOL    HW230765   0.397   2.954  11.043 -0.0824 -1.5449  0.2570
 6435SOL     OW30766   2.683   3.192   4.218 -0.2294 -1.1225  0.3239
 6435SOL    HW130767   2.630   3.198   4.298  1.1806  2.2247  1.0236
 6435SOL    HW230768   2.626   3.209   4.143  2.9058  0.5816 -1.6581
 6436SOL     OW30769   1.913   3.143   6.344 -0.2710  0.1563 -0.3636
 6436SOL    HW130770   1.860   3.223   6.340  1.5963  1.3831 -0.7244
 6436SOL    HW230771   1.922   3.126   6.251 -1.7196  1.3360 -0.7231
 6437SOL     OW30772   2.859   1.108   1.521  0.0463  0.0041  0.5251
 6437SOL    HW130773   2.782   1.143   1.476  0.5505  1.0935  0.5187
 6437SOL    HW230774   2.835   1.016   1.527 -0.2926  0.0895  0.4750
 6438SOL     OW30775   2.669   4.722  12.728 -0.2021  0.5591  0.0204
 6438SOL    HW130776   2.588   4.674  12.710  0.4447 -0.2670 -0.6381
 6438SOL    HW230777   2.697   4.681  12.810  1.6281  2.6223  0.4297
 6439SOL     OW30778   3.282   4.508  13.360 -0.5058  0.0532  0.2734
 6439SOL    HW130779   3.340   4.469  13.295  1.0820  1.9157  0.5798
 6439SOL    HW230780   3.316   4.472  13.441 -2.1954 -1.8125  0.1430
 6440SOL     OW30781   2.233   3.968   1.513  0.0054  0.3886  0.4000
 6440SOL    HW130782   2.224   4.004   1.425  0.7256 -0.7807 -0.1692
 6440SOL    HW230783   2.208   4.045   1.562 -0.1743  1.5601 -1.5253
 6441SOL     OW30784   3.034   3.776  16.306 -0.4390 -0.1361 -0.2984
 6441SOL    HW130785   3.062   3.839  16.239  0.7555 -0.9771 -0.6140
 6441SOL    HW230786   3.094   3.707  16.276 -1.7703 -2.5036  2.5445
 6442SOL     OW30787   0.942   2.643   1.172 -0.5603  0.0371  0.5562
 6442SOL    HW130788   0.972   2.644   1.262  2.6235  0.5711 -0.5240
 6442SOL    HW230789   0.886   2.565   1.172 -1.6366  0.8117  0.9014
 6443SOL     OW30790   3.024   1.106   5.092 -0.2624 -0.2093 -1.0638
 6443SOL    HW130791   3.002   1.185   5.042  1.1623  0.5390 -0.5092
 6443SOL    HW230792   3.009   1.035   5.029 -1.2191 -1.0711  0.1316
 6444SOL     OW30793   1.626   2.404   7.272  0.2545  0.1098  0.2164
 6444SOL    HW130794   1.531   2.406   7.281  0.5250  0.5461  2.9028
 6444SOL    HW230795   1.656   2.484   7.315 -1.9197  1.9067 -1.5919
 6445SOL     OW30796   0.437   4.620  17.194  0.3883 -0.1334 -0.0205
 6445SOL    HW130797   0.488   4.624  17.274  0.0602 -0.5075  0.2086
 6445SOL    HW230798   0.497   4.600  17.122 -0.3712  2.3559 -1.3382
 6446SOL     OW30799   2.602   0.371  10.357 -0.2439 -0.5630  0.3628
 6446SOL    HW130800   2.608   0.310  10.283  0.5050 -1.0445  0.8194
 6446SOL    HW230801   2.567   0.307  10.419 -0.9506 -0.5021  0.0197
 6447SOL     OW30802   3.778   4.683   9.494  0.4773  0.3267  0.1292
 6447SOL    HW130803   3.738   4.604   9.530 -0.5725  1.0549  0.5704
 6447SOL    HW230804   3.847   4.693   9.558  0.3060  0.4332  0.2974
 6448SOL     OW30805   1.616   0.890   5.485 -0.8596  0.6501 -0.7142
 6448SOL    HW130806   1.661   0.808   5.467 -3.1837 -1.2727  2.3232
 6448SOL    HW230807   1.532   0.855   5.514 -0.2751 -1.9944 -2.2608
 6449SOL     OW30808   2.856   4.638  11.362 -0.4774  0.0320  0.1364
 6449SOL    HW130809   2.833   4.623  11.270 -0.2462 -1.3447  0.3028
 6449SOL    HW230810   2.866   4.546  11.389 -0.0384  0.2598  0.7485
 6450SOL     OW30811   4.187   3.397   4.356 -0.3093  0.5680  0.1547
 6450SOL    HW130812   4.129   3.467   4.325 -1.8616 -0.6273  0.3940
 6450SOL    HW230813   4.261   3.416   4.298 -0.5068 -0.7942 -0.5532
 6451SOL     OW30814   3.163   0.283   8.283 -0.2778  0.1575 -0.4041
 6451SOL    HW130815   3.146   0.278   8.377 -0.6123 -0.2546 -0.4858
 6451SOL    HW230816   3.233   0.219   8.269 -0.3696  0.1149 -0.6659
 6452SOL     OW30817   3.413   0.752   8.016  0.6189  0.3312 -0.0137
 6452SOL    HW130818   3.366   0.835   8.011 -2.6685 -1.7540 -4.3475
 6452SOL    HW230819   3.369   0.698   7.949 -3.1997  0.3058  2.5179
 6453SOL     OW30820   3.840   1.090   3.159 -0.2840 -0.8066  0.5785
 6453SOL    HW130821   3.874   1.002   3.145  3.1956  0.6096  0.3648
 6453SOL    HW230822   3.840   1.089   3.255 -0.9405  0.0135  0.5953
 6454SOL     OW30823   1.781   0.141   6.231  0.5715  0.2823 -0.6911
 6454SOL    HW130824   1.876   0.129   6.224  0.5855 -0.2484  0.3685
 6454SOL    HW230825   1.761   0.057   6.191  0.5961 -0.2229  0.3681
 6455SOL     OW30826   3.439   4.026  12.367 -0.2919 -0.7472  0.1572
 6455SOL    HW130827   3.519   4.019  12.420 -0.5241 -0.5921  0.5286
 6455SOL    HW230828   3.452   4.107  12.318 -0.5896 -1.0457 -0.4132
 6456SOL     OW30829   2.631   1.426   4.539 -0.3482 -0.6555 -0.2469
 6456SOL    HW130830   2.639   1.403   4.447  1.0625 -2.4798  0.3331
 6456SOL    HW230831   2.705   1.377   4.576  0.6869  1.1180  0.0244
 6457SOL     OW30832   1.597   1.547  10.455 -0.0326  0.2820  0.3020
 6457SOL    HW130833   1.603   1.609  10.383  1.1841 -2.4146 -1.9067
 6457SOL    HW230834   1.528   1.589  10.508  0.3910 -0.2896  1.2985
 6458SOL     OW30835   1.303   2.096   5.281 -0.3322  0.1228 -1.0312
 6458SOL    HW130836   1.290   2.136   5.366  1.8448  0.7109 -0.9904
 6458SOL    HW230837   1.238   2.138   5.224 -0.4769  0.9732 -0.2268
 6459SOL     OW30838   1.495   4.149   1.195  0.0464  0.0931  0.5277
 6459SOL    HW130839   1.537   4.179   1.115 -0.0085 -2.2023 -0.3548
 6459SOL    HW230840   1.568   4.114   1.245 -1.3546 -0.3596  2.2604
 6460SOL     OW30841   4.186   3.112   7.063  0.1853 -0.5121  0.4734
 6460SOL    HW130842   4.119   3.094   7.130 -0.1891 -0.7813  0.0270
 6460SOL    HW230843   4.261   3.134   7.118  1.2377  0.0277 -1.2027
 6461SOL     OW30844   2.548   1.010   2.838 -0.2222 -0.0472  0.2696
 6461SOL    HW130845   2.611   0.967   2.780 -0.9517  1.4355 -1.6354
 6461SOL    HW230846   2.534   1.092   2.790 -1.5212  0.8440  2.1530
 6462SOL     OW30847   0.265   2.030   4.516  0.1208 -0.2023 -0.7002
 6462SOL    HW130848   0.221   1.960   4.564 -0.1406 -0.2768 -1.0486
 6462SOL    HW230849   0.352   2.002   4.544  0.3380 -0.2139 -1.3863
 6463SOL     OW30850   2.350   2.423   4.624 -0.4881 -0.4493  0.3744
 6463SOL    HW130851   2.373   2.331   4.613 -0.9480 -0.4743 -0.3901
 6463SOL    HW230852   2.316   2.438   4.536 -0.2784 -2.3811 -0.0401
 6464SOL     OW30853   4.643   2.778  12.827 -0.0724 -0.4159 -0.4811
 6464SOL    HW130854   4.694   2.726  12.890  0.6960 -0.7997 -1.4191
 6464SOL    HW230855   4.695   2.773  12.747 -0.1915 -1.9208 -0.4605
 6465SOL     OW30856   1.592   0.556   4.185 -0.1249  0.0071 -0.4354
 6465SOL    HW130857   1.515   0.549   4.241 -0.6819  3.7330 -0.7509
 6465SOL    HW230858   1.666   0.575   4.242 -0.5450  0.6372 -0.0960
 6466SOL     OW30859   0.083   3.692  13.798  0.5382 -0.2251 -0.6205
 6466SOL    HW130860   0.126   3.610  13.773 -1.5205 -0.7779 -2.3877
 6466SOL    HW230861   0.040   3.666  13.879  2.3410 -0.1326  0.3539
 6467SOL     OW30862   4.659   3.313   5.740  0.1745 -0.2448  0.3094
 6467SOL    HW130863   0.009   3.261   5.718  0.4402  0.1223  0.3675
 6467SOL    HW230864   4.682   3.327   5.832  2.0390 -3.0575  0.2642
 6468SOL     OW30865   4.276   4.197   7.385  0.0815 -0.1910  0.6993
 6468SOL    HW130866   4.332   4.124   7.355 -2.0240 -1.2297 -0.7177
 6468SOL    HW230867   4.187   4.161   7.378 -0.0994  0.3637  0.1791
 6469SOL     OW30868   0.465   1.535   1.294 -0.5372 -0.6280 -0.0411
 6469SOL    HW130869   0.464   1.556   1.387 -1.4086  0.5509 -0.3173
 6469SOL    HW230870   0.372   1.525   1.275 -0.0490 -2.3011 -1.4947
 6470SOL     OW30871   4.476   3.324   8.140 -0.4406  0.3092 -0.1758
 6470SOL    HW130872   4.420   3.342   8.215  2.6770  0.5249  2.0747
 6470SOL    HW230873   4.430   3.247   8.106 -0.5870 -0.5970  2.0630
 6471SOL     OW30874   4.291   0.473   1.072 -0.5083 -0.5305 -0.1853
 6471SOL    HW130875   4.243   0.474   1.155  3.6945 -1.1446  2.2566
 6471SOL    HW230876   4.380   0.500   1.096 -0.3939  0.0531 -1.2800
 6472SOL     OW30877   0.055   1.544   3.526  0.0235 -0.2973 -0.0725
 6472SOL    HW130878   4.707   1.600   3.503 -0.3182 -1.6063 -2.1678
 6472SOL    HW230879   0.013   1.466   3.489  1.4279 -0.3427 -1.6051
 6473SOL     OW30880   1.336   3.862   7.132  0.4826 -0.1040 -0.4685
 6473SOL    HW130881   1.318   3.877   7.225  3.3872  0.7859 -0.0357
 6473SOL    HW230882   1.285   3.784   7.111  0.4825 -0.2617  0.1097
 6474SOL     OW30883   0.849   4.617  17.253 -0.1886 -0.2186 -0.6815
 6474SOL    HW130884   0.904   4.546  17.219  0.4148 -0.8174  1.5303
 6474SOL    HW230885   0.903   4.692  17.230  0.4160 -0.1774  0.8708
 6475SOL     OW30886   1.644   0.784   9.371 -0.2088 -0.2686  0.0805
 6475SOL    HW130887   1.682   0.698   9.354  1.1657  0.0851  1.4119
 6475SOL    HW230888   1.598   0.770   9.453 -1.6166  1.4579 -0.4028
 6476SOL     OW30889   2.639   1.457   1.449 -0.2745  0.3432 -0.0345
 6476SOL    HW130890   2.688   1.510   1.512  2.1228 -1.8445 -0.0366
 6476SOL    HW230891   2.583   1.399   1.500  1.4516 -0.2845  1.1587
 6477SOL     OW30892   1.051   2.102  13.288  0.0359 -0.0894  0.2020
 6477SOL    HW130893   1.031   2.067  13.376 -0.6902 -2.4956 -0.9148
 6477SOL    HW230894   1.093   2.185  13.310  0.2171  0.1665 -1.1282
 6478SOL     OW30895   2.593   4.055  13.818  0.4829  0.4059 -0.3670
 6478SOL    HW130896   2.534   4.107  13.872 -0.3222 -0.7786 -0.0969
 6478SOL    HW230897   2.637   4.007  13.889 -0.5829 -1.0537 -0.7066
 6479SOL     OW30898   3.140   2.141   7.197 -0.1217 -0.0546  0.1827
 6479SOL    HW130899   3.151   2.049   7.175 -0.4228 -0.8907  3.4842
 6479SOL    HW230900   3.184   2.150   7.281  1.5710 -2.0766 -0.4974
 6480SOL     OW30901   2.116   2.508   5.019  0.4367  0.2679  0.8148
 6480SOL    HW130902   2.050   2.475   5.079  0.7324 -1.9098 -0.0731
 6480SOL    HW230903   2.069   2.497   4.936  1.4964  1.7866  0.0026
 6481SOL     OW30904   3.653   3.489   8.975  0.6645  0.0272  0.1593
 6481SOL    HW130905   3.738   3.507   9.013  0.2098 -0.1895  1.2775
 6481SOL    HW230906   3.592   3.503   9.047 -1.2358  1.0057 -1.6271
 6482SOL     OW30907   2.304   1.711   1.374 -0.5081 -0.3515  0.0401
 6482SOL    HW130908   2.230   1.740   1.428  0.8710  2.1196  0.6394
 6482SOL    HW230909   2.298   1.763   1.294 -2.2944  1.0797  1.1109
 6483SOL     OW30910   3.583   2.685  10.546 -0.1410 -0.3049 -0.4404
 6483SOL    HW130911   3.650   2.691  10.613 -2.7433 -1.2843  2.2909
 6483SOL    HW230912   3.550   2.774  10.540 -2.4012 -1.1702 -1.2430
 6484SOL     OW30913   2.153   4.419   3.661 -0.9473 -0.1259 -0.2416
 6484SOL    HW130914   2.117   4.352   3.603 -1.0673 -2.1616  2.1632
 6484SOL    HW230915   2.169   4.485   3.595  1.3748  0.1722  0.6303
 6485SOL     OW30916   3.050   2.033   1.053  0.6327  0.0826  0.3917
 6485SOL    HW130917   3.000   2.063   1.129  1.1797 -1.5223  1.3973
 6485SOL    HW230918   3.039   1.939   1.064 -2.1396  0.3218 -0.4335
 6486SOL     OW30919   3.791   2.055   8.077 -0.4737  0.2762 -0.0112
 6486SOL    HW130920   3.810   2.148   8.084  0.5896  0.0720 -0.2442
 6486SOL    HW230921   3.706   2.061   8.034 -1.2289 -0.1362  1.4276
 6487SOL     OW30922   2.252   0.319   8.080  0.0970  0.3568  0.2443
 6487SOL    HW130923   2.200   0.282   8.008 -0.6196  2.7052 -0.4643
 6487SOL    HW230924   2.318   0.364   8.028 -0.1295  1.6527  1.0879
 6488SOL     OW30925   0.759   3.199   3.305  0.0217 -0.5127 -0.2367
 6488SOL    HW130926   0.852   3.177   3.295  0.0149 -0.7310  0.1787
 6488SOL    HW230927   0.760   3.276   3.248  1.2665 -0.6670 -0.4244
 6489SOL     OW30928   3.874   3.371   6.595 -0.3399  0.0379  0.0174
 6489SOL    HW130929   3.784   3.403   6.598  0.2221  1.2943  4.0673
 6489SOL    HW230930   3.912   3.430   6.660  0.3379  0.3404 -0.6521
 6490SOL     OW30931   3.818   4.119  14.339 -0.9671 -0.4223  0.1050
 6490SOL    HW130932   3.801   4.205  14.377  2.0040 -0.4261  1.4352
 6490SOL    HW230933   3.826   4.129  14.244 -2.5380  2.6122  0.3154
 6491SOL     OW30934   2.177   0.814   7.172  0.6657  0.7998 -0.2029
 6491SOL    HW130935   2.125   0.895   7.166 -0.7053 -0.0845 -0.3491
 6491SOL    HW230936   2.157   0.797   7.264  0.3134 -0.9987 -0.6182
 6492SOL     OW30937   2.831   3.053   7.384 -0.6707  0.0394  0.0591
 6492SOL    HW130938   2.851   2.979   7.442  0.3943  1.9043  2.0984
 6492SOL    HW230939   2.742   3.040   7.351 -0.6129  0.4326 -0.2573
 6493SOL     OW30940   1.813   1.426   5.767  0.2594 -0.0169  0.3824
 6493SOL    HW130941   1.897   1.451   5.730 -0.7741  2.5497 -0.2333
 6493SOL    HW230942   1.751   1.496   5.745  1.6846  1.0838 -0.1481
 6494SOL     OW30943   1.544   1.657   6.401 -0.6773 -0.0382 -0.0337
 6494SOL    HW130944   1.564   1.686   6.312  1.6849 -0.2853  0.4393
 6494SOL    HW230945   1.627   1.672   6.445 -0.4999  1.0490 -0.7262
 6495SOL     OW30946   2.436   2.035   9.144 -0.3712 -0.2208 -0.1531
 6495SOL    HW130947   2.378   1.996   9.078 -0.1978 -2.2773  0.8920
 6495SOL    HW230948   2.491   2.088   9.088  0.1736 -1.4521 -0.7855
 6496SOL     OW30949   3.073   3.224   0.550 -0.3660 -0.0950  0.1413
 6496SOL    HW130950   3.081   3.173   0.470  0.3917 -0.0694  0.2014
 6496SOL    HW230951   3.004   3.280   0.515  1.4280  2.2712  0.4069
 6497SOL     OW30952   0.755   0.851   3.720 -0.3697  0.0288 -0.1101
 6497SOL    HW130953   0.827   0.805   3.678 -0.1590  0.1095  0.1607
 6497SOL    HW230954   0.710   0.783   3.771  1.4174 -1.8652 -1.0758
 6498SOL     OW30955   4.216   2.704  11.484 -0.0519 -0.3143 -0.0005
 6498SOL    HW130956   4.292   2.696  11.427 -2.1733 -2.2501 -2.5726
 6498SOL    HW230957   4.238   2.778  11.541  0.7798  1.0236 -2.0361
 6499SOL     OW30958   2.765   0.579  10.773  0.3067  0.0876  0.2740
 6499SOL    HW130959   2.792   0.574  10.865  0.9418 -0.6004  0.0446
 6499SOL    HW230960   2.841   0.631  10.748  1.5174 -1.7203  0.2747
 6500SOL     OW30961   1.608   0.071  11.226  0.6897 -0.2720  0.2154
 6500SOL    HW130962   1.701   0.063  11.204  0.9093 -1.0865  1.4582
 6500SOL    HW230963   1.578   4.717  11.184  2.2087 -1.0681  0.6658
 6501SOL     OW30964   1.332   0.882   3.313  0.4609  0.0216  0.2124
 6501SOL    HW130965   1.284   0.821   3.257 -0.3031  0.2443  0.6318
 6501SOL    HW230966   1.415   0.835   3.314 -0.6032 -1.8738 -0.8348
 6502SOL     OW30967   1.779   3.951  13.780  0.0954 -0.1354  0.0918
 6502SOL    HW130968   1.805   4.033  13.738 -1.0022  1.0772  1.7656
 6502SOL    HW230969   1.684   3.965  13.789  0.0770 -0.9780  1.0944
 6503SOL     OW30970   3.249   0.975   0.488  0.2731 -0.0140 -0.3756
 6503SOL    HW130971   3.165   0.999   0.528  0.1753  0.1108 -0.6610
 6503SOL    HW230972   3.269   0.893   0.533  2.5166  1.2419  0.9141
 6504SOL     OW30973   3.611   3.818   7.730 -0.2271 -0.0836 -0.2155
 6504SOL    HW130974   3.702   3.789   7.723 -1.1175 -2.4539 -2.0509
 6504SOL    HW230975   3.565   3.736   7.717  1.0590 -1.2825  2.9168
 6505SOL     OW30976   4.165   3.097   6.800 -0.1846 -0.0295 -0.3984
 6505SOL    HW130977   4.204   3.171   6.753  3.9175 -3.8762 -3.0463
 6505SOL    HW230978   4.191   3.096   6.892 -2.8929  1.8406  0.3853
 6506SOL     OW30979   1.773   4.678   4.720 -0.1351  0.0826  0.7085
 6506SOL    HW130980   1.852   4.705   4.767  1.1975 -0.0200 -1.4913
 6506SOL    HW230981   1.735   0.040   4.725  1.2969  0.7604 -0.2806
 6507SOL     OW30982   1.863   2.483   1.942  0.0636  0.1685  0.4803
 6507SOL    HW130983   1.809   2.527   2.009 -0.2413 -0.8704  0.9198
 6507SOL    HW230984   1.950   2.477   1.981  0.3657  2.6956  0.1926
 6508SOL     OW30985   0.374   2.588   5.575 -0.1875 -0.1925  0.0158
 6508SOL    HW130986   0.305   2.525   5.550 -1.5753  2.5824 -3.1411
 6508SOL    HW230987   0.411   2.613   5.490  1.6332 -0.6192  0.7065
 6509SOL     OW30988   0.513   3.061   3.697 -0.4713  0.1279 -0.2442
 6509SOL    HW130989   0.520   3.119   3.773  1.6387  0.2501 -0.5360
 6509SOL    HW230990   0.593   3.082   3.649 -0.1761 -0.3505  0.0402
 6510SOL     OW30991   3.039   3.792   4.150 -0.1086  0.0753  0.3086
 6510SOL    HW130992   3.123   3.829   4.122 -0.3170  0.5883  0.3607
 6510SOL    HW230993   2.979   3.866   4.155  0.3828  0.3561  1.8718
 6511SOL     OW30994   3.564   3.111   2.660  0.4107 -0.0524 -0.4411
 6511SOL    HW130995   3.536   3.100   2.569 -0.6027  1.1003 -0.2712
 6511SOL    HW230996   3.519   3.191   2.689 -1.2809 -1.7452  1.5821
 6512SOL     OW30997   3.054   2.415   4.583 -0.1953 -0.4780 -0.3384
 6512SOL    HW130998   3.083   2.500   4.550 -1.5710  0.7976  1.7412
 6512SOL    HW230999   3.070   2.373   4.498 -1.2884 -0.3893 -0.5872
 6513SOL     OW31000   1.151   3.842  15.790 -0.1855 -0.4215  0.3143
 6513SOL    HW131001   1.220   3.795  15.744 -1.6392  1.1596 -3.4690
 6513SOL    HW231002   1.134   3.777  15.859  0.3065  0.1710  0.9847
 6514SOL     OW31003   4.529   3.664   7.450 -0.3157 -0.0371  0.1185
 6514SOL    HW131004   4.492   3.752   7.445 -2.7164 -1.0415 -0.0299
 6514SOL    HW231005   4.505   3.639   7.539 -2.1431 -0.5924 -0.5297
 6515SOL     OW31006   2.353   3.392   8.366 -0.3510 -0.9249  0.1676
 6515SOL    HW131007   2.351   3.487   8.350 -0.9568 -1.4547 -3.0414
 6515SOL    HW231008   2.287   3.385   8.435 -0.4300 -0.3533  0.1507
 6516SOL     OW31009   3.015   0.990   3.576 -0.1763  0.0411 -0.3307
 6516SOL    HW131010   3.016   1.059   3.642 -0.7750  0.8719 -1.1748
 6516SOL    HW231011   2.961   1.026   3.506 -0.8588 -2.6475 -1.1863
 6517SOL     OW31012   0.313   2.594  11.156  0.4056 -0.2056 -0.0755
 6517SOL    HW131013   0.226   2.628  11.176  0.0555 -1.3996  0.4635
 6517SOL    HW231014   0.331   2.535  11.229  0.5701 -1.3114 -1.0185
 6518SOL     OW31015   2.761   1.278   3.675  0.1109 -0.4802  0.0985
 6518SOL    HW131016   2.698   1.350   3.682 -1.2368 -1.6694  0.1899
 6518SOL    HW231017   2.769   1.246   3.764 -0.7723  0.3049  0.4628
 6519SOL     OW31018   1.827   3.498   9.430 -0.5097 -0.2320 -1.2815
 6519SOL    HW131019   1.813   3.406   9.408  0.4248 -0.6865  0.0534
 6519SOL    HW231020   1.879   3.527   9.355 -0.8806  2.1473 -0.6215
 6520SOL     OW31021   2.245   1.788   1.108 -0.4877  0.7917 -0.1519
 6520SOL    HW131022   2.231   1.845   1.033 -2.2179  0.4223 -0.1216
 6520SOL    HW231023   2.265   1.706   1.064 -0.2944 -0.2711  1.8860
 6521SOL     OW31024   3.202   1.448   4.949  0.3169  0.2346  0.1440
 6521SOL    HW131025   3.259   1.371   4.950 -0.0763 -0.0577 -1.4629
 6521SOL    HW231026   3.239   1.501   4.879  1.0954 -0.0665  0.3245
 6522SOL     OW31027   2.909   2.620  10.745  0.0372  0.4578 -0.6291
 6522SOL    HW131028   2.840   2.593  10.805  0.1214  1.1197 -0.2417
 6522SOL    HW231029   2.924   2.709  10.777 -1.8876  1.1200 -1.5948
 6523SOL     OW31030   0.548   1.623   3.807  0.1517  0.0958  0.2075
 6523SOL    HW131031   0.641   1.646   3.809 -0.0186  0.9258 -1.3520
 6523SOL    HW231032   0.498   1.697   3.844 -0.1321 -0.8666  1.7661
 6524SOL     OW31033   4.176   4.073   9.492 -0.1168  0.5332 -0.3182
 6524SOL    HW131034   4.136   4.056   9.406  0.9062  0.5259 -0.7822
 6524SOL    HW231035   4.254   4.018   9.488 -0.6018 -0.1790  0.1383
 6525SOL     OW31036   3.979   0.921   1.743  0.4907  0.0951 -0.3478
 6525SOL    HW131037   4.036   0.915   1.666  1.3173  1.7367  0.1422
 6525SOL    HW231038   3.974   0.829   1.768  0.8389 -0.1780 -1.2592
 6526SOL     OW31039   4.186   0.135  12.250  0.0141 -0.2822 -0.1106
 6526SOL    HW131040   4.229   0.057  12.285  0.8472  0.2426  0.0318
 6526SOL    HW231041   4.241   0.213  12.255 -0.0901 -0.3381  1.9257
 6527SOL     OW31042   2.032   0.827   1.925  0.2186  0.7609 -0.1297
 6527SOL    HW131043   2.113   0.875   1.944  0.1258  0.5873  0.6915
 6527SOL    HW231044   2.006   0.850   1.836 -2.5160 -2.4571 -0.1606
 6528SOL     OW31045   4.229   3.819   7.618  0.2006  0.0736 -0.1398
 6528SOL    HW131046   4.299   3.858   7.671  0.3885 -2.5204  1.5362
 6528SOL    HW231047   4.199   3.756   7.684 -0.7903 -0.2042 -0.8539
 6529SOL     OW31048   1.001   1.942   9.819  0.1801  0.4294  0.3752
 6529SOL    HW131049   0.927   1.885   9.840 -0.1372  0.5169 -0.4975
 6529SOL    HW231050   1.064   1.888   9.771  1.0478  1.6418  0.1458
 6530SOL     OW31051   1.821   3.037   4.790 -0.2942 -0.3521  0.1378
 6530SOL    HW131052   1.737   3.023   4.834 -0.1263 -0.1661  0.5203
 6530SOL    HW231053   1.805   3.059   4.698 -3.9523 -2.3656  0.3308
 6531SOL     OW31054   2.283   3.122   3.964  0.2491 -0.0120  0.9147
 6531SOL    HW131055   2.304   3.080   4.048 -3.0006 -1.9444  0.7409
 6531SOL    HW231056   2.200   3.158   3.995  0.1164  0.3860  0.0855
 6532SOL     OW31057   4.136   2.832   7.898  0.2487 -0.4832  0.1428
 6532SOL    HW131058   4.120   2.752   7.847 -0.2315 -0.2068 -0.1475
 6532SOL    HW231059   4.229   2.819   7.914  0.5148 -0.4541 -1.3483
 6533SOL     OW31060   4.456   3.282   4.511  0.0557  0.5280 -0.2791
 6533SOL    HW131061   4.528   3.287   4.449  0.7500 -1.5244  0.3554
 6533SOL    HW231062   4.405   3.207   4.479  0.5967  0.0093  0.0629
 6534SOL     OW31063   1.950   1.472   6.886 -0.0473 -0.5217  0.4982
 6534SOL    HW131064   1.925   1.511   6.803 -0.7383 -1.4130  0.2794
 6534SOL    HW231065   1.866   1.451   6.926 -0.1891  1.8111  1.3650
 6535SOL     OW31066   0.187   0.062  16.013  0.3711 -0.0538 -0.4503
 6535SOL    HW131067   0.142   0.080  16.095 -3.2008  1.0897 -2.6582
 6535SOL    HW231068   0.198   4.694  16.017 -1.4778 -0.1580  2.2924
 6536SOL     OW31069   4.350   1.619  14.954 -0.6233 -0.0096 -0.2418
 6536SOL    HW131070   4.336   1.547  14.893 -2.0395  0.9589 -1.0524
 6536SOL    HW231071   4.310   1.582  15.033  1.4891  2.5251  2.0421
 6537SOL     OW31072   2.948   3.994   2.926  0.4728  0.1452 -0.4800
 6537SOL    HW131073   2.950   3.907   2.886 -0.7910  0.2765 -0.8234
 6537SOL    HW231074   2.893   4.042   2.864 -1.0455 -0.8035  0.1362
 6538SOL     OW31075   0.505   2.824  15.462 -0.2559 -0.4186  0.1603
 6538SOL    HW131076   0.477   2.891  15.524 -1.3317  1.0161 -1.8510
 6538SOL    HW231077   0.460   2.859  15.385  0.4683  1.7240  0.7390
 6539SOL     OW31078   4.134   4.057  10.669  0.0867  0.0752  0.4958
 6539SOL    HW131079   4.054   4.037  10.621  1.8563 -1.8957 -1.6455
 6539SOL    HW231080   4.189   3.981  10.649  0.7320  0.6488  0.1378
 6540SOL     OW31081   4.472   1.436   2.510  0.5631  0.0314 -0.0998
 6540SOL    HW131082   4.546   1.493   2.489 -0.1798  1.3646  0.8817
 6540SOL    HW231083   4.391   1.479   2.481 -0.4278 -2.1518 -0.5996
 6541SOL     OW31084   1.628   4.352   8.189  0.1372  0.8907 -0.0756
 6541SOL    HW131085   1.650   4.426   8.133 -1.4677  2.1972  1.0059
 6541SOL    HW231086   1.708   4.341   8.239  0.3682  0.1763 -0.6094
 6542SOL     OW31087   2.936   3.986   6.488  0.6440 -0.2840 -0.2160
 6542SOL    HW131088   2.872   3.918   6.466  0.8166  0.5469 -3.3205
 6542SOL    HW231089   2.905   4.064   6.442 -0.5976 -0.9959 -0.5913
 6543SOL     OW31090   1.029   0.765   5.796 -0.3811  1.1136  0.6329
 6543SOL    HW131091   0.936   0.749   5.779 -0.7956  1.7148  2.3705
 6543SOL    HW231092   1.018   0.799   5.885 -0.3082  0.4391  0.8967
 6544SOL     OW31093   4.676   2.729  10.135  0.1082 -0.5820 -0.0433
 6544SOL    HW131094   0.028   2.698  10.091  1.3417 -0.0300  1.7427
 6544SOL    HW231095   4.692   2.715  10.228 -1.9824 -3.4400 -0.1226
 6545SOL     OW31096   3.465   4.055  11.865  0.0906 -0.3232 -0.3135
 6545SOL    HW131097   3.468   3.994  11.939  1.3193  1.1453  0.8259
 6545SOL    HW231098   3.554   4.068  11.834  0.6879 -1.6919  0.8476
 6546SOL     OW31099   2.481   2.583   8.065  0.1776  0.2944  0.5956
 6546SOL    HW131100   2.519   2.532   8.136  0.5550  1.8916  1.5559
 6546SOL    HW231101   2.410   2.522   8.047  0.5551 -0.7103  2.5020
 6547SOL     OW31102   0.966   2.652   6.568  0.3454 -0.2723  0.4900
 6547SOL    HW131103   0.974   2.676   6.660  0.3970 -0.1845  0.4624
 6547SOL    HW231104   0.878   2.614   6.573  0.1896  0.3425  2.4277
 6548SOL     OW31105   1.522   4.220   4.253 -0.8181 -0.1645 -0.2335
 6548SOL    HW131106   1.584   4.218   4.181 -0.3833 -1.6195  0.1637
 6548SOL    HW231107   1.469   4.297   4.232  0.6032  0.9708  0.4165
 6549SOL     OW31108   4.529   3.017  12.488  1.2191 -0.5807  0.1890
 6549SOL    HW131109   4.493   3.045  12.404  1.0054 -0.1760  0.4145
 6549SOL    HW231110   4.613   3.063  12.493  0.8810  0.2729 -2.0840
 6550SOL     OW31111   1.444   2.544   5.944 -0.2523  0.1899 -0.3002
 6550SOL    HW131112   1.430   2.619   6.001  2.7043  0.5469 -0.0092
 6550SOL    HW231113   1.490   2.577   5.867 -1.4130  2.4274 -0.0222
 6551SOL     OW31114   3.041   3.596  16.998  0.4218  0.1710 -0.7330
 6551SOL    HW131115   2.976   3.554  16.942  2.3539 -3.1370 -0.5266
 6551SOL    HW231116   3.037   3.536  17.073 -0.3313  0.8942 -0.1970
 6552SOL     OW31117   2.132   0.664   0.779  0.7514 -0.1908 -0.1238
 6552SOL    HW131118   2.208   0.704   0.822 -0.6531 -0.9503  3.0702
 6552SOL    HW231119   2.105   0.618   0.858 -0.0535 -1.6516 -1.2670
 6553SOL     OW31120   3.628   1.266   4.143 -0.4646 -0.3742 -0.3024
 6553SOL    HW131121   3.651   1.180   4.178  1.3581 -0.3023 -1.3244
 6553SOL    HW231122   3.622   1.326   4.217  2.0990  0.7508 -1.0412
 6554SOL     OW31123   2.871   0.718   7.250  0.1205  0.7268  0.0432
 6554SOL    HW131124   2.920   0.764   7.319  0.1553  2.5392 -1.1769
 6554SOL    HW231125   2.874   0.629   7.283 -0.3420  0.1173 -1.5737
 6555SOL     OW31126   4.289   2.424   2.005 -0.0481 -0.7141  0.5189
 6555SOL    HW131127   4.357   2.465   1.952  0.0730  1.2931  2.2772
 6555SOL    HW231128   4.341   2.370   2.065  0.8858 -1.5950 -1.0683
 6556SOL     OW31129   3.174   2.677  11.095  0.1202  0.2335 -0.3583
 6556SOL    HW131130   3.192   2.743  11.162 -0.5674  0.5669 -0.5006
 6556SOL    HW231131   3.197   2.598  11.145 -0.1500 -0.2013 -0.9242
 6557SOL     OW31132   2.028   2.428   4.051 -0.5468 -0.0684 -0.6590
 6557SOL    HW131133   2.072   2.358   4.099 -0.5613 -0.4223 -1.1651
 6557SOL    HW231134   2.024   2.391   3.963 -0.2999 -1.0888 -0.2399
 6558SOL     OW31135   0.475   3.027   2.591 -0.4119  0.8593 -0.4710
 6558SOL    HW131136   0.413   2.994   2.526  0.1795  1.4405 -1.3208
 6558SOL    HW231137   0.491   3.113   2.552  0.3826 -0.1036 -2.2656
 6559SOL     OW31138   3.636   0.680   7.795 -0.2048 -0.1905 -1.3118
 6559SOL    HW131139   3.682   0.603   7.763  1.1796  0.4796 -0.9228
 6559SOL    HW231140   3.554   0.643   7.828  1.4927 -3.0026 -0.3368
 6560SOL     OW31141   2.506   3.421   3.176  0.3932 -0.2892  0.3096
 6560SOL    HW131142   2.550   3.399   3.257 -0.2481  0.6102  0.9020
 6560SOL    HW231143   2.437   3.482   3.203  1.6200  1.0432  0.4143
 6561SOL     OW31144   2.908   0.434   4.392 -0.2631 -0.2430  0.0173
 6561SOL    HW131145   2.830   0.421   4.446 -0.8366 -0.6533 -0.9135
 6561SOL    HW231146   2.953   0.425   4.476 -0.5211 -0.9827  0.0783
 6562SOL     OW31147   1.160   3.491   1.701 -0.0408 -0.4445  0.2620
 6562SOL    HW131148   1.217   3.565   1.720 -1.3569  0.9393 -1.1993
 6562SOL    HW231149   1.192   3.461   1.616  1.8089  0.2319  0.7255
 6563SOL     OW31150   3.516   0.629   5.826 -1.1281  0.2067  0.1865
 6563SOL    HW131151   3.507   0.574   5.904  1.1443  0.9433  0.9831
 6563SOL    HW231152   3.482   0.711   5.862 -0.3668  0.1676  1.0155
 6564SOL     OW31153   1.648   0.968   5.022  0.0041 -0.3471  0.3018
 6564SOL    HW131154   1.690   0.899   5.073 -0.4167  0.5763  1.9081
 6564SOL    HW231155   1.626   1.028   5.093 -1.3272  0.4768 -0.8042
 6565SOL     OW31156   0.801   1.846  11.810  0.0961 -0.5411  0.5231
 6565SOL    HW131157   0.840   1.919  11.858  0.4908 -0.2364 -0.2587
 6565SOL    HW231158   0.747   1.810  11.880 -0.6704 -4.0818 -1.8708
 6566SOL     OW31159   0.305   2.611   0.333 -0.3866  0.1203  0.2712
 6566SOL    HW131160   0.288   2.688   0.280  0.9196  0.2129  0.0081
 6566SOL    HW231161   0.378   2.639   0.387  0.4556  0.3869 -1.0264
 6567SOL     OW31162   0.650   2.980   7.283  0.1853 -0.0677  0.1507
 6567SOL    HW131163   0.577   2.957   7.225  0.1571  3.4693 -1.2424
 6567SOL    HW231164   0.602   3.009   7.361 -2.8542 -0.3107 -1.6537
 6568SOL     OW31165   0.810   2.437   3.267 -0.4080 -0.0089 -0.1362
 6568SOL    HW131166   0.751   2.468   3.199  0.7359 -1.0285 -1.6022
 6568SOL    HW231167   0.843   2.357   3.226  1.6115  1.6246 -1.6736
 6569SOL     OW31168   4.311   1.482   2.942 -0.3679  0.5256  0.0617
 6569SOL    HW131169   4.263   1.419   2.890 -1.8772 -0.4800  2.6735
 6569SOL    HW231170   4.397   1.486   2.900 -0.8751 -0.5413 -1.0751
 6570SOL     OW31171   3.301   0.975   2.466 -0.7359  0.1151  0.0215
 6570SOL    HW131172   3.363   0.939   2.404  2.4745  1.2023  2.5719
 6570SOL    HW231173   3.231   0.911   2.472 -1.1743  0.6489  0.6071
 6571SOL     OW31174   0.750   0.481   7.193 -0.8907  0.1634 -1.0962
 6571SOL    HW131175   0.709   0.485   7.279 -0.1804 -4.1616 -0.5420
 6571SOL    HW231176   0.677   0.445   7.142 -0.8174 -1.6324  0.0801
 6572SOL     OW31177   4.525   0.111  10.701 -0.2524  0.6301  0.4410
 6572SOL    HW131178   4.497   0.203  10.694 -0.7813  0.4911  0.7774
 6572SOL    HW231179   4.450   0.067  10.740  1.2160 -2.1108  0.1325
 6573SOL     OW31180   0.339   1.567  15.697  0.5117  0.6137  0.7606
 6573SOL    HW131181   0.362   1.520  15.616  1.6403 -0.0804  1.4768
 6573SOL    HW231182   0.289   1.635  15.652 -0.8496 -0.5512  0.5390
 6574SOL     OW31183   3.750   0.277   5.154 -0.1000  0.6458  0.0033
 6574SOL    HW131184   3.826   0.261   5.210 -0.8441 -4.1942 -0.4073
 6574SOL    HW231185   3.675   0.232   5.192  0.1981 -0.4451 -0.7048
 6575SOL     OW31186   4.005   0.890   7.262  0.1495  0.6436  0.4460
 6575SOL    HW131187   3.999   0.805   7.307  2.9241  0.3150  0.2302
 6575SOL    HW231188   3.954   0.945   7.322 -0.2807 -2.7022  3.1357
 6576SOL     OW31189   4.089   0.127   3.983 -0.5517 -0.3173  0.0870
 6576SOL    HW131190   4.047   0.134   4.069  1.0282  1.2041  0.7238
 6576SOL    HW231191   4.160   0.067   4.005 -0.4332  0.4574  1.7960
 6577SOL     OW31192   0.649   4.312  10.561  0.2293  0.4090  0.1300
 6577SOL    HW131193   0.638   4.338  10.652  2.1058  1.2472  0.1109
 6577SOL    HW231194   0.716   4.376  10.536 -0.1905  0.6640 -0.3412
 6578SOL     OW31195   4.117   0.961  14.484 -0.6309  0.0584 -0.0230
 6578SOL    HW131196   4.091   1.042  14.526 -0.8926  0.6847 -1.3992
 6578SOL    HW231197   4.083   0.895  14.544  1.4899  0.9666  2.1352
 6579SOL     OW31198   0.812   1.089   2.423  0.1262  0.1839 -0.5885
 6579SOL    HW131199   0.835   1.133   2.341  0.7582 -0.0770 -0.5502
 6579SOL    HW231200   0.759   1.147   2.478  1.4275  0.9191 -0.1077
 6580SOL     OW31201   2.147   3.357  12.269 -0.2250  0.1348  0.1761
 6580SOL    HW131202   2.064   3.317  12.295  0.3623 -1.1434  0.1237
 6580SOL    HW231203   2.125   3.446  12.245  0.0457 -0.2405 -1.4436
 6581SOL     OW31204   2.035   1.934  13.352 -0.0461  0.0019 -0.1991
 6581SOL    HW131205   2.023   1.839  13.359  0.5240 -0.0183  0.6019
 6581SOL    HW231206   2.038   1.972  13.440  0.1792 -0.3939 -0.0337
 6582SOL     OW31207   2.891   1.800  17.235  0.2281 -0.3772  0.2523
 6582SOL    HW131208   2.884   1.893  17.255 -2.8679 -0.7993  1.0709
 6582SOL    HW231209   2.920   1.795  17.144 -1.8395 -0.3378 -0.4099
 6583SOL     OW31210   3.209   0.396   5.322  0.0825  0.2291  0.1833
 6583SOL    HW131211   3.201   0.329   5.254  0.1521  1.5466 -1.1265
 6583SOL    HW231212   3.182   0.342   5.396 -0.5359  0.7463  0.3297
 6584SOL     OW31213   4.704   3.179   2.788 -0.6201 -0.0756 -0.1660
 6584SOL    HW131214   0.072   3.167   2.792 -0.9132 -1.8838  1.2373
 6584SOL    HW231215   4.695   3.256   2.844  1.7107  0.1797 -0.1822
 6585SOL     OW31216   3.407   3.626   7.629  0.2714 -0.0423 -0.0152
 6585SOL    HW131217   3.328   3.674   7.606 -0.2601 -0.9321 -0.0469
 6585SOL    HW231218   3.378   3.535   7.631 -2.4037  0.8269  0.5781
 6586SOL     OW31219   3.200   2.785  16.367 -0.2581  0.7936 -0.2457
 6586SOL    HW131220   3.199   2.713  16.303 -0.1635 -0.3861  1.0846
 6586SOL    HW231221   3.109   2.816  16.366 -0.0767  1.3169 -0.2793
 6587SOL     OW31222   1.293   4.068   9.833  0.1428  0.1138  0.2737
 6587SOL    HW131223   1.206   4.027   9.832 -1.2681  3.1012 -2.2610
 6587SOL    HW231224   1.343   3.997   9.872 -0.1500 -0.7015 -0.8105
 6588SOL     OW31225   0.908   4.571   2.412  0.1779 -0.3224 -0.8433
 6588SOL    HW131226   0.961   4.646   2.438  1.0631 -1.5889  0.9758
 6588SOL    HW231227   0.824   4.605   2.442  1.3273  2.2699 -0.6139
 6589SOL     OW31228   3.123   0.579   0.735  0.3782  0.1543  0.2722
 6589SOL    HW131229   3.117   0.554   0.643 -1.0256 -1.6110  0.8343
 6589SOL    HW231230   3.124   0.493   0.778  1.0562 -0.1020 -0.2568
 6590SOL     OW31231   1.641   1.311   3.764  0.6295 -0.6044 -0.1207
 6590SOL    HW131232   1.615   1.401   3.746  2.6990  0.3379  1.5745
 6590SOL    HW231233   1.649   1.314   3.859  1.9520 -1.5943 -0.1879
 6591SOL     OW31234   2.843   2.303   3.794 -0.6421  0.1991 -0.0855
 6591SOL    HW131235   2.820   2.343   3.877 -0.2921 -1.7351  0.9313
 6591SOL    HW231236   2.857   2.384   3.744 -0.7263  1.2953  1.6788
 6592SOL     OW31237   3.611   2.688  15.453  0.3148 -0.0486 -0.0381
 6592SOL    HW131238   3.670   2.613  15.444  1.1598  0.4092  1.5683
 6592SOL    HW231239   3.531   2.654  15.414  0.0528  1.5475 -0.8966
 6593SOL     OW31240   1.597   0.178  14.702  0.2085 -0.1314  0.0510
 6593SOL    HW131241   1.663   0.181  14.633 -1.9328 -1.5757 -2.0477
 6593SOL    HW231242   1.540   0.120  14.652 -1.1039  1.1056  0.1268
 6594SOL     OW31243   4.497   3.538  17.191 -0.2431  1.1418  0.2255
 6594SOL    HW131244   4.525   3.629  17.203  1.8709  0.7991 -2.1227
 6594SOL    HW231245   4.555   3.512  17.120  0.4157  1.5687  0.6038
 6595SOL     OW31246   0.308   4.224   0.698  0.2514  0.5762 -0.0128
 6595SOL    HW131247   0.329   4.301   0.751 -0.0797  0.6533  0.0059
 6595SOL    HW231248   0.386   4.222   0.643  1.8344 -0.4494  2.2149
 6596SOL     OW31249   3.433   1.445   6.760 -0.1906 -0.1023 -0.0290
 6596SOL    HW131250   3.404   1.532   6.786  1.4022  0.9163 -1.6590
 6596SOL    HW231251   3.431   1.397   6.843  0.1537  0.6273  0.4027
 6597SOL     OW31252   0.814   4.613   0.671  0.0590 -0.4275  0.4017
 6597SOL    HW131253   0.796   4.705   0.688  2.8965  0.5039 -1.7699
 6597SOL    HW231254   0.869   4.605   0.594  2.4111 -0.6908  2.1114
 6598SOL     OW31255   3.429   2.937  14.011  0.2833 -0.2390 -0.1840
 6598SOL    HW131256   3.426   2.940  13.915  1.4369  1.6240 -0.1610
 6598SOL    HW231257   3.479   2.858  14.030 -1.0593 -1.5117 -2.0214
 6599SOL     OW31258   0.409   2.301   1.225  0.4284  0.0307 -0.1455
 6599SOL    HW131259   0.443   2.262   1.144 -1.1828 -0.6491 -0.4894
 6599SOL    HW231260   0.321   2.310   1.187  1.3421 -1.7101 -2.6330
 6600SOL     OW31261   1.482   0.880   8.335  0.1801 -0.1449  0.1032
 6600SOL    HW131262   1.452   0.890   8.244  0.6723  1.9505  0.1760
 6600SOL    HW231263   1.409   0.835   8.377 -1.5479  0.4137 -2.2721
 6601SOL     OW31264   2.907   0.351   3.457  0.1117  0.0357  0.2425
 6601SOL    HW131265   2.921   0.366   3.551 -0.4970  0.4818  0.2654
 6601SOL    HW231266   2.962   0.422   3.424  0.1107 -0.2579 -0.3944
 6602SOL     OW31267   4.482   1.347  13.837  0.3370  0.1319  0.4022
 6602SOL    HW131268   4.400   1.378  13.874 -0.2273 -1.0930  0.1684
 6602SOL    HW231269   4.467   1.339  13.742  1.2103  0.7504  0.2103
 6603SOL     OW31270   3.676   0.746   6.191 -0.6145 -0.6251  0.3230
 6603SOL    HW131271   3.716   0.832   6.178 -1.0994 -0.0627  2.6823
 6603SOL    HW231272   3.738   0.688   6.148 -0.6661 -0.5016  0.0750
 6604SOL     OW31273   0.544   3.048  13.405  0.0494  0.1981 -0.0598
 6604SOL    HW131274   0.540   3.088  13.492 -1.2964 -0.2703  0.0885
 6604SOL    HW231275   0.520   2.959  13.430 -0.7811  0.4919  0.1716
 6605SOL     OW31276   2.863   1.849   1.328 -0.0612 -0.0789  0.0125
 6605SOL    HW131277   2.934   1.913   1.333 -0.0731 -0.1364  0.8913
 6605SOL    HW231278   2.802   1.882   1.394  0.2708 -0.0273  0.2906
 6606SOL     OW31279   3.712   3.668   1.339  0.0213 -0.5213  0.1395
 6606SOL    HW131280   3.636   3.651   1.394  1.5860  0.3966  2.6362
 6606SOL    HW231281   3.761   3.736   1.385  0.0744  0.3757 -1.2606
 6607SOL     OW31282   2.216   0.165   2.490  0.3848  0.4166 -0.3009
 6607SOL    HW131283   2.188   0.080   2.458  2.4108  0.4916 -2.2875
 6607SOL    HW231284   2.300   0.136   2.525  0.1042 -0.0116  0.0118
 6608SOL     OW31285   3.117   2.958   3.615  0.0337  0.0131 -0.9651
 6608SOL    HW131286   3.064   2.950   3.695 -1.9225  0.4001 -2.2324
 6608SOL    HW231287   3.097   2.873   3.576 -2.0365 -0.0229  0.1967
 6609SOL     OW31288   2.738   1.375   5.294  0.1151  0.4611 -0.0491
 6609SOL    HW131289   2.667   1.345   5.237  0.6311  0.4447 -0.6976
 6609SOL    HW231290   2.780   1.430   5.227 -1.2102  1.9609  0.3633
 6610SOL     OW31291   4.339   4.293   7.743 -0.0479  0.1215  0.5494
 6610SOL    HW131292   4.392   4.223   7.705 -0.6823 -0.5725  0.9515
 6610SOL    HW231293   4.374   4.374   7.704  1.9566 -1.4025 -0.8412
 6611SOL     OW31294   1.918   4.052  12.796  0.0231  0.2052 -0.0161
 6611SOL    HW131295   1.969   3.991  12.850 -0.2246  0.0609  0.0541
 6611SOL    HW231296   1.990   4.099  12.754 -0.3591 -0.3901 -1.3375
 6612SOL     OW31297   2.425   3.498   0.293  0.1582  0.0141 -0.5836
 6612SOL    HW131298   2.349   3.453   0.257 -0.7238 -0.5100  1.8878
 6612SOL    HW231299   2.383   3.551   0.362 -1.5072 -2.2916  0.1851
 6613SOL     OW31300   1.999   2.734   3.112 -0.2601  0.7177  0.0204
 6613SOL    HW131301   1.955   2.729   3.027 -3.1881  0.9468  1.5425
 6613SOL    HW231302   1.968   2.811   3.159  2.5641  2.0226 -0.2167
 6614SOL     OW31303   0.938   1.584   7.147  0.0336 -0.3245 -0.2420
 6614SOL    HW131304   0.879   1.647   7.105  1.1788 -1.1842 -3.1456
 6614SOL    HW231305   0.887   1.503   7.141  0.4245 -0.5873  0.0183
 6615SOL     OW31306   0.900   3.060   7.216 -0.6218 -0.2037 -0.3508
 6615SOL    HW131307   0.806   3.051   7.233 -0.1714 -0.4411  1.9954
 6615SOL    HW231308   0.936   2.977   7.246  0.5812  0.4275 -0.0551
 6616SOL     OW31309   0.299   4.077   0.248 -0.2948 -0.5639 -0.9196
 6616SOL    HW131310   0.291   4.172   0.258 -0.5905 -0.8727  1.7067
 6616SOL    HW231311   0.342   4.084   0.162  2.6024  0.0269  0.5840
 6617SOL     OW31312   0.124   0.497   3.691  0.0727 -0.2791  0.5178
 6617SOL    HW131313   0.057   0.520   3.756  2.2064  3.4070  1.4128
 6617SOL    HW231314   0.203   0.540   3.723  0.4753  0.8827 -2.0009
 6618SOL     OW31315   0.457   2.127   0.436  0.2302 -0.2113  0.2303
 6618SOL    HW131316   0.467   2.206   0.383 -2.3730 -0.1252 -0.1140
 6618SOL    HW231317   0.545   2.117   0.473 -0.0782 -0.6532  0.8395
 6619SOL     OW31318   2.850   3.525   6.537 -0.1793  0.7029 -0.5730
 6619SOL    HW131319   2.892   3.465   6.475  0.3852  2.0399 -1.4894
 6619SOL    HW231320   2.918   3.575   6.582  0.7781 -2.4598  1.5225
 6620SOL     OW31321   1.361   2.197  16.214  0.0196  0.1627 -0.2661
 6620SOL    HW131322   1.285   2.186  16.157  0.4868  0.2184 -0.9082
 6620SOL    HW231323   1.373   2.292  16.207  0.4933  0.3464  3.1742
 6621SOL     OW31324   1.727   0.048   1.949  0.4301 -0.5880  0.0876
 6621SOL    HW131325   1.639   0.040   1.984  0.9246 -2.0680  0.9659
 6621SOL    HW231326   1.704   0.028   1.858  4.0956  0.2144 -1.0133
 6622SOL     OW31327   3.574   3.436   8.160  0.1508 -0.0987 -0.2829
 6622SOL    HW131328   3.547   3.344   8.164  1.9867 -0.5940  0.4315
 6622SOL    HW231329   3.666   3.430   8.135  0.0483  2.1400 -1.1171
 6623SOL     OW31330   4.268   1.694   2.098 -0.4434 -0.2873 -0.5135
 6623SOL    HW131331   4.305   1.724   2.015 -0.0368  2.0603  0.5099
 6623SOL    HW231332   4.251   1.601   2.080  0.9997 -1.1048  2.2991
 6624SOL     OW31333   2.680   2.622   4.280 -0.3807 -0.1845 -0.4353
 6624SOL    HW131334   2.622   2.582   4.215 -0.4106  0.2359 -0.6634
 6624SOL    HW231335   2.694   2.710   4.246  2.9655  0.1060  1.6600
 6625SOL     OW31336   0.903   2.166   8.622  0.1942 -0.0964 -0.2254
 6625SOL    HW131337   0.925   2.078   8.593  0.9121  0.0117  0.0094
 6625SOL    HW231338   0.857   2.141   8.702  0.9379  0.7447  0.4641
 6626SOL     OW31339   0.889   1.584  16.876  0.0927 -0.2191 -0.7553
 6626SOL    HW131340   0.848   1.567  16.961  2.0967 -0.7955  0.0980
 6626SOL    HW231341   0.922   1.674  16.879  2.3168 -1.1193  2.1438
 6627SOL     OW31342   1.412   2.217   7.494  0.1471  0.1845  0.7223
 6627SOL    HW131343   1.504   2.200   7.515 -0.0665  0.1663  1.6223
 6627SOL    HW231344   1.415   2.304   7.453  1.0655 -0.3658 -0.3830
 6628SOL     OW31345   3.655   3.366   3.830  0.1518  0.1080  0.5036
 6628SOL    HW131346   3.593   3.303   3.866  0.2976 -0.7269 -0.6944
 6628SOL    HW231347   3.593   3.425   3.788  0.5046 -0.6826 -1.1480
 6629SOL     OW31348   1.341   3.303   9.091  0.2597 -0.2347  0.2910
 6629SOL    HW131349   1.246   3.293   9.088  0.1934  0.4208  0.2376
 6629SOL    HW231350   1.351   3.395   9.067 -0.1424 -0.8290 -2.1802
 6630SOL     OW31351   4.045   4.024   8.035  0.2102 -0.6390 -1.0280
 6630SOL    HW131352   4.031   4.061   8.122  1.3521 -1.1746 -0.6260
 6630SOL    HW231353   4.118   3.965   8.053  1.4032  1.4398  0.9428
 6631SOL     OW31354   2.038   0.976   4.551  0.1096  0.0864 -0.8308
 6631SOL    HW131355   2.076   1.057   4.519 -0.6734  0.5201 -0.6499
 6631SOL    HW231356   1.992   1.020   4.623 -0.8474 -0.8058 -0.8880
 6632SOL     OW31357   4.091   0.897   5.017 -0.5809  0.6873 -0.1113
 6632SOL    HW131358   4.012   0.842   5.014 -0.0246 -0.1118 -0.1661
 6632SOL    HW231359   4.106   0.899   4.923  1.4957 -0.2962  0.2077
 6633SOL     OW31360   2.207   3.327   8.143  0.0791 -0.4519  0.3101
 6633SOL    HW131361   2.236   3.239   8.119 -1.9354 -1.0549  0.0420
 6633SOL    HW231362   2.272   3.352   8.209 -0.1718 -0.5309  0.5930
 6634SOL     OW31363   2.928   1.313   3.456 -0.3771  0.3512  0.0364
 6634SOL    HW131364   2.922   1.228   3.412  0.2250 -0.5111  1.6324
 6634SOL    HW231365   2.857   1.305   3.519  0.4838 -0.9242  0.8566
 6635SOL     OW31366   1.054   3.658   9.023 -0.5673 -0.0098  0.2179
 6635SOL    HW131367   1.104   3.734   9.053 -0.0513 -0.0188 -0.6338
 6635SOL    HW231368   1.027   3.619   9.106  0.4407 -3.2664 -1.0102
 6636SOL     OW31369   3.658   2.524   7.033  0.0199  0.2280 -0.6015
 6636SOL    HW131370   3.655   2.612   7.072 -0.7667  0.5258 -1.3400
 6636SOL    HW231371   3.752   2.504   7.031 -0.3401 -1.2981 -1.4931
 6637SOL     OW31372   1.316   3.824  12.298 -0.2826  0.0629  0.2911
 6637SOL    HW131373   1.364   3.829  12.381 -0.3134 -0.5481  0.3467
 6637SOL    HW231374   1.270   3.741  12.308  2.1176 -1.1439  1.5813
 6638SOL     OW31375   4.193   3.995  17.321 -0.6616 -0.0913  0.1463
 6638SOL    HW131376   4.165   3.914  17.364 -1.6251  0.2307  0.1179
 6638SOL    HW231377   4.231   4.038  17.398  4.0485  0.9313 -2.7527
 6639SOL     OW31378   4.475   0.174   8.235 -0.4356 -0.2804 -0.2921
 6639SOL    HW131379   4.523   0.225   8.300  1.3630 -2.5688  0.1836
 6639SOL    HW231380   4.388   0.215   8.233 -0.5843 -0.7539 -2.5353
 6640SOL     OW31381   4.327   0.514  15.690  0.1737  0.2801 -0.0588
 6640SOL    HW131382   4.298   0.536  15.778 -1.7998  1.2469 -0.9472
 6640SOL    HW231383   4.407   0.467  15.714  0.4092  1.1049  0.7725
 6641SOL     OW31384   1.664   1.770   5.444  0.7656  0.2643  0.1789
 6641SOL    HW131385   1.754   1.801   5.456  0.6419  1.2963 -1.5312
 6641SOL    HW231386   1.656   1.755   5.350 -0.5463  4.0809 -0.3143
 6642SOL     OW31387   1.892   0.127  13.890  0.1517 -0.2133  0.7982
 6642SOL    HW131388   1.969   0.184  13.902 -0.4953  1.3232 -2.3954
 6642SOL    HW231389   1.860   0.161  13.806 -0.4298 -0.7928  0.7949
 6643SOL     OW31390   3.807   2.838   3.996 -0.0363 -0.5526 -0.5566
 6643SOL    HW131391   3.721   2.861   4.031  0.5948  0.4240  0.3412
 6643SOL    HW231392   3.811   2.885   3.913 -0.3181  1.7823  0.7575
 6644SOL     OW31393   2.534   2.246   7.897  0.0551 -0.0359  0.4591
 6644SOL    HW131394   2.451   2.275   7.935  0.1111  2.5177 -1.3431
 6644SOL    HW231395   2.513   2.256   7.804  1.2510 -1.0349  0.0958
 6645SOL     OW31396   2.534   1.833  12.799 -0.1168 -0.5519  0.0674
 6645SOL    HW131397   2.499   1.916  12.766  0.1622 -1.4303 -2.4791
 6645SOL    HW231398   2.527   1.782  12.718  0.5723 -0.8458  0.1967
 6646SOL     OW31399   0.813   4.374   3.451  0.2668  0.1256 -0.1743
 6646SOL    HW131400   0.744   4.412   3.396  0.0164  0.7462  0.5811
 6646SOL    HW231401   0.760   4.362   3.529 -1.2048  0.7553 -1.0814
 6647SOL     OW31402   3.107   1.214   1.479 -0.5831 -0.2067 -0.0916
 6647SOL    HW131403   3.061   1.270   1.542  0.4720  2.0573 -1.2985
 6647SOL    HW231404   3.030   1.165   1.451 -1.7705  1.1041  0.8857
 6648SOL     OW31405   1.760   2.494   7.778  0.2244 -0.2891 -0.3186
 6648SOL    HW131406   1.855   2.497   7.775  0.3791 -3.4789  1.4788
 6648SOL    HW231407   1.740   2.580   7.741  2.0268  0.3457  0.2079
 6649SOL     OW31408   1.236   2.974  13.761 -0.5752  0.0947 -0.5122
 6649SOL    HW131409   1.230   2.879  13.749 -0.7192  0.1149 -0.5971
 6649SOL    HW231410   1.308   2.985  13.824 -0.1285 -2.1545 -0.6016
 6650SOL     OW31411   0.358   2.538   5.263  0.0239  0.5395 -0.3724
 6650SOL    HW131412   0.423   2.558   5.196 -0.7662  0.2803 -1.2004
 6650SOL    HW231413   0.337   2.447   5.242 -0.6493 -0.1452  3.1351
 6651SOL     OW31414   0.071   2.465   2.776 -0.4220  0.1176 -0.1099
 6651SOL    HW131415   0.093   2.555   2.751 -1.3075  0.7926  1.4874
 6651SOL    HW231416   0.024   2.432   2.699  1.4956 -2.0796 -0.3217
 6652SOL     OW31417   3.173   4.421   3.270 -0.6496 -0.7590 -0.0327
 6652SOL    HW131418   3.081   4.394   3.272 -0.6524 -0.9002 -2.2629
 6652SOL    HW231419   3.182   4.467   3.353 -0.6061  0.0104 -0.4588
 6653SOL     OW31420   3.292   1.493   5.218 -0.0715  0.2414  0.7124
 6653SOL    HW131421   3.237   1.553   5.268 -0.2638  0.4919  0.1939
 6653SOL    HW231422   3.252   1.495   5.131 -0.5805  0.7010  0.9653
 6654SOL     OW31423   2.912   2.103   3.100 -0.7151  0.3359  0.1271
 6654SOL    HW131424   2.982   2.087   3.163  0.1014 -0.7561 -1.0585
 6654SOL    HW231425   2.879   2.191   3.117 -0.8925  0.2089  0.4455
 6655SOL     OW31426   1.462   0.197   6.532  0.5033 -0.1133 -0.0614
 6655SOL    HW131427   1.445   0.286   6.501  3.6841 -1.0882 -4.4829
 6655SOL    HW231428   1.465   0.213   6.627  1.4414 -0.6559 -0.0068
 6656SOL     OW31429   0.148   3.619   2.773  0.5315  0.1527  0.0346
 6656SOL    HW131430   0.192   3.688   2.823  1.6478  2.0429 -3.5826
 6656SOL    HW231431   0.162   3.537   2.821 -0.2049 -1.1576 -1.9859
 6657SOL     OW31432   1.813   0.209   6.513  0.5512  0.5093  0.0695
 6657SOL    HW131433   1.803   0.222   6.418  1.2965 -1.6618 -0.3067
 6657SOL    HW231434   1.802   0.295   6.553  1.8495 -0.4701  2.5239
 6658SOL     OW31435   2.556   0.234   3.374 -0.1913  0.4256 -0.1482
 6658SOL    HW131436   2.641   0.196   3.351 -0.1388  0.1990  0.4317
 6658SOL    HW231437   2.581   0.274   3.457 -1.2915 -1.1007  0.9261
 6659SOL     OW31438   4.628   0.765  16.263 -0.8494 -0.2231  0.0282
 6659SOL    HW131439   4.553   0.710  16.286  0.0280 -2.0224 -1.4563
 6659SOL    HW231440   4.672   0.767  16.348 -1.8294 -2.6763  0.5891
 6660SOL     OW31441   4.664   3.307   4.350 -0.5760  0.4326  0.3680
 6660SOL    HW131442   4.691   3.292   4.259 -1.4274  0.7374  0.0622
 6660SOL    HW231443   0.016   3.327   4.400  0.0351 -0.8977 -0.0376
 6661SOL     OW31444   1.805   4.640  13.670  0.2883 -0.0333 -0.7068
 6661SOL    HW131445   1.777   4.556  13.635  2.7973 -3.2127  4.8860
 6661SOL    HW231446   1.873   4.658  13.605  0.9181 -1.3855 -0.4104
 6662SOL     OW31447   3.765   3.353   2.924  0.8922 -0.5356 -0.2278
 6662SOL    HW131448   3.743   3.446   2.936  2.7106 -0.0564 -0.6245
 6662SOL    HW231449   3.818   3.356   2.845  0.0327 -0.5094 -0.8030
 6663SOL     OW31450   2.398   2.841   3.034  0.8140  0.2700 -0.4871
 6663SOL    HW131451   2.360   2.925   3.009 -0.5959 -0.6709 -1.4594
 6663SOL    HW231452   2.318   2.791   3.051  0.6667  0.7598  0.2587
 6664SOL     OW31453   2.773   0.552  11.101 -0.2540  0.1053 -0.1698
 6664SOL    HW131454   2.838   0.580  11.166  0.2937 -2.9647  0.6121
 6664SOL    HW231455   2.726   0.482  11.147  2.8086 -0.1817  2.6085
 6665SOL     OW31456   1.399   4.170   2.138 -0.0353  0.4421  0.7884
 6665SOL    HW131457   1.395   4.229   2.063  4.3887 -0.8765 -0.5159
 6665SOL    HW231458   1.403   4.221   2.219 -3.0540  0.0041  1.1875
 6666SOL     OW31459   3.331   4.609   9.589  0.0489 -0.0796 -0.2698
 6666SOL    HW131460   3.410   4.633   9.636  1.6585 -1.5034 -2.2119
 6666SOL    HW231461   3.350   4.519   9.562 -1.6366 -0.0511 -1.5744
 6667SOL     OW31462   4.057   3.640   4.271 -0.0908  0.4642 -0.1523
 6667SOL    HW131463   3.973   3.621   4.230 -0.2678  0.0858  0.3786
 6667SOL    HW231464   4.101   3.695   4.206 -0.9109 -1.2933 -2.1922
 6668SOL     OW31465   1.930   4.153   5.698 -0.6337 -0.4977  0.3435
 6668SOL    HW131466   1.871   4.163   5.772  0.9092  0.2434  1.4686
 6668SOL    HW231467   2.005   4.151   5.758  0.2708  0.1758 -0.7374
 6669SOL     OW31468   0.826   1.256   0.106  0.1002 -0.3449  0.7239
 6669SOL    HW131469   0.823   1.341   0.061 -0.8520 -0.9459 -0.3339
 6669SOL    HW231470   0.880   1.205   0.047  0.6837 -0.8059  1.6579
 6670SOL     OW31471   1.823   2.035  13.178  0.2232  0.0531 -0.5698
 6670SOL    HW131472   1.879   1.995  13.245 -0.8291  0.8459  0.7923
 6670SOL    HW231473   1.756   2.072  13.235 -1.0925 -1.4719 -1.1354
 6671SOL     OW31474   2.323   2.262   0.336 -0.6426 -0.6589  0.2059
 6671SOL    HW131475   2.252   2.325   0.324 -0.6595 -0.6309  0.4461
 6671SOL    HW231476   2.340   2.272   0.430  0.5876  0.0862 -0.1010
 6672SOL     OW31477   3.970   2.422  17.589  0.0739  0.3840  0.1041
 6672SOL    HW131478   3.945   2.337  17.626  0.3527  0.2286 -0.0661
 6672SOL    HW231479   3.900   2.438  17.525  0.0703 -0.7268 -0.1773
 6673SOL     OW31480   4.282   1.696   3.060  0.2904  0.1346  0.0283
 6673SOL    HW131481   4.190   1.700   3.033  0.7924  1.3894 -1.5005
 6673SOL    HW231482   4.312   1.614   3.021 -1.6470 -1.0197  0.9783
 6674SOL     OW31483   1.496   1.571   8.281 -0.1452 -0.2853  0.5734
 6674SOL    HW131484   1.430   1.638   8.263 -2.1911 -2.6289 -0.6680
 6674SOL    HW231485   1.504   1.534   8.192 -0.9869  0.4178  0.2097
 6675SOL     OW31486   2.068   3.038  17.655  0.1347 -0.3631 -0.0861
 6675SOL    HW131487   1.986   3.049  17.704  0.7302  1.5536  0.4972
 6675SOL    HW231488   2.083   3.131  17.634  0.9244 -0.2958  0.7567
 6676SOL     OW31489   1.039   2.001   8.327 -0.2390 -0.7223  0.2442
 6676SOL    HW131490   0.949   1.991   8.295 -0.4153 -1.4725  0.9898
 6676SOL    HW231491   1.041   1.951   8.408 -0.2834 -1.6159 -0.2976
 6677SOL     OW31492   2.974   2.719   7.231 -0.1916  0.2010  0.0223
 6677SOL    HW131493   2.964   2.626   7.250 -2.9905  0.2706 -1.0751
 6677SOL    HW231494   3.067   2.714   7.212 -0.7901 -1.9028 -2.3170
 6678SOL     OW31495   3.052   1.753   3.134 -0.2700 -0.5867 -0.4032
 6678SOL    HW131496   2.960   1.779   3.135  0.0353  0.4612  1.5125
 6678SOL    HW231497   3.077   1.832   3.182  1.3375 -1.3694  0.0341
 6679SOL     OW31498   0.909   4.042   4.495  0.2265  0.6435  0.0364
 6679SOL    HW131499   0.882   4.015   4.583  0.1366  0.2686 -0.1067
 6679SOL    HW231500   0.987   3.988   4.482  1.0151  1.7643  0.1020
 6680SOL     OW31501   2.771   2.925   6.891  0.0383 -0.1831 -0.1191
 6680SOL    HW131502   2.711   2.870   6.941  2.8730 -2.2299  1.0762
 6680SOL    HW231503   2.802   2.983   6.961  1.1310 -2.0447  0.9576
 6681SOL     OW31504   0.439   2.160   2.522 -0.2871 -0.1034 -0.0653
 6681SOL    HW131505   0.391   2.229   2.477 -2.0392 -1.4248 -0.2236
 6681SOL    HW231506   0.388   2.149   2.602  0.6244 -0.7620  0.4193
 6682SOL     OW31507   4.206   3.360   7.840 -0.8700 -0.3759  0.3576
 6682SOL    HW131508   4.185   3.277   7.883 -1.8372  0.1172  0.8318
 6682SOL    HW231509   4.144   3.362   7.767  0.4172  1.7930 -0.6811
 6683SOL     OW31510   0.776   2.269  11.805 -0.0076  0.0230  0.8698
 6683SOL    HW131511   0.826   2.340  11.766  2.5968 -1.9827  0.4988
 6683SOL    HW231512   0.827   2.262  11.886  0.3618  0.6981  0.6947
 6684SOL     OW31513   0.254   2.586   4.753  0.2732 -0.1633 -0.8054
 6684SOL    HW131514   0.170   2.554   4.785  1.0164 -3.0079 -1.6488
 6684SOL    HW231515   0.220   2.631   4.676  1.3272  1.2700 -0.4394
 6685SOL     OW31516   3.335   0.844   5.059 -0.0074 -0.4893 -0.1606
 6685SOL    HW131517   3.251   0.869   5.022 -0.0980  0.5299  0.7533
 6685SOL    HW231518   3.307   0.767   5.108  0.2576 -0.4503  0.0548
 6686SOL     OW31519   3.798   0.743  15.278 -0.5707 -0.1808  0.6929
 6686SOL    HW131520   3.822   0.762  15.369  3.1436 -4.9146  0.7135
 6686SOL    HW231521   3.702   0.739  15.272 -0.5635  0.2439  0.3074
 6687SOL     OW31522   0.067   1.870   4.636  0.4002  0.3023  0.1198
 6687SOL    HW131523   0.052   1.784   4.598  0.3004  0.3612  0.0253
 6687SOL    HW231524   4.710   1.902   4.600 -0.5208  0.7300  2.5950
 6688SOL     OW31525   4.366   0.236  13.242 -0.9425  0.1071 -0.1087
 6688SOL    HW131526   4.386   0.243  13.335  0.0835 -0.1232 -0.3121
 6688SOL    HW231527   4.313   0.156  13.241 -1.6964  0.6013  0.4687
 6689SOL     OW31528   3.699   0.569   2.156  0.1672 -0.1116  0.5375
 6689SOL    HW131529   3.697   0.515   2.077  1.5257 -1.1707  1.2210
 6689SOL    HW231530   3.708   0.653   2.112 -0.2109 -0.7475 -0.7621
 6690SOL     OW31531   0.284   1.629   7.426 -0.5737 -0.3425  0.2055
 6690SOL    HW131532   0.287   1.714   7.469 -0.2827  0.0106 -0.5238
 6690SOL    HW231533   0.374   1.598   7.439  0.0550  0.9903 -1.0297
 6691SOL     OW31534   1.992   3.714   6.429 -0.2144 -0.5216  0.1401
 6691SOL    HW131535   2.055   3.645   6.407  0.8297  0.5234 -0.1840
 6691SOL    HW231536   1.914   3.664   6.453  1.1258 -2.0040  1.4472
 6692SOL     OW31537   3.995   1.531   1.492 -0.2215  0.0467 -0.4873
 6692SOL    HW131538   3.909   1.560   1.520  0.2534  2.1818 -1.2260
 6692SOL    HW231539   4.013   1.464   1.557 -0.0231 -0.2494 -0.8456
 6693SOL     OW31540   3.567   2.842   5.880 -0.3934 -0.5706  0.2203
 6693SOL    HW131541   3.636   2.872   5.940 -1.0836  0.9366  0.2617
 6693SOL    HW231542   3.493   2.885   5.922  0.2802 -0.1763  1.0096
 6694SOL     OW31543   0.464   2.452   4.106 -0.0621 -0.1736 -0.1117
 6694SOL    HW131544   0.530   2.518   4.087 -1.1946 -0.1053 -3.7123
 6694SOL    HW231545   0.485   2.399   4.029  2.4115 -1.5788  1.5254
 6695SOL     OW31546   1.343   3.817   3.797 -0.2793  0.2854 -0.1260
 6695SOL    HW131547   1.311   3.861   3.876  0.0856 -1.7498  1.1593
 6695SOL    HW231548   1.385   3.881   3.740 -0.8755  0.1996 -0.6645
 6696SOL     OW31549   3.846   4.470  10.881 -0.4707  0.2673 -0.5375
 6696SOL    HW131550   3.827   4.404  10.948  2.1147  2.0803  1.9891
 6696SOL    HW231551   3.763   4.518  10.883 -0.1221  0.8113  1.0490
 6697SOL     OW31552   4.392   4.723   5.121 -0.0727 -1.0977 -0.2339
 6697SOL    HW131553   4.412   4.662   5.050  0.4896 -0.0719 -0.9715
 6697SOL    HW231554   4.416   0.074   5.071 -0.1683 -0.7001  0.3335
 6698SOL     OW31555   0.825   2.927   7.784  0.1150 -0.0811 -0.0539
 6698SOL    HW131556   0.855   2.851   7.835 -1.2594  1.1126  2.5748
 6698SOL    HW231557   0.854   3.001   7.838 -0.4225  0.0753  0.0246
 6699SOL     OW31558   2.431   2.947   1.850 -0.4245 -0.0512 -0.3670
 6699SOL    HW131559   2.429   2.874   1.911  1.0892  1.3618  1.3984
 6699SOL    HW231560   2.368   2.923   1.782  0.3568  1.7110 -1.7455
 6700SOL     OW31561   0.096   3.090   7.652  0.0678 -0.4070 -0.3974
 6700SOL    HW131562   0.183   3.072   7.688 -0.4331 -1.7281  0.1373
 6700SOL    HW231563   0.054   3.153   7.710  0.0035 -2.0056  1.2612
 6701SOL     OW31564   2.742   3.020   8.805 -0.3428 -0.1012 -0.5088
 6701SOL    HW131565   2.743   2.933   8.764  0.7064 -0.3192 -0.0443
 6701SOL    HW231566   2.745   3.002   8.899 -0.1994 -0.4386 -0.5746
 6702SOL     OW31567   0.096   3.325   1.037  0.3202 -0.2606 -0.0624
 6702SOL    HW131568   0.029   3.349   0.973 -0.6545 -0.4289  0.9211
 6702SOL    HW231569   0.148   3.259   0.991  0.0822  0.8857 -2.0024
 6703SOL     OW31570   1.160   3.935   4.501 -0.1254 -0.1686 -0.1270
 6703SOL    HW131571   1.186   3.897   4.585  1.4983  1.1668 -0.0316
 6703SOL    HW231572   1.199   4.021   4.511 -0.9153  0.2688 -0.8528
 6704SOL     OW31573   3.265   4.531  11.285  0.4472 -0.1187  0.8273
 6704SOL    HW131574   3.303   4.615  11.259  1.0514 -0.6528  0.0093
 6704SOL    HW231575   3.246   4.533  11.379  1.9072 -0.3655  1.1297
 6705SOL     OW31576   1.409   0.344   2.885 -0.2632 -0.6498  0.1499
 6705SOL    HW131577   1.457   0.268   2.851  1.0804  0.2082  0.1035
 6705SOL    HW231578   1.487   0.389   2.918 -0.2066 -0.1154 -0.7175
 6706SOL     OW31579   2.463   3.778  16.812 -0.5929  0.2321 -0.0101
 6706SOL    HW131580   2.375   3.773  16.849  0.3786  3.0366  2.6534
 6706SOL    HW231581   2.459   3.864  16.769 -0.4019  0.4860  0.4766
 6707SOL     OW31582   1.924   2.250  13.346  0.3948 -0.1070  0.0149
 6707SOL    HW131583   1.836   2.217  13.330  0.4525  0.0364 -0.6000
 6707SOL    HW231584   1.958   2.179  13.401  0.1909  0.2716  0.6271
 6708SOL     OW31585   2.721   0.125   7.419  0.0567 -0.5271  0.1143
 6708SOL    HW131586   2.757   0.165   7.340  0.3684  0.5728  0.8124
 6708SOL    HW231587   2.694   0.202   7.469 -3.3975  0.0425 -2.7002
 6709SOL     OW31588   0.152   0.189   5.648 -0.7757  0.4704 -0.2100
 6709SOL    HW131589   0.125   0.097   5.640  0.8692  0.0942 -1.5104
 6709SOL    HW231590   0.100   0.216   5.572 -3.1202 -0.8305  0.9277
 6710SOL     OW31591   2.059   0.507   6.085 -0.2094  0.9079  0.5347
 6710SOL    HW131592   1.988   0.477   6.142  0.3051 -1.4095 -0.0734
 6710SOL    HW231593   2.135   0.462   6.121  0.5182  3.1523  1.8239
 6711SOL     OW31594   3.701   1.682  12.989 -0.3842  0.1707  0.3162
 6711SOL    HW131595   3.727   1.632  13.066  1.3669 -2.0940 -1.7510
 6711SOL    HW231596   3.780   1.737  12.982 -0.5683  0.3783 -0.0920
 6712SOL     OW31597   1.774   1.937   7.934  0.1207 -0.1098 -0.2089
 6712SOL    HW131598   1.736   1.854   7.964  1.0720 -0.3566  0.3114
 6712SOL    HW231599   1.705   1.954   7.870 -1.3321 -3.3319  0.4811
 6713SOL     OW31600   0.809   3.505   1.809 -0.6750 -0.8049 -0.0013
 6713SOL    HW131601   0.811   3.557   1.729  0.5566 -0.7582  0.0632
 6713SOL    HW231602   0.865   3.429   1.789 -1.8105 -1.4041 -0.8749
 6714SOL     OW31603   2.696   0.728   6.679 -0.1339 -0.4608 -0.3308
 6714SOL    HW131604   2.664   0.791   6.615  0.3021 -0.3795 -0.4692
 6714SOL    HW231605   2.707   0.798   6.743 -1.4526 -0.2814 -0.3040
 6715SOL     OW31606   0.330   0.923   1.716 -0.2562  0.0065  0.1616
 6715SOL    HW131607   0.286   0.838   1.727 -0.3719 -0.1326 -1.4184
 6715SOL    HW231608   0.379   0.907   1.636  0.7363  0.5183  0.6662
 6716SOL     OW31609   4.085   0.750  10.258 -1.0014  0.0701  0.2650
 6716SOL    HW131610   4.155   0.808  10.226 -1.8762  1.2786  0.5365
 6716SOL    HW231611   4.029   0.761  10.182 -0.8891  1.7393  0.4118
 6717SOL     OW31612   2.434   4.714   3.454 -0.5286 -0.0890  0.5746
 6717SOL    HW131613   2.438   0.083   3.442 -0.2775 -0.1257  0.3652
 6717SOL    HW231614   2.444   4.688   3.362  1.4793 -0.6886  0.9641
 6718SOL     OW31615   3.381   3.528   5.143 -0.3830  0.9904 -0.1262
 6718SOL    HW131616   3.311   3.578   5.184 -1.5181 -0.9696  0.3398
 6718SOL    HW231617   3.447   3.596   5.147  1.8285 -1.1384 -0.2290
 6719SOL     OW31618   2.690   4.499   3.905 -0.6242  0.1142 -0.4190
 6719SOL    HW131619   2.696   4.451   3.988 -0.4238  1.3138  0.2626
 6719SOL    HW231620   2.625   4.449   3.855  0.7889  0.6427 -2.7935
 6720SOL     OW31621   3.800   0.168   5.797 -0.1913  0.3815 -0.3630
 6720SOL    HW131622   3.824   0.216   5.718  3.1784  0.1775  0.5437
 6720SOL    HW231623   3.887   0.133   5.821 -0.3878 -0.8324 -1.4347
 6721SOL     OW31624   3.563   1.577   2.008 -0.3287  0.0020 -0.2401
 6721SOL    HW131625   3.641   1.616   2.048  0.6985 -0.8817 -1.3577
 6721SOL    HW231626   3.604   1.542   1.929  2.7882  0.4453  1.1521
 6722SOL     OW31627   1.969   2.145  12.789  0.2619 -0.6538  0.1182
 6722SOL    HW131628   1.964   2.147  12.694  1.4815  1.0880  0.0865
 6722SOL    HW231629   1.982   2.236  12.815  2.5886 -0.6570 -1.0504
 6723SOL     OW31630   1.086   2.103   6.282 -0.2210 -0.0952 -0.7386
 6723SOL    HW131631   1.104   2.075   6.372  0.4216  2.5849 -0.0267
 6723SOL    HW231632   1.061   2.023   6.234  1.1931 -1.6260  1.0960
 6724SOL     OW31633   4.599   4.532  16.545 -0.1142 -0.1439  0.3853
 6724SOL    HW131634   4.580   4.619  16.581  3.5280 -0.6088  3.4317
 6724SOL    HW231635   4.686   4.505  16.572 -0.2262 -1.6621 -0.7346
 6725SOL     OW31636   0.288   0.687  10.033 -0.1157 -0.1334  0.5710
 6725SOL    HW131637   0.382   0.682  10.019 -0.5295 -0.7359 -2.0092
 6725SOL    HW231638   0.286   0.748  10.107  0.1666 -1.7380  1.9069
 6726SOL     OW31639   0.842   2.997   6.554  0.2922 -0.0533 -0.4456
 6726SOL    HW131640   0.831   3.081   6.599 -1.6138 -1.3129  1.3988
 6726SOL    HW231641   0.930   3.015   6.519 -0.1287 -0.4262 -1.7039
 6727SOL     OW31642   3.924   0.124   8.627  0.4024  0.3942 -0.2549
 6727SOL    HW131643   4.018   0.133   8.609  0.2955 -0.2938 -1.1864
 6727SOL    HW231644   3.900   0.131   8.534  0.8681 -1.9882 -0.5518
 6728SOL     OW31645   2.975   3.957   3.770  0.4165 -0.4327 -0.2412
 6728SOL    HW131646   3.059   3.916   3.788  0.5024 -0.3824 -0.5274
 6728SOL    HW231647   2.921   3.878   3.770 -0.8887  0.4333 -0.8500
 6729SOL     OW31648   2.377   2.790   0.918 -0.6271  0.4949 -0.1616
 6729SOL    HW131649   2.298   2.825   0.878  0.0533  1.0592 -1.0148
 6729SOL    HW231650   2.443   2.810   0.852  2.7517 -1.1892  2.6439
 6730SOL     OW31651   2.503   3.896  12.045 -0.4194  0.3220  0.0374
 6730SOL    HW131652   2.451   3.976  12.039  0.7070  0.9005 -2.1612
 6730SOL    HW231653   2.445   3.840  12.097  0.7290  0.5273  1.5534
 6731SOL     OW31654   2.870   1.042  14.263  0.3986 -0.4038  0.2601
 6731SOL    HW131655   2.780   1.010  14.271 -0.3635  2.3809  3.0078
 6731SOL    HW231656   2.885   1.079  14.350 -0.7908  0.7805 -0.0275
 6732SOL     OW31657   4.507   2.264   9.171 -1.1309 -0.1702 -0.4353
 6732SOL    HW131658   4.481   2.337   9.227 -0.8078 -1.5508  1.5302
 6732SOL    HW231659   4.479   2.287   9.082 -1.9499  0.8122  0.0859
 6733SOL     OW31660   2.919   2.558  11.135 -0.3953  0.2580  0.0142
 6733SOL    HW131661   2.977   2.614  11.083 -0.2228  1.4321  1.4559
 6733SOL    HW231662   2.845   2.590  11.084 -0.7816 -0.2263  0.2690
 6734SOL     OW31663   3.765   3.785   6.479  0.6003  0.0627 -0.1136
 6734SOL    HW131664   3.704   3.850   6.444  2.0251  1.3081 -0.2389
 6734SOL    HW231665   3.720   3.705   6.451 -2.1970  2.5430 -2.6557
 6735SOL     OW31666   3.530   4.232   7.318  0.2221 -0.2288  0.0804
 6735SOL    HW131667   3.471   4.261   7.387 -1.3806 -0.1672 -1.3053
 6735SOL    HW231668   3.471   4.249   7.245  1.6293 -0.6240 -1.1553
 6736SOL     OW31669   2.275   1.320   9.083  0.9517 -0.2048  0.3487
 6736SOL    HW131670   2.279   1.345   8.990 -0.0761 -0.0812  0.3266
 6736SOL    HW231671   2.183   1.294   9.091  0.6400  0.7802  0.0215
 6737SOL     OW31672   0.654   3.666  17.641 -0.1140  0.2667  0.2802
 6737SOL    HW131673   0.703   3.703  17.567  0.5091  1.2827  1.2075
 6737SOL    HW231674   0.635   3.745  17.691  0.7976 -0.1418  1.2752
 6738SOL     OW31675   4.548   0.704   2.160  0.4347  0.1849  0.6186
 6738SOL    HW131676   4.545   0.669   2.070 -0.8602  0.4421  0.5571
 6738SOL    HW231677   4.540   0.617   2.200  0.9145  0.1329  0.5999
 6739SOL     OW31678   2.263   0.693   7.683 -0.1727 -0.1134 -0.0128
 6739SOL    HW131679   2.221   0.610   7.705 -0.8877  0.8098  2.2020
 6739SOL    HW231680   2.278   0.722   7.773 -0.4418  1.2236 -0.3981
 6740SOL     OW31681   4.655   4.454  11.624  0.1273 -0.1780  0.8367
 6740SOL    HW131682   4.588   4.451  11.692 -1.8573  2.6791 -0.9694
 6740SOL    HW231683   4.716   4.524  11.646 -0.3116 -0.1084  1.8268
 6741SOL     OW31684   0.729   3.429  13.072  0.0519  0.3886 -0.2710
 6741SOL    HW131685   0.747   3.523  13.060  0.1877  0.1796 -1.7228
 6741SOL    HW231686   0.760   3.389  12.990  0.1509 -1.1520  0.5282
 6742SOL     OW31687   2.387   3.349  17.596 -0.1241  0.4915  0.0768
 6742SOL    HW131688   2.376   3.297  17.517 -1.3803  0.0315  0.5610
 6742SOL    HW231689   2.451   3.303  17.651  1.3113  0.7034 -1.4318
 6743SOL     OW31690   2.606   4.624   1.137  0.2249  0.1841 -0.3061
 6743SOL    HW131691   2.521   4.615   1.094 -1.0457  0.2485  2.2006
 6743SOL    HW231692   2.592   4.588   1.224 -0.6299  0.5900 -0.2695
 6744SOL     OW31693   1.305   1.046  11.448  0.3100 -0.2412  0.5735
 6744SOL    HW131694   1.231   1.093  11.488 -0.1505  0.1136 -0.6950
 6744SOL    HW231695   1.264   1.004  11.372  0.8340  2.2892 -1.0962
 6745SOL     OW31696   0.515   1.594   8.305 -0.2985  0.3898 -0.3466
 6745SOL    HW131697   0.485   1.685   8.308 -2.1027 -0.2421  0.6642
 6745SOL    HW231698   0.449   1.551   8.359  0.4324  0.7212  0.8046
 6746SOL     OW31699   4.087   2.697  10.220  0.3366  0.3777  0.2926
 6746SOL    HW131700   4.004   2.663  10.186  2.1124 -0.2041 -3.4455
 6746SOL    HW231701   4.139   2.618  10.235 -0.5985 -0.1223  0.9288
 6747SOL     OW31702   4.504   1.916   1.674 -0.3178 -0.0198  0.1580
 6747SOL    HW131703   4.590   1.878   1.654  0.4935  0.1221  3.3854
 6747SOL    HW231704   4.509   1.944   1.765 -2.3455 -1.6907  0.7714
 6748SOL     OW31705   4.326   2.178   0.415 -0.5139 -0.1077 -0.0917
 6748SOL    HW131706   4.399   2.123   0.387 -0.9873 -1.2722  0.9777
 6748SOL    HW231707   4.272   2.119   0.467  0.8859 -1.9043 -0.6723
 6749SOL     OW31708   4.098   1.889  15.089 -0.0576  0.0937  0.2944
 6749SOL    HW131709   4.166   1.935  15.139  1.9246 -0.3719 -1.9651
 6749SOL    HW231710   4.145   1.874  15.007 -1.2167  0.7728 -0.4892
 6750SOL     OW31711   3.427   4.232   2.054 -0.3579 -0.3363 -0.2918
 6750SOL    HW131712   3.348   4.234   1.999  0.3305 -0.1177 -1.2879
 6750SOL    HW231713   3.423   4.141   2.083  0.8111 -0.5455 -0.7820
 6751SOL     OW31714   3.277   1.598   2.054  0.2457  0.0280 -0.2491
 6751SOL    HW131715   3.373   1.593   2.052  0.3029  1.7130 -1.2416
 6751SOL    HW231716   3.252   1.559   2.139 -1.9983  0.7121 -0.5977
 6752SOL     OW31717   2.089   4.409   5.027 -0.1944 -0.4280 -0.1122
 6752SOL    HW131718   2.084   4.454   5.111  3.0858  1.2262 -0.7735
 6752SOL    HW231719   2.003   4.367   5.032  0.7957 -2.4531  0.0019
 6753SOL     OW31720   3.377   1.257   6.969 -0.0755 -0.1041  0.1159
 6753SOL    HW131721   3.285   1.260   6.994 -0.1938  2.2869 -0.5664
 6753SOL    HW231722   3.380   1.185   6.906 -0.1306  1.7596 -2.0017
 6754SOL     OW31723   0.665   4.622  14.181  0.1168 -0.1366 -0.1024
 6754SOL    HW131724   0.626   4.675  14.251  1.1496  0.3663  0.0795
 6754SOL    HW231725   0.748   4.663  14.159 -1.5405  2.2790 -1.8589
 6755SOL     OW31726   1.796   3.587   3.562  0.6114  0.4205  0.1227
 6755SOL    HW131727   1.804   3.502   3.519 -0.0329  1.1367 -1.4090
 6755SOL    HW231728   1.720   3.627   3.521  0.4245  0.0617  0.1222
 6756SOL     OW31729   4.631   3.835   6.131  0.0039 -0.8875 -0.0588
 6756SOL    HW131730   4.598   3.763   6.184 -1.1079 -0.1810  0.2127
 6756SOL    HW231731   4.587   3.911   6.169  2.4715  1.0963 -1.1546
 6757SOL     OW31732   1.122   2.590   1.695  0.1526  0.2625 -0.3634
 6757SOL    HW131733   1.175   2.513   1.673 -2.4740 -1.9600  1.1723
 6757SOL    HW231734   1.053   2.549   1.747  0.1260  0.4530 -0.2515
 6758SOL     OW31735   0.800   4.319   8.197  0.1261 -0.6009 -0.1773
 6758SOL    HW131736   0.706   4.301   8.205 -0.3249  2.6741  1.8229
 6758SOL    HW231737   0.839   4.237   8.229  1.1817 -0.3532 -0.8485
 6759SOL     OW31738   3.957   0.530   4.194  0.7826  0.1997 -0.1481
 6759SOL    HW131739   3.954   0.493   4.282 -0.9504 -1.5338 -0.9371
 6759SOL    HW231740   3.871   0.572   4.190  0.1133 -1.1969 -0.8518
 6760SOL     OW31741   3.145   0.081   8.693  0.0529  0.5939 -0.0970
 6760SOL    HW131742   3.149   4.714   8.713  3.9590  0.9043  0.5390
 6760SOL    HW231743   3.109   0.113   8.776 -1.0558  2.6491 -1.3839
 6761SOL     OW31744   0.737   2.570   9.423 -0.2462 -0.5378  0.6594
 6761SOL    HW131745   0.761   2.481   9.394 -0.6723  0.6713 -3.4201
 6761SOL    HW231746   0.647   2.555   9.452  0.0587 -0.4684  1.6297
 6762SOL     OW31747   0.475   3.042  10.137  0.4004 -0.4754 -0.3172
 6762SOL    HW131748   0.459   3.073  10.225 -1.5677  0.2894 -0.9537
 6762SOL    HW231749   0.431   2.957  10.129 -1.6162  0.6781 -1.4570
 6763SOL     OW31750   0.258   1.146  13.048 -1.0250 -0.3684 -0.1601
 6763SOL    HW131751   0.293   1.204  13.115 -0.4979 -1.1572  0.2445
 6763SOL    HW231752   0.270   1.065  13.098 -1.1099  0.3988  1.0807
 6764SOL     OW31753   1.934   2.480  16.602 -0.4746  0.0763  0.0726
 6764SOL    HW131754   1.970   2.413  16.660  1.7283  0.7672 -0.4626
 6764SOL    HW231755   1.839   2.473  16.609 -0.5027  1.5426  1.2354
 6765SOL     OW31756   4.232   1.986   4.106 -0.0186 -0.4539 -0.7225
 6765SOL    HW131757   4.190   2.034   4.034 -0.1532 -0.8290 -0.8991
 6765SOL    HW231758   4.324   2.007   4.093  0.5240 -2.4664 -0.0841
 6766SOL     OW31759   2.929   3.849   1.752  0.2373  0.2107  0.2855
 6766SOL    HW131760   2.868   3.794   1.703  1.5883 -1.4551  0.4709
 6766SOL    HW231761   3.001   3.788   1.768  0.5675  0.1428 -1.4593
 6767SOL     OW31762   3.908   4.268   6.631  0.2407 -0.3449  0.5860
 6767SOL    HW131763   3.988   4.272   6.683  0.7068  0.9001 -0.2287
 6767SOL    HW231764   3.936   4.205   6.565 -2.5001  1.9023 -2.7609
 6768SOL     OW31765   3.785   2.864   4.706  0.1507 -0.0813  0.6487
 6768SOL    HW131766   3.880   2.861   4.721  0.1048  1.5170  1.2954
 6768SOL    HW231767   3.767   2.958   4.704 -0.5340 -0.2536 -0.9850
 6769SOL     OW31768   0.279   0.775   5.120 -0.2160 -0.4106  0.2418
 6769SOL    HW131769   0.359   0.808   5.161 -0.6642  0.5523  0.3542
 6769SOL    HW231770   0.272   0.849   5.060 -1.3737 -0.8811 -0.2152
 6770SOL     OW31771   3.373   0.969  17.032 -0.1204  0.0456 -1.0305
 6770SOL    HW131772   3.382   1.064  17.026 -1.4418  0.4471  2.9070
 6770SOL    HW231773   3.369   0.957  17.127 -1.6074  0.1636 -1.0739
 6771SOL     OW31774   1.849   0.183   4.969 -0.6841 -1.0418  0.0181
 6771SOL    HW131775   1.791   0.216   5.037 -0.8272  0.8282 -1.0014
 6771SOL    HW231776   1.846   0.258   4.910  0.6053 -0.4045  0.7669
 6772SOL     OW31777   3.404   2.973   3.653 -0.0286 -0.3539  0.4671
 6772SOL    HW131778   3.442   2.958   3.567 -0.0124  1.5085  0.1452
 6772SOL    HW231779   3.312   2.954   3.634  0.3890 -1.5086 -0.4149
 6773SOL     OW31780   2.277   3.271   7.059  0.3621  0.4272  0.2906
 6773SOL    HW131781   2.283   3.177   7.077 -0.3255  0.5512  1.1404
 6773SOL    HW231782   2.222   3.260   6.982 -0.9104 -2.0632  1.5663
 6774SOL     OW31783   1.765   4.604   5.192  0.3256  0.0439 -0.3621
 6774SOL    HW131784   1.733   4.656   5.119 -0.0814  1.1046  0.5752
 6774SOL    HW231785   1.698   4.625   5.257 -0.3882 -0.1896 -1.0234
 6775SOL     OW31786   2.189   4.608   2.494  0.0483 -0.2416 -0.2680
 6775SOL    HW131787   2.226   4.523   2.474 -1.4857 -0.8106 -0.6787
 6775SOL    HW231788   2.234   4.643   2.571 -3.4503  0.5961  1.4124
 6776SOL     OW31789   3.588   2.078   7.667 -0.0855  0.2180  0.6465
 6776SOL    HW131790   3.647   2.019   7.620 -0.0712  0.2150  0.6681
 6776SOL    HW231791   3.504   2.033   7.672 -1.3045  2.4752  0.5498
 6777SOL     OW31792   4.675   3.951   4.511 -0.4396 -0.3110 -0.4288
 6777SOL    HW131793   4.674   4.045   4.496  0.8794  0.1450  2.3750
 6777SOL    HW231794   4.580   3.940   4.498 -0.2789 -0.6318 -1.3315
 6778SOL     OW31795   4.130   2.939   0.043 -0.8784 -0.0645 -0.3279
 6778SOL    HW131796   4.047   2.893   0.033 -1.3138  0.3307  1.5483
 6778SOL    HW231797   4.135   2.956   0.137  2.9739  2.5032 -1.0023
 6779SOL     OW31798   1.919   3.434   6.016  0.1145  0.3654 -0.7826
 6779SOL    HW131799   1.913   3.492   5.940  0.1724  1.9842  0.4406
 6779SOL    HW231800   1.909   3.357   5.959  3.8281 -0.7028  0.0250
 6780SOL     OW31801   4.076   1.236  12.269  0.4282  0.4413  0.1756
 6780SOL    HW131802   4.092   1.154  12.221  5.0114  1.1569  0.4154
 6780SOL    HW231803   4.140   1.242  12.340 -2.3963 -0.3635  2.7464
 6781SOL     OW31804   4.016   3.978  16.840  0.1855 -0.3923  0.0970
 6781SOL    HW131805   3.954   4.028  16.892 -1.2734  0.9972 -2.9714
 6781SOL    HW231806   4.085   3.992  16.905 -0.6022  1.2923  0.5504
 6782SOL     OW31807   0.085   3.245   2.494  0.5987  0.1977 -0.3437
 6782SOL    HW131808   0.078   3.283   2.582  1.2901 -1.7139  0.5534
 6782SOL    HW231809   0.078   3.324   2.441 -0.2401 -0.6651 -1.5178
 6783SOL     OW31810   1.653   0.163   4.381 -0.1656 -0.2507 -0.4186
 6783SOL    HW131811   1.586   0.190   4.318  0.1230  0.9163 -0.2197
 6783SOL    HW231812   1.609   0.093   4.430  2.4386 -0.9035  1.0186
 6784SOL     OW31813   1.140   2.314  10.405 -0.0981  0.1008 -0.5150
 6784SOL    HW131814   1.164   2.400  10.370  0.7792  0.0960  0.0893
 6784SOL    HW231815   1.210   2.306  10.470 -0.6193 -2.1751 -0.2361
 6785SOL     OW31816   2.120   2.254   8.146 -0.2765 -0.1229  0.3551
 6785SOL    HW131817   2.087   2.344   8.148 -1.3761 -0.5550  1.3840
 6785SOL    HW231818   2.060   2.194   8.189 -0.6751 -0.7900 -1.1307
 6786SOL     OW31819   2.845   1.100   7.399 -0.7199  0.0979  0.8088
 6786SOL    HW131820   2.812   1.131   7.483  0.8002  1.3872  0.9280
 6786SOL    HW231821   2.919   1.044   7.424 -0.2991 -0.3464 -1.4215
 6787SOL     OW31822   0.581   2.524   7.947 -0.1499 -0.9276 -0.1921
 6787SOL    HW131823   0.599   2.507   8.039  0.1096  1.1236  0.1415
 6787SOL    HW231824   0.496   2.482   7.934  1.2348 -3.1100 -2.1563
 6788SOL     OW31825   0.273   4.508   2.818  0.3427 -0.1942  0.1493
 6788SOL    HW131826   0.279   4.492   2.724  3.6693  0.5678  0.2128
 6788SOL    HW231827   0.327   4.587   2.827  0.2551 -0.2704  1.3293
 6789SOL     OW31828   1.177   2.285   4.966 -0.1264  0.5268 -0.2272
 6789SOL    HW131829   1.224   2.240   4.896 -0.2453  0.4749 -0.2734
 6789SOL    HW231830   1.120   2.216   4.999  2.4455 -1.7409 -0.5518
 6790SOL     OW31831   4.222   1.135  15.904 -0.3693 -0.5546  0.2867
 6790SOL    HW131832   4.201   1.172  15.818  1.3731 -0.4352 -0.0888
 6790SOL    HW231833   4.191   1.199  15.968 -0.7182 -0.4965  0.0591
 6791SOL     OW31834   2.112   3.709   3.450  0.4427 -0.2538  0.0541
 6791SOL    HW131835   2.099   3.790   3.400 -2.3613 -0.8620 -0.2129
 6791SOL    HW231836   2.042   3.714   3.515  1.4438  1.2591  1.0350
 6792SOL     OW31837   2.829   1.372   5.898 -0.0433  0.7712  0.4268
 6792SOL    HW131838   2.740   1.350   5.868  0.1835 -0.3573  0.5914
 6792SOL    HW231839   2.887   1.348   5.825 -1.5944 -0.5103 -0.3989
 6793SOL     OW31840   2.896   1.568   2.978  0.2796  0.4563 -0.1096
 6793SOL    HW131841   2.835   1.586   3.049 -0.3411 -0.6558 -0.3704
 6793SOL    HW231842   2.969   1.538   3.033 -0.1516  0.1534  0.2861
 6794SOL     OW31843   3.487   3.665  10.544 -0.5364 -0.2186  0.2187
 6794SOL    HW131844   3.457   3.641  10.456  0.2576 -0.9371  0.1359
 6794SOL    HW231845   3.505   3.759  10.539 -0.1040 -0.2496  1.2243
 6795SOL     OW31846   4.053   0.453   2.914  0.2834 -0.1226  0.2045
 6795SOL    HW131847   3.993   0.474   2.986 -1.1898  0.9228 -1.3483
 6795SOL    HW231848   4.085   0.538   2.887 -1.6278  0.5111 -0.0803
 6796SOL     OW31849   0.171   2.789   4.572 -0.8430  0.4422  0.1166
 6796SOL    HW131850   0.087   2.795   4.617 -1.6185  1.3195 -1.4316
 6796SOL    HW231851   0.215   2.868   4.602 -1.6022  0.9454 -0.0887
 6797SOL     OW31852   2.896   0.315   4.992 -0.2067  0.2428  0.0963
 6797SOL    HW131853   2.877   0.241   5.049 -0.4323 -0.1198 -0.4493
 6797SOL    HW231854   2.944   0.269   4.923  0.2277 -0.9225  1.1651
 6798SOL     OW31855   3.339   1.665   4.829 -0.2184  0.0690 -0.2158
 6798SOL    HW131856   3.278   1.693   4.897  1.6106  2.5273  0.4546
 6798SOL    HW231857   3.416   1.714   4.856  0.2658 -0.6370 -0.3236
 6799SOL     OW31858   1.526   0.140  17.571 -0.0728  0.1575  0.0234
 6799SOL    HW131859   1.433   0.163  17.576  0.0083  0.7425 -1.1195
 6799SOL    HW231860   1.528   0.077  17.643  0.4243  0.1466 -0.0015
 6800SOL     OW31861   0.793   4.168  16.640 -0.9480  0.6290  0.0026
 6800SOL    HW131862   0.776   4.262  16.638  1.8116  1.0793 -2.4604
 6800SOL    HW231863   0.705   4.140  16.615 -1.0430 -0.0715  1.1121
 6801SOL     OW31864   1.085   0.568   6.365  0.2191 -0.5701  0.0353
 6801SOL    HW131865   1.115   0.607   6.283  2.1668 -0.2099  0.9147
 6801SOL    HW231866   1.023   0.504   6.332  0.3766 -2.3631  3.1415
 6802SOL     OW31867   1.130   1.710   2.042 -0.1074 -0.0198 -0.0268
 6802SOL    HW131868   1.075   1.638   2.014  0.9604 -0.5113 -0.8740
 6802SOL    HW231869   1.115   1.719   2.136  0.8869  0.2452  0.1091
 6803SOL     OW31870   0.711   0.247  14.627  0.0699  0.3459  0.5306
 6803SOL    HW131871   0.774   0.315  14.604  0.8213 -0.4111  0.3621
 6803SOL    HW231872   0.633   0.299  14.609  1.3985  1.5800 -1.6668
 6804SOL     OW31873   1.558   4.278  16.251 -0.1684  0.1543  0.2369
 6804SOL    HW131874   1.476   4.244  16.214 -1.4086  1.6963  1.5394
 6804SOL    HW231875   1.623   4.236  16.195 -2.7310 -3.2473 -0.1894
 6805SOL     OW31876   4.221   1.030   9.492  0.2896  0.0474 -0.4128
 6805SOL    HW131877   4.233   1.007   9.584 -0.9846 -1.7120 -0.6780
 6805SOL    HW231878   4.165   0.958   9.461  1.6262 -0.1631 -2.3339
 6806SOL     OW31879   4.571   3.557   9.779  0.3686 -1.1288 -0.6188
 6806SOL    HW131880   4.520   3.505   9.840 -1.2332  2.3918  1.0386
 6806SOL    HW231881   4.508   3.554   9.707 -1.5722 -1.3077  1.0920
 6807SOL     OW31882   4.514   4.182  17.618  0.0129  0.5254 -0.0324
 6807SOL    HW131883   4.542   4.271  17.634  0.3282 -0.1086  2.8632
 6807SOL    HW231884   4.561   4.126  17.680  1.2869  0.2119 -1.2696
 6808SOL     OW31885   1.408   0.844   4.725  0.2761 -0.2175  0.1258
 6808SOL    HW131886   1.495   0.826   4.692  1.1515  1.2760  1.6246
 6808SOL    HW231887   1.432   0.848   4.818 -0.3860  0.6092  0.2671
 6809SOL     OW31888   0.286   0.667   6.341  0.0480  0.5773  0.3737
 6809SOL    HW131889   0.332   0.589   6.311  1.1761  1.1452  0.5953
 6809SOL    HW231890   0.292   0.736   6.275  1.7948 -0.9180 -1.0029
 6810SOL     OW31891   2.717   2.741   3.894 -0.6866  0.1637 -0.1195
 6810SOL    HW131892   2.633   2.698   3.911 -0.5281 -0.6861 -1.4334
 6810SOL    HW231893   2.700   2.805   3.963  3.1729  0.4311  0.5624
 6811SOL     OW31894   0.023   3.566   3.186 -0.2036 -0.3197 -0.1265
 6811SOL    HW131895   4.712   3.652   3.167 -0.8086 -0.7706 -0.9414
 6811SOL    HW231896   0.107   3.578   3.232 -0.8030  1.6882  0.4362
 6812SOL     OW31897   0.884   3.976   0.044  0.1147 -0.1744 -0.0930
 6812SOL    HW131898   0.892   4.061   0.086  4.0434 -1.3063  1.4739
 6812SOL    HW231899   0.933   3.917   0.102  0.1658  1.3998  1.4647
 6813SOL     OW31900   1.526   1.363   2.014 -0.2167 -0.5861 -0.4967
 6813SOL    HW131901   1.491   1.277   2.038 -2.1337 -0.0940 -1.5059
 6813SOL    HW231902   1.442   1.405   1.995  1.3086  1.9301 -1.6865
 6814SOL     OW31903   1.770   4.090  17.478  0.5736  0.2192  0.2384
 6814SOL    HW131904   1.738   4.161  17.422  0.5773 -1.4021 -1.8259
 6814SOL    HW231905   1.860   4.117  17.495 -0.1289  2.3603  0.4636
 6815SOL     OW31906   1.007   3.991   5.021 -0.8472 -0.0041 -0.5867
 6815SOL    HW131907   1.044   4.079   5.027 -1.4930  0.2146  0.2784
 6815SOL    HW231908   1.081   3.934   5.042 -0.8519 -0.3547 -1.4976
 6816SOL     OW31909   2.699   2.165  11.621 -0.2254 -1.0472 -0.2508
 6816SOL    HW131910   2.780   2.189  11.667  0.5761 -3.9834 -0.1386
 6816SOL    HW231911   2.637   2.193  11.688 -0.1470  0.7456 -0.9276
 6817SOL     OW31912   1.780   3.055  17.348  0.1959 -0.5568  0.0761
 6817SOL    HW131913   1.844   2.988  17.323 -2.5006 -2.8547 -0.6480
 6817SOL    HW231914   1.731   3.006  17.413 -3.9009 -0.4299 -2.9274
 6818SOL     OW31915   3.751   0.603   4.709 -0.0049 -0.5656 -0.0685
 6818SOL    HW131916   3.723   0.659   4.782 -0.6609 -0.8113 -0.1343
 6818SOL    HW231917   3.685   0.534   4.703 -1.0837  0.5227 -0.6938
 6819SOL     OW31918   4.149   2.341   6.843 -0.1157 -0.7165  0.4768
 6819SOL    HW131919   4.198   2.402   6.788 -3.1041  2.9157  1.8089
 6819SOL    HW231920   4.129   2.281   6.772 -0.5154 -0.5547  0.4493
 6820SOL     OW31921   4.111   4.420   2.758  0.9670 -0.1739  0.0004
 6820SOL    HW131922   4.178   4.449   2.696  0.9098  2.0330  0.9909
 6820SOL    HW231923   4.174   4.387   2.822  0.4696 -2.8873 -0.9310
 6821SOL     OW31924   0.651   4.057   6.402  0.5749  0.2982  0.4759
 6821SOL    HW131925   0.600   3.999   6.458  1.0546 -1.2133 -0.6646
 6821SOL    HW231926   0.737   4.031   6.436  0.6240  2.2471  1.8334
 6822SOL     OW31927   1.777   0.825   5.955 -0.1467  0.7618  0.7519
 6822SOL    HW131928   1.789   0.858   6.044  2.3251  0.7428  0.4276
 6822SOL    HW231929   1.845   0.756   5.960 -1.7442 -0.8741 -0.3176
 6823SOL     OW31930   0.407   3.913   7.468  0.5626 -0.5423  1.4267
 6823SOL    HW131931   0.453   3.891   7.549  0.8368 -0.9817  1.1489
 6823SOL    HW231932   0.320   3.935   7.501  0.9862  1.1047  1.4562
 6824SOL     OW31933   2.123   2.590   4.293 -0.1370  0.0080 -0.1859
 6824SOL    HW131934   2.214   2.565   4.308 -0.9008 -3.6236 -1.4648
 6824SOL    HW231935   2.087   2.505   4.266 -0.5926 -1.2981  4.5126
 6825SOL     OW31936   1.201   4.317  16.921 -0.5358 -0.4544 -0.2521
 6825SOL    HW131937   1.168   4.393  16.874 -0.2991 -0.0200  0.2917
 6825SOL    HW231938   1.190   4.246  16.857 -1.9123 -0.8410  0.4219
 6826SOL     OW31939   4.290   4.539   2.105 -0.2959  0.1531 -0.1434
 6826SOL    HW131940   4.326   4.451   2.120  0.0318  0.2348 -0.4434
 6826SOL    HW231941   4.268   4.563   2.195 -0.3234 -1.0490  0.1795
 6827SOL     OW31942   2.485   2.848   1.552  0.2179  0.3021  0.5392
 6827SOL    HW131943   2.444   2.770   1.589  0.6905  0.5405  1.5605
 6827SOL    HW231944   2.421   2.916   1.574 -0.1641 -0.2954  1.2972
 6828SOL     OW31945   3.513   3.128   5.621  0.3866  0.3501  0.2422
 6828SOL    HW131946   3.451   3.072   5.575  1.1511  0.1225 -0.5079
 6828SOL    HW231947   3.448   3.196   5.640  0.5339  0.7102 -0.5358
 6829SOL     OW31948   4.455   1.938   5.148 -0.5179  0.3861  0.4239
 6829SOL    HW131949   4.416   2.006   5.092 -1.6542 -2.3141 -2.0246
 6829SOL    HW231950   4.380   1.899   5.193 -0.0867 -1.8610 -0.8269
 6830SOL     OW31951   1.628   2.601   5.243 -0.2447 -0.2884 -0.0872
 6830SOL    HW131952   1.633   2.506   5.252  0.9979 -0.2166  0.0388
 6830SOL    HW231953   1.595   2.607   5.153 -2.0694 -0.6524  0.5474
 6831SOL     OW31954   1.720   0.718   8.699  0.0380  0.0371 -0.2181
 6831SOL    HW131955   1.729   0.800   8.747 -1.3944  0.5254 -0.7909
 6831SOL    HW231956   1.795   0.682   8.747  0.5918 -0.9611 -1.8508
 6832SOL     OW31957   4.570   4.637   4.173 -0.0528 -0.4361  0.0231
 6832SOL    HW131958   4.534   4.705   4.230 -0.6763  0.8279 -1.8949
 6832SOL    HW231959   4.662   4.658   4.187 -0.1341 -0.7617  1.0724
 6833SOL     OW31960   4.381   2.439   2.406  0.6669 -0.0015 -0.7659
 6833SOL    HW131961   4.388   2.355   2.452  0.7773 -0.7403 -2.1034
 6833SOL    HW231962   4.288   2.442   2.384  0.4863  0.0868  0.0340
 6834SOL     OW31963   2.654   3.814   8.867 -0.1600 -0.2049 -0.0214
 6834SOL    HW131964   2.667   3.726   8.901  0.0475  0.9397  2.8291
 6834SOL    HW231965   2.574   3.801   8.816  1.0022  0.4799 -2.0177
 6835SOL     OW31966   0.763   1.961   6.771 -0.2423  0.1525  0.4356
 6835SOL    HW131967   0.689   1.998   6.723 -0.7218 -0.1387  0.9528
 6835SOL    HW231968   0.789   2.026   6.836  1.4263  2.3507 -2.3984
 6836SOL     OW31969   2.264   3.344   2.715 -0.1807 -0.1214  0.6355
 6836SOL    HW131970   2.316   3.333   2.635 -0.6458 -1.1412  0.4751
 6836SOL    HW231971   2.325   3.295   2.770 -0.8952  1.0107  2.4364
 6837SOL     OW31972   0.480   0.983   2.281  0.2230  0.2868 -0.4293
 6837SOL    HW131973   0.501   1.042   2.208  1.2534  0.1624 -0.2245
 6837SOL    HW231974   0.509   0.896   2.254 -1.9175  0.1841 -2.3642
 6838SOL     OW31975   2.091   0.284  16.470 -0.0365 -0.0630 -0.0170
 6838SOL    HW131976   2.050   0.232  16.401 -0.0894  0.8880 -0.7047
 6838SOL    HW231977   2.119   0.365  16.427  1.0052  0.8347  2.3470
 6839SOL     OW31978   4.675   2.389   3.661  0.3833 -0.8721  0.1993
 6839SOL    HW131979   4.723   2.455   3.610 -0.2559  0.1225  0.9027
 6839SOL    HW231980   4.689   2.424   3.749 -1.0048 -2.4597  1.0535
 6840SOL     OW31981   1.116   1.192   8.453 -0.4533  0.6207 -0.0448
 6840SOL    HW131982   1.051   1.242   8.503 -1.3512  0.6980 -1.3036
 6840SOL    HW231983   1.189   1.215   8.511  0.7585 -2.5915 -0.3385
 6841SOL     OW31984   4.711   2.404  16.171  0.4972  0.0416 -0.0889
 6841SOL    HW131985   4.639   2.344  16.152  0.2081  0.9017 -1.6726
 6841SOL    HW231986   0.051   2.357  16.223  0.5115 -0.4385 -0.5423
 6842SOL     OW31987   0.895   0.806  10.412 -0.5014  0.6414 -0.1491
 6842SOL    HW131988   0.928   0.836  10.327 -0.1050 -0.1657 -0.2802
 6842SOL    HW231989   0.826   0.747  10.383  0.6317 -0.4377 -0.6361
 6843SOL     OW31990   4.250   3.500   6.367  0.1635  0.5087  0.3745
 6843SOL    HW131991   4.184   3.431   6.367  1.3335 -0.5926 -1.6227
 6843SOL    HW231992   4.235   3.529   6.277  0.1559 -0.9968 -0.1025
 6844SOL     OW31993   1.219   2.431   5.648 -0.1241  0.1942 -0.1695
 6844SOL    HW131994   1.306   2.445   5.610 -0.0808 -0.7802 -0.4347
 6844SOL    HW231995   1.237   2.363   5.713 -0.0190  1.6415  1.3156
 6845SOL     OW31996   4.099   1.755   5.607  1.0687  0.5422 -0.0099
 6845SOL    HW131997   4.083   1.661   5.602  0.7352  0.6588 -1.1299
 6845SOL    HW231998   4.021   1.782   5.558  1.5137  0.4027 -0.7970
 6846SOL     OW31999   3.068   1.265   5.814 -0.2728  0.4776 -0.2958
 6846SOL    HW132000   3.082   1.311   5.731 -0.8768 -1.6104 -1.5702
 6846SOL    HW232001   3.127   1.303   5.879 -2.7613  0.3547  2.0096
 6847SOL     OW32002   2.825   0.751   7.557 -0.3493 -0.2278  0.1827
 6847SOL    HW132003   2.808   0.763   7.651 -1.4925  0.1170 -0.0696
 6847SOL    HW232004   2.737   0.727   7.529 -0.0649 -1.0558 -0.0023
 6848SOL     OW32005   3.809   0.173   1.927  0.1995  0.2602  0.2311
 6848SOL    HW132006   3.724   0.174   1.972 -0.0740 -0.6826 -0.2630
 6848SOL    HW232007   3.815   0.258   1.884  0.0353 -0.4714 -1.2245
 6849SOL     OW32008   2.811   4.014   0.350 -0.2867 -0.3331  0.2388
 6849SOL    HW132009   2.775   3.995   0.263  1.0191 -1.6030 -0.0167
 6849SOL    HW232010   2.844   4.102   0.332  0.0013 -0.3982  0.4560
 6850SOL     OW32011   1.717   2.452   1.110 -0.3078 -0.3147  0.0488
 6850SOL    HW132012   1.673   2.441   1.026  0.5707 -0.8402 -0.3353
 6850SOL    HW232013   1.742   2.545   1.113  2.2314 -1.0391  1.6351
 6851SOL     OW32014   3.309   0.473   8.159 -0.5263 -0.1938  0.3934
 6851SOL    HW132015   3.256   0.403   8.197  0.7413 -1.4853 -0.2551
 6851SOL    HW232016   3.396   0.434   8.163 -0.3506 -0.0754 -1.9731
 6852SOL     OW32017   2.291   0.070   9.002 -1.0077  0.1140 -0.6292
 6852SOL    HW132018   2.351   0.144   8.990  0.4241 -1.2090 -1.4704
 6852SOL    HW232019   2.356   0.007   9.031 -1.1493  0.9487  1.4933
 6853SOL     OW32020   0.921   0.383   4.937  0.8890 -0.0889  0.5429
 6853SOL    HW132021   0.879   0.392   4.851 -0.7933  1.6637  1.5387
 6853SOL    HW232022   0.862   0.318   4.975  1.7040 -1.8989 -1.3285
 6854SOL     OW32023   1.619   4.008   6.010 -0.1846  0.1568  0.0542
 6854SOL    HW132024   1.525   3.991   6.007 -0.1729  0.3595 -2.1144
 6854SOL    HW232025   1.639   4.014   6.103 -1.0443 -1.6041  0.3546
 6855SOL     OW32026   0.313   1.235   6.836 -0.0705 -0.2467  0.1521
 6855SOL    HW132027   0.315   1.300   6.907 -1.6432  2.1331 -1.9782
 6855SOL    HW232028   0.310   1.295   6.762  2.1084 -0.7376 -0.3371
 6856SOL     OW32029   0.690   2.428   5.042  0.8944  0.9659  0.3565
 6856SOL    HW132030   0.771   2.427   5.093  0.1149 -2.0330  1.5069
 6856SOL    HW232031   0.726   2.409   4.955  0.1896 -1.5785  0.6411
 6857SOL     OW32032   0.418   1.867   5.917  0.4206 -0.3005 -0.5166
 6857SOL    HW132033   0.431   1.809   5.843 -0.3409 -0.7276 -0.3205
 6857SOL    HW232034   0.446   1.953   5.885 -2.7791  0.8809 -0.1558
 6858SOL     OW32035   1.537   3.475   8.817  0.4921  0.2508 -0.8607
 6858SOL    HW132036   1.485   3.511   8.889  1.2781 -2.4320  1.0486
 6858SOL    HW232037   1.592   3.412   8.865 -0.2908 -0.5759 -1.0540
 6859SOL     OW32038   1.498   0.004  14.527 -0.2929 -0.3211  0.0880
 6859SOL    HW132039   1.560   4.672  14.483 -0.1495 -0.0060 -0.1271
 6859SOL    HW232040   1.419   4.677  14.528 -0.0180 -0.7296 -0.2742
 6860SOL     OW32041   4.226   3.507   8.542 -0.2481 -0.4440 -0.0640
 6860SOL    HW132042   4.217   3.412   8.534  0.4070 -0.3106 -2.3432
 6860SOL    HW232043   4.139   3.532   8.572 -0.5359 -2.1358  0.4902
 6861SOL     OW32044   1.162   2.045   8.098 -0.3439  0.0875  0.4730
 6861SOL    HW132045   1.186   1.953   8.087 -2.4976 -0.6495  1.8607
 6861SOL    HW232046   1.119   2.037   8.184  0.0217 -1.3689  0.5125
 6862SOL     OW32047   2.793   3.389   1.513  0.1212 -0.2852 -0.1133
 6862SOL    HW132048   2.821   3.306   1.472  0.9727 -0.4674  0.8480
 6862SOL    HW232049   2.740   3.360   1.586 -1.4695  1.0162 -0.7697
 6863SOL     OW32050   3.681   0.882   3.478  0.0910 -0.4085 -0.1167
 6863SOL    HW132051   3.731   0.929   3.544 -0.0157 -1.8355  0.9663
 6863SOL    HW232052   3.645   0.809   3.529  1.2543 -0.4408  0.6467
 6864SOL     OW32053   0.340   4.021   2.781 -0.0406  0.0293  0.2057
 6864SOL    HW132054   0.293   4.104   2.769  0.8440  0.3891 -0.7225
 6864SOL    HW232055   0.327   3.972   2.700  0.2881  0.9249 -0.3941
 6865SOL     OW32056   0.057   0.971  10.922  0.0205  0.3317 -0.2835
 6865SOL    HW132057   4.697   1.010  10.910 -0.1244  0.3718  0.9430
 6865SOL    HW232058   0.077   1.013  11.005  0.2460  4.0069 -2.1957
 6866SOL     OW32059   0.679   1.783   3.289  0.1549  0.1710  0.3386
 6866SOL    HW132060   0.713   1.870   3.306 -2.7391  1.8167 -2.4587
 6866SOL    HW232061   0.641   1.766   3.375 -1.9516  0.5618 -0.5241
 6867SOL     OW32062   0.024   0.975   3.708  0.2325 -0.5510 -0.3342
 6867SOL    HW132063   0.079   1.051   3.688  2.6025 -1.6562  2.1228
 6867SOL    HW232064   0.089   0.906   3.695  0.4009 -0.1391 -1.7262
 6868SOL     OW32065   0.346   3.317   0.304  0.7666 -0.1534  0.0178
 6868SOL    HW132066   0.432   3.342   0.337 -0.1164  0.9363  1.4510
 6868SOL    HW232067   0.294   3.392   0.331  0.7758 -1.3164  3.2885
 6869SOL     OW32068   0.117   4.267   3.532  0.3492 -0.1075 -0.3602
 6869SOL    HW132069   0.114   4.253   3.627 -2.1764  1.4368 -0.2288
 6869SOL    HW232070   0.046   4.214   3.496  0.7892 -0.8094 -0.2040
 6870SOL     OW32071   2.515   1.747   6.666 -0.0529  0.7336 -0.0903
 6870SOL    HW132072   2.588   1.798   6.701 -1.1520  0.1102  3.0568
 6870SOL    HW232073   2.473   1.712   6.744  0.5169 -1.4119 -0.7595
 6871SOL     OW32074   1.459   3.491  11.464  0.0393 -0.0548  0.2049
 6871SOL    HW132075   1.483   3.529  11.549  2.5666 -0.3771 -0.3771
 6871SOL    HW232076   1.383   3.543  11.439  0.0733 -0.8522 -1.5049
 6872SOL     OW32077   4.298   1.912   5.720 -0.4679 -0.0028  0.4353
 6872SOL    HW132078   4.260   1.999   5.709  0.9177  0.5681  0.1617
 6872SOL    HW232079   4.239   1.857   5.669 -0.5455  0.9820 -0.5368
 6873SOL     OW32080   4.396   3.266   1.925  0.0731 -0.1291  0.2075
 6873SOL    HW132081   4.406   3.211   1.847  0.9486 -0.7272  0.7341
 6873SOL    HW232082   4.419   3.352   1.890  0.7459 -0.3295  0.1502
 6874SOL     OW32083   0.961   3.809   2.318 -0.1231 -0.0594 -0.1457
 6874SOL    HW132084   0.910   3.890   2.321 -0.8412 -0.4306 -2.3283
 6874SOL    HW232085   1.031   3.851   2.267 -0.0243 -0.0082  0.0303
 6875SOL     OW32086   1.355   3.957   2.289  0.2015 -0.0524  0.4177
 6875SOL    HW132087   1.372   4.028   2.227  0.0174  0.4863  0.9876
 6875SOL    HW232088   1.400   3.882   2.248 -1.1961 -0.4818 -0.3414
 6876SOL     OW32089   3.287   1.436  16.811 -0.4734 -0.8903  0.1315
 6876SOL    HW132090   3.220   1.497  16.780  1.3558  2.4491  2.7276
 6876SOL    HW232091   3.301   1.472  16.899  1.8624 -3.3281  0.7513
 6877SOL     OW32092   3.392   3.988   1.788  0.2386  0.0241 -0.2406
 6877SOL    HW132093   3.403   3.919   1.854  0.3891  1.6201  1.4176
 6877SOL    HW232094   3.337   4.051   1.836 -1.7103 -2.7254  1.1712
 6878SOL     OW32095   4.146   2.630   1.531 -1.0660  0.0287 -0.5792
 6878SOL    HW132096   4.232   2.607   1.497 -0.6947  1.2789 -0.4974
 6878SOL    HW232097   4.147   2.581   1.613  1.9544  1.9178  0.4769
 6879SOL     OW32098   2.708   4.153   7.784  0.8299  0.4013  0.3445
 6879SOL    HW132099   2.624   4.185   7.750  0.6185 -1.2079 -0.6340
 6879SOL    HW232100   2.768   4.212   7.738  0.5518  0.9540  0.6840
 6880SOL     OW32101   0.819   1.983   6.444 -0.6364 -0.5633 -0.5315
 6880SOL    HW132102   0.836   1.909   6.386  0.8865  1.2006 -2.3262
 6880SOL    HW232103   0.850   1.954   6.529 -0.1434  0.4178 -0.3763
 6881SOL     OW32104   3.559   2.738   7.875 -0.1227 -0.0419 -0.0894
 6881SOL    HW132105   3.625   2.679   7.912  0.6510  0.0338 -1.3355
 6881SOL    HW232106   3.623   2.795   7.832  0.1217 -0.0233  0.3023
 6882SOL     OW32107   4.119   4.263   5.041 -0.5748  0.2634 -0.1416
 6882SOL    HW132108   4.184   4.261   4.970 -0.3065  2.8898  0.0184
 6882SOL    HW232109   4.041   4.247   4.988 -1.5015 -0.3790  1.4264
 6883SOL     OW32110   4.504   3.636   3.439 -0.0743  0.6487 -0.2048
 6883SOL    HW132111   4.413   3.636   3.410  0.3335 -1.6907 -1.4848
 6883SOL    HW232112   4.535   3.557   3.395  0.7861  0.6960  0.3234
 6884SOL     OW32113   3.582   4.250  14.500 -0.3874  0.0431  0.0560
 6884SOL    HW132114   3.613   4.331  14.542 -0.1520 -1.4402  2.6987
 6884SOL    HW232115   3.496   4.279  14.469  0.8204  0.3776 -3.0619
 6885SOL     OW32116   0.873   3.316   4.327 -0.0880  0.2790  0.4009
 6885SOL    HW132117   0.906   3.405   4.317 -1.1964  0.4010 -2.3029
 6885SOL    HW232118   0.839   3.308   4.416 -2.2094 -1.7755 -0.5857
 6886SOL     OW32119   2.730   1.562   8.503  0.3209 -0.1062  0.4980
 6886SOL    HW132120   2.656   1.616   8.530  0.6979  1.3366 -1.4406
 6886SOL    HW232121   2.798   1.590   8.565  1.0822 -0.0959 -0.3523
 6887SOL     OW32122   2.637   0.681   4.364  0.4452 -0.0310  0.6413
 6887SOL    HW132123   2.560   0.716   4.319  0.2540 -1.2738 -0.0179
 6887SOL    HW232124   2.672   0.630   4.291 -3.8063  0.3997 -1.7084
 6888SOL     OW32125   0.483   1.682   6.095 -0.3367 -0.0918 -0.5169
 6888SOL    HW132126   0.550   1.626   6.056 -0.2879 -0.8570  0.6885
 6888SOL    HW232127   0.457   1.744   6.026  0.2197 -0.1002 -0.7384
 6889SOL     OW32128   4.164   3.369   7.245  0.1780  0.1631  0.3874
 6889SOL    HW132129   4.071   3.378   7.224 -0.0252 -0.6736  0.9469
 6889SOL    HW232130   4.184   3.430   7.316 -0.4258 -0.2837  0.9357
 6890SOL     OW32131   0.975   3.186  11.310  0.5314  0.2516  0.4332
 6890SOL    HW132132   0.965   3.216  11.401 -0.1027  2.1816 -0.2638
 6890SOL    HW232133   0.983   3.092  11.324  0.8727  0.3246  0.7509
 6891SOL     OW32134   2.635   0.626   2.721  0.2435  0.0765  0.2201
 6891SOL    HW132135   2.672   0.541   2.695 -2.6096 -1.1632  0.2573
 6891SOL    HW232136   2.653   0.610   2.814 -1.7813  1.7484  0.8755
 6892SOL     OW32137   1.114   0.834   9.874  0.2784 -0.3275 -0.2748
 6892SOL    HW132138   1.195   0.793   9.906  0.9929  1.1504 -0.1929
 6892SOL    HW232139   1.049   0.786   9.925 -0.4753  1.1412  0.1622
 6893SOL     OW32140   2.566   2.362   8.261 -0.3825  0.1097 -0.5142
 6893SOL    HW132141   2.487   2.360   8.315  0.1491  0.9965  0.2831
 6893SOL    HW232142   2.587   2.268   8.265 -1.4200 -0.0143  2.5627
 6894SOL     OW32143   3.974   3.475   8.393  0.7763  0.4442 -0.3429
 6894SOL    HW132144   3.911   3.443   8.457 -0.3549  0.6631 -1.3539
 6894SOL    HW232145   3.958   3.395   8.342  1.5181  0.5255 -0.7013
 6895SOL     OW32146   0.865   4.130   3.607 -0.0782  0.4151 -0.1170
 6895SOL    HW132147   0.884   4.139   3.514  1.2206  1.5681  0.2708
 6895SOL    HW232148   0.941   4.173   3.645  0.7159  0.1480 -1.4051
 6896SOL     OW32149   4.161   2.080  12.937 -0.2194  0.1864 -0.0343
 6896SOL    HW132150   4.181   2.002  12.989 -2.2936  0.6010  1.3480
 6896SOL    HW232151   4.098   2.049  12.872 -0.3291  1.1941 -0.4094
 6897SOL     OW32152   0.043   0.176   4.022  0.0831  0.5182  0.0766
 6897SOL    HW132153   0.047   0.098   3.966 -1.9647 -0.7541  1.7459
 6897SOL    HW232154   4.675   0.190   4.021  0.1319  0.7700 -1.4183
 6898SOL     OW32155   4.631   3.655   8.302 -0.2608  0.8837 -0.0419
 6898SOL    HW132156   4.536   3.640   8.307 -0.0060 -0.5590  0.2386
 6898SOL    HW232157   4.646   3.693   8.215  0.1577 -0.1129 -0.4024
 6899SOL     OW32158   3.615   1.452   7.706 -0.5833  0.6103 -0.0983
 6899SOL    HW132159   3.576   1.539   7.713  0.6963  1.0854  1.2995
 6899SOL    HW232160   3.635   1.449   7.613  2.6736  0.9426  0.5684
 6900SOL     OW32161   3.269   3.919  12.814 -0.5177  0.3485 -0.5231
 6900SOL    HW132162   3.227   3.833  12.824  1.2564 -0.5938 -1.2139
 6900SOL    HW232163   3.266   3.933  12.720 -1.1820  0.5242 -0.4763
 6901SOL     OW32164   4.070   0.605   1.905 -0.0956  0.4434  0.4736
 6901SOL    HW132165   4.130   0.564   1.967  1.6915  1.0272 -0.8342
 6901SOL    HW232166   4.132   0.606   1.831  0.7393  0.2439  1.1666
 6902SOL     OW32167   2.869   4.398   2.907 -0.2589  0.1969  0.1300
 6902SOL    HW132168   2.924   4.337   2.859  0.4239  1.3778 -0.5697
 6902SOL    HW232169   2.872   4.475   2.851  0.6049  0.0643 -0.0008
 6903SOL     OW32170   3.616   1.563   8.143  0.2469  0.4600  0.3617
 6903SOL    HW132171   3.558   1.509   8.195  1.1325 -1.9749 -1.1492
 6903SOL    HW232172   3.668   1.497   8.096  1.7174  2.2641 -0.5572
 6904SOL     OW32173   4.455   3.216   4.824 -0.3282 -0.4782  0.3321
 6904SOL    HW132174   4.433   3.176   4.909 -1.2107  3.2256  1.8333
 6904SOL    HW232175   4.393   3.163   4.775  0.1475 -1.5342  0.8531
 6905SOL     OW32176   0.196   2.245   9.761  0.2426 -0.0118 -0.6876
 6905SOL    HW132177   0.136   2.303   9.714  0.1728  0.0863 -0.4740
 6905SOL    HW232178   0.238   2.317   9.807  0.1603 -1.1619  1.1716
 6906SOL     OW32179   2.833   1.051   7.697  0.1037 -0.2168 -0.3243
 6906SOL    HW132180   2.847   0.956   7.702 -3.2493 -0.6823  0.2658
 6906SOL    HW232181   2.761   1.061   7.759 -0.6517 -0.3552 -1.1838
 6907SOL     OW32182   4.429   2.877  11.382 -0.0819  0.7319  1.2128
 6907SOL    HW132183   4.381   2.870  11.464  1.6152 -0.0881  2.1431
 6907SOL    HW232184   4.450   2.968  11.402 -1.6338  2.0886 -3.3440
 6908SOL     OW32185   3.559   3.698   8.062 -0.1539  0.3636  0.0813
 6908SOL    HW132186   3.555   3.623   8.121 -2.5466  0.3154 -0.1376
 6908SOL    HW232187   3.601   3.647   7.993 -2.7082  1.1388 -2.0235
 6909SOL     OW32188   3.248   1.110  14.309 -0.8259 -0.8228  0.4694
 6909SOL    HW132189   3.312   1.156  14.362 -2.4123  1.2312  0.6077
 6909SOL    HW232190   3.305   1.054  14.256 -0.1561 -0.1778  0.4987
 6910SOL     OW32191   4.144   0.734   4.183 -0.6392 -0.1311  0.1034
 6910SOL    HW132192   4.207   0.688   4.238 -0.2519 -0.2064 -0.3927
 6910SOL    HW232193   4.086   0.662   4.158 -0.6249  0.2881 -1.1612
 6911SOL     OW32194   2.283   3.073   6.393 -0.0267  0.2346 -0.7404
 6911SOL    HW132195   2.376   3.088   6.377  0.3536 -1.3994 -0.0837
 6911SOL    HW232196   2.256   3.045   6.306 -0.1639 -4.9896  1.0100
 6912SOL     OW32197   3.073   2.715  12.853 -0.5775  0.5421 -0.5706
 6912SOL    HW132198   3.013   2.781  12.889 -1.1521  0.3113 -1.1239
 6912SOL    HW232199   3.021   2.636  12.841 -0.1407  0.3516 -1.2008
 6913SOL     OW32200   3.155   0.771   6.177  0.1355 -0.5489 -1.0941
 6913SOL    HW132201   3.248   0.792   6.166 -0.2613  0.9043 -1.6338
 6913SOL    HW232202   3.150   0.816   6.262  0.5817 -0.4456 -1.1201
 6914SOL     OW32203   3.162   0.853   9.861 -0.0316  0.4965  0.5113
 6914SOL    HW132204   3.149   0.861   9.955  0.6777 -1.7467  0.8019
 6914SOL    HW232205   3.170   0.946   9.842 -1.4848  0.5619  0.2322
 6915SOL     OW32206   3.343   1.573   8.394  0.6581  0.4210 -0.2288
 6915SOL    HW132207   3.397   1.647   8.365  0.6180  0.4032 -0.3485
 6915SOL    HW232208   3.395   1.505   8.352  0.9848  2.0693 -2.4810
 6916SOL     OW32209   1.151   1.644   3.680 -0.1135  0.8506  0.1716
 6916SOL    HW132210   1.162   1.710   3.612 -0.5061  0.0479 -0.6653
 6916SOL    HW232211   1.237   1.603   3.672 -0.3262  0.5298 -0.4885
 6917SOL     OW32212   2.394   0.622  16.921 -0.0303  0.1797 -0.2248
 6917SOL    HW132213   2.390   0.615  17.016 -0.1955 -2.4788 -0.4268
 6917SOL    HW232214   2.462   0.559  16.896 -2.6128 -3.1033  0.9079
 6918SOL     OW32215   3.174   3.693   5.233  0.3705 -0.3330 -0.0577
 6918SOL    HW132216   3.087   3.661   5.257  0.1466  1.2261  1.2314
 6918SOL    HW232217   3.148   3.782   5.210  0.4686  0.0459  1.2955
 6919SOL     OW32218   2.414   4.660   6.425 -0.0376  0.8751  0.0956
 6919SOL    HW132219   2.486   4.665   6.362 -0.7681  0.3355 -0.7916
 6919SOL    HW232220   2.348   4.622   6.366  0.3031 -0.8307  0.8195
 6920SOL     OW32221   0.382   2.184  13.899  0.4165  0.2580 -0.2608
 6920SOL    HW132222   0.354   2.276  13.899 -1.6096 -0.3579  3.2945
 6920SOL    HW232223   0.374   2.172  13.993 -1.6542  1.4355 -0.2964
 6921SOL     OW32224   2.565   0.451  13.252 -0.5500 -0.3249 -0.0304
 6921SOL    HW132225   2.574   0.391  13.178  1.4107  0.7693 -0.6791
 6921SOL    HW232226   2.655   0.459  13.283  0.0532 -3.4517 -1.0159
 6922SOL     OW32227   2.320   0.561  13.522 -0.5803  0.3281  0.0069
 6922SOL    HW132228   2.392   0.525  13.575  0.2363 -0.3872 -1.6052
 6922SOL    HW232229   2.292   0.634  13.577 -0.4206  0.5587 -0.2199
 6923SOL     OW32230   0.413   3.543  16.519 -0.1301  0.2846 -0.2275
 6923SOL    HW132231   0.319   3.543  16.541 -0.2669  0.3850 -0.8018
 6923SOL    HW232232   0.415   3.488  16.441 -2.3529  1.4365 -1.1231
 6924SOL     OW32233   1.743   1.935   3.990 -0.7374 -0.5378  0.1041
 6924SOL    HW132234   1.799   1.857   3.991 -0.0398 -0.0343  0.3890
 6924SOL    HW232235   1.814   1.989   3.955  0.3716 -1.6578  0.6330
 6925SOL     OW32236   4.653   3.940   1.280  0.4280 -0.6589 -1.0565
 6925SOL    HW132237   4.580   3.920   1.222  0.7857 -1.0005 -1.3878
 6925SOL    HW232238   4.681   4.020   1.236  0.8541  0.5244  1.3699
 6926SOL     OW32239   3.901   3.306   5.702 -0.4910  0.4796 -0.5201
 6926SOL    HW132240   3.832   3.362   5.668 -1.1907 -1.0647 -1.5767
 6926SOL    HW232241   3.863   3.223   5.677  0.9015 -0.3812  0.1681
 6927SOL     OW32242   1.505   2.789   9.074 -0.1906 -0.8516 -0.4304
 6927SOL    HW132243   1.435   2.746   9.026 -1.0839 -0.0710  0.1686
 6927SOL    HW232244   1.469   2.878   9.072 -1.3442 -1.3229 -0.4027
 6928SOL     OW32245   0.676   0.812   7.311 -0.1396 -0.4744 -0.1110
 6928SOL    HW132246   0.586   0.837   7.289  0.2960  0.6830 -0.5429
 6928SOL    HW232247   0.706   0.774   7.228 -0.4625 -1.0730  0.0459
 6929SOL     OW32248   0.079   0.379   2.583  0.2188  0.1641 -0.2765
 6929SOL    HW132249   0.095   0.328   2.504  0.5086 -0.6724  0.3097
 6929SOL    HW232250   0.112   0.464   2.555 -0.1655  0.3292 -0.2150
 6930SOL     OW32251   1.914   1.050   8.886  0.4270 -0.1721  0.4093
 6930SOL    HW132252   1.848   1.036   8.955 -0.4518  0.9195 -0.2109
 6930SOL    HW232253   1.995   1.019   8.928  0.2123 -1.0051  0.2164
 6931SOL     OW32254   4.033   2.313   4.714  0.1751  0.5707 -0.1981
 6931SOL    HW132255   4.038   2.364   4.634  0.5780 -1.1734 -1.2697
 6931SOL    HW232256   3.938   2.302   4.725  0.5010 -0.6270  1.4248
 6932SOL     OW32257   2.108   1.636   9.009 -0.2121  0.1566 -0.1852
 6932SOL    HW132258   2.030   1.628   9.064  0.3444  0.1719  0.6048
 6932SOL    HW232259   2.176   1.627   9.076  1.6081  0.3091 -2.0158
 6933SOL     OW32260   3.008   1.722   3.897 -0.3277  0.1866  0.1055
 6933SOL    HW132261   3.036   1.710   3.807 -3.9601 -2.0939 -0.7204
 6933SOL    HW232262   2.917   1.692   3.896 -0.2000 -0.1047 -2.5591
 6934SOL     OW32263   0.141   3.308  10.253 -0.0023  0.1384 -0.3150
 6934SOL    HW132264   0.095   3.385  10.219 -0.5162  0.9315  2.1764
 6934SOL    HW232265   0.210   3.354  10.300  0.0071  0.6336 -0.8133
 6935SOL     OW32266   3.770   4.391   3.210  0.7933 -0.1959 -0.8408
 6935SOL    HW132267   3.784   4.485   3.221  0.0663 -0.0849 -0.8795
 6935SOL    HW232268   3.829   4.360   3.280  0.1600  1.2198  0.3162
 6936SOL     OW32269   0.399   3.513   9.817 -0.3203 -0.2659  0.1071
 6936SOL    HW132270   0.461   3.440   9.812 -1.8897 -1.7463  2.1855
 6936SOL    HW232271   0.332   3.473   9.873  0.7037  1.6211  2.6627
 6937SOL     OW32272   3.561   2.289  14.033  0.5679 -0.1478  0.6688
 6937SOL    HW132273   3.608   2.313  13.954  1.0507 -2.4968  0.2489
 6937SOL    HW232274   3.578   2.195  14.041  0.1522 -0.0728  2.4752
 6938SOL     OW32275   1.467   3.979   6.691 -0.5383  0.4290  0.4559
 6938SOL    HW132276   1.412   4.056   6.682  0.3668  1.0097 -0.0012
 6938SOL    HW232277   1.396   3.915   6.688  0.0465 -0.1278 -1.5266
 6939SOL     OW32278   2.533   2.756   4.901  0.6483  0.2595  0.0212
 6939SOL    HW132279   2.602   2.743   4.836  0.0391  0.8132 -0.7465
 6939SOL    HW232280   2.465   2.795   4.846  0.0702 -0.4945  0.1870
 6940SOL     OW32281   4.653   1.440   8.628  0.2064  0.2849 -0.0563
 6940SOL    HW132282   4.600   1.492   8.567  1.6296  0.5219 -1.0707
 6940SOL    HW232283   4.654   1.491   8.709 -0.6043  0.2551 -0.0220
 6941SOL     OW32284   0.967   3.472   5.013 -0.2994  0.4318 -0.3834
 6941SOL    HW132285   0.979   3.555   5.059  1.3913  0.5719 -1.0847
 6941SOL    HW232286   0.900   3.446   5.076  0.6967 -0.6551  0.2175
 6942SOL     OW32287   4.555   4.552  10.972 -0.6874  0.0630 -0.3390
 6942SOL    HW132288   4.503   4.472  10.968  2.6189 -2.2199  2.6471
 6942SOL    HW232289   4.504   4.612  10.918  0.6747 -0.1328 -1.8317
 6943SOL     OW32290   1.643   1.166  16.822  0.4878 -0.1426 -0.1541
 6943SOL    HW132291   1.659   1.236  16.758  0.4343  1.5023  1.6224
 6943SOL    HW232292   1.588   1.204  16.891  1.2434 -1.3286  1.1099
 6944SOL     OW32293   0.133   1.072  12.821  0.4505 -0.9503  0.1636
 6944SOL    HW132294   0.159   1.095  12.910  0.0946 -1.5142  0.4098
 6944SOL    HW232295   0.157   1.151  12.772 -1.5460 -1.3103 -1.4147
 6945SOL     OW32296   1.114   4.538  16.809 -0.0084 -0.0828 -0.4372
 6945SOL    HW132297   1.134   4.580  16.725  0.6627  1.7907  0.6772
 6945SOL    HW232298   1.107   4.615  16.864 -3.5867 -0.1762 -0.7847
 6946SOL     OW32299   3.648   1.082   7.513 -0.2166  0.1313  0.1204
 6946SOL    HW132300   3.608   1.158   7.555 -2.4505 -0.8167 -0.3207
 6946SOL    HW232301   3.568   1.031   7.504 -0.6515  0.5757  1.3997
 6947SOL     OW32302   1.507   1.647  15.615 -0.6435 -0.0051 -0.1134
 6947SOL    HW132303   1.503   1.668  15.522 -1.4774 -2.0391 -0.5269
 6947SOL    HW232304   1.476   1.724  15.663 -1.6340  0.6242 -1.7859
 6948SOL     OW32305   0.342   3.578   6.218 -0.1968  0.4867  0.2171
 6948SOL    HW132306   0.429   3.618   6.224 -0.3920  0.8994  0.2904
 6948SOL    HW232307   0.350   3.521   6.142  0.1155 -1.4411  1.6930
 6949SOL     OW32308   1.045   3.747   6.843  0.0914 -0.2544 -0.4311
 6949SOL    HW132309   1.089   3.681   6.897 -0.5970  0.5643  1.1145
 6949SOL    HW232310   0.995   3.684   6.790 -1.8018 -0.2005  1.3294
 6950SOL     OW32311   1.343   1.581   6.006  0.3592  0.1391 -0.5195
 6950SOL    HW132312   1.263   1.625   6.034  1.9647  1.0216  2.6658
 6950SOL    HW232313   1.379   1.650   5.950  1.6790  0.3862  0.6119
 6951SOL     OW32314   0.722   4.653   4.160 -0.6660  0.0309 -0.7689
 6951SOL    HW132315   0.746   4.570   4.200  0.1334  1.7021  2.1884
 6951SOL    HW232316   0.805   4.699   4.156 -1.1888  0.9450 -1.1948
 6952SOL     OW32317   1.888   3.037  13.399  0.2400 -0.5086 -0.2461
 6952SOL    HW132318   1.819   2.984  13.439  0.4249 -0.2552  0.4185
 6952SOL    HW232319   1.946   3.070  13.468  1.0372  0.7040 -1.5041
 6953SOL     OW32320   2.852   2.149   8.253  0.0552 -0.3773 -0.1794
 6953SOL    HW132321   2.851   2.056   8.275  1.5156 -0.7198 -1.5590
 6953SOL    HW232322   2.847   2.187   8.341 -0.2585 -2.7582  0.8299
 6954SOL     OW32323   3.581   0.990   0.115  0.1642  0.3383 -0.1912
 6954SOL    HW132324   3.614   0.979   0.204 -1.1120  1.4529  0.4044
 6954SOL    HW232325   3.573   1.085   0.105 -0.2150  0.5143  1.7584
 6955SOL     OW32326   2.585   1.469   6.582 -0.3699  0.2208 -0.1345
 6955SOL    HW132327   2.535   1.534   6.532  0.9816  1.3853  0.0067
 6955SOL    HW232328   2.661   1.521   6.611  0.5469 -1.1059 -0.1617
 6956SOL     OW32329   1.027   0.097   7.454 -0.1082 -0.2495  0.2986
 6956SOL    HW132330   1.106   0.109   7.401  0.9736 -2.9149  1.3560
 6956SOL    HW232331   0.983   0.181   7.439  1.3092  0.6594  1.2430
 6957SOL     OW32332   3.604   1.321   6.593  0.0242  0.0628 -0.5742
 6957SOL    HW132333   3.618   1.235   6.633  2.1529  2.2240  3.2543
 6957SOL    HW232334   3.554   1.367   6.660  0.3960  0.3718 -0.5078
 6958SOL     OW32335   1.084   2.617  15.819 -0.3346  0.4985  0.2655
 6958SOL    HW132336   0.994   2.640  15.796 -0.2311  1.8902  1.2568
 6958SOL    HW232337   1.074   2.560  15.895  0.5297 -1.4068 -1.0325
 6959SOL     OW32338   1.929   2.047   2.926  0.3119  0.3359 -0.5137
 6959SOL    HW132339   2.019   2.072   2.906  0.8542  0.1403  1.7372
 6959SOL    HW232340   1.927   1.959   2.889  0.6348 -0.4511  1.3247
 6960SOL     OW32341   3.397   3.206   1.295  0.1542  0.0526  0.3121
 6960SOL    HW132342   3.384   3.299   1.273  0.7650  0.0448 -0.0838
 6960SOL    HW232343   3.364   3.201   1.385  0.3791 -2.2382  0.2501
 6961SOL     OW32344   0.656   2.128   2.769 -0.2309  0.0029 -0.2746
 6961SOL    HW132345   0.649   2.215   2.808  3.6085 -0.2408  0.9526
 6961SOL    HW232346   0.750   2.108   2.771 -0.1746  0.1221 -2.0998
 6962SOL     OW32347   3.727   3.731   2.054  0.4235  0.8629 -0.0965
 6962SOL    HW132348   3.784   3.752   2.127  0.8763  0.4641 -0.3375
 6962SOL    HW232349   3.754   3.642   2.030  1.3577  0.7177  1.5595
 6963SOL     OW32350   1.747   0.615   9.808 -0.1316 -0.0143 -0.0217
 6963SOL    HW132351   1.822   0.640   9.862  0.0337  2.3553 -1.3242
 6963SOL    HW232352   1.753   0.520   9.818  2.4537  0.1228 -0.0813
 6964SOL     OW32353   0.435   3.164  10.377 -0.3610 -0.3057 -0.5010
 6964SOL    HW132354   0.413   3.252  10.345  1.2256  0.0837 -0.4838
 6964SOL    HW232355   0.410   3.164  10.469 -0.5036  0.9741 -0.5373
 6965SOL     OW32356   3.827   1.657   7.918  0.3906  0.4461  0.4630
 6965SOL    HW132357   3.869   1.721   7.860  0.7791 -0.8016 -0.6341
 6965SOL    HW232358   3.758   1.626   7.860  0.8745 -2.8416  1.6306
 6966SOL     OW32359   4.160   0.310   5.914  0.4988 -0.1984  0.1965
 6966SOL    HW132360   4.182   0.289   6.004  0.0134  0.1652  0.4006
 6966SOL    HW232361   4.163   0.406   5.904  1.6093 -0.0891  1.5856
 6967SOL     OW32362   4.075   3.130   2.872 -0.1852  0.5039  0.3774
 6967SOL    HW132363   4.008   3.072   2.906 -0.3174  0.0131 -0.7045
 6967SOL    HW232364   4.029   3.161   2.794  0.7522  0.9420 -0.0134
 6968SOL     OW32365   1.371   2.815   4.953  0.7261 -0.2981 -0.4035
 6968SOL    HW132366   1.281   2.801   4.985  1.0930  0.7834  1.0963
 6968SOL    HW232367   1.367   2.750   4.883  0.2314  0.4447 -1.0673
 6969SOL     OW32368   0.913   0.944  10.180 -0.3630 -0.6052  0.1009
 6969SOL    HW132369   0.972   1.017  10.200 -1.2938 -0.2397  1.5114
 6969SOL    HW232370   0.859   0.997  10.120  0.4160 -1.8739 -1.7122
 6970SOL     OW32371   3.348   1.661   7.133 -0.2243  0.1095  0.0938
 6970SOL    HW132372   3.283   1.594   7.156  0.7154 -1.5264 -1.9598
 6970SOL    HW232373   3.411   1.653   7.205  0.8578 -0.2573 -0.8931
 6971SOL     OW32374   3.374   3.033  17.464 -0.2966  0.1072  0.5386
 6971SOL    HW132375   3.362   3.128  17.463  3.2029  0.5424 -0.4736
 6971SOL    HW232376   3.364   3.006  17.555  1.6241  2.5268  1.4522
 6972SOL     OW32377   1.530   3.024   9.661 -0.5032 -0.5014  0.0501
 6972SOL    HW132378   1.521   2.929   9.666 -0.2143 -0.5184  0.2450
 6972SOL    HW232379   1.553   3.048   9.751  1.0042 -3.2066  0.3718
 6973SOL     OW32380   3.268   4.599   0.046 -0.3682 -0.2142  0.0151
 6973SOL    HW132381   3.266   4.693   0.065 -0.4659 -0.8515  3.0993
 6973SOL    HW232382   3.358   4.579   0.071 -0.8306 -0.8350  1.1494
 6974SOL     OW32383   3.464   3.990   4.333  0.2105  0.4236 -0.0133
 6974SOL    HW132384   3.536   4.017   4.390 -1.8235 -0.7414  3.1049
 6974SOL    HW232385   3.391   4.046   4.361 -1.4035 -2.1448  0.9103
 6975SOL     OW32386   2.700   3.977   0.113 -0.1245  0.6791 -0.0780
 6975SOL    HW132387   2.617   4.020   0.092 -0.5879  0.8518  2.0537
 6975SOL    HW232388   2.678   3.885   0.101  0.5895  0.8711 -2.7700
 6976SOL     OW32389   1.430   4.625   6.481  0.0613 -0.1856 -0.4621
 6976SOL    HW132390   1.462   4.602   6.568  1.1662 -0.5276 -0.9654
 6976SOL    HW232391   1.437   4.721   6.481  0.1401 -0.1883  0.8321
 6977SOL     OW32392   3.702   0.236  11.581  0.1242 -0.0655 -0.2871
 6977SOL    HW132393   3.676   0.272  11.496  0.2009 -0.9398 -0.6822
 6977SOL    HW232394   3.792   0.211  11.563 -0.1786 -0.4525 -1.2738
 6978SOL     OW32395   4.680   4.207   4.447  0.3272 -0.3317  0.0695
 6978SOL    HW132396   0.023   4.273   4.440  1.2710 -1.0280  2.6562
 6978SOL    HW232397   4.622   4.247   4.383  0.3648  1.6124  1.2347
 6979SOL     OW32398   1.140   3.585   5.240  0.1499 -0.2692  0.2628
 6979SOL    HW132399   1.177   3.628   5.317 -3.5541  1.4905  1.0425
 6979SOL    HW232400   1.047   3.597   5.259  0.5100 -1.2464  2.6057
 6980SOL     OW32401   0.255   0.244  12.739 -0.2713  0.6510  0.1657
 6980SOL    HW132402   0.249   0.205  12.826  2.0695 -0.4620 -0.1793
 6980SOL    HW232403   0.307   0.172  12.706 -1.0173  0.6314 -0.9550
 6981SOL     OW32404   1.968   1.083   6.541  0.3573 -0.7332 -0.2909
 6981SOL    HW132405   1.977   0.988   6.534  0.3898 -0.7862  0.5155
 6981SOL    HW232406   1.877   1.097   6.515  0.4435 -2.8710 -1.7340
 6982SOL     OW32407   3.130   1.299   4.644 -0.0154 -0.2779 -0.3250
 6982SOL    HW132408   3.144   1.214   4.604  3.0971 -0.5941  1.4322
 6982SOL    HW232409   3.217   1.328   4.674 -0.6006  1.1691 -0.0172
 6983SOL     OW32410   0.169   2.033   9.314 -0.6780 -0.6572  0.0366
 6983SOL    HW132411   0.187   2.015   9.406 -1.6806  1.0369  0.5575
 6983SOL    HW232412   0.210   1.956   9.273 -2.7668 -1.8926  0.2741
 6984SOL     OW32413   4.500   1.093   8.322  0.3444  0.9150 -0.0321
 6984SOL    HW132414   4.525   1.048   8.403 -1.0509 -2.0983 -1.2543
 6984SOL    HW232415   4.405   1.082   8.313  0.2997  0.9086  0.4310
 6985SOL     OW32416   0.382   4.440   7.183  0.3711 -0.0731  0.1947
 6985SOL    HW132417   0.336   4.366   7.224  1.4628 -2.2097 -2.4655
 6985SOL    HW232418   0.474   4.415   7.177  0.4767 -0.3730  2.7325
 6986SOL     OW32419   1.419   0.045   2.486  0.2314 -0.3970 -0.1335
 6986SOL    HW132420   1.393   0.138   2.485 -1.9124 -0.9541  2.6371
 6986SOL    HW232421   1.343   4.726   2.449  0.8907 -1.8246  0.2894
 6987SOL     OW32422   2.595   1.327   4.275  0.6893  0.5584 -0.0578
 6987SOL    HW132423   2.610   1.370   4.191  1.0653 -0.8825 -0.7273
 6987SOL    HW232424   2.665   1.264   4.292 -1.2191 -1.8881 -1.1427
 6988SOL     OW32425   3.142   0.166   4.887  0.2651 -0.0946 -0.0586
 6988SOL    HW132426   3.170   0.211   4.808 -0.1396  0.7537  0.2899
 6988SOL    HW232427   3.111   0.083   4.849  0.3001 -0.5770  0.9552
 6989SOL     OW32428   3.879   2.265  14.600  0.9820 -0.4515  0.0033
 6989SOL    HW132429   3.866   2.310  14.683 -1.5934 -2.0007  0.4439
 6989SOL    HW232430   3.965   2.304  14.581  0.3271  0.5579 -0.8578
 6990SOL     OW32431   1.624   2.616  11.083 -0.0441 -0.0577 -0.0582
 6990SOL    HW132432   1.665   2.539  11.044 -2.2435 -1.3773  0.2344
 6990SOL    HW232433   1.704   2.655  11.117  0.8475 -1.4313 -0.5956
 6991SOL     OW32434   2.793   3.666   1.575  0.0451  0.9636 -0.3389
 6991SOL    HW132435   2.795   3.692   1.483 -1.7006 -0.6376 -0.8203
 6991SOL    HW232436   2.790   3.571   1.564  2.5537  1.1073 -2.1645
 6992SOL     OW32437   2.676   1.186   3.192  0.5755  0.6987 -0.0623
 6992SOL    HW132438   2.589   1.178   3.230  1.1024  0.9056  1.1910
 6992SOL    HW232439   2.662   1.259   3.132 -1.3916  0.4756  0.1133
 6993SOL     OW32440   2.171   0.430   0.338 -0.1010 -0.0724  0.3129
 6993SOL    HW132441   2.173   0.497   0.406  0.9199  2.2943 -2.0150
 6993SOL    HW232442   2.106   0.473   0.282 -2.1991  0.2193  3.0155
 6994SOL     OW32443   2.016   1.741  16.626 -0.4884 -0.3457 -0.6823
 6994SOL    HW132444   1.972   1.824  16.610  0.1197 -0.0515 -0.8105
 6994SOL    HW232445   2.104   1.774  16.643 -0.8327 -0.1402  0.7330
 6995SOL     OW32446   2.315   1.701   4.536 -0.4447  0.4512  0.1207
 6995SOL    HW132447   2.316   1.606   4.526 -1.2369  0.3188  1.2797
 6995SOL    HW232448   2.338   1.729   4.447  2.7514 -0.9352  0.5178
 6996SOL     OW32449   3.441   3.064  14.686  0.3383 -0.0620 -0.4469
 6996SOL    HW132450   3.505   3.000  14.655 -0.4697 -1.0290 -0.1191
 6996SOL    HW232451   3.495   3.083  14.762 -0.1606  1.4782 -0.4810
 6997SOL     OW32452   3.889   1.031   8.172  0.0814  0.1439 -0.0308
 6997SOL    HW132453   3.861   1.009   8.261  0.0581  1.2388  0.2315
 6997SOL    HW232454   3.804   1.037   8.129 -0.8839  0.7389  1.9538
 6998SOL     OW32455   1.311   1.835  14.813  0.3784  0.1221  0.0119
 6998SOL    HW132456   1.256   1.790  14.748 -0.6705  2.8471 -0.9818
 6998SOL    HW232457   1.400   1.824  14.779  1.1270 -1.3401  2.4580
 6999SOL     OW32458   3.576   4.253  15.812 -0.5885 -0.2960  0.6495
 6999SOL    HW132459   3.620   4.241  15.896 -0.2333 -0.1819  0.4799
 6999SOL    HW232460   3.496   4.203  15.826 -0.8806 -0.1439 -0.4326
 7000SOL     OW32461   0.873   2.922   9.017  0.2427 -0.3244  0.2158
 7000SOL    HW132462   0.797   2.912   8.959 -0.4489 -0.7121  1.1877
 7000SOL    HW232463   0.934   2.920   8.943  2.1767  0.9560  1.7919
 7001SOL     OW32464   0.569   1.626   7.545 -0.4828  0.0944 -0.5295
 7001SOL    HW132465   0.571   1.609   7.640 -0.2304  0.6590 -0.4320
 7001SOL    HW232466   0.643   1.686   7.540 -2.9874  3.2791  0.7978
 7002SOL     OW32467   1.688   1.744   4.782  0.3715 -0.6798  1.2583
 7002SOL    HW132468   1.743   1.745   4.860 -0.4668 -0.2442  1.8468
 7002SOL    HW232469   1.695   1.658   4.740  0.9834 -0.2961  0.5858
 7003SOL     OW32470   2.952   3.051   0.954 -0.2993 -0.6131  0.3042
 7003SOL    HW132471   2.894   3.017   1.022 -0.5454 -1.0822 -0.1428
 7003SOL    HW232472   3.028   3.074   1.008  0.9122 -0.5600 -1.4351
 7004SOL     OW32473   2.370   2.264   3.526  0.0860 -0.1748  0.4063
 7004SOL    HW132474   2.407   2.191   3.476  1.2940  0.0675  0.9521
 7004SOL    HW232475   2.312   2.299   3.458  0.4299  1.6028  1.0494
 7005SOL     OW32476   1.386   1.786   8.137  0.2177  0.1746  0.1673
 7005SOL    HW132477   1.380   1.783   8.041 -0.2998 -1.1849  0.2436
 7005SOL    HW232478   1.482   1.795   8.135  0.2646 -0.4192 -0.0877
 7006SOL     OW32479   2.582   1.053  15.054 -1.0457  0.4877  0.2815
 7006SOL    HW132480   2.673   1.049  15.083 -0.4819 -0.0348 -1.5766
 7006SOL    HW232481   2.584   1.001  14.974 -2.6419  1.3320 -0.3069
 7007SOL     OW32482   4.693   2.528   6.810  0.1421  0.2359 -0.1400
 7007SOL    HW132483   4.669   2.556   6.722  0.2954 -0.6654 -0.4665
 7007SOL    HW232484   0.062   2.515   6.813 -0.1883 -1.6567  2.4955
 7008SOL     OW32485   2.333   1.205   3.572  0.3983  0.3139  0.2032
 7008SOL    HW132486   2.345   1.295   3.601  1.4427  0.1718  0.1935
 7008SOL    HW232487   2.240   1.192   3.590  0.6406 -0.4110  0.9644
 7009SOL     OW32488   0.123   1.119   4.503 -0.2227 -0.4683 -0.4148
 7009SOL    HW132489   0.061   1.068   4.450  1.1169 -0.6037 -1.8354
 7009SOL    HW232490   0.116   1.200   4.453  2.5147  0.1432  0.2471
 7010SOL     OW32491   1.007   0.656  11.456  0.6943  0.4524 -0.1119
 7010SOL    HW132492   1.008   0.748  11.430 -1.3682  0.6431  0.5243
 7010SOL    HW232493   1.039   0.614  11.376  0.7328 -1.6654  1.0261
 7011SOL     OW32494   2.499   1.405   7.619  0.5054  0.4880 -0.1299
 7011SOL    HW132495   2.459   1.328   7.578  0.6381 -0.9064  2.3553
 7011SOL    HW232496   2.555   1.436   7.547  2.7401  2.2619  2.3879
 7012SOL     OW32497   1.522   1.556   7.421 -0.7805  0.0688 -0.4893
 7012SOL    HW132498   1.449   1.596   7.469 -1.9818 -2.1160 -0.4799
 7012SOL    HW232499   1.495   1.559   7.329 -1.3677  1.9568 -0.2595
 7013SOL     OW32500   3.838   2.302  10.243  0.3280  0.1376 -0.4514
 7013SOL    HW132501   3.746   2.323  10.256  0.4964  1.1012 -0.7877
 7013SOL    HW232502   3.865   2.390  10.271  0.6560 -0.1776  0.2094
 7014SOL     OW32503   0.080   0.043   8.355  0.0993  0.4760 -0.0127
 7014SOL    HW132504   0.158   0.029   8.409 -0.9610  0.9858  1.6596
 7014SOL    HW232505   0.080   0.138   8.365 -3.2781  0.4005  0.6595
 7015SOL     OW32506   1.664   3.650   2.899 -0.3587 -0.1093 -0.5531
 7015SOL    HW132507   1.738   3.621   2.952  0.1488  0.7950 -0.7648
 7015SOL    HW232508   1.600   3.586   2.929 -1.7122  2.1752  1.4050
 7016SOL     OW32509   0.095   0.816   7.427 -0.4676  0.2195  0.4423
 7016SOL    HW132510   0.183   0.783   7.446 -0.8212 -0.5294  0.7837
 7016SOL    HW232511   0.089   0.790   7.335  1.8039 -2.4186  1.0422
 7017SOL     OW32512   2.401   1.158   9.247 -0.1717 -0.0308  0.0546
 7017SOL    HW132513   2.472   1.216   9.273  1.2695 -0.8192 -2.1810
 7017SOL    HW232514   2.366   1.207   9.173  0.9467 -0.3061 -0.6561
 7018SOL     OW32515   2.695   3.998   7.448 -0.1491  0.3514  0.1747
 7018SOL    HW132516   2.658   4.085   7.438  0.6547  0.7978  1.1801
 7018SOL    HW232517   2.641   3.950   7.384  0.5184  1.8236 -1.4831
 7019SOL     OW32518   0.094   3.827   7.045 -0.1758 -0.3652 -0.3348
 7019SOL    HW132519   0.127   3.738   7.037  0.6069  0.0368 -1.5943
 7019SOL    HW232520   0.054   3.824   7.132 -0.3339 -0.0542 -0.3970
 7020SOL     OW32521   1.251   1.848   3.453  0.3061 -0.4910 -0.0260
 7020SOL    HW132522   1.282   1.929   3.493  0.1994  0.7479 -2.4734
 7020SOL    HW232523   1.337   1.813   3.430 -0.5478 -3.0403  0.6481
 7021SOL     OW32524   2.547   4.644   4.467  0.0008  0.2697 -0.0345
 7021SOL    HW132525   2.533   4.706   4.538  0.0446 -1.2125  1.2795
 7021SOL    HW232526   2.455   4.623   4.450 -0.5742  2.4631  0.4080
 7022SOL     OW32527   4.203   1.965   3.493  0.1260 -0.5953  0.1857
 7022SOL    HW132528   4.132   1.930   3.440  2.4371 -2.7354 -1.4900
 7022SOL    HW232529   4.272   1.908   3.461 -0.3098  0.0447 -1.9019
 7023SOL     OW32530   0.757   0.830  13.483 -0.5797  0.4310  0.1862
 7023SOL    HW132531   0.738   0.751  13.433  1.4052 -0.3721  0.6933
 7023SOL    HW232532   0.845   0.819  13.517 -0.5543 -0.7951 -0.2925
 7024SOL     OW32533   0.967   3.755   1.794 -0.0564  1.1006  0.8202
 7024SOL    HW132534   1.055   3.747   1.758 -0.7307  0.3082 -0.6254
 7024SOL    HW232535   0.911   3.786   1.722  1.7732 -0.3419 -1.2047
 7025SOL     OW32536   4.548   4.623   1.139 -0.0995 -0.3680 -0.1516
 7025SOL    HW132537   4.567   4.708   1.100 -0.1875 -0.1561  0.2700
 7025SOL    HW232538   4.518   4.647   1.227 -3.5105 -0.4868 -1.3134
 7026SOL     OW32539   0.800   1.181   8.296  0.2274 -0.3930  0.2319
 7026SOL    HW132540   0.871   1.158   8.236 -0.0938 -2.5028  0.6603
 7026SOL    HW232541   0.806   1.277   8.293 -0.3629 -0.3376  0.7067
 7027SOL     OW32542   2.649   0.237   8.186  0.1418  0.2689 -0.2395
 7027SOL    HW132543   2.677   0.327   8.203 -4.0517  0.6989  4.6816
 7027SOL    HW232544   2.598   0.219   8.265  0.4869  0.4843  0.0325
 7028SOL     OW32545   4.604   1.597   9.298 -0.4439 -0.0272  0.4414
 7028SOL    HW132546   4.686   1.605   9.346 -0.6962 -1.7778  1.1290
 7028SOL    HW232547   4.546   1.558   9.363  0.1922 -0.6228  0.6484
 7029SOL     OW32548   0.578   4.056   1.182 -0.0196  0.1841 -0.6590
 7029SOL    HW132549   0.552   3.967   1.158 -3.3156  1.4471 -1.8607
 7029SOL    HW232550   0.573   4.096   1.096  0.3417 -0.7324 -1.1054
 7030SOL     OW32551   4.707   4.128   6.664 -0.0559 -0.2844  0.2060
 7030SOL    HW132552   0.033   4.200   6.698  1.0114 -0.6907 -0.5862
 7030SOL    HW232553   4.707   4.069   6.740  1.5291  0.2053  0.5904
 7031SOL     OW32554   1.759   3.516   6.814  0.0368 -0.0537  0.2362
 7031SOL    HW132555   1.841   3.514   6.864 -0.1101  0.1619  0.4904
 7031SOL    HW232556   1.723   3.604   6.829 -0.7718 -0.9218  3.4660
 7032SOL     OW32557   1.662   2.051   2.585 -0.0813  0.3726  0.2908
 7032SOL    HW132558   1.662   2.116   2.656 -1.2737 -0.7730  1.3471
 7032SOL    HW232559   1.707   1.980   2.631  0.2658 -0.9702 -2.1740
 7033SOL     OW32560   3.703   1.902   5.689 -0.9428  0.3489  0.1262
 7033SOL    HW132561   3.613   1.878   5.668 -0.2498 -1.3868 -0.8493
 7033SOL    HW232562   3.714   1.854   5.772 -1.1016 -0.6253 -0.4118
 7034SOL     OW32563   4.546   4.627  10.181  0.0223 -0.3511 -0.0294
 7034SOL    HW132564   4.640   4.641  10.190 -0.3088  2.4178 -0.8388
 7034SOL    HW232565   4.518   4.706  10.228  0.4390  0.3441 -0.9408
 7035SOL     OW32566   2.858   3.034   7.107  0.1304 -0.6051 -0.6076
 7035SOL    HW132567   2.826   3.110   7.155  0.1509 -1.0370  0.0876
 7035SOL    HW232568   2.895   2.986   7.182 -0.9259 -0.7779 -0.1959
 7036SOL     OW32569   0.678   4.092   2.110 -0.6689 -0.2515 -0.1024
 7036SOL    HW132570   0.681   4.185   2.088 -0.2861 -0.1326  0.4728
 7036SOL    HW232571   0.607   4.067   2.051 -1.1426  0.5286  0.1368
 7037SOL     OW32572   1.187   1.567   7.801  0.1041  0.1185  0.1121
 7037SOL    HW132573   1.195   1.506   7.874  2.3095  1.2217  0.7805
 7037SOL    HW232574   1.092   1.573   7.797  0.1354  0.9592  0.7082
 7038SOL     OW32575   0.511   2.074   5.497  0.3516  0.0556  0.3777
 7038SOL    HW132576   0.523   2.075   5.403  1.1109 -0.9486  0.4701
 7038SOL    HW232577   0.531   2.164   5.522  2.5835 -0.6023  0.9345
 7039SOL     OW32578   3.254   3.966   1.533  0.2301  0.2046 -0.2323
 7039SOL    HW132579   3.317   3.961   1.460  2.9729 -0.5120  2.1652
 7039SOL    HW232580   3.301   3.974   1.616  1.3092 -2.6649 -0.5589
 7040SOL     OW32581   4.504   2.806   2.101 -0.7422  0.3285  0.0540
 7040SOL    HW132582   4.414   2.814   2.069 -1.0579 -0.0696  0.8445
 7040SOL    HW232583   4.504   2.859   2.181 -0.9818  1.8885 -0.9620
 7041SOL     OW32584   4.170   0.042  11.707  0.2846  0.5273 -0.4032
 7041SOL    HW132585   4.126   0.109  11.759 -1.4709 -1.4964  0.6792
 7041SOL    HW232586   4.253   0.029  11.753 -0.6763  0.5836  1.3355
 7042SOL     OW32587   0.412   4.568   4.147 -0.2912 -0.3421  0.2974
 7042SOL    HW132588   0.492   4.529   4.183 -0.0140 -2.6224 -2.8071
 7042SOL    HW232589   0.424   4.656   4.183  0.1686 -0.7310  1.0876
 7043SOL     OW32590   2.283   0.829  13.659  0.3275  0.0631  0.3825
 7043SOL    HW132591   2.310   0.901  13.602 -1.9065  1.2827  0.8411
 7043SOL    HW232592   2.217   0.873  13.713 -1.2611  0.6488 -2.0019
 7044SOL     OW32593   0.659   3.524  15.320  0.5664  0.0491  0.4050
 7044SOL    HW132594   0.721   3.526  15.247 -1.1071 -1.0209 -1.0483
 7044SOL    HW232595   0.709   3.559  15.395 -0.7217  0.5089  1.0454
 7045SOL     OW32596   3.372   2.584  12.180  0.2277 -0.6458 -0.1694
 7045SOL    HW132597   3.309   2.629  12.236 -1.2539 -1.2219 -1.3643
 7045SOL    HW232598   3.311   2.519  12.143 -1.1253  0.9559 -0.7336
 7046SOL     OW32599   2.571   1.377   5.818 -0.2474  0.1047 -0.2838
 7046SOL    HW132600   2.527   1.422   5.746  1.7580  1.4146 -0.6900
 7046SOL    HW232601   2.505   1.313   5.846 -0.6858  0.4872 -0.4504
 7047SOL     OW32602   4.471   1.736   5.429 -0.2458  0.2329 -0.1410
 7047SOL    HW132603   4.486   1.825   5.462 -2.4541  0.0310  1.3990
 7047SOL    HW232604   4.388   1.754   5.385  0.3835  0.2369 -1.3433
 7048SOL     OW32605   1.418   3.099   8.349 -0.0437 -0.4971  1.1029
 7048SOL    HW132606   1.397   3.193   8.349 -2.2850 -0.9814 -1.1213
 7048SOL    HW232607   1.333   3.056   8.356 -0.9872  1.2772  0.6651
 7049SOL     OW32608   0.228   1.211   2.489 -0.0913 -0.0047  0.0854
 7049SOL    HW132609   0.322   1.196   2.481 -0.1543 -0.3102 -0.0885
 7049SOL    HW232610   0.220   1.254   2.404  2.6739  1.6086  0.6313
 7050SOL     OW32611   3.291   3.454   1.228  0.6596  0.3186  0.4311
 7050SOL    HW132612   3.371   3.488   1.188  0.8300 -0.7759 -0.1718
 7050SOL    HW232613   3.257   3.532   1.271 -1.2317  0.7117 -1.7219
 7051SOL     OW32614   1.824   2.826   0.024  0.4587 -0.5173  1.1605
 7051SOL    HW132615   1.820   2.921   0.023 -1.2625 -0.5814  1.6644
 7051SOL    HW232616   1.794   2.801  17.643  0.0777 -2.6837  1.8909
 7052SOL     OW32617   2.883   2.089   7.349  0.2463 -0.2553  0.1607
 7052SOL    HW132618   2.949   2.021   7.335  1.2379  1.1991 -2.0737
 7052SOL    HW232619   2.823   2.056   7.416  1.1068 -2.7838 -0.3195
 7053SOL     OW32620   4.307   1.436  15.375 -0.0485 -0.1342 -0.7294
 7053SOL    HW132621   4.288   1.424  15.468  0.3126  0.8385 -0.5203
 7053SOL    HW232622   4.363   1.359  15.363  0.6453 -0.0153  1.8566
 7054SOL     OW32623   2.092   1.437  15.100  0.4081 -0.3080  0.7886
 7054SOL    HW132624   2.034   1.501  15.142  0.9652  0.6181  0.1489
 7054SOL    HW232625   2.027   1.369  15.080  0.6516 -0.8345  1.7887
 7055SOL     OW32626   2.601   2.564   2.242 -0.0802 -0.0191 -0.4116
 7055SOL    HW132627   2.694   2.563   2.267 -0.0244  0.9130 -0.6056
 7055SOL    HW232628   2.579   2.472   2.229 -0.1907 -0.0541  0.0273
 7056SOL     OW32629   0.864   4.714   7.623 -0.1727 -0.1752 -0.0244
 7056SOL    HW132630   0.794   0.043   7.587  2.0477  1.3445 -1.9837
 7056SOL    HW232631   0.938   0.006   7.565 -0.4159 -0.1180 -0.3197
 7057SOL     OW32632   0.347   1.633   4.451 -0.0677 -0.2012 -0.1950
 7057SOL    HW132633   0.410   1.703   4.433  1.8282 -2.0606 -0.6876
 7057SOL    HW232634   0.332   1.645   4.545  0.0316 -0.9747 -0.0811
 7058SOL     OW32635   2.136   3.617  14.465  0.3643  0.3029 -0.0318
 7058SOL    HW132636   2.095   3.637  14.381  1.3053 -0.3347 -0.6414
 7058SOL    HW232637   2.204   3.552  14.447 -0.4254 -0.4107 -0.4948
 7059SOL     OW32638   1.938   2.712   0.262  0.0945  0.2767  0.2069
 7059SOL    HW132639   1.886   2.748   0.189 -1.1021 -0.5655  0.6519
 7059SOL    HW232640   2.002   2.780   0.281 -1.1212  1.5603 -0.2764
 7060SOL     OW32641   4.684   3.877   6.510 -0.6625 -0.0618 -0.2643
 7060SOL    HW132642   4.657   3.804   6.454 -1.8147  0.9777 -1.0450
 7060SOL    HW232643   4.604   3.901   6.555 -1.1636 -1.8106 -0.2207
 7061SOL     OW32644   1.572   3.595  15.997 -0.4403 -0.3726 -0.3170
 7061SOL    HW132645   1.480   3.570  15.994 -0.2539 -1.0120 -0.6571
 7061SOL    HW232646   1.569   3.682  16.038  1.0482  0.0197 -1.0154
 7062SOL     OW32647   1.123   1.602   5.681  0.5300 -0.0851 -0.1950
 7062SOL    HW132648   1.215   1.628   5.668  0.2868 -0.2392 -2.2753
 7062SOL    HW232649   1.116   1.562   5.594 -0.8273 -2.0709  0.8493
 7063SOL     OW32650   0.230   2.632   1.270 -0.7111 -0.0968 -0.0168
 7063SOL    HW132651   0.235   2.541   1.299  0.0798 -0.3276 -0.8739
 7063SOL    HW232652   0.169   2.664   1.336 -2.7571  0.3164 -2.0765
 7064SOL     OW32653   2.717   1.634   1.638 -0.5511 -0.1949  0.2270
 7064SOL    HW132654   2.787   1.592   1.688  0.5166  1.9802  0.5175
 7064SOL    HW232655   2.737   1.725   1.659 -0.2197  0.0118 -0.9934
 7065SOL     OW32656   4.200   2.929  15.359  0.4409 -0.1339 -0.1350
 7065SOL    HW132657   4.250   2.948  15.281  0.6995  1.5903  0.4510
 7065SOL    HW232658   4.268   2.947  15.423  0.4577  2.0502 -0.7732
 7066SOL     OW32659   4.229   2.795   2.019 -0.1220 -0.9038 -0.2434
 7066SOL    HW132660   4.186   2.880   2.011  1.5867 -0.2172 -2.0424
 7066SOL    HW232661   4.167   2.762   2.084 -1.0537  0.9797 -0.1820
 7067SOL     OW32662   0.430   2.179  10.168 -0.1968 -0.0078 -0.5422
 7067SOL    HW132663   0.354   2.160  10.113 -1.6663  0.4146  1.3237
 7067SOL    HW232664   0.434   2.099  10.221 -1.1606 -0.8263 -1.6958
 7068SOL     OW32665   0.064   1.737   7.840  0.4205  0.4695 -0.2757
 7068SOL    HW132666   0.019   1.652   7.848 -0.2007  0.6480 -1.9412
 7068SOL    HW232667   0.095   1.745   7.930 -0.5621  0.3766  0.0724
 7069SOL     OW32668   1.505   0.982   6.183 -0.0597 -0.0351  0.2068
 7069SOL    HW132669   1.504   1.062   6.235  1.5494 -0.8229  1.4360
 7069SOL    HW232670   1.462   1.012   6.103  2.0097  2.7153  0.1338
 7070SOL     OW32671   4.533   3.789  17.345 -0.6708 -0.7179 -0.3788
 7070SOL    HW132672   4.620   3.751  17.358 -0.7886 -1.5945 -2.2101
 7070SOL    HW232673   4.554   3.877  17.377 -1.2908 -0.8856  0.5056
 7071SOL     OW32674   1.740   3.690   4.661  0.0557  0.5490 -0.0482
 7071SOL    HW132675   1.807   3.622   4.650 -0.4645  0.2746 -1.6203
 7071SOL    HW232676   1.753   3.696   4.755 -0.0789  1.0375 -0.0593
 7072SOL     OW32677   2.366   3.641   7.316  1.1717 -0.3420 -0.2547
 7072SOL    HW132678   2.412   3.568   7.356  0.7291 -1.2821 -1.4832
 7072SOL    HW232679   2.286   3.600   7.283  2.1412 -0.2065 -2.7017
 7073SOL     OW32680   0.465   0.156   1.040 -0.6240 -0.1374  0.5086
 7073SOL    HW132681   0.412   0.229   1.073 -0.0734 -2.0574  5.6276
 7073SOL    HW232682   0.520   0.175   0.964  0.7108  0.5048  1.6128
 7074SOL     OW32683   3.941   2.229  16.987  0.1417 -0.3362 -0.3711
 7074SOL    HW132684   3.878   2.293  17.020  1.8595 -0.2434  2.7395
 7074SOL    HW232685   3.927   2.160  17.051 -2.8721 -0.1721 -0.8610
 7075SOL     OW32686   4.442   4.463  11.807 -0.2804 -0.0730 -0.2039
 7075SOL    HW132687   4.407   4.396  11.865 -0.5505  1.1809  1.0878
 7075SOL    HW232688   4.385   4.439  11.734 -0.5022  0.5468 -0.2406
 7076SOL     OW32689   2.623   0.050   2.913 -0.1132 -0.4891  0.3280
 7076SOL    HW132690   2.677   4.713   2.959  1.0103  0.2018 -0.0274
 7076SOL    HW232691   2.635   0.028   2.820  1.1430  0.7556  0.1920
 7077SOL     OW32692   0.124   2.042   2.187  0.4178 -0.1665  0.4087
 7077SOL    HW132693   0.216   2.036   2.163 -0.2905 -0.3003 -2.2857
 7077SOL    HW232694   0.095   1.954   2.210  1.7366 -1.0769 -1.4795
 7078SOL     OW32695   0.313   1.663   0.998 -0.4505 -0.5004 -0.3762
 7078SOL    HW132696   0.325   1.738   0.940 -0.3762  1.2993  1.9791
 7078SOL    HW232697   0.356   1.587   0.957 -0.7840 -0.3039 -1.0876
 7079SOL     OW32698   0.246   3.418   2.900 -0.6762 -0.0596 -0.4201
 7079SOL    HW132699   0.246   3.323   2.914  2.5700  0.4044  2.6510
 7079SOL    HW232700   0.274   3.435   2.990  1.9681 -0.5728 -1.1304
 7080SOL     OW32701   2.646   3.942   9.827 -0.1323  0.1790 -0.4021
 7080SOL    HW132702   2.728   3.901   9.852 -1.2340 -2.9925 -1.9559
 7080SOL    HW232703   2.599   3.943   9.910 -2.0036  1.9393 -1.4686
 7081SOL     OW32704   3.458   3.308   3.300  0.1131  0.2430 -0.1866
 7081SOL    HW132705   3.524   3.251   3.340  1.7444  1.4871 -1.1012
 7081SOL    HW232706   3.473   3.384   3.355  2.1693  1.3203 -2.2428
 7082SOL     OW32707   4.141   2.432   3.368  0.3709 -0.6325 -1.0157
 7082SOL    HW132708   4.168   2.351   3.410  0.9369  0.5510  0.8817
 7082SOL    HW232709   4.212   2.448   3.305 -0.1045  0.5105 -1.2601
 7083SOL     OW32710   1.781   2.998  11.141 -0.2138 -0.5097 -0.6752
 7083SOL    HW132711   1.799   2.909  11.170  1.4543 -0.5527 -1.8138
 7083SOL    HW232712   1.710   3.013  11.203  0.5324 -2.5931  0.6692
 7084SOL     OW32713   1.070   1.758  15.785 -0.3869 -0.7145  0.0108
 7084SOL    HW132714   1.101   1.818  15.716 -3.5507  0.9960  0.0539
 7084SOL    HW232715   0.977   1.754  15.766 -0.1433  1.9124 -1.7960
 7085SOL     OW32716   3.061   3.255   1.219  0.1982 -0.0118  0.1189
 7085SOL    HW132717   3.109   3.172   1.219 -0.1718 -0.2278  0.6969
 7085SOL    HW232718   3.133   3.314   1.241  0.6306  0.0551 -1.4906
 7086SOL     OW32719   1.218   1.119   3.372 -0.2527 -0.5371 -0.2205
 7086SOL    HW132720   1.251   1.031   3.353 -1.8193 -1.0211 -0.6536
 7086SOL    HW232721   1.256   1.154   3.291 -1.0867 -0.9897 -0.8062
 7087SOL     OW32722   3.375   4.099  15.913 -0.7382  0.5726 -0.6605
 7087SOL    HW132723   3.301   4.105  15.974 -1.4246  0.8684 -1.5299
 7087SOL    HW232724   3.356   4.013  15.876  1.8004 -0.3054  0.0629
 7088SOL     OW32725   1.086   3.305  11.641  0.3670  0.2165  0.0950
 7088SOL    HW132726   1.093   3.243  11.713  0.3565 -1.1978 -1.1359
 7088SOL    HW232727   1.171   3.301  11.598 -0.1583 -0.9187 -0.8315
 7089SOL     OW32728   0.033   0.595   3.922 -0.2385 -0.0232  0.1912
 7089SOL    HW132729   0.098   0.659   3.950 -0.6931  0.6524 -0.2965
 7089SOL    HW232730   4.675   0.619   3.958  0.3504  0.9463  0.9070
 7090SOL     OW32731   2.262   0.353   5.073 -0.2664 -0.5508  0.0515
 7090SOL    HW132732   2.347   0.394   5.058 -1.1999  0.9423 -1.1707
 7090SOL    HW232733   2.223   0.322   4.991  0.2587 -2.9239  0.7052
 7091SOL     OW32734   3.676   2.450  16.308 -0.5660 -0.3503  0.4100
 7091SOL    HW132735   3.641   2.532  16.343 -1.4404  0.1887 -1.6978
 7091SOL    HW232736   3.771   2.461  16.308 -0.5606 -0.4040  0.8926
 7092SOL     OW32737   2.828   0.285  16.800  0.3169 -1.3106 -0.1279
 7092SOL    HW132738   2.902   0.345  16.788 -0.0370 -1.0934 -1.2309
 7092SOL    HW232739   2.853   0.205  16.754 -2.1212 -1.8912 -0.3981
 7093SOL     OW32740   1.414   2.447   3.188  0.1823 -0.2474 -0.7803
 7093SOL    HW132741   1.454   2.492   3.113  1.9507 -0.4760  0.0132
 7093SOL    HW232742   1.333   2.410   3.153  0.2329  0.1144 -1.2818
 7094SOL     OW32743   3.611   2.951   2.854  0.1188  0.1116  0.3541
 7094SOL    HW132744   3.599   3.006   2.776  0.9773 -1.2122 -0.7103
 7094SOL    HW232745   3.566   3.004   2.919 -2.0523 -0.2512 -0.8708
 7095SOL     OW32746   0.261   4.116   5.273 -0.2329 -0.1247 -0.3731
 7095SOL    HW132747   0.181   4.087   5.229 -0.4274 -1.7180  1.0271
 7095SOL    HW232748   0.224   4.139   5.358 -0.7877 -1.2257 -0.3084
 7096SOL     OW32749   3.399   1.659   4.250  0.0141  0.8493 -0.2791
 7096SOL    HW132750   3.402   1.599   4.325  0.5328 -0.9788 -1.7756
 7096SOL    HW232751   3.489   1.646   4.222 -0.4492 -2.3970 -0.2000
 7097SOL     OW32752   3.369   2.784   4.265  0.2884 -0.0135  0.0913
 7097SOL    HW132753   3.288   2.792   4.315 -0.2403 -0.1882 -0.7347
 7097SOL    HW232754   3.403   2.699   4.292 -1.9417 -1.0174 -0.2220
 7098SOL     OW32755   1.517   2.789   7.404 -0.0927  0.0248 -0.6909
 7098SOL    HW132756   1.557   2.865   7.361  0.8202  0.5249  1.0289
 7098SOL    HW232757   1.462   2.752   7.335  0.4513 -1.8423 -0.1208
 7099SOL     OW32758   2.758   2.539   2.647 -0.1455 -0.4071 -0.0168
 7099SOL    HW132759   2.663   2.534   2.646 -0.1771  0.7345 -1.2712
 7099SOL    HW232760   2.781   2.489   2.569  0.8684 -2.3138  1.4677
 7100SOL     OW32761   3.748   3.669   4.394 -0.2140  0.0655 -0.2282
 7100SOL    HW132762   3.666   3.634   4.429 -0.7295  2.8125  1.3337
 7100SOL    HW232763   3.755   3.607   4.321 -1.9467  0.0459 -0.3799
 7101SOL     OW32764   0.323   4.558   2.382  0.2713 -0.2669  0.6070
 7101SOL    HW132765   0.327   4.634   2.325  1.3814  0.2150  1.3148
 7101SOL    HW232766   0.415   4.531   2.384  0.5321  0.6999  1.4106
 7102SOL     OW32767   3.230   3.562   3.534 -0.3999 -0.1358 -0.3990
 7102SOL    HW132768   3.171   3.633   3.561 -1.0778 -0.7797 -0.1673
 7102SOL    HW232769   3.240   3.509   3.613  2.8572 -0.6446 -1.1710
 7103SOL     OW32770   2.606   0.919   6.205 -0.1299 -0.7093 -0.5158
 7103SOL    HW132771   2.695   0.942   6.180 -0.0216 -0.9050 -0.2991
 7103SOL    HW232772   2.557   1.002   6.199  1.1403  0.1383  0.8515
 7104SOL     OW32773   0.356   2.370  16.138  0.0931  0.1377 -0.6833
 7104SOL    HW132774   0.352   2.311  16.213  1.5984  1.4169  0.3897
 7104SOL    HW232775   0.435   2.422  16.153 -1.0393  1.5038  0.4437
 7105SOL     OW32776   1.505   0.402   9.485 -0.0165 -0.4504  0.3748
 7105SOL    HW132777   1.584   0.446   9.456 -0.6258  1.2109  1.1968
 7105SOL    HW232778   1.450   0.433   9.413 -2.1653 -1.2096  1.6855
 7106SOL     OW32779   2.374   2.969  15.982  0.2602 -0.7702  0.0224
 7106SOL    HW132780   2.417   2.957  15.897  3.3131 -2.0744  1.7399
 7106SOL    HW232781   2.388   2.880  16.014  2.2926 -0.0381  1.2211
 7107SOL     OW32782   1.512   0.564   7.267  0.0963  0.4167 -0.1698
 7107SOL    HW132783   1.555   0.490   7.308 -1.0282 -1.0443 -1.6012
 7107SOL    HW232784   1.496   0.619   7.344  0.5584 -0.2069  0.3664
 7108SOL     OW32785   2.695   4.549   9.536  0.2984 -0.1188  0.0634
 7108SOL    HW132786   2.738   4.463   9.537  0.3965 -0.0574  2.1325
 7108SOL    HW232787   2.732   4.586   9.617  0.7004  0.9907 -0.6352
 7109SOL     OW32788   1.427   3.599   6.454 -0.0451  0.4169 -0.5559
 7109SOL    HW132789   1.414   3.565   6.542  0.6349 -1.2376 -1.0939
 7109SOL    HW232790   1.358   3.666   6.463 -0.6348  0.1312 -2.8478
 7110SOL     OW32791   3.518   4.397   2.743 -0.0443  0.4103 -0.2822
 7110SOL    HW132792   3.492   4.464   2.680  0.4460  0.6393 -0.2368
 7110SOL    HW232793   3.435   4.353   2.761 -0.1220  0.5963 -0.1894
 7111SOL     OW32794   2.440   0.744   3.406 -0.0628 -0.0790 -0.0104
 7111SOL    HW132795   2.479   0.666   3.445  0.4448 -0.9947 -2.3308
 7111SOL    HW232796   2.481   0.818   3.450 -0.2831  1.5497 -2.5449
 7112SOL     OW32797   0.453   0.734   2.633 -0.0981 -0.8075  0.3779
 7112SOL    HW132798   0.533   0.771   2.596  0.5424  0.5306  3.1372
 7112SOL    HW232799   0.425   0.809   2.685 -1.0926 -0.8375 -0.1110
 7113SOL     OW32800   4.396   2.530   5.748  0.1566 -0.4517  0.6738
 7113SOL    HW132801   4.412   2.472   5.674 -0.7180 -2.0078  1.7010
 7113SOL    HW232802   4.417   2.614   5.708 -0.3031  0.2409  1.8995
 7114SOL     OW32803   2.815   1.003   2.153 -0.2707 -0.6105  0.3402
 7114SOL    HW132804   2.808   1.069   2.222  1.4685 -1.1718  1.0516
 7114SOL    HW232805   2.818   0.925   2.209  0.1461 -0.7633  0.1115
 7115SOL     OW32806   0.904   0.529   9.870 -0.4730 -0.5873 -0.5951
 7115SOL    HW132807   0.815   0.494   9.879 -0.3303 -1.0544 -0.9490
 7115SOL    HW232808   0.906   0.599   9.934 -0.3862 -1.1447  0.0136
 7116SOL     OW32809   1.126   4.685   5.514 -0.2378 -0.1514 -0.1455
 7116SOL    HW132810   1.166   0.025   5.570 -2.4445  1.1730 -0.1465
 7116SOL    HW232811   1.054   0.013   5.482 -0.3426 -1.1178 -1.5620
 7117SOL     OW32812   3.171   4.057   7.171  0.8143 -0.2887  0.2137
 7117SOL    HW132813   3.192   4.015   7.254 -0.1130 -0.1914  0.5039
 7117SOL    HW232814   3.109   4.125   7.197  1.3915  0.1341  0.4687
 7118SOL     OW32815   2.758   2.701   9.323  0.2802 -0.0387  0.0791
 7118SOL    HW132816   2.721   2.638   9.386 -1.6609  0.9269 -0.0939
 7118SOL    HW232817   2.846   2.708   9.359  1.4370  1.4933 -3.0571
 7119SOL     OW32818   3.979   0.131   1.251 -0.3345  0.5038 -0.0930
 7119SOL    HW132819   4.014   0.112   1.338  0.9728  2.1553 -0.2450
 7119SOL    HW232820   3.967   0.225   1.267 -1.2695  0.5269 -0.9539
 7120SOL     OW32821   1.887   0.378   8.502  0.2581 -0.3558  0.0475
 7120SOL    HW132822   1.970   0.394   8.457  0.6804 -1.5996  0.3555
 7120SOL    HW232823   1.894   0.290   8.541  2.7908  0.0652  0.5595
 7121SOL     OW32824   2.772   1.113   6.695  0.4968 -0.2856 -0.4901
 7121SOL    HW132825   2.767   1.096   6.789 -0.5066 -2.5312 -0.9397
 7121SOL    HW232826   2.778   1.022   6.665 -1.2399 -0.5227 -0.0966
 7122SOL     OW32827   0.778   2.842   7.531  0.6041  0.1136  0.2266
 7122SOL    HW132828   0.732   2.917   7.493 -1.5468 -0.8180  0.9530
 7122SOL    HW232829   0.803   2.873   7.618 -2.0657  0.2820  0.9452
 7123SOL     OW32830   4.462   2.748  11.140  0.1158  0.2461  0.4685
 7123SOL    HW132831   4.472   2.775  11.231 -1.4956  1.8637  0.1565
 7123SOL    HW232832   4.534   2.684  11.142 -0.6635 -0.6487 -0.0974
 7124SOL     OW32833   3.070   1.439  10.482  0.2390  0.3114 -0.3209
 7124SOL    HW132834   2.997   1.387  10.450 -1.1015  1.7911  0.3282
 7124SOL    HW232835   3.139   1.376  10.460 -1.0171 -0.7145 -1.2718
 7125SOL     OW32836   0.986   3.353   7.036  0.2116 -0.0135  0.0471
 7125SOL    HW132837   0.995   3.335   7.130  0.0193 -0.9445 -0.1134
 7125SOL    HW232838   0.899   3.320   7.014  1.0009 -2.1072  0.0426
 7126SOL     OW32839   3.308   4.282  13.012  0.2877  0.2664 -0.7235
 7126SOL    HW132840   3.329   4.191  13.033 -1.4735  0.0905  0.2601
 7126SOL    HW232841   3.351   4.337  13.078 -1.7556 -1.4292  2.0000
 7127SOL     OW32842   2.641   3.923   7.964  0.2127  1.1707  0.2414
 7127SOL    HW132843   2.660   3.981   7.890  1.7841 -0.4900 -0.6776
 7127SOL    HW232844   2.709   3.962   8.019 -1.5890  2.7309  1.3606
 7128SOL     OW32845   2.528   0.637   8.803 -0.1656 -0.4318 -0.2582
 7128SOL    HW132846   2.509   0.597   8.718  1.8861  2.0953 -1.9230
 7128SOL    HW232847   2.574   0.571   8.855 -0.9160 -1.2652 -0.6636
 7129SOL     OW32848   2.388   0.539  11.935 -0.0037 -0.2315  0.2138
 7129SOL    HW132849   2.384   0.627  11.899 -1.7231 -0.9609 -1.3670
 7129SOL    HW232850   2.312   0.500  11.891  0.7877 -1.1833 -0.3079
 7130SOL     OW32851   2.815   1.982   8.764  0.0685  0.2575 -0.8509
 7130SOL    HW132852   2.726   1.999   8.795  0.6688 -1.6876  1.8981
 7130SOL    HW232853   2.863   2.059   8.796 -0.3940  0.2758 -0.2231
 7131SOL     OW32854   2.407   3.316   4.484  0.6900 -0.3587  0.6674
 7131SOL    HW132855   2.495   3.318   4.523  1.0211 -2.2302  0.0222
 7131SOL    HW232856   2.389   3.409   4.495 -2.1536 -1.0535  1.7044
 7132SOL     OW32857   0.911   3.961  15.909 -0.7702  0.5762 -0.4021
 7132SOL    HW132858   0.985   3.937  15.853  1.8191  3.7363  1.6604
 7132SOL    HW232859   0.937   3.925  15.993 -1.4227  0.8074 -0.1022
 7133SOL     OW32860   2.203   0.160   0.250  0.6042 -0.0584  0.2968
 7133SOL    HW132861   2.182   0.192   0.162 -0.1117 -1.3163  0.0119
 7133SOL    HW232862   2.187   0.240   0.301 -2.3561  0.0093 -0.7856
 7134SOL     OW32863   2.409   3.583  11.349 -0.3026 -0.3336 -0.3955
 7134SOL    HW132864   2.319   3.609  11.330 -0.5431 -0.3321  0.7574
 7134SOL    HW232865   2.394   3.559  11.440 -1.4900  0.8942 -0.2708
 7135SOL     OW32866   0.154   3.062  17.662  0.1657  0.3204  0.3634
 7135SOL    HW132867   0.165   3.027  17.573  2.2986 -0.1655  0.8085
 7135SOL    HW232868   0.140   2.981   0.006  3.6522 -0.6712 -0.2351
 7136SOL     OW32869   3.325   1.926   3.500 -0.7018  0.1091  0.2177
 7136SOL    HW132870   3.327   1.989   3.572 -0.9040 -1.4489  1.5748
 7136SOL    HW232871   3.348   1.840   3.534  0.8558  1.3050  2.2097
 7137SOL     OW32872   2.103   2.201   6.510 -0.8042  0.0369  0.7382
 7137SOL    HW132873   2.143   2.276   6.465 -0.4208 -1.1065 -0.8235
 7137SOL    HW232874   2.154   2.198   6.591 -2.6065 -1.8296  1.8225
 7138SOL     OW32875   2.827   2.182   4.960 -0.5080  0.3999  0.3505
 7138SOL    HW132876   2.836   2.234   5.040  0.6979 -0.0343  0.4924
 7138SOL    HW232877   2.835   2.252   4.896  2.0680  0.3895  0.6788
 7139SOL     OW32878   1.159   4.456   4.017  0.5532 -0.4508  0.0662
 7139SOL    HW132879   1.241   4.459   3.967  0.2380  0.1665 -0.4144
 7139SOL    HW232880   1.151   4.362   4.030  1.4662 -0.3442  1.4798
 7140SOL     OW32881   1.486   3.670   3.971  0.1628  0.2852 -0.1515
 7140SOL    HW132882   1.440   3.715   3.901 -1.8440 -0.3772  0.7256
 7140SOL    HW232883   1.571   3.649   3.933  0.8294 -0.2785  1.6271
 7141SOL     OW32884   3.536   3.399  12.820 -0.0527  0.1805 -0.1128
 7141SOL    HW132885   3.508   3.479  12.774 -1.6985  1.6233  3.3945
 7141SOL    HW232886   3.631   3.407  12.812  0.3794 -3.8763  0.8624
 7142SOL     OW32887   2.490   0.463   7.313  0.5682  0.1542 -0.1672
 7142SOL    HW132888   2.396   0.451   7.302  0.9346 -1.4824 -1.6014
 7142SOL    HW232889   2.518   0.472   7.222 -0.5672 -0.2593 -0.5574
 7143SOL     OW32890   1.159   1.763   2.799 -0.2096  0.6627 -0.0820
 7143SOL    HW132891   1.247   1.789   2.773 -0.2584 -0.3133 -1.2152
 7143SOL    HW232892   1.125   1.847   2.831 -2.5329 -0.1439 -0.4450
 7144SOL     OW32893   0.822   0.046  13.152 -0.2842 -0.4913 -0.0052
 7144SOL    HW132894   0.868   0.130  13.150 -0.1296 -0.5815 -0.3663
 7144SOL    HW232895   0.888   4.720  13.106  0.5735 -0.2173  0.9268
 7145SOL     OW32896   3.386   2.640   1.934 -0.2228  0.2451  0.0003
 7145SOL    HW132897   3.399   2.673   2.023  2.2667  2.1496 -1.0876
 7145SOL    HW232898   3.432   2.556   1.943  0.1070  0.6497  2.1365
 7146SOL     OW32899   4.115   2.071   1.721 -0.2934  0.2569 -0.7071
 7146SOL    HW132900   4.182   2.133   1.751  0.0048 -0.6283  0.4399
 7146SOL    HW232901   4.168   2.004   1.677  0.8733  1.8572 -1.7320
 7147SOL     OW32902   0.161   3.181   9.030  0.1313 -0.0532 -0.8325
 7147SOL    HW132903   0.211   3.214   8.955  1.6134  0.6457  0.4659
 7147SOL    HW232904   0.076   3.161   8.990  1.6776 -0.8586 -3.7049
 7148SOL     OW32905   2.327   4.087  12.497 -0.5972 -0.6591  0.0685
 7148SOL    HW132906   2.268   4.029  12.451  1.1348 -0.0798 -2.8584
 7148SOL    HW232907   2.263   4.096  12.568 -0.9257 -0.9863 -0.1928
 7149SOL     OW32908   4.261   0.974   4.461 -0.6848  0.1729 -0.0290
 7149SOL    HW132909   4.300   0.973   4.374  0.8738 -1.1740  0.6721
 7149SOL    HW232910   4.336   0.949   4.516 -2.0499 -0.2900  1.6164
 7150SOL     OW32911   2.232   0.635   4.320 -0.7517  0.2224  0.4031
 7150SOL    HW132912   2.172   0.652   4.392 -0.8982 -0.9572  0.5624
 7150SOL    HW232913   2.175   0.645   4.244 -1.0717 -0.1738  0.5882
 7151SOL     OW32914   1.840   1.366   9.018  0.0273 -0.2934 -0.2266
 7151SOL    HW132915   1.926   1.337   8.989  0.3084  2.1232 -1.8140
 7151SOL    HW232916   1.858   1.390   9.109 -1.2671 -0.8303  0.1699
 7152SOL     OW32917   0.564   2.119   6.400 -0.8010 -0.3409 -0.6263
 7152SOL    HW132918   0.650   2.079   6.417 -0.8495 -0.0376  0.3375
 7152SOL    HW232919   0.591   2.204   6.434 -0.2454 -0.9311  0.4247
 7153SOL     OW32920   3.855   3.791   6.743 -0.0826 -0.2859 -0.0081
 7153SOL    HW132921   3.776   3.832   6.777  0.2705 -1.5028  2.2790
 7153SOL    HW232922   3.831   3.766   6.654 -1.8048  0.1344  0.3437
 7154SOL     OW32923   0.974   3.675   5.562  0.3625  0.4596 -0.0806
 7154SOL    HW132924   0.936   3.759   5.587 -0.7141  0.0514 -0.3172
 7154SOL    HW232925   1.052   3.702   5.514 -0.5718 -0.4197 -2.1014
 7155SOL     OW32926   3.207   3.704   4.864 -0.1384  0.0427  0.0342
 7155SOL    HW132927   3.153   3.632   4.896  0.2696 -0.0550  0.5089
 7155SOL    HW232928   3.145   3.759   4.817 -1.0329 -1.1941 -0.2188
 7156SOL     OW32929   4.223   4.646   1.861 -0.3644 -0.1096 -0.6455
 7156SOL    HW132930   4.239   4.598   1.942 -2.4756 -1.0543 -0.8134
 7156SOL    HW232931   4.278   4.600   1.797 -2.6381 -2.7644 -0.6652
 7157SOL     OW32932   3.554   3.061  10.255  0.1851 -0.3781  0.2927
 7157SOL    HW132933   3.518   3.047  10.168  1.0720  0.1752 -0.1656
 7157SOL    HW232934   3.632   3.112  10.234  0.5859 -1.7285 -1.5134
 7158SOL     OW32935   4.391   3.315  17.302  0.3560 -0.2791 -0.0260
 7158SOL    HW132936   4.340   3.276  17.232  3.1733 -0.9911 -1.6588
 7158SOL    HW232937   4.426   3.388  17.252  1.2687  0.4273  1.6305
 7159SOL     OW32938   3.336   3.040  16.311 -0.1803 -0.3243 -0.9721
 7159SOL    HW132939   3.286   3.043  16.229  0.1826  3.6831 -1.0568
 7159SOL    HW232940   3.290   2.962  16.344 -0.8681  0.3817 -0.2760
 7160SOL     OW32941   2.323   3.335   2.436  0.2890 -0.3961  0.3217
 7160SOL    HW132942   2.413   3.305   2.452  0.7180  1.3565  1.1409
 7160SOL    HW232943   2.257   3.269   2.458  1.1539 -1.2791  0.3140
 7161SOL     OW32944   1.450   2.746  15.699 -0.9458 -0.0307 -0.3655
 7161SOL    HW132945   1.451   2.837  15.671  1.2411  0.3386  0.9175
 7161SOL    HW232946   1.424   2.702  15.618 -1.3916 -1.3270  0.4803
 7162SOL     OW32947   1.084   0.659  11.917 -0.4328  0.3455 -0.1973
 7162SOL    HW132948   1.139   0.700  11.984 -0.5283  2.3075 -1.3057
 7162SOL    HW232949   1.033   0.601  11.973  2.1283 -0.8066  0.9518
 7163SOL     OW32950   0.148   3.105  16.145  0.4477  0.0015 -0.1475
 7163SOL    HW132951   0.085   3.036  16.166  1.9250 -1.3561 -0.1344
 7163SOL    HW232952   0.105   3.163  16.082  1.6737  1.5291  0.4271
 7164SOL     OW32953   1.587   3.366   4.277  0.0700  0.4261  0.0728
 7164SOL    HW132954   1.635   3.439   4.315  2.2016  0.0908 -2.0057
 7164SOL    HW232955   1.562   3.329   4.362 -0.2949 -1.8005 -0.9926
 7165SOL     OW32956   0.540   1.004  14.939  0.5795  0.3179  0.6430
 7165SOL    HW132957   0.558   0.957  15.020  0.5044 -1.2917 -0.2826
 7165SOL    HW232958   0.534   1.091  14.980 -1.5162  0.6396 -0.3876
 7166SOL     OW32959   1.024   1.794  11.455  0.4568 -0.2321 -0.3624
 7166SOL    HW132960   1.055   1.880  11.427 -0.3723 -0.0754 -0.8134
 7166SOL    HW232961   1.091   1.746  11.407 -0.9957 -1.0143 -1.6100
 7167SOL     OW32962   0.977   1.501   1.937 -0.4499 -0.0858  0.9712
 7167SOL    HW132963   0.934   1.528   1.856 -0.2387 -1.0967  0.5299
 7167SOL    HW232964   0.896   1.471   1.980 -1.6476  0.3154 -1.0239
 7168SOL     OW32965   0.060   3.436   9.670 -0.2119 -0.2419  0.0863
 7168SOL    HW132966   0.075   3.405   9.759  0.0343 -1.0445 -0.2353
 7168SOL    HW232967   4.696   3.463   9.682 -0.6665 -1.8702  0.3561
 7169SOL     OW32968   2.062   1.921   7.855 -0.2916 -0.0887  0.1582
 7169SOL    HW132969   2.081   1.934   7.762 -1.6517  3.9665  0.4377
 7169SOL    HW232970   1.975   1.960   7.867  0.3499  2.2505 -2.8645
 7170SOL     OW32971   2.947   4.133   6.184  0.0012  0.5073  0.0330
 7170SOL    HW132972   2.921   4.225   6.175  0.2084  0.3366 -2.1602
 7170SOL    HW232973   2.871   4.099   6.233 -1.0482  0.9534 -1.2838
 7171SOL     OW32974   0.479   1.449   2.098  0.0072  0.8447 -0.2680
 7171SOL    HW132975   0.415   1.387   2.061  0.7315 -0.0942  0.0469
 7171SOL    HW232976   0.423   1.526   2.110 -1.0364  0.0484 -0.0318
 7172SOL     OW32977   4.111   2.512   8.882  0.0359 -0.2361  0.1871
 7172SOL    HW132978   4.126   2.487   8.973  1.0435 -0.8245 -0.1490
 7172SOL    HW232979   4.034   2.459   8.861  1.7346 -2.3918 -0.5298
 7173SOL     OW32980   1.435   1.282   7.802  0.2204  0.1519 -0.5480
 7173SOL    HW132981   1.441   1.365   7.850 -0.5217  0.7557 -1.4990
 7173SOL    HW232982   1.467   1.309   7.716 -0.4861  2.1647 -0.1884
 7174SOL     OW32983   2.516   2.889   1.286 -0.5009  0.0754 -0.4908
 7174SOL    HW132984   2.434   2.842   1.275 -0.9536  0.6237  0.4705
 7174SOL    HW232985   2.535   2.865   1.377 -0.3959  2.4615  0.1292
 7175SOL     OW32986   4.635   2.689  14.220 -0.7432 -0.5660  0.0011
 7175SOL    HW132987   4.688   2.766  14.203 -1.2968  0.2937  2.0677
 7175SOL    HW232988   4.665   2.680  14.311  0.3465 -2.3212 -0.5513
 7176SOL     OW32989   0.520   4.292   5.749  0.4158  0.3165 -0.2782
 7176SOL    HW132990   0.470   4.212   5.762  0.6116 -0.0353 -1.6293
 7176SOL    HW232991   0.543   4.304   5.841  1.5023  0.3492 -0.5567
 7177SOL     OW32992   3.047   1.145  12.463  0.5594  0.3879 -0.0326
 7177SOL    HW132993   3.084   1.184  12.542 -0.0185  1.1439 -0.1313
 7177SOL    HW232994   3.122   1.118  12.411  0.2887  1.6826 -1.0928
 7178SOL     OW32995   2.724   2.718  12.601 -0.4402 -0.1130  0.9549
 7178SOL    HW132996   2.809   2.762  12.606 -0.2435 -0.0491 -3.4483
 7178SOL    HW232997   2.659   2.788  12.599 -1.8980 -1.5331 -1.0395
 7179SOL     OW32998   0.291   1.433   6.650 -0.4815  0.3942  0.1174
 7179SOL    HW132999   0.354   1.505   6.656  0.0015 -0.1115  1.0721
 7179SOL    HW233000   0.235   1.461   6.577  1.0022 -0.1612 -1.2341
 7180SOL     OW33001   2.454   1.727  13.386  0.8027  0.4027  0.3314
 7180SOL    HW133002   2.383   1.730  13.321  0.7187 -2.0001  0.3212
 7180SOL    HW233003   2.523   1.767  13.334 -0.6995  2.8120  0.1966
 7181SOL     OW33004   3.173   1.708   7.582  0.6728 -0.3586 -0.1643
 7181SOL    HW133005   3.116   1.634   7.560  0.5236 -1.1889  3.0111
 7181SOL    HW233006   3.219   1.682   7.661 -0.3428  0.9042  0.8249
 7182SOL     OW33007   3.243   3.838   3.747  0.3290 -0.0987  0.1120
 7182SOL    HW133008   3.313   3.789   3.703 -0.2530 -1.0801  0.2804
 7182SOL    HW233009   3.232   3.905   3.680  1.4862  0.1540  0.1845
 7183SOL     OW33010   2.071   4.573   5.962 -0.2077  0.2577  0.3101
 7183SOL    HW133011   2.020   4.622   6.026  0.4803  1.2135  0.1317
 7183SOL    HW233012   2.064   4.481   5.988 -0.8973  0.8322  2.2124
 7184SOL     OW33013   4.020   1.023   5.590 -0.1423 -0.2544 -0.7974
 7184SOL    HW133014   3.999   0.990   5.503 -1.1610  0.0207 -0.6481
 7184SOL    HW233015   3.950   0.978   5.637  2.9172 -3.5975  0.5509
 7185SOL     OW33016   4.718   4.407   5.041 -0.5097 -0.2037  0.1277
 7185SOL    HW133017   4.694   4.465   4.969 -1.7091  0.2783  0.9147
 7185SOL    HW233018   4.630   4.399   5.078  0.1619 -0.5107  1.6436
 7186SOL     OW33019   3.365   2.700   3.935 -0.1149  0.1829  0.2144
 7186SOL    HW133020   3.341   2.610   3.957  0.5254 -0.0985 -0.2368
 7186SOL    HW233021   3.410   2.695   3.851 -0.1812 -4.2752  0.4472
 7187SOL     OW33022   4.035   4.035   7.614 -0.1339  0.6129  0.0690
 7187SOL    HW133023   4.046   4.047   7.520 -0.7946 -0.2770 -0.1247
 7187SOL    HW233024   4.102   3.969   7.632  0.0950  1.1595  1.2321
 7188SOL     OW33025   3.053   2.691   8.560 -0.3846 -0.3087  0.0088
 7188SOL    HW133026   2.972   2.673   8.607 -1.1744  0.4693 -1.0715
 7188SOL    HW233027   3.112   2.703   8.634  0.7457  0.5082 -1.0266
 7189SOL     OW33028   2.523   3.859   5.224 -0.0581 -0.4630 -0.1182
 7189SOL    HW133029   2.477   3.778   5.203  1.1581 -2.1789  3.8273
 7189SOL    HW233030   2.494   3.876   5.314 -2.9493  0.1908 -1.2032
 7190SOL     OW33031   2.277   1.061   2.622 -0.2447  0.1335  0.2784
 7190SOL    HW133032   2.354   1.015   2.588 -2.2795 -4.0653  1.2505
 7190SOL    HW233033   2.300   1.145   2.584 -1.6792  0.2344 -0.3650
 7191SOL     OW33034   3.220   1.359   3.522 -0.2586 -0.2189 -0.6487
 7191SOL    HW133035   3.140   1.362   3.469 -0.9819 -0.3288  0.4444
 7191SOL    HW233036   3.290   1.347   3.458 -0.6062  3.6414 -1.7865
 7192SOL     OW33037   1.650   1.393  16.698  0.0259  0.4241  0.8492
 7192SOL    HW133038   1.673   1.471  16.648  0.1181 -0.0159  0.1994
 7192SOL    HW233039   1.565   1.416  16.736 -0.7481 -1.3473  0.2195
 7193SOL     OW33040   3.248   4.487   0.430 -0.1973  0.6196  0.2636
 7193SOL    HW133041   3.318   4.480   0.365  0.1459  2.2207  0.4868
 7193SOL    HW233042   3.245   4.582   0.436 -0.1376  0.8646 -3.6046
 7194SOL     OW33043   3.968   4.570   2.398  0.5652  0.2315  0.1644
 7194SOL    HW133044   3.926   4.500   2.348 -0.8677  0.6144  0.8222
 7194SOL    HW233045   3.893   4.625   2.422 -0.3623 -0.7258 -0.5290
 7195SOL     OW33046   4.143   0.728   5.236 -0.3748 -0.3352 -0.5976
 7195SOL    HW133047   4.181   0.662   5.178  0.5832  0.7431 -1.2085
 7195SOL    HW233048   4.097   0.776   5.168 -1.3506 -0.4927 -0.0409
 7196SOL     OW33049   3.783   0.666   6.953 -0.0174  0.0468 -0.3475
 7196SOL    HW133050   3.803   0.616   7.032 -2.0534  0.0659  0.1820
 7196SOL    HW233051   3.872   0.685   6.924  0.1038  0.2256  0.1306
 7197SOL     OW33052   0.825   0.206  14.238  0.7181 -0.1130 -0.4980
 7197SOL    HW133053   0.836   0.253  14.155  4.0761 -1.2427 -0.6859
 7197SOL    HW233054   0.732   0.212  14.259  0.8374  0.1875 -0.0523
 7198SOL     OW33055   2.533   4.214  12.350 -0.1011 -0.3134 -0.0245
 7198SOL    HW133056   2.483   4.151  12.402 -1.2743 -0.3663 -1.2140
 7198SOL    HW233057   2.485   4.202  12.268 -0.7733 -1.1066  0.4809
 7199SOL     OW33058   0.630   3.647   3.237  0.4906  0.1463  0.4526
 7199SOL    HW133059   0.652   3.738   3.260 -1.4965  0.8873 -0.5617
 7199SOL    HW233060   0.541   3.666   3.210  0.8739  0.2263 -0.7371
 7200SOL     OW33061   1.818   3.338   9.079  0.2942  0.4479  0.0837
 7200SOL    HW133062   1.739   3.364   9.126  0.1260  0.4068 -0.1815
 7200SOL    HW233063   1.802   3.327   8.986 -1.8785 -0.4933  0.5597
 7201SOL     OW33064   0.772   0.576  13.303  0.2582  0.4256  0.2351
 7201SOL    HW133065   0.816   0.612  13.227  0.8059  0.4168  0.5478
 7201SOL    HW233066   0.839   0.511  13.326 -0.6470 -1.1625 -1.6684
 7202SOL     OW33067   1.404   2.697   6.906 -0.1767 -0.2355 -0.1692
 7202SOL    HW133068   1.470   2.678   6.840 -0.0339  0.4056 -0.2088
 7202SOL    HW233069   1.325   2.667   6.860  0.1027  0.8546 -1.3665
 7203SOL     OW33070   4.692   2.782   7.443  0.0656  0.4373  0.0972
 7203SOL    HW133071   4.652   2.810   7.361 -0.8050 -0.7855  0.1156
 7203SOL    HW233072   4.659   2.694   7.461  2.6763 -0.3542  0.9907
 7204SOL     OW33073   0.451   4.646   0.231  0.1610 -0.0924 -0.1390
 7204SOL    HW133074   0.396   4.669   0.157  0.8763 -3.9430 -1.8965
 7204SOL    HW233075   0.403   4.693   0.299  0.5231  0.9466 -0.5977
 7205SOL     OW33076   0.320   0.220   4.252  0.3267 -0.3323  0.6923
 7205SOL    HW133077   0.306   0.277   4.176  2.9016  0.0528  0.5128
 7205SOL    HW233078   0.260   0.258   4.317 -0.6340  0.8546 -0.8747
 7206SOL     OW33079   1.853   4.505  11.258 -0.3314  0.3792 -0.3732
 7206SOL    HW133080   1.850   4.594  11.223  1.5658  0.2745 -0.8326
 7206SOL    HW233081   1.808   4.524  11.340 -2.1730 -1.1810 -1.0087
 7207SOL     OW33082   4.184   2.745  11.042  0.6516 -0.5349  0.1977
 7207SOL    HW133083   4.149   2.729  11.129 -1.2490  0.1732 -0.4391
 7207SOL    HW233084   4.275   2.761  11.064  0.8027  1.7882 -2.1251
 7208SOL     OW33085   3.841   2.788   9.438  0.5431 -0.3762 -0.0093
 7208SOL    HW133086   3.841   2.712   9.496 -0.5360  0.2598  0.8032
 7208SOL    HW233087   3.802   2.858   9.491 -0.9348 -1.1179 -0.1326
 7209SOL     OW33088   3.954   3.083   6.445  0.3185  0.2874 -0.5904
 7209SOL    HW133089   3.956   3.122   6.358  1.1182  1.0313 -0.2484
 7209SOL    HW233090   3.921   3.153   6.503  2.2522  0.2179  0.6222
 7210SOL     OW33091   2.284   2.010   5.433  0.2944  0.0080 -0.4201
 7210SOL    HW133092   2.320   1.921   5.428 -0.1090 -0.2301  0.7390
 7210SOL    HW233093   2.333   2.058   5.367 -1.2214 -0.0025 -1.5509
 7211SOL     OW33094   4.020   0.097  14.560  0.4919 -0.0566 -0.0375
 7211SOL    HW133095   4.008   0.166  14.495  0.9311 -1.4496 -1.5957
 7211SOL    HW233096   3.960   0.138  14.623  2.0017 -1.3176  2.2022
 7212SOL     OW33097   0.620   4.682  17.395 -0.1149  0.4194 -0.2261
 7212SOL    HW133098   0.647   0.047  17.407  2.4594 -0.1384 -1.6863
 7212SOL    HW233099   0.699   4.648  17.353 -1.1318 -0.7153 -1.2186
 7213SOL     OW33100   3.205   2.880   3.245  0.2521  0.2145  0.0099
 7213SOL    HW133101   3.145   2.806   3.235  1.0567 -0.0066 -3.2639
 7213SOL    HW233102   3.149   2.957   3.233 -0.7696 -0.2197  1.9572
 7214SOL     OW33103   1.296   2.509   7.690 -0.1518  0.4412  0.4563
 7214SOL    HW133104   1.340   2.425   7.699  1.6623  1.4775  1.3671
 7214SOL    HW233105   1.225   2.488   7.750  0.4889  0.0188  1.0686
 7215SOL     OW33106   4.603   4.700   7.295 -0.0256 -0.0863  0.3273
 7215SOL    HW133107   4.649   4.718   7.213 -0.8420  0.4490 -0.0135
 7215SOL    HW233108   4.512   4.714   7.270  0.4674  0.3105 -1.2697
 7216SOL     OW33109   0.110   4.667   9.314 -0.2660 -0.5238 -0.1465
 7216SOL    HW133110   0.050   0.014   9.324  0.7320  0.1062  1.2545
 7216SOL    HW233111   0.195   4.711   9.325 -1.3079  1.5691 -0.5368
 7217SOL     OW33112   0.205   3.591   3.384  0.1128 -0.6239 -0.0722
 7217SOL    HW133113   0.154   3.619   3.461 -1.6830 -1.2351 -1.0366
 7217SOL    HW233114   0.199   3.497   3.399  0.5159 -0.5564  0.5331
 7218SOL     OW33115   4.539   3.694   6.371  0.8787  0.6191 -0.0751
 7218SOL    HW133116   4.455   3.740   6.372  1.3007  1.3314  1.6227
 7218SOL    HW233117   4.530   3.616   6.426  0.7164  1.1775  0.6921
 7219SOL     OW33118   2.518   0.556   9.409  0.2926 -0.0601 -0.1447
 7219SOL    HW133119   2.463   0.567   9.331  1.2618  2.3572 -0.4837
 7219SOL    HW233120   2.460   0.502   9.462  2.2925 -2.3521 -0.2920
 7220SOL     OW33121   3.030   1.080  16.872 -0.5332  0.0280 -0.0946
 7220SOL    HW133122   3.056   0.995  16.907  0.7340  0.7413  0.6843
 7220SOL    HW233123   3.099   1.096  16.806 -1.3544  0.2933 -0.8936
 7221SOL     OW33124   1.999   4.271   4.698  0.6033 -0.2546 -0.2197
 7221SOL    HW133125   1.975   4.275   4.606  2.4573 -0.3839 -0.7097
 7221SOL    HW233126   2.032   4.357   4.726  0.5253  0.2229 -1.6119
 7222SOL     OW33127   3.448   1.315   5.851 -0.5374  0.2525  0.4971
 7222SOL    HW133128   3.434   1.305   5.757 -0.7491 -0.1049  0.5638
 7222SOL    HW233129   3.537   1.280   5.860  0.1960  2.6017  2.3829
 7223SOL     OW33130   3.368   4.220   0.204  0.2500 -0.0965 -0.5419
 7223SOL    HW133131   3.383   4.301   0.253  0.5328 -0.7547  0.4713
 7223SOL    HW233132   3.432   4.219   0.134  0.2808 -1.4722 -0.5027
 7224SOL     OW33133   1.717   1.080  11.579  0.1597 -0.0250  0.0273
 7224SOL    HW133134   1.653   1.025  11.625 -0.9647 -1.8218 -3.6357
 7224SOL    HW233135   1.681   1.060  11.492  0.9149 -0.8452 -0.0943
 7225SOL     OW33136   1.376   0.872   7.251 -0.5555  0.0457  0.0928
 7225SOL    HW133137   1.303   0.811   7.248  0.1883 -0.7545 -2.1749
 7225SOL    HW233138   1.410   0.848   7.337 -2.5641  0.6931  1.0623
 7226SOL     OW33139   1.161   3.850   7.353 -0.0128 -0.4966 -0.2643
 7226SOL    HW133140   1.200   3.862   7.439  1.5395  1.7740 -1.2955
 7226SOL    HW233141   1.144   3.756   7.354  0.4591 -0.5703  0.4715
 7227SOL     OW33142   1.213   4.396   7.278 -0.4478 -0.7265 -0.1006
 7227SOL    HW133143   1.281   4.457   7.307 -1.8027  0.4361  0.6016
 7227SOL    HW233144   1.144   4.400   7.344 -0.4262  1.3041 -0.2168
 7228SOL     OW33145   3.454   0.927  13.181  0.4407 -0.1098 -0.2465
 7228SOL    HW133146   3.490   0.869  13.114 -1.7521 -1.8694  0.0811
 7228SOL    HW233147   3.407   0.989  13.125  0.2902 -0.7175 -0.7913
 7229SOL     OW33148   4.507   4.153   6.477 -0.3014 -0.0552 -0.5946
 7229SOL    HW133149   4.466   4.230   6.515 -2.8478 -1.8172  0.2415
 7229SOL    HW233150   4.575   4.131   6.541  0.7420  0.9778 -1.3501
 7230SOL     OW33151   4.270   4.563   3.334 -0.4707  0.5861 -0.0914
 7230SOL    HW133152   4.192   4.586   3.285 -1.4297 -0.1289  1.1027
 7230SOL    HW233153   4.293   4.482   3.288 -0.9032  0.5628 -0.2644
 7231SOL     OW33154   2.879   1.024  15.441 -0.2619  0.3604  0.0780
 7231SOL    HW133155   2.932   1.098  15.414 -0.7422  0.1930 -1.3019
 7231SOL    HW233156   2.811   1.020  15.374 -1.3366 -0.6564  1.2298
 7232SOL     OW33157   1.210   4.426   7.018 -0.1422  0.1665 -0.2167
 7232SOL    HW133158   1.118   4.399   7.029 -0.5316  2.0046  1.0398
 7232SOL    HW233159   1.236   4.403   7.107 -1.2219  0.5676  0.2087
 7233SOL     OW33160   3.953   3.403   2.717  0.2535 -0.0935 -0.3163
 7233SOL    HW133161   3.974   3.490   2.684 -1.1147  1.0564  1.7915
 7233SOL    HW233162   3.859   3.394   2.699  0.4088 -1.7679 -0.3558
 7234SOL     OW33163   0.423   1.883   2.398 -0.1602  0.1027 -0.4567
 7234SOL    HW133164   0.337   1.876   2.441  0.1061  1.7539  0.3435
 7234SOL    HW233165   0.465   1.957   2.441  3.1058 -1.4672 -0.9186
 7235SOL     OW33166   1.624   2.248   0.289  0.4366  0.3439 -0.0976
 7235SOL    HW133167   1.623   2.339   0.258  1.1529  0.3012 -0.2366
 7235SOL    HW233168   1.530   2.233   0.302  0.7417  0.2265  2.0190
 7236SOL     OW33169   0.557   3.439   8.348  0.2063 -0.1918  0.0806
 7236SOL    HW133170   0.628   3.469   8.404  0.0826  1.2602 -0.5476
 7236SOL    HW233171   0.487   3.479   8.400 -0.5307  0.0818 -1.1099
 7237SOL     OW33172   1.976   4.644   2.328 -0.4004  0.5660 -0.1469
 7237SOL    HW133173   2.027   4.658   2.408 -0.4807  0.3279 -0.0569
 7237SOL    HW233174   2.037   4.644   2.254 -2.5760  1.0944 -1.9048
 7238SOL     OW33175   4.204   3.652   3.987 -0.2847 -0.6907  0.5876
 7238SOL    HW133176   4.172   3.615   3.904 -2.0954  3.2486 -0.5158
 7238SOL    HW233177   4.116   3.672   4.019 -0.1554 -0.6223  0.8955
 7239SOL     OW33178   2.901   0.011  13.572 -0.1624 -0.1068 -0.2340
 7239SOL    HW133179   2.952   4.657  13.570 -0.2584 -0.2086  1.2541
 7239SOL    HW233180   2.911   0.034  13.664 -1.5449  0.3379 -0.1863
 7240SOL     OW33181   3.462   3.651  11.354  0.3056 -0.1391 -0.0861
 7240SOL    HW133182   3.507   3.726  11.316  0.3050  0.2270  0.6360
 7240SOL    HW233183   3.477   3.659  11.448  2.7762 -2.5674 -0.2719
 7241SOL     OW33184   4.012   3.863  11.067 -0.1873  0.7405  0.0634
 7241SOL    HW133185   3.948   3.800  11.100 -1.2490  0.5171 -2.4434
 7241SOL    HW233186   4.038   3.823  10.984 -0.4380  2.4452 -0.8440
 7242SOL     OW33187   3.888   4.562   8.616  0.3605  0.2127  0.3424
 7242SOL    HW133188   3.907   4.656   8.625 -0.5950  0.2408  2.0346
 7242SOL    HW233189   3.829   4.562   8.691 -0.1266 -0.1898 -0.0431
 7243SOL     OW33190   0.386   3.333   3.736 -0.2304  0.2036  0.3918
 7243SOL    HW133191   0.453   3.334   3.804  2.3369  0.2814 -2.1203
 7243SOL    HW233192   0.413   3.264   3.675  3.6688  0.4275  1.9251
 7244SOL     OW33193   2.111   4.406  12.133  0.2010  0.1161 -0.4230
 7244SOL    HW133194   2.152   4.399  12.047  0.2251 -1.6559 -0.2496
 7244SOL    HW233195   2.090   4.317  12.161  2.7293  0.2699  1.9383
 7245SOL     OW33196   0.168   4.298   3.833  0.9052  0.1873  0.8376
 7245SOL    HW133197   0.119   4.272   3.912 -2.3345 -0.0637 -1.2693
 7245SOL    HW233198   0.252   4.316   3.876  2.0508  0.8283 -1.7146
 7246SOL     OW33199   1.960   1.865  12.035  0.1500 -0.2617 -0.2632
 7246SOL    HW133200   1.962   1.813  12.115 -1.7333 -2.0717 -1.3665
 7246SOL    HW233201   1.864   1.862  12.026  0.1686  0.4050 -0.6882
 7247SOL     OW33202   2.795   1.854   8.023 -0.3527  0.4516 -0.2785
 7247SOL    HW133203   2.711   1.900   8.025 -0.9100 -0.5568 -0.4578
 7247SOL    HW233204   2.810   1.858   8.117  1.4092  4.2901 -0.7318
 7248SOL     OW33205   1.436   1.820   4.670  0.2222  0.1604 -0.0023
 7248SOL    HW133206   1.485   1.802   4.750 -3.3479 -0.5304  2.0169
 7248SOL    HW233207   1.358   1.864   4.702 -0.5521 -1.2546  0.0412
 7249SOL     OW33208   3.188   4.499   7.713 -0.3415  0.0724 -0.2948
 7249SOL    HW133209   3.269   4.522   7.757  0.1545 -2.1724 -0.0112
 7249SOL    HW233210   3.118   4.521   7.775 -0.4440 -1.5671  0.1657
 7250SOL     OW33211   2.952   2.444   1.437 -0.2788 -0.1856 -0.2522
 7250SOL    HW133212   2.877   2.503   1.434 -1.2528 -1.3997  0.0519
 7250SOL    HW233213   3.028   2.501   1.424 -1.0382  0.7165 -0.7230
 7251SOL     OW33214   2.703   2.626  11.982  0.0636  0.2682 -0.1386
 7251SOL    HW133215   2.769   2.653  12.046  0.9574 -1.6325 -0.2565
 7251SOL    HW233216   2.690   2.536  12.010  0.8070 -0.3658 -1.9067
 7252SOL     OW33217   0.429   2.312   8.161  0.1650 -0.5334 -0.4261
 7252SOL    HW133218   0.398   2.246   8.222 -1.7625 -0.8887 -1.8007
 7252SOL    HW233219   0.507   2.342   8.208 -0.2177  0.0687 -0.1658
 7253SOL     OW33220   3.350   4.292  14.389 -0.0407  0.3390  0.3273
 7253SOL    HW133221   3.337   4.268  14.297 -0.8471  1.2313  0.2144
 7253SOL    HW233222   3.272   4.343  14.407  0.4875  1.7038 -1.2051
 7254SOL     OW33223   3.621   3.946  16.623 -0.2326  0.0774 -0.0843
 7254SOL    HW133224   3.598   3.868  16.572  1.1649  0.6469 -1.5751
 7254SOL    HW233225   3.692   3.970  16.564  1.0489 -2.7933  0.2895
 7255SOL     OW33226   2.694   4.254  11.215  0.7787 -0.1713  0.2515
 7255SOL    HW133227   2.640   4.203  11.275 -1.5989  0.6715 -1.1478
 7255SOL    HW233228   2.695   4.198  11.137 -2.0205 -0.0931  0.1453
 7256SOL     OW33229   4.207   0.882   7.694 -0.4999 -0.2875 -0.6699
 7256SOL    HW133230   4.238   0.955   7.641  0.3638  0.2539  0.5605
 7256SOL    HW233231   4.239   0.810   7.640 -2.9985 -1.5276 -0.4884
 7257SOL     OW33232   1.688   4.596   4.138 -0.4038  0.5449  0.8824
 7257SOL    HW133233   1.714   4.509   4.168 -2.0676 -0.6986 -1.3069
 7257SOL    HW233234   1.769   4.629   4.177  0.7185 -0.0987 -0.9225
 7258SOL     OW33235   3.890   3.654   4.902  0.5216  0.1331 -0.0983
 7258SOL    HW133236   3.951   3.585   4.876 -0.1131 -0.8080  0.8962
 7258SOL    HW233237   3.946   3.729   4.920  1.2015 -0.1923 -0.8860
 7259SOL     OW33238   3.744   3.434   6.234 -0.5784  0.5033  0.0296
 7259SOL    HW133239   3.702   3.352   6.259 -2.5913  1.0337 -1.6326
 7259SOL    HW233240   3.722   3.442   6.141  0.4437  1.1848 -0.1596
 7260SOL     OW33241   4.226   4.038   6.719  0.2409 -0.4349 -0.1653
 7260SOL    HW133242   4.256   4.054   6.809  2.6304 -0.9135 -0.9040
 7260SOL    HW233243   4.200   4.125   6.689  0.9688  0.2121  1.0877
 7261SOL     OW33244   4.598   3.139  10.223  0.2474  0.0276 -0.0008
 7261SOL    HW133245   4.534   3.126  10.294  2.2406 -0.3584  1.7028
 7261SOL    HW233246   4.647   3.057  10.223  1.1918  0.6052 -0.5462
 7262SOL     OW33247   0.748   1.838  17.469  0.0500  0.8633  0.2500
 7262SOL    HW133248   0.663   1.812  17.434  1.0842 -2.3788  0.1134
 7262SOL    HW233249   0.757   1.913  17.411 -0.1377  0.1356 -0.7290
 7263SOL     OW33250   3.459   4.231   4.866 -0.6160  0.3051  0.0460
 7263SOL    HW133251   3.538   4.286   4.874 -0.6587  0.4509 -0.5556
 7263SOL    HW233252   3.471   4.153   4.920 -0.4919  1.0427  1.1064
 7264SOL     OW33253   2.299   3.044   6.858  0.1466 -0.3314  0.0203
 7264SOL    HW133254   2.227   2.987   6.888  0.1918 -0.3207  0.1493
 7264SOL    HW233255   2.247   3.117   6.826  0.6618  0.3115  0.6625
 7265SOL     OW33256   1.268   1.073   4.607 -0.0801  0.2242 -0.1587
 7265SOL    HW133257   1.176   1.072   4.632 -0.0861 -1.6100 -0.2664
 7265SOL    HW233258   1.307   1.001   4.657 -1.1227 -0.3606 -0.1817
 7266SOL     OW33259   1.046   3.422   0.287 -0.4372  0.0638  0.2418
 7266SOL    HW133260   1.025   3.329   0.278  2.5361 -0.8619  2.9917
 7266SOL    HW233261   0.992   3.447   0.361  0.6479 -0.9789  1.3924
 7267SOL     OW33262   2.818   1.844   5.446 -0.0516 -0.5539  0.4198
 7267SOL    HW133263   2.794   1.787   5.373 -1.2052  0.4598  0.0143
 7267SOL    HW233264   2.773   1.817   5.527 -0.0761 -0.2679  0.5009
 7268SOL     OW33265   3.345   1.320   1.366  0.3308  0.2536  0.2789
 7268SOL    HW133266   3.382   1.301   1.451  0.2943 -0.7134  0.0743
 7268SOL    HW233267   3.262   1.275   1.382 -0.4775  1.6891  0.1967
 7269SOL     OW33268   1.035   2.302  11.124 -0.1773  1.0976  0.2451
 7269SOL    HW133269   1.030   2.397  11.112 -0.8070  1.0034 -0.2561
 7269SOL    HW233270   1.071   2.304  11.213 -0.9737 -0.2178  0.5981
 7270SOL     OW33271   3.254   1.643   5.959 -0.0655  0.1519 -0.4142
 7270SOL    HW133272   3.191   1.710   5.933 -0.1827  1.1459  2.4240
 7270SOL    HW233273   3.305   1.696   6.021 -0.1778 -1.5416  1.0987
 7271SOL     OW33274   1.753   2.351   5.646 -0.3341  0.0785 -0.8567
 7271SOL    HW133275   1.778   2.337   5.737  0.6891  0.5161 -1.0653
 7271SOL    HW233276   1.827   2.396   5.604  1.0722  0.2107  1.8139
 7272SOL     OW33277   1.040   3.256   1.355 -0.3435 -0.2081  0.3967
 7272SOL    HW133278   0.987   3.329   1.386 -2.2862 -0.8094 -1.4940
 7272SOL    HW233279   0.968   3.210   1.311  0.4184 -1.3981  0.4057
 7273SOL     OW33280   4.666   1.150   3.117  0.2902 -0.4119  0.4806
 7273SOL    HW133281   4.687   1.210   3.045 -1.7229 -1.6800 -1.1510
 7273SOL    HW233282   4.573   1.169   3.109  0.7519  1.1650 -1.3003
 7274SOL     OW33283   0.158   3.594   0.613 -0.1124  0.7234  0.2337
 7274SOL    HW133284   0.125   3.674   0.654  1.1531  0.7016  1.2921
 7274SOL    HW233285   0.242   3.590   0.660  1.3628  3.6725 -2.1625
 7275SOL     OW33286   2.641   1.900  13.602  0.2074  0.1644  0.3071
 7275SOL    HW133287   2.699   1.950  13.544 -0.1161  1.4900  1.1095
 7275SOL    HW233288   2.643   1.810  13.570  1.4025  0.4007 -0.2917
 7276SOL     OW33289   1.034   0.507   7.125  0.4200 -0.2534 -0.3665
 7276SOL    HW133290   0.939   0.501   7.114  0.4108  1.1466 -1.0250
 7276SOL    HW233291   1.061   0.519   7.034  3.5535  0.2596  0.6522
 7277SOL     OW33292   3.679   0.047   7.719 -0.1228  0.0967 -0.2167
 7277SOL    HW133293   3.589   0.079   7.721 -0.5855 -1.2787  0.8717
 7277SOL    HW233294   3.700   0.010   7.805  6.1486  0.4187 -1.6329
 7278SOL     OW33295   2.727   3.988   0.615  0.0597  0.3482  0.0786
 7278SOL    HW133296   2.715   4.081   0.635  0.5797  0.0773  1.6711
 7278SOL    HW233297   2.776   3.997   0.534 -1.0734  2.0373 -0.4175
 7279SOL     OW33298   3.613   0.475   7.157 -0.6415  0.1861  0.3010
 7279SOL    HW133299   3.704   0.496   7.178 -1.3356  2.4337  1.0504
 7279SOL    HW233300   3.628   0.395   7.107  0.2901  0.9230 -0.5992
 7280SOL     OW33301   1.445   1.594   8.889  0.1217 -0.0759  0.2021
 7280SOL    HW133302   1.409   1.663   8.833  0.9109  0.1786  0.0141
 7280SOL    HW233303   1.532   1.630   8.907 -1.4419  4.1279 -0.4834
 7281SOL     OW33304   4.629   1.733   9.076  0.3722 -0.1857 -0.0823
 7281SOL    HW133305   4.553   1.782   9.109  1.1855  0.4805  0.7967
 7281SOL    HW233306   4.648   1.681   9.154  1.5992  1.6709  0.8600
 7282SOL     OW33307   0.512   0.645  15.641 -0.2678  0.2835 -0.5260
 7282SOL    HW133308   0.482   0.555  15.630  2.1792 -0.4043 -1.5282
 7282SOL    HW233309   0.429   0.687  15.616 -1.2877 -1.6602 -0.3778
 7283SOL     OW33310   2.168   0.046   1.159 -0.0680 -0.3106 -0.5473
 7283SOL    HW133311   2.083   0.069   1.196  0.8848 -2.0071  2.7018
 7283SOL    HW233312   2.177   4.687   1.200  0.3410  0.5437  1.1378
 7284SOL     OW33313   3.087   1.696  10.357  0.1719  0.4490 -0.0801
 7284SOL    HW133314   3.071   1.622  10.416 -0.1234  2.4097  2.3180
 7284SOL    HW233315   3.134   1.752  10.419  0.0690 -1.8350  2.0864
 7285SOL     OW33316   3.774   4.522  15.744  0.2828 -0.2794 -0.4503
 7285SOL    HW133317   3.809   4.601  15.703 -0.1995  1.3602  2.2968
 7285SOL    HW233318   3.840   4.495  15.808  1.0404  0.6422 -0.8427
 7286SOL     OW33319   0.962   4.052  13.918  0.0809  0.0835  0.1143
 7286SOL    HW133320   0.923   3.973  13.881 -1.1132  0.3799  0.7540
 7286SOL    HW233321   0.883   4.100  13.943 -0.3810  0.1634 -1.5333
 7287SOL     OW33322   3.508   1.398  15.053 -0.1578  0.1464  0.8453
 7287SOL    HW133323   3.456   1.424  14.977 -1.3855 -1.2422  1.2237
 7287SOL    HW233324   3.586   1.454  15.052 -0.5549  0.7607  2.6112
 7288SOL     OW33325   2.092   2.305   5.978  0.3579 -0.0457  0.0472
 7288SOL    HW133326   2.006   2.311   5.935  1.6957  0.0526 -2.6314
 7288SOL    HW233327   2.071   2.351   6.059  1.6351  1.5258 -0.5141
 7289SOL     OW33328   1.160   2.115   0.743  0.1400  0.4579  0.1414
 7289SOL    HW133329   1.208   2.140   0.665 -0.8015  3.8847  0.6513
 7289SOL    HW233330   1.171   2.197   0.792 -0.9752  0.2361  0.7752
 7290SOL     OW33331   2.884   4.574   0.125  0.1816 -0.3383  0.1015
 7290SOL    HW133332   2.882   4.581   0.221 -0.2383 -0.4538  0.1007
 7290SOL    HW233333   2.948   4.504   0.114  0.1083 -0.5989  1.3163
 7291SOL     OW33334   1.644   2.903   7.188 -0.0570  0.1313  0.1096
 7291SOL    HW133335   1.702   2.965   7.143 -1.0859  0.5025 -0.7149
 7291SOL    HW233336   1.702   2.828   7.186 -0.3969 -0.1383  0.5087
 7292SOL     OW33337   0.219   0.124  17.475  0.0632  0.5109 -0.3281
 7292SOL    HW133338   0.271   0.071  17.415 -0.5907 -1.9181  1.2858
 7292SOL    HW233339   0.224   0.207  17.428  0.1642  0.6661 -0.0469
 7293SOL     OW33340   3.480   3.804   0.401 -0.3439 -0.0599  0.4191
 7293SOL    HW133341   3.486   3.847   0.315  1.2381  2.3583  1.7275
 7293SOL    HW233342   3.398   3.842   0.430  1.3712  2.9380  1.3579
 7294SOL     OW33343   2.053   2.323  11.197 -0.2364 -0.5191 -0.5940
 7294SOL    HW133344   2.013   2.370  11.269 -1.3899 -0.2700 -1.4025
 7294SOL    HW233345   2.126   2.277  11.239 -0.0881  0.3434  0.0898
 7295SOL     OW33346   3.869   1.989   7.267  0.2751 -0.2700  0.7547
 7295SOL    HW133347   3.839   1.917   7.211 -0.5086 -0.9927  2.1124
 7295SOL    HW233348   3.892   2.056   7.202 -0.8312 -0.7698 -0.1537
 7296SOL     OW33349   1.502   1.350   5.772 -0.0818 -0.2491  0.0645
 7296SOL    HW133350   1.558   1.282   5.734 -0.4421 -1.1739  1.1787
 7296SOL    HW233351   1.415   1.325   5.742  0.6128 -0.3809 -1.7927
 7297SOL     OW33352   3.331   1.239   6.489 -0.5481 -0.1607 -0.6393
 7297SOL    HW133353   3.275   1.260   6.564  0.7883 -0.2942  0.3919
 7297SOL    HW233354   3.420   1.243   6.524 -1.0713  1.1590  0.5688
 7298SOL     OW33355   1.824   1.729   5.817 -0.3997  0.0331  0.0148
 7298SOL    HW133356   1.809   1.802   5.757  2.9165  0.3268 -0.4326
 7298SOL    HW233357   1.730   1.713   5.831 -0.5959  2.7027  1.8125
 7299SOL     OW33358   1.917   4.298   3.243 -0.0258  0.4616 -0.0210
 7299SOL    HW133359   1.854   4.364   3.273 -0.8182 -0.0261 -0.6233
 7299SOL    HW233360   1.896   4.272   3.153  0.3462 -0.9831  0.3128
 7300SOL     OW33361   2.331   4.589   8.227  0.7880 -0.0980  0.2572
 7300SOL    HW133362   2.274   4.653   8.270  0.3766  0.1250 -0.6168
 7300SOL    HW233363   2.420   4.603   8.260  0.7614  2.9029 -0.9926
 7301SOL     OW33364   4.320   4.515  15.259 -0.0773  0.8556  0.2018
 7301SOL    HW133365   4.359   4.429  15.247 -1.8839  0.2029 -1.0345
 7301SOL    HW233366   4.394   4.569  15.285  2.2217 -2.1446 -0.1395
 7302SOL     OW33367   1.594   1.160   5.586 -0.0544  0.2554  0.4070
 7302SOL    HW133368   1.612   1.067   5.574  1.7993  0.5439  0.9815
 7302SOL    HW233369   1.654   1.207   5.529  1.3490 -0.4263  1.3064
 7303SOL     OW33370   2.608   0.913   6.486 -0.2659  0.2997 -0.0543
 7303SOL    HW133371   2.605   1.009   6.489  1.2886  0.2762  1.8518
 7303SOL    HW233372   2.606   0.914   6.390 -2.5894  0.2598 -0.0243
 7304SOL     OW33373   4.705   1.605   5.442 -0.1460  0.2248  0.2520
 7304SOL    HW133374   4.633   1.669   5.438 -0.5514 -0.2709 -0.3671
 7304SOL    HW233375   4.689   1.559   5.360 -1.5185 -2.5293  2.0622
 7305SOL     OW33376   1.334   1.523   2.477 -0.3109  0.4793  0.6815
 7305SOL    HW133377   1.296   1.442   2.509 -0.7644  1.2610  2.0889
 7305SOL    HW233378   1.428   1.506   2.469 -0.2544  1.2745 -0.5021
 7306SOL     OW33379   0.977   3.232   6.129  0.2301 -0.9933  0.0095
 7306SOL    HW133380   0.915   3.188   6.070 -0.0179 -1.3003  0.5013
 7306SOL    HW233381   0.911   3.299   6.146 -0.4087 -1.7874  0.6771
 7307SOL     OW33382   2.324   1.842  13.828 -0.1973  0.7009 -0.0899
 7307SOL    HW133383   2.273   1.816  13.906  0.5594 -2.0155 -0.4952
 7307SOL    HW233384   2.345   1.759  13.785  2.5178  1.4697 -0.2292
 7308SOL     OW33385   0.483   3.680   3.959 -0.3771 -0.3700  0.4748
 7308SOL    HW133386   0.576   3.662   3.973 -0.2481 -1.5619 -1.9088
 7308SOL    HW233387   0.459   3.758   4.009  2.0203 -0.3097  1.5421
 7309SOL     OW33388   3.061   0.868   2.320  0.1927  0.2608 -0.2855
 7309SOL    HW133389   3.098   0.909   2.242  1.6670  0.0147  0.2892
 7309SOL    HW233390   2.992   0.932   2.335 -0.7689 -0.4341 -1.7551
 7310SOL     OW33391   0.894   1.190   9.041 -0.1154 -0.2876  0.2113
 7310SOL    HW133392   0.918   1.153   8.956 -2.9328 -0.4480 -0.4947
 7310SOL    HW233393   0.944   1.130   9.096 -0.7428 -1.0211 -0.0168
 7311SOL     OW33394   0.405   0.727   4.818  0.2932 -0.2547  1.0624
 7311SOL    HW133395   0.410   0.797   4.753  1.9378 -0.1215  1.3302
 7311SOL    HW233396   0.360   0.774   4.888 -1.6059 -2.0477  1.0463
 7312SOL     OW33397   4.376   1.982   7.792  0.1037  0.2355 -0.0896
 7312SOL    HW133398   4.308   2.029   7.840 -0.8749  0.1626 -1.4017
 7312SOL    HW233399   4.387   1.911   7.855 -2.3406  0.4676  0.5731
 7313SOL     OW33400   1.352   4.232   8.000 -0.4314  0.1685 -0.2031
 7313SOL    HW133401   1.315   4.144   7.984  0.5945 -0.4267  0.7393
 7313SOL    HW233402   1.419   4.231   7.931  0.2983  1.1180  0.5008
 7314SOL     OW33403   2.423   3.785   7.683 -0.0002  0.0667 -0.1065
 7314SOL    HW133404   2.449   3.786   7.591  2.6337  1.1248  0.6575
 7314SOL    HW233405   2.507   3.747   7.706  0.6847  1.8388  0.3200
 7315SOL     OW33406   2.124   3.572  11.194 -0.0540  0.5227  0.1341
 7315SOL    HW133407   2.146   3.618  11.113  3.4794 -2.0968 -0.3939
 7315SOL    HW233408   2.155   3.486  11.166  3.1762  1.3898  1.0934
 7316SOL     OW33409   3.247   3.777   8.870  0.3030  0.0029 -0.1199
 7316SOL    HW133410   3.278   3.833   8.940 -2.1689 -1.1178  1.8663
 7316SOL    HW233411   3.237   3.848   8.807  1.4881  0.5295  0.3036
 7317SOL     OW33412   2.852   4.166   5.413 -0.2423 -0.6514 -0.1921
 7317SOL    HW133413   2.836   4.087   5.465 -0.0861  0.5007  1.6177
 7317SOL    HW233414   2.822   4.241   5.466  0.6178 -1.2215  1.1122
 7318SOL     OW33415   4.305   2.172  14.581  0.0442 -0.2158 -0.3512
 7318SOL    HW133416   4.338   2.204  14.497  1.0503  2.5051  1.0747
 7318SOL    HW233417   4.391   2.141  14.608 -0.4373 -1.7031 -0.5478
 7319SOL     OW33418   2.964   3.294   7.428  0.0686 -0.2826  0.1250
 7319SOL    HW133419   2.991   3.328   7.343  0.2922  4.0535  1.9289
 7319SOL    HW233420   2.911   3.217   7.409  0.8334 -0.4436 -1.3581
 7320SOL     OW33421   1.023   2.956  11.056  0.3878 -0.1503  0.2652
 7320SOL    HW133422   0.934   2.922  11.055  0.9028 -1.5213  0.6669
 7320SOL    HW233423   1.030   2.963  11.152 -0.3940  0.5056  0.2726
 7321SOL     OW33424   3.130   3.834  15.234  0.3009 -0.7299  0.1081
 7321SOL    HW133425   3.107   3.912  15.284 -0.0572 -1.9698  1.8755
 7321SOL    HW233426   3.188   3.861  15.163  1.1897 -3.1317 -0.0918
 7322SOL     OW33427   4.210   0.594   4.995  0.6825 -0.6442  0.5139
 7322SOL    HW133428   4.291   0.567   4.951  0.9073  1.4964 -0.3729
 7322SOL    HW233429   4.191   0.679   4.954  0.5229 -0.8962  0.0623
 7323SOL     OW33430   1.366   1.920  16.057  0.2605  0.4057  0.2827
 7323SOL    HW133431   1.302   1.897  16.124  1.2319  0.6626  1.2855
 7323SOL    HW233432   1.420   1.991  16.090 -0.1517  0.8627 -0.0240
 7324SOL     OW33433   1.947   2.095  12.232 -0.0075  0.1012  0.0937
 7324SOL    HW133434   2.032   2.081  12.191  0.2772  0.1068  0.6905
 7324SOL    HW233435   1.889   2.046  12.173  1.9241 -0.8480 -1.0304
 7325SOL     OW33436   3.355   3.207   2.381 -0.2236 -0.0584 -0.5146
 7325SOL    HW133437   3.375   3.113   2.388  2.6020  0.6892  1.7115
 7325SOL    HW233438   3.260   3.203   2.374 -0.1843 -2.6672  0.3189
 7326SOL     OW33439   2.942   2.965   5.380 -0.5521 -0.4805 -0.2083
 7326SOL    HW133440   2.966   2.894   5.440  1.0528 -0.7071 -1.1155
 7326SOL    HW233441   3.024   2.964   5.330 -0.2092  2.0533  0.2660
 7327SOL     OW33442   2.147   1.574  15.471  0.0212 -0.0626  0.0890
 7327SOL    HW133443   2.128   1.667  15.456  0.6472  0.1498  0.5996
 7327SOL    HW233444   2.239   1.567  15.448  0.3924 -1.4390  1.9675
 7328SOL     OW33445   1.346   0.973  14.693 -0.0578 -0.2845  0.8230
 7328SOL    HW133446   1.409   0.931  14.635  0.4184  1.1370  0.2978
 7328SOL    HW233447   1.311   0.895  14.735  0.3975 -0.4619  0.8705
 7329SOL     OW33448   0.280   0.927   3.445  0.2912  0.0474  0.2437
 7329SOL    HW133449   0.373   0.935   3.424  0.5691 -0.2507  1.3707
 7329SOL    HW233450   0.247   0.979   3.372 -3.7353 -2.7885  0.0471
 7330SOL     OW33451   2.687   3.739  15.853  0.2446 -0.0712 -0.2042
 7330SOL    HW133452   2.722   3.714  15.767  2.9194  0.6544  0.6661
 7330SOL    HW233453   2.595   3.727  15.828  0.8550 -1.3358 -1.8396
 7331SOL     OW33454   3.825   1.170   2.116 -0.2981 -0.4584  0.1063
 7331SOL    HW133455   3.795   1.144   2.029  1.0327  0.6371 -0.6928
 7331SOL    HW233456   3.903   1.218   2.088 -0.6339  0.4304  0.6774
 7332SOL     OW33457   2.529   3.206   6.820 -0.8334  0.0930 -0.0549
 7332SOL    HW133458   2.489   3.236   6.738  1.5199 -0.1154 -1.2831
 7332SOL    HW233459   2.475   3.131   6.847 -0.8589  0.6791  1.5239
 7333SOL     OW33460   3.983   0.265   9.022 -0.0638 -0.1428  0.4410
 7333SOL    HW133461   4.036   0.304   8.953  0.5357 -0.4571  0.7244
 7333SOL    HW233462   3.895   0.262   8.985 -0.0558 -0.8954  0.4998
 7334SOL     OW33463   2.453   2.205  14.247  0.8369 -0.5107 -0.6155
 7334SOL    HW133464   2.389   2.222  14.316  1.6253 -0.6153  0.1345
 7334SOL    HW233465   2.521   2.270  14.262 -0.7151  1.0505 -0.4357
 7335SOL     OW33466   2.569   1.164   3.993  0.4834 -0.3669  0.4251
 7335SOL    HW133467   2.487   1.197   4.030  0.7599  0.1867  0.5409
 7335SOL    HW233468   2.525   1.124   3.917  0.4832  0.7230 -0.1470
 7336SOL     OW33469   1.958   2.190   7.107 -0.3800  0.2236  0.2122
 7336SOL    HW133470   1.933   2.133   7.034 -1.4976  1.0334 -0.0353
 7336SOL    HW233471   2.023   2.247   7.066 -0.0327  0.6637  1.3697
 7337SOL     OW33472   2.344   0.420  13.866 -0.2615  0.3066  0.2656
 7337SOL    HW133473   2.410   0.447  13.803 -0.0495  0.4848  0.5643
 7337SOL    HW233474   2.394   0.432  13.947 -0.7396  1.5833  0.3781
 7338SOL     OW33475   2.428   4.291   1.509  0.1596  0.7906  0.4124
 7338SOL    HW133476   2.339   4.288   1.543  0.3824 -0.6986  0.8380
 7338SOL    HW233477   2.476   4.239   1.573  0.7157 -1.1774 -1.6045
 7339SOL     OW33478   0.582   0.664   6.405 -0.5135  0.8591  0.0911
 7339SOL    HW133479   0.603   0.578   6.370  0.3685  1.0963  0.0290
 7339SOL    HW233480   0.503   0.645   6.456 -1.1873 -2.5212 -2.2227
 7340SOL     OW33481   3.493   4.381  10.786  0.3714 -0.4860 -0.1862
 7340SOL    HW133482   3.514   4.469  10.819  0.8262  0.2298 -2.3780
 7340SOL    HW233483   3.461   4.327  10.858 -2.5243 -0.9474 -1.8229
 7341SOL     OW33484   0.183   3.145   1.744  0.5729 -0.2408  0.6613
 7341SOL    HW133485   0.098   3.176   1.714  0.2082 -1.2137  0.6939
 7341SOL    HW233486   0.216   3.120   1.658  1.1379  2.0573  0.2216
 7342SOL     OW33487   4.027   0.625  12.314  0.0229  0.3697  0.7210
 7342SOL    HW133488   4.003   0.539  12.281  1.9299  0.0098  0.2591
 7342SOL    HW233489   4.105   0.591  12.357 -0.6192 -1.1014  0.7228
 7343SOL     OW33490   1.899   4.561   8.090 -0.1801 -0.6812 -0.0546
 7343SOL    HW133491   1.944   4.511   8.158 -0.2527  0.7364  1.0566
 7343SOL    HW233492   1.899   4.504   8.014 -0.8751 -1.6539  0.6789
 7344SOL     OW33493   0.358   1.294   5.963  0.2500 -0.0671 -0.2135
 7344SOL    HW133494   0.412   1.217   5.945  0.3772  0.2972 -1.3741
 7344SOL    HW233495   0.278   1.283   5.912 -0.8645 -0.6976  1.6538
 7345SOL     OW33496   0.180   4.350   8.616 -0.1695  0.3563  0.3306
 7345SOL    HW133497   0.205   4.392   8.533 -0.1972 -0.2100  0.0313
 7345SOL    HW233498   0.094   4.314   8.594 -0.2059  1.3978 -1.2418
 7346SOL     OW33499   2.164   3.229   7.716  0.0204 -0.4598 -0.5519
 7346SOL    HW133500   2.191   3.285   7.788  0.7926 -0.2546 -1.0052
 7346SOL    HW233501   2.155   3.146   7.764  1.5468  1.0078  2.2367
 7347SOL     OW33502   3.469   2.943  12.439 -0.0069  0.1173 -0.5223
 7347SOL    HW133503   3.476   3.017  12.499 -0.9050 -0.1823 -0.0395
 7347SOL    HW233504   3.540   2.883  12.460 -0.1679 -0.5177 -1.8016
 7348SOL     OW33505   0.170   2.664   8.155  0.4171 -0.4608  0.2702
 7348SOL    HW133506   0.240   2.638   8.216 -1.5158 -0.3309  2.5443
 7348SOL    HW233507   0.208   2.630   8.074  0.6044 -1.8419  0.9484
 7349SOL     OW33508   0.187   3.577   7.265 -0.1327 -0.0545  0.1533
 7349SOL    HW133509   0.272   3.621   7.276 -0.6181  0.9206  0.0193
 7349SOL    HW233510   0.119   3.644   7.261  2.3259  2.5562  1.7936
 7350SOL     OW33511   4.279   1.679   4.853 -0.6131  0.2505  0.4055
 7350SOL    HW133512   4.282   1.768   4.819 -0.3576 -1.5148 -4.2178
 7350SOL    HW233513   4.333   1.628   4.793 -1.8574 -0.7038  0.1033
 7351SOL     OW33514   0.748   2.576   1.586 -0.6211 -0.4710  0.6934
 7351SOL    HW133515   0.705   2.637   1.646 -0.9581  0.8831 -0.9133
 7351SOL    HW233516   0.774   2.507   1.647  0.0718 -1.8498 -1.1587
 7352SOL     OW33517   3.721   0.558   3.008 -0.7370  0.5773  0.2925
 7352SOL    HW133518   3.753   0.599   3.088  1.6615  0.9877 -0.8732
 7352SOL    HW233519   3.627   0.546   3.018 -1.1398  4.0801  0.5530
 7353SOL     OW33520   1.485   2.307   1.666  0.0182 -0.1191 -0.4012
 7353SOL    HW133521   1.532   2.338   1.588 -0.4409  1.0779 -0.1950
 7353SOL    HW233522   1.489   2.213   1.648 -0.0867 -0.6346  2.3107
 7354SOL     OW33523   0.305   3.166  11.297 -0.2435 -0.2548  0.0351
 7354SOL    HW133524   0.374   3.116  11.341 -0.1595 -0.3267 -0.1774
 7354SOL    HW233525   0.348   3.252  11.296 -0.9162  0.0520 -1.8868
 7355SOL     OW33526   0.336   0.265   2.472 -0.0555  0.7808  0.2760
 7355SOL    HW133527   0.350   0.212   2.393  1.2651  0.8983  0.4276
 7355SOL    HW233528   0.418   0.314   2.471  0.8909 -0.8328 -0.4696
 7356SOL     OW33529   3.382   3.204   0.995  0.0582  0.2476  0.1970
 7356SOL    HW133530   3.334   3.185   1.076 -0.0252  1.0175  0.3278
 7356SOL    HW233531   3.315   3.238   0.936  1.1216 -0.0215 -1.1581
 7357SOL     OW33532   0.836   3.437  17.569 -0.2328  0.0790 -0.3978
 7357SOL    HW133533   0.758   3.421  17.515  1.0517 -2.8088 -1.4317
 7357SOL    HW233534   0.891   3.358  17.570  0.1801  0.4062  1.4428
 7358SOL     OW33535   2.123   0.704   5.919 -0.3621  0.0365  0.4901
 7358SOL    HW133536   2.211   0.675   5.895 -0.6618 -0.4255 -0.0684
 7358SOL    HW233537   2.105   0.628   5.975  0.8291  0.9519  2.1335
 7359SOL     OW33538   4.474   3.915  10.725  0.1833  0.1129  0.3211
 7359SOL    HW133539   4.533   3.975  10.771  0.7232 -1.0187  1.0887
 7359SOL    HW233540   4.515   3.925  10.638 -1.0537  0.1947 -0.2500
 7360SOL     OW33541   1.340   2.874   9.893  0.1454  0.1758 -0.6256
 7360SOL    HW133542   1.282   2.816   9.844  0.4499 -2.3696  2.0733
 7360SOL    HW233543   1.405   2.823   9.940 -0.7410 -0.6217 -0.2700
 7361SOL     OW33544   2.454   0.590   0.326 -0.1649  0.0858  0.0115
 7361SOL    HW133545   2.432   0.497   0.338 -1.5550  0.4469  0.3030
 7361SOL    HW233546   2.386   0.635   0.376  1.5966 -1.1524  3.5609
 7362SOL     OW33547   0.490   2.565  15.572 -0.1671 -0.6809 -0.5411
 7362SOL    HW133548   0.569   2.564  15.625  0.4967 -0.5099 -1.5280
 7362SOL    HW233549   0.491   2.633  15.505  0.0806 -0.9448 -0.8024
 7363SOL     OW33550   2.427   3.290   2.955 -0.1366  0.3589  0.3974
 7363SOL    HW133551   2.427   3.372   3.003 -0.2626  0.6114 -0.0322
 7363SOL    HW233552   2.513   3.258   2.981 -1.0998 -3.0049 -0.4721
 7364SOL     OW33553   3.244   2.770   5.401 -0.1471  0.1471 -0.3080
 7364SOL    HW133554   3.202   2.721   5.471  0.9473 -1.2380 -0.6297
 7364SOL    HW233555   3.215   2.721   5.324 -2.1879 -0.6632  0.9919
 7365SOL     OW33556   0.881   4.668  11.597 -0.2001 -0.2796 -0.4495
 7365SOL    HW133557   0.818   4.658  11.668  2.3468 -2.6635  1.5303
 7365SOL    HW233558   0.963   4.639  11.639 -0.3815 -0.2970 -0.1074
 7366SOL     OW33559   2.440   3.922   7.037  0.1462 -0.2232 -0.0391
 7366SOL    HW133560   2.349   3.900   7.058 -0.3400  1.6639 -0.2291
 7366SOL    HW233561   2.418   3.999   6.985  0.5881  0.7318  1.1825
 7367SOL     OW33562   1.618   0.760   9.982  0.2951 -0.0715 -0.2861
 7367SOL    HW133563   1.669   0.718   9.912 -1.5998 -1.2973 -0.9222
 7367SOL    HW233564   1.687   0.793  10.039 -0.6341  1.8695 -0.2686
 7368SOL     OW33565   1.443   0.505   3.332  0.2079 -0.2705  0.4803
 7368SOL    HW133566   1.381   0.466   3.270  0.4566  2.0365 -1.2313
 7368SOL    HW233567   1.472   0.584   3.286 -1.6547  0.5119  0.6369
 7369SOL     OW33568   1.929   3.544   7.022  0.9576  0.0715  0.7833
 7369SOL    HW133569   1.967   3.571   7.106  0.9548  0.2206  0.7370
 7369SOL    HW233570   1.990   3.587   6.962 -0.3307 -0.1796 -0.6855
 7370SOL     OW33571   0.646   3.015   0.982  0.4803 -0.0478 -0.0939
 7370SOL    HW133572   0.574   2.982   0.928  1.9322  0.4278 -2.3042
 7370SOL    HW233573   0.718   2.984   0.928  1.5002  0.2144  1.0985
 7371SOL     OW33574   3.360   3.575   0.500  1.2338 -0.4880  0.0414
 7371SOL    HW133575   3.281   3.615   0.536  1.9698  0.9545  0.0668
 7371SOL    HW233576   3.406   3.656   0.475 -1.6364  0.9191 -0.6170
 7372SOL     OW33577   0.978   2.710   3.724  0.2360 -0.2290  0.0487
 7372SOL    HW133578   1.018   2.678   3.805 -0.9354  0.7681  1.0292
 7372SOL    HW233579   0.919   2.637   3.704  0.4084 -0.6033  0.8813
 7373SOL     OW33580   3.796   1.963   3.985  0.2117  0.0713 -0.1825
 7373SOL    HW133581   3.887   1.939   3.971  0.2156 -0.4543  0.7234
 7373SOL    HW233582   3.766   1.987   3.898  3.8780 -2.0993 -2.0372
 7374SOL     OW33583   3.925   0.049   6.692 -0.0364 -0.1089  0.2138
 7374SOL    HW133584   3.860   0.118   6.705  0.2448 -0.0322  1.2140
 7374SOL    HW233585   3.868   4.701   6.671 -0.5962  0.3231  0.1939
 7375SOL     OW33586   4.593   0.822   1.550 -0.4797  0.2584 -0.0277
 7375SOL    HW133587   4.659   0.879   1.512  0.3308 -0.5058  0.2116
 7375SOL    HW233588   4.518   0.847   1.497 -0.8985  0.2663  0.5822
 7376SOL     OW33589   1.345   2.562   8.536  0.5006 -0.0376  0.1015
 7376SOL    HW133590   1.386   2.505   8.601 -0.3048  1.5796  2.0280
 7376SOL    HW233591   1.373   2.515   8.457 -0.5748  0.4303 -0.5677
 7377SOL     OW33592   2.369   0.902   9.127  0.3469 -0.1823 -0.0840
 7377SOL    HW133593   2.362   0.990   9.166 -0.0466 -0.1163 -0.3027
 7377SOL    HW233594   2.435   0.913   9.059  0.8463 -1.4194  0.2096
 7378SOL     OW33595   2.585   4.103  14.318 -0.5392  0.5667 -0.1346
 7378SOL    HW133596   2.501   4.149  14.307 -1.2307 -0.8231 -0.7783
 7378SOL    HW233597   2.641   4.148  14.256 -1.8158  0.8315 -1.1075
 7379SOL     OW33598   0.698   3.396   4.524 -0.2764 -0.2423  0.3192
 7379SOL    HW133599   0.750   3.470   4.557  1.5433 -0.8451 -1.2396
 7379SOL    HW233600   0.623   3.447   4.493  0.2699 -0.1265 -0.8102
 7380SOL     OW33601   2.867   1.789  15.161  0.5025  0.3442 -0.5246
 7380SOL    HW133602   2.935   1.723  15.151 -0.0590  0.1967 -3.2212
 7380SOL    HW233603   2.789   1.735  15.156  0.4126  0.2006  2.2353
 7381SOL     OW33604   3.723   4.437   8.165  0.5865 -0.1823  0.0407
 7381SOL    HW133605   3.705   4.344   8.154 -1.2582  0.1868 -0.0706
 7381SOL    HW233606   3.674   4.452   8.246  2.2257  1.6570  0.6839
 7382SOL     OW33607   1.804   3.551   5.130 -0.1850 -0.2646 -0.7792
 7382SOL    HW133608   1.711   3.552   5.152 -0.1188  0.8985 -0.5260
 7382SOL    HW233609   1.800   3.545   5.034  0.7884 -0.9029 -0.7776
 7383SOL     OW33610   1.415   2.608  15.430 -0.7586  0.1636 -0.1683
 7383SOL    HW133611   1.483   2.550  15.398 -1.6894 -0.8671 -0.2588
 7383SOL    HW233612   1.423   2.684  15.372  1.2814  0.0985  0.0130
 7384SOL     OW33613   3.117   0.842  16.970 -0.2491  0.5851 -0.1856
 7384SOL    HW133614   3.205   0.879  16.972 -1.5251  3.6469 -0.4098
 7384SOL    HW233615   3.140   0.751  16.950 -0.8236  0.3241  0.3327
 7385SOL     OW33616   1.138   4.602   2.881 -0.2073  0.4717  0.4653
 7385SOL    HW133617   1.063   4.658   2.901  1.2758  3.3903 -2.1236
 7385SOL    HW233618   1.088   4.527   2.848  3.1108 -1.7614  0.5084
 7386SOL     OW33619   3.780   1.616   2.479 -0.5474  0.2185  0.0528
 7386SOL    HW133620   3.715   1.547   2.464  0.9529 -0.9847 -0.9485
 7386SOL    HW233621   3.727   1.686   2.441 -0.2574  1.0640  1.1930
 7387SOL     OW33622   1.040   1.305   6.997 -0.0586 -0.3129 -0.0962
 7387SOL    HW133623   1.019   1.355   6.918  1.3255 -2.1102 -1.6056
 7387SOL    HW233624   0.971   1.321   7.061  1.0122  1.5195  0.6143
 7388SOL     OW33625   1.680   3.226  15.839  0.1585 -0.0863 -0.2163
 7388SOL    HW133626   1.594   3.199  15.806  0.4099 -0.4264 -0.5941
 7388SOL    HW233627   1.674   3.321  15.827  1.2084  0.2693  2.1791
 7389SOL     OW33628   0.099   2.974  15.686  0.1875 -0.2586 -0.3443
 7389SOL    HW133629   0.066   2.917  15.755  1.2193 -0.6233 -0.1589
 7389SOL    HW233630   0.190   2.949  15.677  1.0600  3.3853 -1.4313
 7390SOL     OW33631   1.435   4.060   8.877 -0.2735  0.3578  0.1677
 7390SOL    HW133632   1.425   4.113   8.956  2.5264  0.2988  0.5610
 7390SOL    HW233633   1.461   3.980   8.924  3.0546  0.8415 -0.8473
 7391SOL     OW33634   3.572   2.634   2.170  0.8491  0.3732 -0.3031
 7391SOL    HW133635   3.601   2.554   2.213  0.9143 -0.1786 -1.3544
 7391SOL    HW233636   3.591   2.700   2.236  2.2893 -0.2033 -0.1505
 7392SOL     OW33637   0.724   4.058  17.316 -0.5004  0.1453 -0.6149
 7392SOL    HW133638   0.662   3.986  17.324 -0.8244  0.3064 -1.7566
 7392SOL    HW233639   0.715   4.097  17.229  1.3995 -1.8828 -1.7110
 7393SOL     OW33640   1.880   3.124   5.574 -0.1522  0.1283 -0.2327
 7393SOL    HW133641   1.797   3.089   5.541 -0.1409 -0.1997  0.0776
 7393SOL    HW233642   1.860   3.217   5.567 -2.1840 -0.4858 -2.4324
 7394SOL     OW33643   2.775   1.180   8.207 -0.0131 -0.0757  0.5043
 7394SOL    HW133644   2.750   1.271   8.228  0.0300  0.2425 -0.8543
 7394SOL    HW233645   2.764   1.139   8.293  1.2035 -2.3257 -0.4358
 7395SOL     OW33646   1.034   1.336  10.013 -0.0503 -0.4986 -0.0430
 7395SOL    HW133647   0.971   1.271   9.982 -0.6021  0.7336 -1.5502
 7395SOL    HW233648   0.977   1.379  10.077 -0.7113 -1.6128  0.1055
 7396SOL     OW33649   2.541   4.303   6.060 -0.0105 -0.1795  0.1207
 7396SOL    HW133650   2.596   4.251   6.002 -1.6115 -1.2500 -0.4264
 7396SOL    HW233651   2.478   4.242   6.096 -0.8748  0.6922  0.0798
 7397SOL     OW33652   0.028   1.353  11.976 -0.3480 -0.0903  0.1666
 7397SOL    HW133653   0.100   1.416  11.979  0.3868 -0.9081 -0.2596
 7397SOL    HW233654   0.042   1.321  12.065 -1.5599  1.6533  0.9956
 7398SOL     OW33655   0.202   1.973  16.153  0.8852 -0.9141 -0.0160
 7398SOL    HW133656   0.205   1.963  16.249 -0.5370  0.8124  0.2206
 7398SOL    HW233657   0.161   1.888  16.134 -1.2691  0.0888  0.1830
 7399SOL     OW33658   1.524   4.004   8.607  0.4673 -0.0457  0.0321
 7399SOL    HW133659   1.511   4.002   8.701 -0.2616 -2.6286 -0.1303
 7399SOL    HW233660   1.618   3.987   8.613  0.3383 -0.2273  1.3446
 7400SOL     OW33661   4.714   2.361   2.539  0.0210  0.0041 -1.0571
 7400SOL    HW133662   4.685   2.366   2.448  0.3041 -1.4113 -1.2241
 7400SOL    HW233663   4.674   2.281   2.573  1.2199  1.2292  3.2399
 7401SOL     OW33664   4.612   4.179   0.781  0.1355  0.0226 -0.4627
 7401SOL    HW133665   4.537   4.151   0.834  0.4682  1.0347  0.5457
 7401SOL    HW233666   4.672   4.121   0.829 -1.0262  1.0202  2.2006
 7402SOL     OW33667   3.998   1.606   4.878 -0.2805  0.3600  0.6383
 7402SOL    HW133668   4.089   1.580   4.889 -0.4655 -0.5672 -0.0410
 7402SOL    HW233669   4.013   1.700   4.886  1.5176  0.0744  0.6701
 7403SOL     OW33670   1.430   3.051   6.195 -0.0214 -0.9452  0.1362
 7403SOL    HW133671   1.416   3.127   6.137  0.1177  0.4670  1.9572
 7403SOL    HW233672   1.374   3.071   6.270 -1.3448 -1.0836 -0.7970
 7404SOL     OW33673   4.691   0.256  13.740  0.1320 -0.2475 -0.2583
 7404SOL    HW133674   4.725   0.317  13.806  0.8505  0.5037 -1.3185
 7404SOL    HW233675   0.048   0.216  13.715  1.5046  2.4908 -0.1426
 7405SOL     OW33676   2.892   1.458   6.910  0.1301  0.5153 -0.1299
 7405SOL    HW133677   2.926   1.531   6.961  1.2791 -0.4841  0.5496
 7405SOL    HW233678   2.951   1.383   6.908 -2.8729 -1.8542 -0.1884
 7406SOL     OW33679   4.513   2.619   8.980  0.0998  0.0619 -0.0612
 7406SOL    HW133680   4.443   2.667   9.025 -0.2238 -1.5873  1.1995
 7406SOL    HW233681   4.565   2.690   8.941  0.8784 -1.0876 -1.0986
 7407SOL     OW33682   0.336   0.100   2.256 -0.8833  0.6598 -0.2568
 7407SOL    HW133683   0.423   0.088   2.218 -0.3853  0.2520  0.9946
 7407SOL    HW233684   0.300   0.171   2.204  0.1722  0.6431 -1.0018
 7408SOL     OW33685   3.820   2.449  11.493 -0.5440  0.5079 -0.3193
 7408SOL    HW133686   3.858   2.520  11.545  0.0584 -0.8390  1.0949
 7408SOL    HW233687   3.894   2.439  11.433 -0.1497 -2.5893  0.6986
 7409SOL     OW33688   0.727   0.292   2.259 -0.3591  0.1491  0.9523
 7409SOL    HW133689   0.713   0.234   2.185  0.4946  1.0107  0.1153
 7409SOL    HW233690   0.807   0.336   2.229 -1.0059 -0.2538 -1.3040
 7410SOL     OW33691   1.022   2.576  11.105  0.0472 -0.2335 -0.4422
 7410SOL    HW133692   0.968   2.630  11.162 -1.1295 -3.4899  1.5525
 7410SOL    HW233693   1.093   2.639  11.097  0.1435 -0.1227  1.3600
 7411SOL     OW33694   4.569   3.961   0.966  0.3088 -0.4675  0.0423
 7411SOL    HW133695   4.496   3.972   0.904  0.5783 -2.8315 -0.7125
 7411SOL    HW233696   4.613   3.880   0.938 -1.4615 -1.6030  0.5108
 7412SOL     OW33697   4.095   1.882  10.342 -0.1118  0.6714  0.0564
 7412SOL    HW133698   4.185   1.894  10.371 -0.1795  2.1621 -0.3742
 7412SOL    HW233699   4.053   1.837  10.416 -1.3253  0.8954 -0.4882
 7413SOL     OW33700   4.228   3.723   3.009  0.3318  0.5503 -0.2395
 7413SOL    HW133701   4.293   3.749   2.944 -0.3892  1.0939 -0.7332
 7413SOL    HW233702   4.150   3.769   2.980 -0.1927  0.3355  0.8412
 7414SOL     OW33703   3.366   1.068   2.699 -0.1099  0.2620 -0.1878
 7414SOL    HW133704   3.367   0.982   2.739  0.9434  0.7522  0.8440
 7414SOL    HW233705   3.356   1.047   2.606  1.2593  0.4477 -0.3812
 7415SOL     OW33706   4.080   1.081   4.787  0.2778  0.2234  0.8311
 7415SOL    HW133707   4.116   1.161   4.825 -2.9882  1.7485  0.7325
 7415SOL    HW233708   3.995   1.118   4.763  0.2477 -1.9009 -2.4009
 7416SOL     OW33709   0.556   2.257   3.938 -0.9218 -0.0158  0.1048
 7416SOL    HW133710   0.570   2.194   4.009 -2.1831  1.2944  1.5164
 7416SOL    HW233711   0.508   2.207   3.872 -1.4726 -0.7101  1.0438
 7417SOL     OW33712   4.416   3.962   9.036  1.3189  0.5811 -0.1087
 7417SOL    HW133713   4.505   3.927   9.035  0.8924 -0.5103 -0.1129
 7417SOL    HW233714   4.418   4.046   9.083  0.4466  1.7808 -2.2166
 7418SOL     OW33715   1.036   2.255  17.504 -0.1086  0.1072 -0.0119
 7418SOL    HW133716   0.971   2.305  17.454  0.8446  0.9770 -0.3764
 7418SOL    HW233717   1.092   2.221  17.435  2.9591  1.4604  1.8132
 7419SOL     OW33718   0.862   2.204  10.936  0.5170  0.4056 -0.4176
 7419SOL    HW133719   0.911   2.259  10.997  1.3315 -1.1175  0.3007
 7419SOL    HW233720   0.854   2.263  10.861  3.6870  0.6912 -0.5545
 7420SOL     OW33721   2.413   2.704   6.145  0.0482 -0.4541  0.1149
 7420SOL    HW133722   2.435   2.633   6.205  3.9854  0.8649  0.2507
 7420SOL    HW233723   2.469   2.773   6.181  0.6436 -0.1121 -1.4281
 7421SOL     OW33724   1.905   2.836   2.114 -0.4464  0.0416 -0.2221
 7421SOL    HW133725   1.884   2.745   2.094  0.6792 -0.1545 -0.4659
 7421SOL    HW233726   1.983   2.857   2.063 -1.5749  0.5927 -1.7225
 7422SOL     OW33727   4.551   0.388   8.404 -0.4088  0.4375 -0.3156
 7422SOL    HW133728   4.515   0.473   8.380 -0.6960 -0.2474 -2.3281
 7422SOL    HW233729   4.540   0.392   8.498  0.5265 -1.1728 -0.1315
 7423SOL     OW33730   2.117   0.192   4.210  0.2574 -0.0836  0.1406
 7423SOL    HW133731   2.165   0.247   4.148  1.3086 -0.5527  0.5354
 7423SOL    HW233732   2.047   0.251   4.235  0.2452  1.0387 -2.5517
 7424SOL     OW33733   0.258   0.425   0.244  0.3323  0.4046  0.0153
 7424SOL    HW133734   0.217   0.415   0.330 -0.3019  1.5611 -0.1590
 7424SOL    HW233735   0.336   0.372   0.262  1.2423  1.2557 -1.4910
 7425SOL     OW33736   0.900   2.717  11.313 -0.0805  0.1545 -0.4054
 7425SOL    HW133737   0.939   2.804  11.328 -2.1952  0.9554  0.4229
 7425SOL    HW233738   0.874   2.711  11.405 -2.5752 -0.7168 -1.1711
 7426SOL     OW33739   0.221   3.156   2.940  0.6521  0.3829 -0.2309
 7426SOL    HW133740   0.153   3.090   2.954  0.9455  0.3454  1.0115
 7426SOL    HW233741   0.300   3.103   2.927  0.8323 -0.3093  3.6459
 7427SOL     OW33742   1.837   2.702  11.200 -0.3490  0.2267 -0.1788
 7427SOL    HW133743   1.814   2.639  11.269 -0.1761  0.4951  0.1260
 7427SOL    HW233744   1.913   2.745  11.239 -0.4330  0.0834  0.1465
 7428SOL     OW33745   2.727   3.038   0.429 -0.3255  0.0254  0.7174
 7428SOL    HW133746   2.651   3.095   0.440  0.0331  0.8095 -0.8603
 7428SOL    HW233747   2.736   3.010   0.520 -0.7026 -2.2489  0.0605
 7429SOL     OW33748   3.488   1.015   5.723  0.4853 -0.4670  0.3255
 7429SOL    HW133749   3.406   0.986   5.682  1.2022  0.8284 -2.0711
 7429SOL    HW233750   3.488   1.105   5.689 -0.0897 -0.7815 -0.5211
 7430SOL     OW33751   0.312   3.154   6.082 -0.2536 -0.1168  0.0120
 7430SOL    HW133752   0.386   3.093   6.081 -1.4797 -1.6182  0.7732
 7430SOL    HW233753   0.254   3.112   6.146  0.0805 -1.1151 -0.3449
 7431SOL     OW33754   4.391   0.268   6.748 -0.0776 -0.0769 -0.2838
 7431SOL    HW133755   4.375   0.249   6.656  1.5347 -2.4020 -0.0652
 7431SOL    HW233756   4.309   0.238   6.788 -1.1300  0.0305 -2.3698
 7432SOL     OW33757   3.604   4.044   7.086  0.0442  1.0352 -0.3701
 7432SOL    HW133758   3.517   4.083   7.075 -1.4731 -2.8247 -2.0390
 7432SOL    HW233759   3.586   4.000   7.169 -1.0758 -0.9744 -1.6849
 7433SOL     OW33760   4.129   3.967   5.866  0.5214  0.4411  0.2278
 7433SOL    HW133761   4.221   3.991   5.852  0.3868  0.5596 -0.4611
 7433SOL    HW233762   4.132   3.936   5.957 -1.4873 -1.2688 -0.3042
 7434SOL     OW33763   2.714   3.468   3.010  0.0023 -0.4764 -0.4523
 7434SOL    HW133764   2.784   3.407   3.029  0.6144  0.4688  0.3626
 7434SOL    HW233765   2.640   3.434   3.061  0.1623 -1.1310 -0.6610
 7435SOL     OW33766   1.538   1.609   5.060  0.1068 -0.1088 -0.1585
 7435SOL    HW133767   1.538   1.515   5.042  1.6191 -0.0529 -0.4493
 7435SOL    HW233768   1.472   1.644   5.000  0.1881  1.0829  0.4411
 7436SOL     OW33769   1.667   2.540   9.103  0.0780 -0.0211 -0.1883
 7436SOL    HW133770   1.603   2.601   9.067  0.5002 -0.0719 -1.0293
 7436SOL    HW233771   1.669   2.560   9.197  0.2786 -0.5628 -0.0774
 7437SOL     OW33772   0.846   4.636  12.314  0.3175 -0.3919 -0.1844
 7437SOL    HW133773   0.928   4.624  12.265 -1.4073 -1.6564 -2.7945
 7437SOL    HW233774   0.788   4.576  12.267 -2.1725  1.6580  0.3286
 7438SOL     OW33775   2.526   3.475   4.932  0.4401  0.1370 -0.5751
 7438SOL    HW133776   2.461   3.524   4.882 -0.5503  0.9470  1.4821
 7438SOL    HW233777   2.476   3.397   4.955 -0.3031  1.2072  1.4952
 7439SOL     OW33778   4.439   0.078  11.562 -0.3065  0.5668 -0.0075
 7439SOL    HW133779   4.372   0.018  11.527 -1.4319  1.3999  0.6899
 7439SOL    HW233780   4.403   0.164  11.539 -1.4139 -0.3939 -1.9302
 7440SOL     OW33781   2.708   0.887   2.672  0.6491 -0.3614  0.2454
 7440SOL    HW133782   2.659   0.805   2.679  2.4867 -1.6754 -2.1917
 7440SOL    HW233783   2.797   0.852   2.674  1.0462  0.5683 -1.1810
 7441SOL     OW33784   1.490   2.612   4.249  0.3572 -0.3256  0.1642
 7441SOL    HW133785   1.581   2.583   4.258  0.1674 -1.6541 -2.0563
 7441SOL    HW233786   1.509   2.699   4.214  0.0461 -0.6126 -0.7323
 7442SOL     OW33787   0.265   3.169   1.473 -0.2373  0.0130  0.0561
 7442SOL    HW133788   0.211   3.239   1.438 -0.1959 -0.7610 -1.5622
 7442SOL    HW233789   0.350   3.189   1.433 -0.2821  1.3554  0.6598
 7443SOL     OW33790   2.159   3.065  12.907 -0.3529 -0.1924  0.1447
 7443SOL    HW133791   2.167   3.159  12.921  1.6118  0.0218 -2.3314
 7443SOL    HW233792   2.093   3.042  12.972  1.9834 -1.9345  1.9513
 7444SOL     OW33793   4.465   3.171  11.474 -0.8256 -0.1562 -1.3440
 7444SOL    HW133794   4.476   3.131  11.560 -0.8823 -1.5685 -1.9925
 7444SOL    HW233795   4.370   3.164  11.465 -0.7549 -0.6473 -1.6716
 7445SOL     OW33796   1.956   4.032  14.213 -0.2911 -0.0857 -0.7925
 7445SOL    HW133797   1.948   4.098  14.145  1.3131  0.8388 -0.0919
 7445SOL    HW233798   2.050   4.012  14.215 -0.4267 -0.7102 -0.8689
 7446SOL     OW33799   0.660   4.428   2.750 -0.1359 -0.1049 -0.1525
 7446SOL    HW133800   0.590   4.406   2.812 -1.3015 -1.1198 -1.8412
 7446SOL    HW233801   0.628   4.513   2.722  2.2339  0.3637 -1.4651
 7447SOL     OW33802   4.367   3.693   8.689  0.2655 -0.3419 -0.2499
 7447SOL    HW133803   4.290   3.750   8.682 -0.3172 -1.1216 -0.1993
 7447SOL    HW233804   4.343   3.625   8.626  0.9597 -0.9310  0.1252
 7448SOL     OW33805   1.831   2.678   4.986 -0.3085  0.2526  0.0303
 7448SOL    HW133806   1.851   2.614   5.054  1.2885 -0.1989 -0.8767
 7448SOL    HW233807   1.739   2.650   4.977  0.1652 -1.7014  1.2235
 7449SOL     OW33808   0.185   3.536   5.775 -0.7553  0.1685  0.3821
 7449SOL    HW133809   0.174   3.469   5.843  1.5922 -1.0710 -0.4557
 7449SOL    HW233810   0.161   3.615   5.823 -0.8826  0.5872 -0.3759
 7450SOL     OW33811   2.482   4.599   0.766  0.5348  0.1488 -0.6073
 7450SOL    HW133812   2.416   4.548   0.720 -0.3429  1.1651 -0.4703
 7450SOL    HW233813   2.430   4.611   0.846  2.5972 -1.7769  1.0547
 7451SOL     OW33814   2.626   2.492   7.411  0.2949  0.3115 -0.1476
 7451SOL    HW133815   2.707   2.450   7.440 -0.5614 -1.3601 -0.2105
 7451SOL    HW233816   2.583   2.519   7.492 -0.2114  1.0395 -0.6466
 7452SOL     OW33817   1.749   2.880   8.060 -0.3718 -0.4064 -0.0488
 7452SOL    HW133818   1.741   2.965   8.016  0.4442 -0.0345  0.5342
 7452SOL    HW233819   1.736   2.902   8.152 -2.6353  2.6436 -1.1022
 7453SOL     OW33820   2.759   1.909   5.034 -0.0914 -0.2927  0.6568
 7453SOL    HW133821   2.788   2.000   5.035  0.3397 -0.4289  0.6971
 7453SOL    HW233822   2.678   1.909   4.984  0.5479  2.7306 -0.4108
 7454SOL     OW33823   2.129   4.450  10.303  0.1198  0.2523 -0.6481
 7454SOL    HW133824   2.223   4.465  10.290 -0.2321  2.2695 -0.9810
 7454SOL    HW233825   2.124   4.508  10.380  0.4341 -0.1979 -0.2940
 7455SOL     OW33826   1.238   3.724  10.231  0.3452  0.3808 -0.1547
 7455SOL    HW133827   1.287   3.667  10.172 -0.5435 -0.2327 -0.3022
 7455SOL    HW233828   1.233   3.811  10.191  0.5301  0.2951 -0.3606
 7456SOL     OW33829   2.437   0.425   4.188  0.3267 -0.3740 -0.2456
 7456SOL    HW133830   2.452   0.511   4.147 -1.6214 -0.3194 -0.8499
 7456SOL    HW233831   2.348   0.399   4.163 -0.7110  1.3970  1.6369
 7457SOL     OW33832   2.482   0.707   6.087  0.8681 -0.3258  0.1266
 7457SOL    HW133833   2.549   0.763   6.126  0.3252  0.7031 -0.4162
 7457SOL    HW233834   2.413   0.719   6.151 -1.2406 -0.1472 -2.1951
 7458SOL     OW33835   2.228   2.190  11.339  0.7628 -1.0259  0.6476
 7458SOL    HW133836   2.243   2.096  11.332  2.1213 -0.8755  1.4090
 7458SOL    HW233837   2.210   2.200  11.433  0.6901  1.1176  0.4158
 7459SOL     OW33838   3.863   3.131   3.284  0.3547 -0.2011  0.5651
 7459SOL    HW133839   3.850   3.086   3.200 -0.4123  1.7858 -0.3739
 7459SOL    HW233840   3.787   3.095   3.330  0.4456 -1.6374 -0.3867
 7460SOL     OW33841   2.710   1.490   4.944 -0.1037  0.1256  0.0750
 7460SOL    HW133842   2.694   1.583   4.929  0.6130  0.3074  0.4420
 7460SOL    HW233843   2.629   1.447   4.916  0.2473  0.1691 -0.9939
 7461SOL     OW33844   0.531   2.631   4.570  0.3281  0.3579  0.0004
 7461SOL    HW133845   0.624   2.632   4.591  0.3325 -1.8010  0.1092
 7461SOL    HW233846   0.509   2.712   4.615 -1.0681  0.3185 -0.6144
 7462SOL     OW33847   0.014   1.573   1.726  0.2774 -0.1245 -0.0940
 7462SOL    HW133848   4.655   1.552   1.687 -0.6402  0.7911  1.4260
 7462SOL    HW233849   0.060   1.609   1.650  1.4753  0.0066  0.6984
 7463SOL     OW33850   0.021   0.690   4.700  0.2144  0.1101 -0.1627
 7463SOL    HW133851   4.686   0.763   4.696 -0.0628 -0.0009  2.1617
 7463SOL    HW233852   4.717   0.642   4.777  1.6550 -0.1398  0.2583
 7464SOL     OW33853   1.112   3.543  11.029  0.3868 -0.4524  0.8134
 7464SOL    HW133854   1.052   3.615  11.010  2.1459  0.4937 -1.0810
 7464SOL    HW233855   1.109   3.495  10.947 -0.2729 -0.3885  0.7967
 7465SOL     OW33856   3.077   2.343   4.311  0.1849  0.0222  0.2601
 7465SOL    HW133857   3.171   2.340   4.330  0.4692  2.1860 -0.7745
 7465SOL    HW233858   3.049   2.252   4.307  2.3974 -0.6489  0.0811
 7466SOL     OW33859   3.402   0.040   9.380 -0.0210  0.5047  0.8376
 7466SOL    HW133860   3.347   4.704   9.428 -0.3709  1.1440  1.2651
 7466SOL    HW233861   3.399   0.119   9.435  0.5500  0.8049  0.4334
 7467SOL     OW33862   1.606   1.913  11.821 -0.1041 -0.1879  0.1836
 7467SOL    HW133863   1.573   2.000  11.842  3.0669  1.1207 -0.1720
 7467SOL    HW233864   1.633   1.896  11.911 -0.0575 -1.1314 -0.0131
 7468SOL     OW33865   1.871   0.434   4.859 -0.1941 -0.0531  0.4719
 7468SOL    HW133866   1.810   0.409   4.789  2.3382 -0.5892 -1.5433
 7468SOL    HW233867   1.881   0.528   4.851  0.8312 -0.1302  0.8493
 7469SOL     OW33868   4.382   2.760   5.580 -0.2841  0.6404 -0.7122
 7469SOL    HW133869   4.288   2.777   5.589 -0.0534  0.9139  1.1536
 7469SOL    HW233870   4.390   2.717   5.494  2.9687 -0.4192  0.1137
 7470SOL     OW33871   0.535   2.186   4.258 -0.2924 -0.1154  0.4345
 7470SOL    HW133872   0.534   2.185   4.353  0.5931  0.7309  0.4548
 7470SOL    HW233873   0.519   2.277   4.234 -0.1464  0.2120  1.6241
 7471SOL     OW33874   0.742   3.242   7.010 -0.7282 -0.0771  0.2771
 7471SOL    HW133875   0.649   3.260   7.020 -0.7825  0.3481 -0.9760
 7471SOL    HW233876   0.755   3.189   7.089  0.3408 -0.5464 -0.2127
 7472SOL     OW33877   1.588   3.576  11.122 -0.1867  0.0125 -0.1718
 7472SOL    HW133878   1.647   3.500  11.120  0.9588  0.8447  1.8171
 7472SOL    HW233879   1.619   3.619  11.202  0.1401  0.5405 -0.5807
 7473SOL     OW33880   4.603   3.548   3.861 -0.3556 -0.1766 -0.1058
 7473SOL    HW133881   4.572   3.469   3.904  1.6415  0.7192  2.9992
 7473SOL    HW233882   4.663   3.584   3.927 -3.0748  2.2868  1.0530
 7474SOL     OW33883   0.700   2.997   4.135  0.3506 -0.7787  0.5926
 7474SOL    HW133884   0.615   2.962   4.107  0.0036  1.0214 -0.6110
 7474SOL    HW233885   0.701   2.976   4.228 -0.1240  2.9670  1.4384
 7475SOL     OW33886   2.756   3.687  16.578  0.5707  0.1056  0.0160
 7475SOL    HW133887   2.842   3.646  16.579 -0.1101 -1.2667  1.3919
 7475SOL    HW233888   2.706   3.627  16.634  1.2117 -0.8921 -0.4838
 7476SOL     OW33889   0.394   4.175  10.523 -0.2569  0.0410  0.3940
 7476SOL    HW133890   0.477   4.218  10.502  0.5076 -1.1302  0.9891
 7476SOL    HW233891   0.346   4.256  10.537  1.0552  1.0148 -0.8141
 7477SOL     OW33892   1.412   0.073  14.001  0.1543 -0.3550 -0.6324
 7477SOL    HW133893   1.505   0.089  14.020 -0.1427 -0.3284  0.8285
 7477SOL    HW233894   1.394   0.023  14.081 -2.2547  0.3675 -0.7456
 7478SOL     OW33895   1.537   2.153  11.916 -0.4821  0.3024  0.3190
 7478SOL    HW133896   1.510   2.222  11.855 -1.0886 -1.3272 -1.2524
 7478SOL    HW233897   1.612   2.198  11.956  2.0589 -0.3013 -3.7963
 7479SOL     OW33898   3.252   3.462  14.680  0.3732  0.1789  0.1808
 7479SOL    HW133899   3.272   3.479  14.772 -2.0213  0.3835  0.6605
 7479SOL    HW233900   3.165   3.502  14.675 -0.1107 -1.1701 -1.9946
 7480SOL     OW33901   4.494   3.243  14.459 -0.2486  0.1152 -0.7292
 7480SOL    HW133902   4.518   3.159  14.420  1.0382 -0.2340  0.8367
 7480SOL    HW233903   4.509   3.293  14.379  2.6868 -0.5981 -0.5951
 7481SOL     OW33904   0.046   1.364   2.996 -0.5738  0.3090  0.5746
 7481SOL    HW133905   0.140   1.363   3.017 -0.7781  2.9199  1.5868
 7481SOL    HW233906   0.054   1.352   2.901  0.1995  0.8417  0.5681
 7482SOL     OW33907   2.007   2.256   8.554 -0.3481 -0.2691  0.6432
 7482SOL    HW133908   1.990   2.348   8.531 -1.5242 -1.0021 -1.4689
 7482SOL    HW233909   2.008   2.214   8.468 -0.9024 -1.1337  1.0633
 7483SOL     OW33910   0.372   2.465   9.843 -0.2174 -0.5313 -0.0758
 7483SOL    HW133911   0.456   2.448   9.800  1.3326  0.3256  2.5848
 7483SOL    HW233912   0.391   2.469   9.937  0.1087 -0.9580 -0.1236
 7484SOL     OW33913   1.021   2.569   5.859  0.1622 -0.2120 -0.1315
 7484SOL    HW133914   1.074   2.508   5.807  1.7907  3.0021 -2.2401
 7484SOL    HW233915   1.062   2.651   5.833  0.9398  0.3160  2.7116
 7485SOL     OW33916   2.531   2.408   3.050  0.9448 -0.2550 -0.0424
 7485SOL    HW133917   2.547   2.501   3.064 -0.6640 -0.0021  0.1197
 7485SOL    HW233918   2.493   2.405   2.962  2.2711 -1.0218 -0.5927
 7486SOL     OW33919   0.781   1.705  10.904  0.3252 -0.9188  0.1848
 7486SOL    HW133920   0.868   1.665  10.901  0.1210 -1.4430  1.3461
 7486SOL    HW233921   0.805   1.794  10.931 -1.4363  0.2402 -2.0684
 7487SOL     OW33922   4.312   0.560   6.740  0.2585  0.7728 -0.3547
 7487SOL    HW133923   4.348   0.481   6.699 -0.9024  1.0579 -1.9233
 7487SOL    HW233924   4.355   0.546   6.824 -0.7010 -1.0057 -0.1682
 7488SOL     OW33925   0.088   0.320   9.825 -0.8219  0.5601  0.1680
 7488SOL    HW133926   0.129   0.349   9.743  1.2490 -0.0375  0.9861
 7488SOL    HW233927   0.086   0.404   9.872  0.4833  0.8075 -0.1978
 7489SOL     OW33928   0.802   1.734  10.621  0.0508  0.1737 -0.0805
 7489SOL    HW133929   0.746   1.809  10.641 -0.7763 -0.0633 -1.4522
 7489SOL    HW233930   0.799   1.688  10.705  0.2006  0.2845 -0.0152
 7490SOL     OW33931   4.049   4.052   9.233  0.1634 -0.0420 -0.2492
 7490SOL    HW133932   3.979   3.990   9.252  0.0843  0.7213  2.0097
 7490SOL    HW233933   4.104   3.997   9.177  2.0826  1.5677  0.0592
 7491SOL     OW33934   3.065   1.638   7.951 -0.3279  0.4489 -0.5271
 7491SOL    HW133935   3.136   1.587   7.911  0.2083  1.2703 -0.6170
 7491SOL    HW233936   3.101   1.724   7.973 -1.5173  0.6122  0.7410
 7492SOL     OW33937   0.633   1.571   6.899 -0.0649  0.0875 -0.2486
 7492SOL    HW133938   0.613   1.607   6.813 -0.3320  3.3309  1.1453
 7492SOL    HW233939   0.630   1.476   6.889  2.1903 -0.1209  1.1134
 7493SOL     OW33940   3.907   3.365   3.948 -0.0511  0.1200 -0.2355
 7493SOL    HW133941   3.866   3.421   4.014 -1.5200 -1.4205  0.1465
 7493SOL    HW233942   3.842   3.360   3.878 -1.0280  1.1952  0.5839
 7494SOL     OW33943   3.655   1.642   4.627  0.7378  0.3628 -0.8060
 7494SOL    HW133944   3.645   1.737   4.615 -0.2817  0.0778 -2.2049
 7494SOL    HW233945   3.678   1.637   4.720  0.5972 -0.2314 -0.8090
 7495SOL     OW33946   3.255   0.326   0.369  0.2657 -0.1856 -0.1707
 7495SOL    HW133947   3.193   0.368   0.429 -0.0487  1.3370 -1.5466
 7495SOL    HW233948   3.225   0.355   0.282  4.4085  0.5542 -1.3664
 7496SOL     OW33949   1.164   3.552   6.990  0.1398 -0.3290  0.2063
 7496SOL    HW133950   1.086   3.496   6.992  1.3055 -1.9363  0.7342
 7496SOL    HW233951   1.228   3.497   7.035  0.0330 -1.4733 -1.0178
 7497SOL     OW33952   1.644   0.917   7.117 -0.1806 -0.1856 -0.1831
 7497SOL    HW133953   1.558   0.937   7.156  0.5370  1.3246  0.6272
 7497SOL    HW233954   1.644   0.980   7.044 -2.0616 -0.3492 -0.3283
 7498SOL     OW33955   0.275   0.186   8.737  0.2211  0.4538  0.5834
 7498SOL    HW133956   0.196   0.238   8.728  1.5935  2.2062 -1.1033
 7498SOL    HW233957   0.268   0.135   8.656 -1.0237  2.0564 -0.3040
 7499SOL     OW33958   3.693   2.898   6.180 -1.0981 -0.4327 -0.1021
 7499SOL    HW133959   3.788   2.880   6.182 -0.7874  1.3880  1.4274
 7499SOL    HW233960   3.663   2.807   6.182 -0.2298 -0.7206  0.2084
 7500SOL     OW33961   3.200   1.745  13.810 -0.0736  0.5825 -0.6995
 7500SOL    HW133962   3.182   1.748  13.904 -1.6696  0.4198 -0.9993
 7500SOL    HW233963   3.151   1.820  13.777 -0.5759 -0.0684 -1.4450
 7501SOL     OW33964   3.041   0.493   4.669 -1.1066 -0.0152  0.3396
 7501SOL    HW133965   2.983   0.417   4.667 -0.4541 -0.5547  2.4950
 7501SOL    HW233966   3.056   0.504   4.763  0.6381  0.8068 -0.0325
 7502SOL     OW33967   3.528   2.648   6.720  0.9199 -0.1789 -0.1631
 7502SOL    HW133968   3.609   2.611   6.753  0.6684 -0.6837 -0.1183
 7502SOL    HW233969   3.483   2.565   6.704  0.0814  0.3301 -0.5022
 7503SOL     OW33970   0.924   3.746  10.981  0.2205  0.2050 -0.0873
 7503SOL    HW133971   0.839   3.708  10.959  0.9075 -2.0343  1.1516
 7503SOL    HW233972   0.908   3.803  11.055  2.6184  2.0859 -1.0136
 7504SOL     OW33973   3.724   1.562   1.762 -0.7503 -0.3537 -0.1043
 7504SOL    HW133974   3.739   1.647   1.721 -1.2241  0.8705  2.2937
 7504SOL    HW233975   3.727   1.510   1.681  0.5020 -0.3162 -0.0719
 7505SOL     OW33976   1.446   0.517  15.868  0.2720 -0.0877 -0.0126
 7505SOL    HW133977   1.478   0.535  15.956  1.2912  0.3811 -0.4819
 7505SOL    HW233978   1.366   0.468  15.887  0.3434  0.2472  1.1401
 7506SOL     OW33979   3.232   3.883  15.810 -0.1062 -0.2548 -0.1938
 7506SOL    HW133980   3.161   3.836  15.854 -1.7100  2.4115  0.0523
 7506SOL    HW233981   3.293   3.820  15.771  0.8869  0.0962  0.8139
 7507SOL     OW33982   1.288   0.354   8.615 -0.2506  0.0542 -0.7049
 7507SOL    HW133983   1.287   0.404   8.696 -0.3459 -2.0293  0.5893
 7507SOL    HW233984   1.256   0.266   8.637 -0.3231  0.6360  1.4786
 7508SOL     OW33985   0.036   1.852   1.605 -0.2483 -0.1199 -0.4153
 7508SOL    HW133986   0.117   1.885   1.567  0.7168  0.2635  1.9881
 7508SOL    HW233987   0.056   1.844   1.698  1.4576  0.5969 -0.7255
 7509SOL     OW33988   3.437   2.881   0.895 -0.1148 -0.4404 -0.1166
 7509SOL    HW133989   3.449   2.844   0.808 -0.4383  0.1272 -0.4009
 7509SOL    HW233990   3.376   2.953   0.880  0.0213 -0.3533 -0.2448
 7510SOL     OW33991   1.379   3.438  15.544  0.0055 -0.1382  0.3793
 7510SOL    HW133992   1.311   3.498  15.575  0.1158  1.1387 -1.8102
 7510SOL    HW233993   1.460   3.475  15.577  0.0559 -0.9873  1.1886
 7511SOL     OW33994   2.058   3.020   6.570 -0.1347 -0.4965 -0.0870
 7511SOL    HW133995   2.080   3.111   6.586 -0.1826 -1.0497  3.1104
 7511SOL    HW233996   2.136   2.997   6.521 -1.6898 -3.3523 -1.2094
 7512SOL     OW33997   2.523   1.986   4.797 -0.6824  0.1931 -0.5843
 7512SOL    HW133998   2.435   1.961   4.768  0.2235 -0.8477 -2.4434
 7512SOL    HW233999   2.510   2.057   4.860 -2.8601 -1.0195  0.3397
 7513SOL     OW34000   1.671   3.368   2.643 -0.4106  0.0183 -0.0469
 7513SOL    HW134001   1.745   3.361   2.583 -0.6540 -1.2937 -0.1833
 7513SOL    HW234002   1.626   3.440   2.599 -0.3941 -0.1498 -0.3375
 7514SOL     OW34003   4.215   4.574   8.804 -0.3107  0.6093  0.3917
 7514SOL    HW134004   4.164   4.515   8.859 -1.2730  1.1093  0.0305
 7514SOL    HW234005   4.194   4.664   8.831 -1.0384 -0.5042  3.3970
 7515SOL     OW34006   2.270   2.969   7.353  0.4149  0.0842  0.0391
 7515SOL    HW134007   2.272   3.052   7.399 -1.2810  1.1040 -1.7198
 7515SOL    HW234008   2.194   2.985   7.297  1.2085  1.4136 -0.6274
 7516SOL     OW34009   2.023   4.411   4.075 -0.4909  0.1479  0.1548
 7516SOL    HW134010   2.024   4.436   3.982  0.5919 -1.1933 -0.1791
 7516SOL    HW234011   2.091   4.466   4.112  0.6851 -0.7685 -0.6642
 7517SOL     OW34012   0.563   2.347   5.585 -0.3992  0.0104 -0.1025
 7517SOL    HW134013   0.542   2.383   5.499  0.0865  1.8533  0.5594
 7517SOL    HW234014   0.526   2.412   5.645 -0.2821 -0.2410  0.2427
 7518SOL     OW34015   0.803   0.954  11.886 -0.1386  0.1031  0.1304
 7518SOL    HW134016   0.728   0.991  11.931  0.3941 -0.1048  1.1946
 7518SOL    HW234017   0.762   0.882  11.838  2.0078 -0.2967 -1.1065
 7519SOL     OW34018   2.335   2.707   7.185  0.2250  0.1771  0.3055
 7519SOL    HW134019   2.297   2.786   7.223  0.3912  0.0010  0.8294
 7519SOL    HW234020   2.407   2.738   7.130  1.4990 -1.1495  1.2244
 7520SOL     OW34021   3.410   0.039   3.464  0.1072  0.0119 -0.5155
 7520SOL    HW134022   3.457   0.035   3.547 -1.3031 -1.9241  0.1935
 7520SOL    HW234023   3.359   0.119   3.470  0.6466  0.1681  1.7663
 7521SOL     OW34024   2.778   3.565  13.287  0.1087 -0.2604  0.4526
 7521SOL    HW134025   2.704   3.545  13.229 -0.9817 -0.5887  1.9472
 7521SOL    HW234026   2.819   3.631  13.231 -0.6556  0.8021  1.1550
 7522SOL     OW34027   4.176   3.448   6.958  0.4102 -0.2418  0.3991
 7522SOL    HW134028   4.172   3.385   7.030 -0.5221 -1.3112 -0.5978
 7522SOL    HW234029   4.254   3.498   6.982  0.8406 -0.6557 -0.1274
 7523SOL     OW34030   1.254   1.679  14.589 -0.5783 -0.3592  0.3628
 7523SOL    HW134031   1.238   1.751  14.528  0.9525  0.4128  0.8657
 7523SOL    HW234032   1.340   1.651  14.558 -0.7197  0.9568 -1.2309
 7524SOL     OW34033   2.138   2.748   8.453  0.0009 -0.3505  0.3173
 7524SOL    HW134034   2.071   2.813   8.472  1.1896  1.0447 -0.2323
 7524SOL    HW234035   2.209   2.798   8.413  0.2080  0.0294  1.1519
 7525SOL     OW34036   0.079   4.143   4.809 -0.0469 -0.1648  0.3770
 7525SOL    HW134037   0.133   4.222   4.817  1.0990 -0.8113 -1.2074
 7525SOL    HW234038   0.144   4.083   4.844  0.5633 -0.5676 -1.4638
 7526SOL     OW34039   2.780   1.050   5.524 -0.6794  0.6370  0.2637
 7526SOL    HW134040   2.823   0.964   5.522 -1.6867  0.1291  0.8103
 7526SOL    HW234041   2.725   1.046   5.602 -1.3401  1.0726 -0.1828
 7527SOL     OW34042   3.067   0.351   7.547  0.5220  0.0942  0.3857
 7527SOL    HW134043   3.137   0.295   7.514  1.2313  0.4340  1.3019
 7527SOL    HW234044   3.023   0.301   7.616 -1.8006  2.5604  0.6732
 7528SOL     OW34045   3.536   2.003   7.127  0.1849 -0.2366  0.5683
 7528SOL    HW134046   3.615   1.952   7.110 -0.0067 -0.6139  0.8032
 7528SOL    HW234047   3.535   2.055   7.046  0.2711  0.9370  1.3156
 7529SOL     OW34048   2.074   3.357  17.539  0.0836 -0.3303  0.2252
 7529SOL    HW134049   2.000   3.323  17.488  0.9296 -1.3240 -0.3206
 7529SOL    HW234050   2.041   3.368  17.629 -1.0654  2.7645 -0.5760
 7530SOL     OW34051   2.791   2.641   2.997  0.4847 -0.6925 -0.0391
 7530SOL    HW134052   2.869   2.622   3.050  1.0577  0.5450 -0.4412
 7530SOL    HW234053   2.733   2.656   3.072 -0.6176  2.1750 -1.4714
 7531SOL     OW34054   0.622   0.141   5.907 -0.4250 -0.0631  0.2109
 7531SOL    HW134055   0.604   0.063   5.958  2.0729  0.4063  1.8517
 7531SOL    HW234056   0.535   0.179   5.894 -0.0843 -0.1495 -2.3277
 7532SOL     OW34057   0.237   1.442   3.769  0.0259 -0.1602  0.0193
 7532SOL    HW134058   0.286   1.361   3.780 -0.0678  0.0575  2.2320
 7532SOL    HW234059   0.185   1.440   3.689 -0.5396 -0.3484  0.3912
 7533SOL     OW34060   2.915   0.084   8.137  0.8209  0.0987 -0.5211
 7533SOL    HW134061   2.825   0.098   8.110  1.5335  2.8928 -1.5067
 7533SOL    HW234062   2.905   0.072   8.231 -1.2818 -1.6511 -0.9777
 7534SOL     OW34063   0.428   0.935  17.659 -0.7272  0.0380  0.2272
 7534SOL    HW134064   0.354   0.971   0.001  0.2973  0.6729  1.3092
 7534SOL    HW234065   0.408   0.842  17.653 -2.6104  0.3750  1.1012
 7535SOL     OW34066   4.386   3.968  12.935 -0.1554  0.1472  0.0989
 7535SOL    HW134067   4.364   3.913  12.860  1.3738 -0.2804 -0.0331
 7535SOL    HW234068   4.478   3.988  12.917  0.0813 -0.8656  0.1975
 7536SOL     OW34069   2.906   3.707   5.877 -0.1261 -0.0327  0.0185
 7536SOL    HW134070   2.984   3.756   5.851 -0.5043  0.3670 -0.3733
 7536SOL    HW234071   2.942   3.618   5.878 -0.8483 -0.3266  0.3117
 7537SOL     OW34072   0.096   3.965   5.109  0.2435 -0.6192 -0.1825
 7537SOL    HW134073   0.009   3.943   5.076  0.1702 -0.5789 -0.0102
 7537SOL    HW234074   0.139   3.880   5.115  0.4263 -0.2175  4.2169
 7538SOL     OW34075   1.814   2.392   6.301 -0.0865 -0.3164  0.7883
 7538SOL    HW134076   1.752   2.392   6.228  1.6393 -1.5850 -0.6635
 7538SOL    HW234077   1.776   2.316   6.344  2.3333 -1.0643  1.6118
 7539SOL     OW34078   3.194   3.954   9.169 -0.2187  0.4556 -0.1899
 7539SOL    HW134079   3.131   4.001   9.113 -0.3715  0.3596 -0.0994
 7539SOL    HW234080   3.262   4.019   9.186  0.5957 -0.0882 -1.4196
 7540SOL     OW34081   3.549   3.909   4.831  0.1383 -0.3822  0.5931
 7540SOL    HW134082   3.489   3.956   4.774 -1.0646 -2.6861 -0.0472
 7540SOL    HW234083   3.501   3.831   4.859 -1.5367  0.4699  0.1156
 7541SOL     OW34084   1.790   0.390   4.589 -0.1088  0.6808  0.6065
 7541SOL    HW134085   1.723   0.325   4.611 -1.4912  1.0788 -2.3711
 7541SOL    HW234086   1.730   0.460   4.563  1.6895  2.3660  1.0641
 7542SOL     OW34087   1.709   1.645   8.930 -0.0390 -0.3401  0.1090
 7542SOL    HW134088   1.755   1.572   8.971  1.2454  0.6111  0.3794
 7542SOL    HW234089   1.733   1.719   8.987  0.4282 -1.3295  1.1982
 7543SOL     OW34090   3.518   0.983   6.362 -0.3631 -0.2344 -0.6459
 7543SOL    HW134091   3.462   0.908   6.342 -1.8000  0.9675 -1.0436
 7543SOL    HW234092   3.454   1.043   6.400 -1.2956 -0.7512 -1.4302
 7544SOL     OW34093   1.225   0.041  10.833  0.2761  0.0431  0.2077
 7544SOL    HW134094   1.223   0.132  10.804 -1.0486  0.0679  0.3514
 7544SOL    HW234095   1.138   0.003  10.815 -1.0889  2.8520  0.9261
 7545SOL     OW34096   4.715   2.297   7.960 -0.4414 -0.4696  0.7436
 7545SOL    HW134097   0.083   2.282   7.972  0.0696  1.2451 -1.1300
 7545SOL    HW234098   4.696   2.220   7.907  0.5551  0.3556 -0.8124
 7546SOL     OW34099   0.510   0.852   5.632 -0.6399  0.4513 -0.5180
 7546SOL    HW134100   0.507   0.779   5.570 -3.5026  0.8769 -0.8654
 7546SOL    HW234101   0.562   0.916   5.583 -0.8226  1.8209  1.0776
 7547SOL     OW34102   2.417   1.165   7.040  0.2260  0.2205  0.6159
 7547SOL    HW134103   2.373   1.229   7.095 -0.4285 -0.9316  1.4282
 7547SOL    HW234104   2.428   1.219   6.962 -2.4542  1.7635  1.3150
 7548SOL     OW34105   1.075   2.682   8.608 -0.7334 -0.3767 -0.1240
 7548SOL    HW134106   1.165   2.651   8.597 -1.1837 -2.2371  1.2953
 7548SOL    HW234107   1.033   2.601   8.637  0.1318 -0.3602  1.1707
 7549SOL     OW34108   3.215   0.123   0.124 -0.2466  0.3637 -0.1402
 7549SOL    HW134109   3.147   0.175   0.081  0.2006  0.9703 -0.1128
 7549SOL    HW234110   3.176   0.111   0.211 -0.1166  1.7164  0.1176
 7550SOL     OW34111   4.130   2.066   4.807 -0.2926  0.5333 -0.1247
 7550SOL    HW134112   4.088   2.066   4.893  1.2749  0.8115  0.6449
 7550SOL    HW234113   4.091   2.147   4.773  0.0219  0.1512 -1.3952
 7551SOL     OW34114   1.378   0.346   0.300 -0.9225  0.5600 -0.1363
 7551SOL    HW134115   1.424   0.335   0.383  2.6323 -1.9221 -2.4432
 7551SOL    HW234116   1.289   0.315   0.320  0.0026 -1.7810  0.3805
 7552SOL     OW34117   2.437   1.890  11.813  0.5152 -0.3673 -0.4346
 7552SOL    HW134118   2.464   1.815  11.760  1.5550 -0.4299  0.1753
 7552SOL    HW234119   2.436   1.850  11.901  0.6021 -0.1053 -0.3159
 7553SOL     OW34120   0.519   1.375  16.632 -0.1556  0.2778  0.7986
 7553SOL    HW134121   0.576   1.397  16.705  1.3598  2.6882 -1.1082
 7553SOL    HW234122   0.529   1.447  16.570  0.0429 -0.4753 -0.0499
 7554SOL     OW34123   3.193   2.403   6.232 -0.0055  0.6043 -0.3298
 7554SOL    HW134124   3.135   2.474   6.204  0.7227  0.8755 -1.1522
 7554SOL    HW234125   3.162   2.330   6.179 -0.3250  0.6170 -0.1651
 7555SOL     OW34126   0.782   0.151   2.915  0.1924  0.4880 -0.3250
 7555SOL    HW134127   0.703   0.126   2.963  2.0824 -1.3823  1.8133
 7555SOL    HW234128   0.748   0.235   2.886 -1.1670  0.3790  0.9406
 7556SOL     OW34129   3.436   3.060   7.105 -0.2454  0.2147 -0.2613
 7556SOL    HW134130   3.482   3.138   7.136 -0.4799  0.3465 -0.2451
 7556SOL    HW234131   3.343   3.050   7.127 -0.2463  0.0569 -0.3366
 7557SOL     OW34132   3.643   1.890   5.015 -0.1856 -0.5551 -0.5017
 7557SOL    HW134133   3.660   1.803   4.980  0.0103 -1.5073  1.9561
 7557SOL    HW234134   3.560   1.920   4.978  1.3807  4.2790 -0.2296
 7558SOL     OW34135   4.400   4.417   7.363  0.5150  0.4249  0.1519
 7558SOL    HW134136   4.453   4.408   7.284  0.0281 -1.0187 -0.0104
 7558SOL    HW234137   4.374   4.326   7.378 -2.2791  1.4894  1.8753
 7559SOL     OW34138   4.043   1.601   3.521  0.4048  0.5006  0.1016
 7559SOL    HW134139   3.993   1.649   3.455 -2.3264 -0.4930  1.4429
 7559SOL    HW234140   4.130   1.601   3.480 -0.1065  0.2356 -0.9575
 7560SOL     OW34141   0.622   3.245   5.795 -0.4715 -0.6585 -0.0123
 7560SOL    HW134142   0.652   3.218   5.708 -1.0690  1.8191 -0.9789
 7560SOL    HW234143   0.540   3.195   5.801  0.3624 -1.9638  0.6473
 7561SOL     OW34144   0.112   2.434   1.871 -0.0498 -0.2847 -0.2849
 7561SOL    HW134145   0.138   2.521   1.843  1.3654 -0.3698  0.7778
 7561SOL    HW234146   0.189   2.418   1.925 -0.1912 -2.1397 -0.6226
 7562SOL     OW34147   3.131   3.427   8.368  0.4094  0.7240  0.3647
 7562SOL    HW134148   3.058   3.487   8.380 -0.8417 -0.4825 -1.2308
 7562SOL    HW234149   3.199   3.484   8.330 -1.2532  0.7824 -2.5190
 7563SOL     OW34150   4.347   2.526   4.773 -0.2503 -0.7904 -0.3498
 7563SOL    HW134151   4.289   2.546   4.700 -0.6169  1.2769  0.4977
 7563SOL    HW234152   4.361   2.433   4.760 -0.2230 -0.8235 -0.0915
 7564SOL     OW34153   4.311   2.158   5.389  0.0092 -0.0531  0.7581
 7564SOL    HW134154   4.218   2.161   5.412 -0.3430 -1.4003 -0.5393
 7564SOL    HW234155   4.315   2.239   5.338  0.6415 -1.4721 -1.4336
 7565SOL     OW34156   1.401   2.111  14.233 -0.2016 -0.6056 -0.1525
 7565SOL    HW134157   1.379   2.106  14.326 -1.7030  1.6272 -0.3912
 7565SOL    HW234158   1.351   2.183  14.196  0.3350  1.2035  2.5983
 7566SOL     OW34159   0.798   1.465   4.607  0.1234  0.0312  0.2171
 7566SOL    HW134160   0.842   1.513   4.537 -0.6394  1.6016  0.8113
 7566SOL    HW234161   0.778   1.382   4.564  0.9430 -0.4795  0.8277
 7567SOL     OW34162   2.963   4.325  11.166 -0.2497  0.4111 -0.5835
 7567SOL    HW134163   2.953   4.418  11.142  0.4762  0.8064  0.6397
 7567SOL    HW234164   2.873   4.307  11.193 -0.5328  0.3149 -1.6194
 7568SOL     OW34165   4.293   1.831   8.995  0.0687  0.0974 -0.1123
 7568SOL    HW134166   4.260   1.769   9.061 -0.3690  0.5365  0.0799
 7568SOL    HW234167   4.341   1.894   9.049  0.6840  1.2168 -1.9626
 7569SOL     OW34168   1.057   0.483   3.576 -0.6317  0.1774 -0.5049
 7569SOL    HW134169   1.118   0.449   3.642 -1.1334 -1.1048 -0.6980
 7569SOL    HW234170   1.058   0.419   3.505 -1.4777 -2.1788  1.6273
 7570SOL     OW34171   3.435   0.261   6.811  0.7127  0.4106  0.2407
 7570SOL    HW134172   3.490   0.266   6.889  0.5069  2.2020  0.2630
 7570SOL    HW234173   3.374   0.332   6.830  0.1947 -0.3381  1.3786
 7571SOL     OW34174   3.080   1.472  13.769 -0.2911 -0.3031  0.0257
 7571SOL    HW134175   3.138   1.549  13.765 -1.9663  0.9031 -1.0373
 7571SOL    HW234176   3.004   1.511  13.810  0.1922  1.1389 -0.4259
 7572SOL     OW34177   4.447   4.101   1.155 -0.4330  0.4636 -0.7674
 7572SOL    HW134178   4.484   4.058   1.077 -0.4766 -0.2725 -0.3850
 7572SOL    HW234179   4.498   4.182   1.158  0.4183 -0.0062 -2.1789
 7573SOL     OW34180   1.898   4.495   6.369 -0.2989 -0.2852 -0.5988
 7573SOL    HW134181   1.916   4.556   6.441  2.9270  1.2814 -2.6979
 7573SOL    HW234182   1.816   4.528   6.331 -0.1599  0.8777  0.1042
 7574SOL     OW34183   1.130   0.302   3.856 -0.1186 -0.0327  0.3704
 7574SOL    HW134184   1.182   0.300   3.775 -2.9784 -0.7868 -1.4337
 7574SOL    HW234185   1.125   0.208   3.872  1.8753 -0.0444  0.9196
 7575SOL     OW34186   3.826   0.770   2.849  0.0642 -0.0068  0.2462
 7575SOL    HW134187   3.752   0.816   2.809  1.4848  4.0193  2.3237
 7575SOL    HW234188   3.791   0.705   2.910 -0.1975 -0.5482 -0.4639
 7576SOL     OW34189   0.511   3.549  15.606 -0.1615 -0.5455 -0.3200
 7576SOL    HW134190   0.502   3.560  15.512 -1.4533  1.3484  0.0328
 7576SOL    HW234191   0.423   3.574  15.635 -1.2471 -1.9071 -2.4436
 7577SOL     OW34192   1.933   4.698  13.189  0.5804 -0.5724 -0.7216
 7577SOL    HW134193   1.934   4.720  13.282  0.7474 -2.4420 -0.2782
 7577SOL    HW234194   1.841   4.671  13.182  0.1895 -0.2344  2.9426
 7578SOL     OW34195   2.927   3.143   8.215 -0.4661  0.0489  0.8029
 7578SOL    HW134196   2.985   3.120   8.288  2.7074 -3.3865 -2.7766
 7578SOL    HW234197   2.858   3.078   8.227  0.2897 -1.0237 -0.5556
 7579SOL     OW34198   0.739   2.668   7.143 -0.1522 -0.2383  0.2217
 7579SOL    HW134199   0.750   2.749   7.093 -0.5646 -1.6000 -2.0305
 7579SOL    HW234200   0.770   2.687   7.232  0.5978 -2.0943  0.3671
 7580SOL     OW34201   2.724   3.670   2.331  0.2679  0.6282 -0.7293
 7580SOL    HW134202   2.769   3.635   2.407 -1.3087 -0.4337 -0.2997
 7580SOL    HW234203   2.679   3.743   2.372 -0.0421 -0.0166  0.0538
 7581SOL     OW34204   0.429   3.156   7.503 -0.3684 -0.1964  0.1709
 7581SOL    HW134205   0.394   3.067   7.497 -2.3496  0.4868  1.5312
 7581SOL    HW234206   0.400   3.203   7.426 -0.5868 -1.3860 -0.4738
 7582SOL     OW34207   3.808   2.562   4.307 -0.2242 -0.2983 -0.5536
 7582SOL    HW134208   3.760   2.624   4.362  2.1308  0.8420  0.2317
 7582SOL    HW234209   3.870   2.622   4.267  0.3188  0.4954  1.4512
 7583SOL     OW34210   2.041   4.577  14.467 -0.8202 -0.2042 -0.3258
 7583SOL    HW134211   2.081   4.546  14.386 -0.4557 -0.3623 -0.0843
 7583SOL    HW234212   2.086   4.518  14.527 -3.2643  1.7263  3.4358
 7584SOL     OW34213   0.372   4.493   4.452 -0.4459 -0.1604 -0.1465
 7584SOL    HW134214   0.391   4.586   4.440 -1.5169  0.0686 -0.0976
 7584SOL    HW234215   0.445   4.453   4.405 -0.0607  0.9719 -0.5067
 7585SOL     OW34216   3.361   4.503   0.830 -0.2179  0.0706  0.5427
 7585SOL    HW134217   3.390   4.555   0.905 -2.8865  3.1839 -0.5711
 7585SOL    HW234218   3.367   4.562   0.755  0.0248 -0.1981  0.3541
 7586SOL     OW34219   3.879   0.956  16.127 -0.3123  0.4156  0.0119
 7586SOL    HW134220   3.944   0.977  16.061  0.4302 -0.2687  0.5094
 7586SOL    HW234221   3.801   0.934  16.077  0.2630  0.9829 -1.1227
 7587SOL     OW34222   4.227   3.815  10.627  0.0350  0.5789 -0.2606
 7587SOL    HW134223   4.235   3.761  10.548 -2.0599  0.2905 -0.2909
 7587SOL    HW234224   4.318   3.809  10.655  0.0407  1.5222 -0.0758
 7588SOL     OW34225   3.441   2.118  17.491 -0.4330  0.4417 -0.5852
 7588SOL    HW134226   3.385   2.192  17.515 -1.6263 -0.6834  0.0892
 7588SOL    HW234227   3.517   2.169  17.464 -1.2698  1.3072 -1.3208
 7589SOL     OW34228   4.308   0.134   3.402  0.7090 -0.5251 -0.1607
 7589SOL    HW134229   4.400   0.135   3.430  0.4766 -0.5649  0.5764
 7589SOL    HW234230   4.295   0.042   3.379 -1.2903 -0.5381  1.1006
 7590SOL     OW34231   3.561   3.554   3.412  0.3790  0.4715  0.3789
 7590SOL    HW134232   3.524   3.607   3.341 -0.9041  1.3411  1.7069
 7590SOL    HW234233   3.650   3.590   3.417  0.7483 -0.0506 -2.0738
 7591SOL     OW34234   1.071   3.977   7.638  0.1138 -0.1624  0.5985
 7591SOL    HW134235   1.017   3.999   7.562 -0.5493 -1.9346  0.5550
 7591SOL    HW234236   1.033   3.892   7.662  0.2759 -0.9052 -1.7774
 7592SOL     OW34237   2.969   3.022   4.362 -0.5369 -1.0268  0.1969
 7592SOL    HW134238   2.890   3.047   4.313 -0.3376 -1.8580 -0.5472
 7592SOL    HW234239   2.992   3.106   4.402  0.2203 -1.5890  0.9502
 7593SOL     OW34240   2.521   3.863   1.632  0.0809 -0.1633 -0.8296
 7593SOL    HW134241   2.465   3.830   1.562 -1.3310 -0.7085  0.5804
 7593SOL    HW234242   2.601   3.813   1.614 -0.1927 -0.7535 -0.3818
 7594SOL     OW34243   0.234   3.027   9.645  0.1023  0.5675 -0.2857
 7594SOL    HW134244   0.155   3.029   9.700  0.7948  2.1790  0.6312
 7594SOL    HW234245   0.243   3.114   9.607 -2.3436  0.6954 -0.5747
 7595SOL     OW34246   0.007   0.415   5.475 -0.0748  0.0087 -0.2660
 7595SOL    HW134247   0.029   0.362   5.398  0.6117  0.2073 -0.2037
 7595SOL    HW234248   0.053   0.496   5.453  1.0010 -0.1541  1.4074
 7596SOL     OW34249   2.782   1.871   6.758  0.2824 -0.6664  0.0148
 7596SOL    HW134250   2.850   1.825   6.808 -1.5028 -0.2781  2.7744
 7596SOL    HW234251   2.717   1.894   6.824  2.3573  3.5883  0.5290
 7597SOL     OW34252   4.143   2.188   2.629 -0.6405  1.1780  0.0927
 7597SOL    HW134253   4.116   2.266   2.678 -0.7114  0.1963  1.6349
 7597SOL    HW234254   4.125   2.119   2.694  3.4387 -0.9644 -1.0235
 7598SOL     OW34255   1.007   2.563  17.087 -0.0115  0.6250  0.4400
 7598SOL    HW134256   0.942   2.522  17.030  1.0127  0.1618 -0.4007
 7598SOL    HW234257   1.075   2.582  17.022 -0.5289  0.1346 -0.2383
 7599SOL     OW34258   4.555   2.588  17.110 -0.3566  0.5843 -0.0840
 7599SOL    HW134259   4.569   2.682  17.100 -2.5502  1.4046  4.7991
 7599SOL    HW234260   4.502   2.569  17.032  0.8287  3.3460 -1.5381
 7600SOL     OW34261   4.477   1.039   6.908  0.1148 -0.2360 -0.1056
 7600SOL    HW134262   4.535   1.115   6.916 -0.2805  0.1823 -1.1073
 7600SOL    HW234263   4.432   1.061   6.989  1.1610 -0.7205  0.6040
 7601SOL     OW34264   1.418   3.890  16.710 -0.3732 -0.6091  0.4215
 7601SOL    HW134265   1.383   3.954  16.647  1.8768 -0.3431 -0.5482
 7601SOL    HW234266   1.434   3.823  16.644 -0.2682  0.9009 -1.0860
 7602SOL     OW34267   3.345   4.167   0.534 -0.2942  0.0053  0.4342
 7602SOL    HW134268   3.271   4.226   0.524 -1.2599 -1.0428  1.3620
 7602SOL    HW234269   3.330   4.096   0.472 -1.9636  1.6502 -1.0564
 7603SOL     OW34270   2.189   3.628   7.752 -0.5831  0.4970  0.3026
 7603SOL    HW134271   2.269   3.679   7.742 -0.9267  0.9089 -0.3781
 7603SOL    HW234272   2.217   3.539   7.771 -1.3228  0.2380  0.1936
 7604SOL     OW34273   2.870   4.003   4.164 -0.1269 -0.0074 -0.2758
 7604SOL    HW134274   2.796   4.041   4.117  1.3637 -0.5175 -3.0461
 7604SOL    HW234275   2.912   4.077   4.208 -1.4784 -0.6304  2.0281
 7605SOL     OW34276   2.781   1.699   5.224 -0.1132 -0.1970  0.1735
 7605SOL    HW134277   2.864   1.678   5.182 -1.1724 -1.6353 -1.1674
 7605SOL    HW234278   2.756   1.767   5.161 -0.4863  0.5648  1.1470
 7606SOL     OW34279   2.794   1.429   9.138  0.7127 -0.0251  0.4465
 7606SOL    HW134280   2.787   1.334   9.139  0.3464 -0.0276 -2.2887
 7606SOL    HW234281   2.864   1.439   9.073 -0.7036  2.2982 -0.7208
 7607SOL     OW34282   3.201   1.519   3.150  0.1212 -0.0426 -0.1056
 7607SOL    HW134283   3.161   1.605   3.165 -1.5624 -0.7712 -0.4210
 7607SOL    HW234284   3.289   1.524   3.187  0.2107  0.0347 -0.3291
 7608SOL     OW34285   2.647   4.447   2.693 -0.5404  0.5081 -0.0582
 7608SOL    HW134286   2.558   4.435   2.726  0.6454 -0.3279  2.8746
 7608SOL    HW234287   2.648   4.542   2.688  0.5822  0.7108  4.0181
 7609SOL     OW34288   2.139   3.238   4.434  0.0673  0.2255  0.8099
 7609SOL    HW134289   2.231   3.262   4.450  0.4731 -2.1572  2.1147
 7609SOL    HW234290   2.127   3.148   4.466 -2.2666 -0.1291 -1.0597
 7610SOL     OW34291   2.858   2.243   8.876 -0.0604 -0.4278 -0.4674
 7610SOL    HW134292   2.827   2.323   8.833 -1.7097 -0.7018  0.1867
 7610SOL    HW234293   2.789   2.240   8.943 -0.3625 -0.6523 -0.7927
 7611SOL     OW34294   2.538   0.718  13.711  0.0163  0.4262  0.0802
 7611SOL    HW134295   2.462   0.776  13.715 -1.2652 -1.2505 -0.0844
 7611SOL    HW234296   2.559   0.733  13.619 -1.2742  1.6414 -0.0236
 7612SOL     OW34297   3.127   1.237   2.457 -0.1873 -0.3324  0.0314
 7612SOL    HW134298   3.119   1.232   2.552 -1.8729 -0.8689 -0.1421
 7612SOL    HW234299   3.187   1.168   2.430  1.1257  0.3992  1.1084
 7613SOL     OW34300   3.796   2.670  13.634 -0.4417  0.0309  0.3111
 7613SOL    HW134301   3.740   2.701  13.706  1.0735  0.0538  1.4886
 7613SOL    HW234302   3.747   2.599  13.595  0.3137 -0.1433 -0.3149
 7614SOL     OW34303   2.586   3.667   0.665  0.0134 -0.4214 -0.4577
 7614SOL    HW134304   2.679   3.646   0.674 -0.1687 -0.1733  2.1615
 7614SOL    HW234305   2.572   3.723   0.741 -1.4951  0.8201 -1.6705
 7615SOL     OW34306   0.732   4.144   1.388 -0.0356  0.4458  0.0197
 7615SOL    HW134307   0.671   4.134   1.316 -2.6726  0.2870  2.2847
 7615SOL    HW234308   0.725   4.051   1.411  1.1858  0.0298 -1.2683
 7616SOL     OW34309   4.355   1.356   8.942  0.5542 -0.4052 -0.1497
 7616SOL    HW134310   4.400   1.439   8.927 -1.8429  0.6856 -1.3906
 7616SOL    HW234311   4.400   1.328   9.022 -0.9581  0.0871  0.8956
 7617SOL     OW34312   2.851   4.009   0.993  0.2898  0.3831  0.0648
 7617SOL    HW134313   2.821   4.049   0.912  3.5723 -0.9086 -1.7924
 7617SOL    HW234314   2.894   3.928   0.964  3.1130  1.3957  1.3798
 7618SOL     OW34315   4.172   1.704   9.412  0.0640  0.3736  0.0538
 7618SOL    HW134316   4.183   1.795   9.382  0.4176  0.1769 -0.4121
 7618SOL    HW234317   4.131   1.723   9.496 -0.3227  1.0761 -0.2983
 7619SOL     OW34318   1.150   1.447   5.448 -1.0898  0.1604  0.5711
 7619SOL    HW134319   1.082   1.482   5.391 -0.2759  1.2202  0.2442
 7619SOL    HW234320   1.230   1.479   5.406  0.2952 -1.7194  1.7857
 7620SOL     OW34321   2.839   2.883   2.033  0.2662 -0.2108 -0.0776
 7620SOL    HW134322   2.872   2.839   1.955 -1.6675 -1.1690 -0.3451
 7620SOL    HW234323   2.750   2.901   2.004 -0.0503 -0.7419  0.5635
 7621SOL     OW34324   1.373   3.742   5.793 -0.2916 -0.4837  0.3915
 7621SOL    HW134325   1.342   3.670   5.738 -4.2237  2.5771 -1.3642
 7621SOL    HW234326   1.469   3.740   5.786 -0.2571  4.3226  0.0138
 7622SOL     OW34327   1.723   3.501   0.254  0.5808  0.2269 -0.0207
 7622SOL    HW134328   1.651   3.456   0.211  0.8414  1.8715 -2.1835
 7622SOL    HW234329   1.699   3.486   0.345  0.8212  0.0916  0.0225
 7623SOL     OW34330   2.875   1.526   4.273 -0.2308 -0.1521  0.2092
 7623SOL    HW134331   2.962   1.553   4.243 -0.4623  0.1438 -0.2102
 7623SOL    HW234332   2.889   1.439   4.310  2.1573 -0.1346 -0.5932
 7624SOL     OW34333   3.841   2.110   1.713  0.1612 -0.0490  0.4920
 7624SOL    HW134334   3.926   2.065   1.707  0.0714 -0.1707  0.0597
 7624SOL    HW234335   3.791   2.073   1.640  1.0589  0.0492 -0.1750
 7625SOL     OW34336   0.458   1.050   5.406 -0.0570  0.0384 -0.4025
 7625SOL    HW134337   0.413   1.132   5.423  0.2213  0.2937 -0.9047
 7625SOL    HW234338   0.385   0.993   5.384 -1.9998  2.7617 -0.9360
 7626SOL     OW34339   3.463   3.435  10.745  0.0144  0.1716  0.2374
 7626SOL    HW134340   3.463   3.506  10.682 -4.3903 -0.3950 -0.4314
 7626SOL    HW234341   3.375   3.397  10.741  0.9561 -2.0906  0.4830
 7627SOL     OW34342   0.924   1.417   9.178 -0.2670 -0.5056 -0.1730
 7627SOL    HW134343   0.839   1.460   9.176  0.8381  1.7787  1.9599
 7627SOL    HW234344   0.900   1.343   9.123  0.4215 -1.0980  0.3120
 7628SOL     OW34345   1.983   3.819   8.369 -0.1246 -0.8189 -0.6028
 7628SOL    HW134346   1.990   3.861   8.455  0.9203 -1.4458 -0.3886
 7628SOL    HW234347   2.068   3.775   8.369  0.8256  1.0316  0.0018
 7629SOL     OW34348   3.169   2.950   2.802  0.0849 -0.0093 -0.4522
 7629SOL    HW134349   3.204   2.866   2.832  1.0561 -0.1716 -2.0040
 7629SOL    HW234350   3.164   2.940   2.707  1.4370 -0.9904 -0.4203
 7630SOL     OW34351   4.112   2.336   8.403 -0.3775  0.2133 -0.0793
 7630SOL    HW134352   4.136   2.362   8.315  0.7713  1.7618  0.6870
 7630SOL    HW234353   4.164   2.387   8.465 -0.4149 -1.7499  1.5861
 7631SOL     OW34354   2.008   2.629  14.999  0.7221  0.1511  0.2599
 7631SOL    HW134355   1.919   2.665  15.010  1.6549  1.9237  1.9589
 7631SOL    HW234356   2.011   2.632  14.904 -1.4545 -1.4982  0.1038
 7632SOL     OW34357   4.598   3.121   7.058 -0.6022 -0.2846  0.3347
 7632SOL    HW134358   4.533   3.176   7.101  0.4430 -0.8685  2.6464
 7632SOL    HW234359   4.584   3.142   6.965 -1.8516 -1.2329  0.3082
 7633SOL     OW34360   1.967   3.456   0.075 -0.1260 -0.9965 -0.1211
 7633SOL    HW134361   1.876   3.459   0.106 -0.2176 -2.9906 -0.1937
 7633SOL    HW234362   1.986   3.549   0.085 -0.3147 -0.7834 -1.6932
 7634SOL     OW34363   0.540   4.114  12.195  0.8297  0.1060  0.6747
 7634SOL    HW134364   0.451   4.081  12.182  1.5569 -0.9909 -1.5204
 7634SOL    HW234365   0.524   4.206  12.214  3.0003  0.8399 -0.9774
 7635SOL     OW34366   3.001   2.423  17.458 -0.6853 -0.2790  0.4714
 7635SOL    HW134367   3.007   2.353  17.393 -1.2540  0.1029  0.0071
 7635SOL    HW234368   2.907   2.434  17.471 -0.7453 -0.4243  0.1640
 7636SOL     OW34369   0.226   4.152   7.640  0.5444 -0.2104  0.2428
 7636SOL    HW134370   0.214   4.062   7.671  0.0026 -0.2614 -0.1145
 7636SOL    HW234371   0.133   4.170   7.643  0.6748  0.3478  0.7817
 7637SOL     OW34372   1.741   1.774   8.365 -0.7914  0.0138 -0.6735
 7637SOL    HW134373   1.702   1.798   8.449  0.8268  1.1778 -0.2442
 7637SOL    HW234374   1.747   1.681   8.387 -2.6822 -0.0102 -0.2717
 7638SOL     OW34375   2.537   3.182  13.700  0.2187  0.0031 -0.8960
 7638SOL    HW134376   2.553   3.259  13.755 -0.7722  1.5335 -2.7712
 7638SOL    HW234377   2.625   3.152  13.677  0.4890  0.3458 -0.3065
 7639SOL     OW34378   2.482   0.804  15.400 -0.2156 -0.4686 -0.2053
 7639SOL    HW134379   2.520   0.716  15.402  1.6268  0.3701  2.1559
 7639SOL    HW234380   2.478   0.829  15.492  0.5725  2.6092 -0.9808
 7640SOL     OW34381   3.979   0.447   6.598 -0.5610  0.3045 -0.5934
 7640SOL    HW134382   3.901   0.480   6.642 -0.2871  0.9893 -0.6127
 7640SOL    HW234383   4.031   0.419   6.674  1.9161  0.1783 -2.3633
 7641SOL     OW34384   2.184   4.339   6.103 -0.3480  0.7735 -0.0595
 7641SOL    HW134385   2.258   4.291   6.140  1.1033  1.5632 -1.9488
 7641SOL    HW234386   2.200   4.423   6.147 -0.4735  1.9527 -2.2636
 7642SOL     OW34387   2.211   3.062   5.209  1.2422 -0.8220  0.5064
 7642SOL    HW134388   2.199   3.122   5.135 -0.9081 -0.4670  1.1311
 7642SOL    HW234389   2.279   3.005   5.173 -0.5356 -2.6474  0.0625
 7643SOL     OW34390   4.043   1.641  12.995  0.6421 -0.1015 -0.5121
 7643SOL    HW134391   4.051   1.701  13.069 -0.0501  1.3395 -1.6048
 7643SOL    HW234392   4.122   1.588  13.003 -0.6053 -1.6188  1.5739
 7644SOL     OW34393   1.170   3.240   6.875  0.3178  0.0077 -0.0128
 7644SOL    HW134394   1.091   3.263   6.924 -0.4273  0.4898 -1.4446
 7644SOL    HW234395   1.152   3.154   6.837  1.6159  0.1861 -1.0370
 7645SOL     OW34396   2.660   2.896   4.125 -0.1067 -0.4525 -0.1584
 7645SOL    HW134397   2.710   2.959   4.073 -0.8570  0.2098 -0.0824
 7645SOL    HW234398   2.585   2.948   4.153 -0.3397 -0.7750 -0.1777
 7646SOL     OW34399   2.819   4.258   1.149  0.5612  0.3781  0.0731
 7646SOL    HW134400   2.725   4.247   1.164  0.6470 -1.0676 -0.4235
 7646SOL    HW234401   2.849   4.170   1.124  0.1150 -0.1270  1.2784
 7647SOL     OW34402   1.637   1.836   4.454 -0.2944  0.3726  0.1684
 7647SOL    HW134403   1.572   1.852   4.523  1.0775  1.2706  1.2380
 7647SOL    HW234404   1.640   1.922   4.412 -1.2271  0.0240 -0.6318
 7648SOL     OW34405   0.859   0.146  11.012  0.0786  0.0451 -0.0286
 7648SOL    HW134406   0.921   0.214  11.039 -0.8604  0.5747  0.7667
 7648SOL    HW234407   0.818   0.111  11.091 -0.0029  1.2005  0.4383
 7649SOL     OW34408   2.269   3.407   7.895  0.3452  0.2973  0.1414
 7649SOL    HW134409   2.250   3.393   7.987  1.7935 -2.5738  0.0100
 7649SOL    HW234410   2.354   3.451   7.902  0.6707 -0.6189  1.7517
 7650SOL     OW34411   3.521   1.315  17.572  0.2303  0.5435  0.4198
 7650SOL    HW134412   3.572   1.396  17.569 -0.7990  1.1747 -0.1600
 7650SOL    HW234413   3.523   1.305  17.668 -0.3972  1.7724  0.5609
 7651SOL     OW34414   0.621   3.262   3.876 -0.1468 -0.3809 -0.9629
 7651SOL    HW134415   0.707   3.221   3.885 -0.6492 -1.0800  0.7624
 7651SOL    HW234416   0.621   3.310   3.959  3.0788  1.5866 -2.1068
 7652SOL     OW34417   4.156   0.014   6.104  0.2283 -0.0147 -0.2396
 7652SOL    HW134418   4.187   0.087   6.159  0.9723 -1.7820  1.6783
 7652SOL    HW234419   4.067   0.037   6.076 -0.8213 -1.0013  2.3048
 7653SOL     OW34420   0.687   4.373   0.706 -0.0409  0.2915 -0.3382
 7653SOL    HW134421   0.619   4.364   0.638  0.0514  0.0943 -0.4050
 7653SOL    HW234422   0.730   4.447   0.663  1.6067 -0.0335  0.7558
 7654SOL     OW34423   2.571   0.753  13.444  0.0236 -0.7674  0.2243
 7654SOL    HW134424   2.483   0.729  13.415 -0.1075 -0.3159  0.2446
 7654SOL    HW234425   2.574   0.834  13.393  1.4897 -1.2791 -0.5167
 7655SOL     OW34426   0.234   3.045   7.105  0.1964 -0.6080 -0.1842
 7655SOL    HW134427   0.260   2.978   7.169 -0.3066 -2.7715 -2.2475
 7655SOL    HW234428   0.181   2.990   7.048  1.1836 -1.8731  0.1207
 7656SOL     OW34429   3.302   0.751   9.017 -0.4509  0.3796  0.0451
 7656SOL    HW134430   3.301   0.710   9.104  1.2972  0.5643  0.1441
 7656SOL    HW234431   3.388   0.738   8.978  0.3175 -1.6036  2.4159
 7657SOL     OW34432   0.358   2.400   7.249  0.1729  0.2430  0.2312
 7657SOL    HW134433   0.414   2.343   7.301 -0.5811 -2.6436 -2.1212
 7657SOL    HW234434   0.289   2.336   7.231 -0.4338  0.9614 -0.0099
 7658SOL     OW34435   0.277   3.989   4.648 -0.0079  0.1367  0.0484
 7658SOL    HW134436   0.275   4.083   4.630 -3.0570  0.1106  0.3379
 7658SOL    HW234437   0.330   3.987   4.728  0.2106  0.4603 -0.0916
 7659SOL     OW34438   2.161   1.994   0.916  0.6260 -0.1574 -0.8529
 7659SOL    HW134439   2.177   2.083   0.884  0.6465  0.2543  0.3161
 7659SOL    HW234440   2.191   1.940   0.843  0.5736 -1.2507 -0.0670
 7660SOL     OW34441   2.100   4.001  16.320  0.2320  0.1633  0.4541
 7660SOL    HW134442   2.193   3.995  16.296  0.5504 -1.3168  2.0761
 7660SOL    HW234443   2.076   4.089  16.292  1.1789  0.2467 -0.0861
 7661SOL     OW34444   2.644   2.163   2.883 -0.0774 -0.5785 -0.1191
 7661SOL    HW134445   2.632   2.150   2.789  0.7589  0.8345 -0.4344
 7661SOL    HW234446   2.717   2.225   2.882 -1.3879  1.0233  1.7473
 7662SOL     OW34447   3.308   3.066   4.491 -0.3081  0.9336  0.2749
 7662SOL    HW134448   3.280   3.154   4.514  0.2870  1.5096 -1.1969
 7662SOL    HW234449   3.309   3.078   4.396 -0.8696 -0.9573  0.0216
 7663SOL     OW34450   1.368   2.542  13.320 -0.3200 -0.2249  0.0525
 7663SOL    HW134451   1.282   2.555  13.360 -1.1654 -1.4835 -1.3698
 7663SOL    HW234452   1.353   2.580  13.233 -0.2748 -0.6259 -0.1313
 7664SOL     OW34453   4.691   3.194   4.113  0.2523  0.0670  0.1962
 7664SOL    HW134454   4.668   3.204   4.021 -0.0825  0.9938  0.3875
 7664SOL    HW234455   4.681   3.100   4.130 -2.3396  0.6902  2.0926
 7665SOL     OW34456   0.024   0.476  16.940 -0.0058  0.0174 -0.0452
 7665SOL    HW134457   0.029   0.408  17.007 -1.0401  0.7624  0.7887
 7665SOL    HW234458   4.656   0.483  16.926  0.2789 -0.3375 -2.1991
 7666SOL     OW34459   2.429   1.030   1.604  0.0396  0.2380 -0.2077
 7666SOL    HW134460   2.432   1.125   1.618  0.0389  0.1912  0.1031
 7666SOL    HW234461   2.337   1.004   1.607  0.8067 -2.7720 -2.5023
 7667SOL     OW34462   4.459   3.816   7.739  0.2855  0.0228  0.5761
 7667SOL    HW134463   4.464   3.812   7.834  0.2892 -0.6013  0.5493
 7667SOL    HW234464   4.466   3.722   7.725 -0.0600 -0.0001  0.5680
 7668SOL     OW34465   0.984   4.218   0.169 -0.2371  0.1910 -0.9559
 7668SOL    HW134466   0.946   4.256   0.089 -1.0298 -1.3410 -1.3052
 7668SOL    HW234467   0.934   4.261   0.238  0.1380 -1.2601  0.2300
 7669SOL     OW34468   0.859   0.677  13.082  0.3800  0.3138 -0.0041
 7669SOL    HW134469   0.936   0.735  13.085 -1.0629  2.2864 -1.1701
 7669SOL    HW234470   0.845   0.656  12.989 -1.6548 -0.3440  0.4675
 7670SOL     OW34471   3.640   2.484   6.484  0.3654  0.1944 -0.1987
 7670SOL    HW134472   3.587   2.564   6.489 -2.6876 -1.7349 -1.1306
 7670SOL    HW234473   3.578   2.411   6.486 -1.7756  1.9938 -0.6107
 7671SOL     OW34474   4.232   4.582   2.362 -0.2084 -0.4361 -0.2162
 7671SOL    HW134475   4.139   4.572   2.382 -0.3051  0.6895 -0.1237
 7671SOL    HW234476   4.255   4.665   2.405  1.8303 -1.2253  0.2423
 7672SOL     OW34477   1.986   0.754   9.460 -0.3505  0.0851 -0.4944
 7672SOL    HW134478   1.945   0.795   9.537  1.9719 -1.9338  1.7954
 7672SOL    HW234479   2.010   0.834   9.412  1.4139 -0.8911 -1.2475
 7673SOL     OW34480   0.077   3.684  11.308  0.2934 -0.1384  0.0311
 7673SOL    HW134481   0.085   3.739  11.386 -0.8270  2.4371 -1.6817
 7673SOL    HW234482   0.034   3.610  11.352 -2.0778  1.3619  0.2475
 7674SOL     OW34483   0.372   0.278   6.295 -0.0707  0.0063 -0.4369
 7674SOL    HW134484   0.304   0.271   6.229  0.1899 -0.4819 -0.6518
 7674SOL    HW234485   0.412   0.193   6.277 -1.3650 -0.5706 -0.6193
 7675SOL     OW34486   1.910   3.092  15.771 -0.4578  0.2626 -0.5669
 7675SOL    HW134487   1.825   3.126  15.797 -0.3629  0.1262 -0.0690
 7675SOL    HW234488   1.894   3.066  15.680 -1.0528 -1.1213 -0.0537
 7676SOL     OW34489   1.424   0.813   2.541 -0.1698  0.1594 -0.3296
 7676SOL    HW134490   1.330   0.821   2.530 -0.1636  0.6710  0.0055
 7676SOL    HW234491   1.416   0.816   2.637  0.4946 -0.2229 -0.2586
 7677SOL     OW34492   4.301   2.030   3.047 -0.1530 -0.0040  0.4997
 7677SOL    HW134493   4.220   2.082   3.054 -0.5297 -0.2871 -1.6196
 7677SOL    HW234494   4.273   1.947   3.085 -0.9125  1.5163  3.2265
 7678SOL     OW34495   4.695   1.694  13.055  0.0404  0.0693 -0.4671
 7678SOL    HW134496   0.043   1.743  13.089 -0.9932  0.9789  0.4513
 7678SOL    HW234497   4.644   1.769  13.028 -0.3568  0.4394  1.3257
 7679SOL     OW34498   2.146   3.647   9.403  0.2395 -0.4484  0.0801
 7679SOL    HW134499   2.074   3.658   9.341 -0.2427 -1.2975  0.4818
 7679SOL    HW234500   2.174   3.559   9.379  0.2378 -0.2916 -0.4866
 7680SOL     OW34501   3.399   4.043   2.709  0.7414 -0.4183 -0.0931
 7680SOL    HW134502   3.365   4.133   2.699  0.5562 -0.3492  1.1714
 7680SOL    HW234503   3.493   4.045   2.690  1.0816  2.0468  1.7718
 7681SOL     OW34504   3.170   3.780   7.679  0.5004  0.0859  0.1586
 7681SOL    HW134505   3.226   3.782   7.756 -0.1101 -1.4686  0.6584
 7681SOL    HW234506   3.108   3.849   7.703 -2.4765 -2.4522 -0.2265
 7682SOL     OW34507   3.671   4.677  11.181  0.5425 -0.3636  0.0857
 7682SOL    HW134508   3.680   4.598  11.235 -1.3240  0.3767  1.4821
 7682SOL    HW234509   3.749   0.003  11.199  1.1031 -0.0610 -3.2349
 7683SOL     OW34510   0.190   4.582  10.487 -0.4558  0.0814 -0.0583
 7683SOL    HW134511   0.141   4.500  10.490 -0.5136  0.1024 -0.4758
 7683SOL    HW234512   0.114   4.635  10.462  2.2853  2.1599 -3.8536
 7684SOL     OW34513   3.809   1.496   4.457 -0.2525 -0.0742  0.2275
 7684SOL    HW134514   3.752   1.539   4.522 -0.8239 -1.2932  0.5417
 7684SOL    HW234515   3.861   1.438   4.512  0.4111 -0.8359 -1.2117
 7685SOL     OW34516   1.331   2.264  11.025 -0.2946  0.3487  0.2240
 7685SOL    HW134517   1.268   2.267  10.953 -0.2148  3.3815  0.2641
 7685SOL    HW234518   1.288   2.195  11.075  1.4317 -0.1783  0.9768
 7686SOL     OW34519   2.513   3.061   7.093  0.2602 -0.4917  0.5055
 7686SOL    HW134520   2.510   3.022   7.180  1.2120  0.6058  1.0272
 7686SOL    HW234521   2.515   3.155   7.113  1.1016 -0.1796 -1.0718
 7687SOL     OW34522   0.987   2.549   5.523 -0.2357 -0.1487 -0.4299
 7687SOL    HW134523   1.081   2.533   5.538  0.2571  2.8276 -0.1317
 7687SOL    HW234524   0.956   2.465   5.556  1.1353 -0.4179  0.2010
 7688SOL     OW34525   3.738   3.957   4.599 -0.1104 -0.2706  0.4642
 7688SOL    HW134526   3.715   3.909   4.678 -2.5251 -1.0025 -0.6838
 7688SOL    HW234527   3.801   3.900   4.554 -1.4169 -2.2190  1.1606
 7689SOL     OW34528   1.887   3.245   7.718 -0.4064 -0.3626 -0.1448
 7689SOL    HW134529   1.879   3.335   7.685 -1.8452 -1.6454 -3.2647
 7689SOL    HW234530   1.981   3.237   7.704 -0.1905  0.7279  0.6578
 7690SOL     OW34531   3.679   2.429  13.542  0.6590 -0.1274 -0.7137
 7690SOL    HW134532   3.741   2.361  13.516  1.0622 -1.5523  3.9694
 7690SOL    HW234533   3.612   2.408  13.477 -0.0084  0.3758 -0.1818
 7691SOL     OW34534   2.229   2.572   2.967  0.8537  0.0824  0.0926
 7691SOL    HW134535   2.174   2.508   2.921 -1.1653  1.5004  0.5235
 7691SOL    HW234536   2.310   2.532   2.935  0.4227 -1.9861  1.5738
 7692SOL     OW34537   1.660   0.355   3.985 -0.1155 -0.2585  0.1380
 7692SOL    HW134538   1.620   0.411   4.051  1.3623  0.0652  0.7563
 7692SOL    HW234539   1.617   0.274   4.015  0.4527 -0.0457  1.5126
 7693SOL     OW34540   4.332   4.531  10.067  0.3102  0.2017 -0.0544
 7693SOL    HW134541   4.275   4.598  10.027  1.3876  1.6978  0.9364
 7693SOL    HW234542   4.399   4.589  10.103  1.0591  0.2723 -1.5598
 7694SOL     OW34543   0.662   0.503  13.799 -0.0120  0.4048  0.3470
 7694SOL    HW134544   0.738   0.562  13.801  0.0650  0.3268 -0.3370
 7694SOL    HW234545   0.676   0.437  13.731 -0.5185  0.4966  0.1610
 7695SOL     OW34546   3.500   1.614  14.699 -0.6598 -0.2402  0.2954
 7695SOL    HW134547   3.540   1.529  14.683  0.1506  0.0813  0.5934
 7695SOL    HW234548   3.474   1.646  14.613  2.3495  3.2374  0.6608
 7696SOL     OW34549   2.569   2.957   7.726 -0.1890  0.1654  0.5278
 7696SOL    HW134550   2.620   2.881   7.751  0.8300  0.9568  0.8470
 7696SOL    HW234551   2.484   2.934   7.764  0.5733 -0.6448  1.7037
 7697SOL     OW34552   4.379   4.386   8.302 -0.4112  0.0492 -0.1606
 7697SOL    HW134553   4.333   4.454   8.253  0.6489  0.2024 -0.9460
 7697SOL    HW234554   4.384   4.432   8.386  0.8247  1.5224 -1.0299
 7698SOL     OW34555   2.908   4.332   8.062 -0.4571 -0.1965 -0.4346
 7698SOL    HW134556   2.969   4.323   7.989 -0.2234  2.8501 -0.6031
 7698SOL    HW234557   2.963   4.379   8.124 -1.7431  1.5785 -0.6248
 7699SOL     OW34558   3.918   2.755  15.118  0.4901 -0.4880  0.6226
 7699SOL    HW134559   3.948   2.694  15.050 -0.4632 -0.8408  0.5214
 7699SOL    HW234560   3.945   2.836  15.075  2.2066 -0.8340  1.0074
 7700SOL     OW34561   3.611   3.011  14.362 -0.6444  0.0546  0.2067
 7700SOL    HW134562   3.544   2.951  14.329  1.6160 -1.7447 -1.1588
 7700SOL    HW234563   3.582   3.102  14.368  0.8448  0.5774 -0.3972
 7701SOL     OW34564   3.023   0.527   2.787  0.2228  0.7674 -0.2620
 7701SOL    HW134565   3.003   0.438   2.759  0.0722  0.9916 -0.8769
 7701SOL    HW234566   2.940   0.550   2.830  0.7878 -0.2092  1.3540
 7702SOL     OW34567   3.377   1.361   4.011 -0.1617 -0.3711  0.1820
 7702SOL    HW134568   3.461   1.323   4.038 -0.0029 -0.5019 -0.4982
 7702SOL    HW234569   3.388   1.348   3.917  2.1667  0.6362  0.3096
 7703SOL     OW34570   0.407   1.225   3.739 -0.5447  0.1222  0.0036
 7703SOL    HW134571   0.440   1.141   3.771  1.4405  0.5603 -0.9123
 7703SOL    HW234572   0.491   1.268   3.726 -1.3397  1.1641 -1.7785
 7704SOL     OW34573   0.807   1.029   5.686 -0.1377 -0.6004  0.1177
 7704SOL    HW134574   0.899   1.007   5.702  0.1367 -0.6566 -1.5398
 7704SOL    HW234575   0.775   1.054   5.773  2.0039 -0.9667  1.0144
 7705SOL     OW34576   0.590   3.931   7.019 -0.0570 -0.5125  0.0962
 7705SOL    HW134577   0.556   4.017   7.043  0.2039 -0.5528  0.5970
 7705SOL    HW234578   0.642   3.915   7.098  0.8214 -0.3537 -0.4424
 7706SOL     OW34579   1.269   3.213   4.463  0.5543 -0.0451  0.3943
 7706SOL    HW134580   1.182   3.233   4.499  1.2557  1.9638  0.9796
 7706SOL    HW234581   1.255   3.239   4.372  1.7100  2.1925  0.8512
 7707SOL     OW34582   1.024   4.513   7.468  0.1896 -0.3389  0.0348
 7707SOL    HW134583   1.027   4.608   7.456 -0.4965 -0.3723 -0.3647
 7707SOL    HW234584   1.031   4.509   7.563 -2.6727 -1.1587  0.2074
 7708SOL     OW34585   2.845   2.289   7.721  0.0847 -0.3680  0.2176
 7708SOL    HW134586   2.801   2.220   7.770 -1.1336  0.5647  0.4335
 7708SOL    HW234587   2.791   2.366   7.737 -1.6032 -1.0769 -2.1460
 7709SOL     OW34588   0.894   3.455   1.535 -0.0374  0.4328 -0.1578
 7709SOL    HW134589   0.924   3.391   1.598  1.6637  1.3365 -0.0532
 7709SOL    HW234590   0.971   3.498   1.498  0.4048  1.0527  1.5132
 7710SOL     OW34591   1.898   0.282   4.354  0.5816 -0.2292 -0.2131
 7710SOL    HW134592   1.881   0.344   4.425  0.0860 -1.0790  0.3969
 7710SOL    HW234593   1.812   0.243   4.340  0.8507 -1.2166  0.9020
 7711SOL     OW34594   3.347   1.704   6.848 -0.0374  0.1383  0.0384
 7711SOL    HW134595   3.330   1.681   6.939 -0.8241  1.4616  0.2328
 7711SOL    HW234596   3.351   1.800   6.852 -0.6922  0.1195  1.3140
 7712SOL     OW34597   1.308   1.738   7.478  0.2965 -0.2049  0.3236
 7712SOL    HW134598   1.353   1.818   7.453 -0.0696  0.3781  1.5470
 7712SOL    HW234599   1.220   1.775   7.474 -0.4862 -2.1033 -0.0555
 7713SOL     OW34600   4.065   2.239   2.288 -0.6018  0.0020 -0.7096
 7713SOL    HW134601   3.998   2.183   2.327 -0.3715  0.5587  0.4830
 7713SOL    HW234602   4.021   2.324   2.282  2.8456  1.8609  0.1034
 7714SOL     OW34603   1.170   2.456   8.970 -0.0919 -0.2731 -0.2735
 7714SOL    HW134604   1.139   2.448   9.060  0.4324 -2.0712 -0.2541
 7714SOL    HW234605   1.208   2.370   8.955  1.4899  0.2685  0.6493
 7715SOL     OW34606   0.504   3.786   0.286  0.2725  0.1501  0.3713
 7715SOL    HW134607   0.419   3.780   0.329 -0.1939 -0.6881 -0.6847
 7715SOL    HW234608   0.491   3.791   0.191  1.7265  1.9383  0.2605
 7716SOL     OW34609   4.048   1.273   6.296  0.0332 -0.4389  0.5647
 7716SOL    HW134610   4.066   1.182   6.270 -0.6593 -0.7112  1.0188
 7716SOL    HW234611   3.960   1.259   6.332 -0.3551  1.0614  0.1698
 7717SOL     OW34612   3.315   2.720   3.448 -0.7093  0.2903  0.1709
 7717SOL    HW134613   3.322   2.788   3.381  1.5242  1.2214  1.3419
 7717SOL    HW234614   3.222   2.721   3.472 -0.2016  1.4422  2.0757
 7718SOL     OW34615   0.039   2.870   5.690 -0.0140 -0.2310 -0.2556
 7718SOL    HW134616   4.726   2.807   5.630 -2.3774  0.5651  0.4602
 7718SOL    HW234617   0.131   2.845   5.693 -0.3177 -1.4695 -1.2290
 7719SOL     OW34618   2.130   3.989   5.219  0.1944 -0.1500  0.2202
 7719SOL    HW134619   2.112   4.080   5.196 -1.0532 -0.5049 -0.1708
 7719SOL    HW234620   2.165   3.988   5.309 -2.7893  0.0835  1.3808
 7720SOL     OW34621   2.168   3.422   0.938  0.2220 -0.2450  0.5301
 7720SOL    HW134622   2.258   3.439   0.908  0.4577 -1.1361  0.7067
 7720SOL    HW234623   2.155   3.328   0.924 -1.7106  0.2329 -0.8074
 7721SOL     OW34624   1.134   2.915   9.134 -0.2617 -0.2047 -0.1177
 7721SOL    HW134625   1.130   2.872   9.048 -0.8584 -1.5987  0.6154
 7721SOL    HW234626   1.051   2.962   9.129 -1.4644 -2.2104  1.2262
 7722SOL     OW34627   2.135   1.677   6.428  0.0486  0.6381 -0.0189
 7722SOL    HW134628   2.184   1.605   6.468  0.6234  0.8299 -0.3861
 7722SOL    HW234629   2.133   1.637   6.341 -0.6993 -1.4795  0.9658
 7723SOL     OW34630   0.048   3.486   6.660  0.8631 -0.5229  0.4502
 7723SOL    HW134631   0.042   3.394   6.686 -1.0497 -0.5471 -0.0318
 7723SOL    HW234632   0.095   3.483   6.577  0.2190 -0.2063  0.0749
 7724SOL     OW34633   2.376   2.523   5.094 -0.6621 -0.2574  0.2450
 7724SOL    HW134634   2.287   2.514   5.061 -0.7231  0.0648  0.3188
 7724SOL    HW234635   2.436   2.543   5.022  0.1337 -0.4133  0.8564
 7725SOL     OW34636   2.174   0.741   4.907  0.0745  0.0586 -0.0362
 7725SOL    HW134637   2.234   0.707   4.840 -1.3190  0.2120 -1.3774
 7725SOL    HW234638   2.200   0.833   4.908  0.7400 -0.1366  0.8067
 7726SOL     OW34639   1.129   4.067   1.212  0.1947 -0.3041  0.1246
 7726SOL    HW134640   1.101   4.085   1.122  1.9059  3.1054  0.2781
 7726SOL    HW234641   1.064   4.004   1.245  1.8183 -1.7168  0.6031
 7727SOL     OW34642   1.524   2.978   3.568  0.6617 -0.4365 -0.4499
 7727SOL    HW134643   1.485   3.059   3.535  2.1601  1.0795  1.5045
 7727SOL    HW234644   1.569   2.952   3.488  1.6181  1.5870 -0.5575
 7728SOL     OW34645   2.148   0.564   9.300 -0.3774  0.4165 -0.3871
 7728SOL    HW134646   2.069   0.511   9.286 -0.2444 -0.4590  2.1388
 7728SOL    HW234647   2.126   0.603   9.385 -0.6749 -1.5881  0.4573
 7729SOL     OW34648   4.714   4.075   7.379 -0.1849 -0.1783 -0.3975
 7729SOL    HW134649   0.067   4.116   7.411 -0.6307  2.6088 -2.8681
 7729SOL    HW234650   4.654   4.149   7.385  1.6475  1.0631  2.2953
 7730SOL     OW34651   0.763   3.551   0.164 -0.3087  0.0620 -0.2527
 7730SOL    HW134652   0.730   3.552   0.074  2.1772 -0.6372 -1.1690
 7730SOL    HW234653   0.856   3.536   0.146 -0.4633 -0.5095 -0.5784
 7731SOL     OW34654   2.260   3.994  10.001  0.3622  0.2488 -0.9017
 7731SOL    HW134655   2.345   3.962  10.033  0.2312 -1.8743 -2.7126
 7731SOL    HW234656   2.247   4.081  10.038 -1.4833 -0.8182  1.0017
 7732SOL     OW34657   1.509   2.307   4.237  0.5003  0.2698 -0.3458
 7732SOL    HW134658   1.433   2.256   4.265  0.7601 -0.0004 -0.1295
 7732SOL    HW234659   1.489   2.396   4.265 -0.0732 -0.0986  0.4197
 7733SOL     OW34660   0.146   2.770  11.919  0.1845  0.0604 -0.0083
 7733SOL    HW134661   0.128   2.838  11.984 -1.7281 -1.8664  1.4771
 7733SOL    HW234662   0.134   2.688  11.967  0.7720 -1.0980 -1.8591
 7734SOL     OW34663   0.761   4.271   5.598 -0.2809 -0.4195 -0.3270
 7734SOL    HW134664   0.779   4.365   5.606  0.7009 -0.9293  3.4418
 7734SOL    HW234665   0.682   4.264   5.653  1.0609 -0.0040  1.6486
 7735SOL     OW34666   1.049   3.166   6.428 -0.4561 -0.3155  0.6854
 7735SOL    HW134667   0.994   3.215   6.490  1.0959  0.8855  1.1003
 7735SOL    HW234668   1.024   3.217   6.351 -1.4861 -1.7914  0.0381
 7736SOL     OW34669   3.504   0.763  17.587  0.3581  0.0577  0.6506
 7736SOL    HW134670   3.509   0.768  17.491 -0.8331 -4.5920  0.3491
 7736SOL    HW234671   3.598   0.781  17.597  0.7200 -2.3420  1.6065
 7737SOL     OW34672   1.250   0.797   6.858  0.9329  0.4643 -0.4870
 7737SOL    HW134673   1.281   0.875   6.811 -0.3158  1.1991 -0.0986
 7737SOL    HW234674   1.318   0.784   6.924  1.3371 -0.8584 -1.1677
 7738SOL     OW34675   3.387   4.470   2.288  0.3218 -0.1532 -0.3623
 7738SOL    HW134676   3.342   4.406   2.344 -1.5735  0.9816 -0.5983
 7738SOL    HW234677   3.452   4.411   2.250  1.0104  0.0598  0.4832
 7739SOL     OW34678   0.132   1.467  10.526 -0.5095 -0.9000  0.1608
 7739SOL    HW134679   0.175   1.551  10.541  0.9889 -1.8162  0.9895
 7739SOL    HW234680   0.053   1.499  10.483  1.6591  2.4506 -1.2470
 7740SOL     OW34681   1.843   2.701  12.514  0.5048  0.0812  0.4712
 7740SOL    HW134682   1.885   2.616  12.507  1.6457  0.7228 -0.4584
 7740SOL    HW234683   1.913   2.756  12.480  0.0990 -0.1420 -0.7234
 7741SOL     OW34684   4.615   2.510  11.172  0.4333 -0.4656  0.3747
 7741SOL    HW134685   4.644   2.419  11.164 -1.0566 -0.9855  1.0183
 7741SOL    HW234686   4.696   2.556  11.194  1.3449 -0.7693 -2.2809
 7742SOL     OW34687   3.737   4.501  17.417 -0.6534 -0.1471  0.2052
 7742SOL    HW134688   3.678   4.454  17.358  0.4941  0.3182 -1.3240
 7742SOL    HW234689   3.675   4.553  17.469  1.2969 -0.0498  2.4104
 7743SOL     OW34690   4.324   2.893   4.895 -0.8253  0.1231 -0.1397
 7743SOL    HW134691   4.399   2.835   4.889 -1.2159 -0.3565 -0.3386
 7743SOL    HW234692   4.361   2.955   4.959 -0.0446 -0.3794 -0.1166
 7744SOL     OW34693   4.497   0.903   8.103  0.5301 -0.0245 -0.2864
 7744SOL    HW134694   4.524   0.941   8.187  0.2527  1.3554 -0.8259
 7744SOL    HW234695   4.578   0.900   8.051  1.7292  1.3607  1.4972
 7745SOL     OW34696   0.051   3.777   5.329  0.4935  0.2227  0.2571
 7745SOL    HW134697   0.018   3.768   5.418  1.6946  0.7664  0.7641
 7745SOL    HW234698   0.028   3.869   5.318  0.5317  0.1627 -0.3201
 7746SOL     OW34699   3.216   1.934   2.965  0.3631 -0.3183  0.3565
 7746SOL    HW134700   3.145   1.988   2.931  0.0384  0.6573  2.5380
 7746SOL    HW234701   3.164   1.864   3.007  0.1209  0.0316  0.6392
 7747SOL     OW34702   0.551   3.745   6.210 -0.0275 -0.0564 -0.1165
 7747SOL    HW134703   0.642   3.714   6.212 -0.0795 -0.2687 -1.1077
 7747SOL    HW234704   0.562   3.832   6.247  0.1750 -0.4286  0.6918
 7748SOL     OW34705   4.702   0.234  15.136 -0.2063  0.2774  0.5644
 7748SOL    HW134706   4.701   0.142  15.110 -0.4214  0.9394 -1.8331
 7748SOL    HW234707   0.068   0.248  15.155  0.2287 -2.2692  0.4000
 7749SOL     OW34708   4.103   3.866   3.234 -0.5593  0.0946 -0.4608
 7749SOL    HW134709   4.009   3.860   3.218 -0.6886 -0.3479  0.4867
 7749SOL    HW234710   4.140   3.829   3.154 -0.7742 -0.8510 -0.1272
 7750SOL     OW34711   2.510   3.562   6.880 -0.0255  0.1629  0.5322
 7750SOL    HW134712   2.515   3.527   6.969  1.2621 -0.6146  0.1529
 7750SOL    HW234713   2.601   3.539   6.862  0.0748  0.5741  0.5245
 7751SOL     OW34714   3.675   4.103   9.369 -0.3003  0.8905  0.3586
 7751SOL    HW134715   3.645   4.051   9.294  3.1142 -0.6664  0.0701
 7751SOL    HW234716   3.635   4.189   9.359  0.4841  1.4189  1.6800
 7752SOL     OW34717   1.582   2.597   4.709  0.1355  0.2776  0.0433
 7752SOL    HW134718   1.520   2.561   4.646  0.8833 -0.2633 -0.3773
 7752SOL    HW234719   1.650   2.634   4.653  1.1881  1.3811  2.0176
 7753SOL     OW34720   3.433   3.346   2.681  0.8235 -0.7460  0.3722
 7753SOL    HW134721   3.375   3.412   2.718  0.1237 -0.3774 -1.3808
 7753SOL    HW234722   3.434   3.380   2.591  2.0501 -0.1153  0.6146
 7754SOL     OW34723   1.407   2.616  14.662  0.4175  0.2241  0.5059
 7754SOL    HW134724   1.319   2.647  14.680 -0.1150 -0.4186 -0.9756
 7754SOL    HW234725   1.416   2.627  14.567 -1.9326 -0.6763  0.1955
 7755SOL     OW34726   0.482   3.213  14.890 -0.7364 -0.0386 -0.6468
 7755SOL    HW134727   0.488   3.271  14.965  1.1227  2.4176 -2.7219
 7755SOL    HW234728   0.436   3.135  14.922  0.4762 -0.4113  0.1708
 7756SOL     OW34729   1.880   0.120  14.539 -0.1959  0.1861 -0.0857
 7756SOL    HW134730   1.933   0.042  14.558 -1.4539  0.0934  3.0482
 7756SOL    HW234731   1.872   0.101  14.446 -0.5446  0.5357 -0.1280
 7757SOL     OW34732   0.813   4.095   5.915  0.3151  0.2053 -0.7610
 7757SOL    HW134733   0.894   4.051   5.887  1.0552  0.6905  0.6141
 7757SOL    HW234734   0.855   4.168   5.959  0.2868  0.3304 -0.9423
 7758SOL     OW34735   3.062   0.690   8.473 -0.0917  0.7297  0.0449
 7758SOL    HW134736   2.973   0.676   8.506 -0.6988  0.3784 -1.7288
 7758SOL    HW234737   3.063   0.785   8.461  0.1412  0.6173 -0.8221
 7759SOL     OW34738   2.302   3.136  14.516 -0.3994  0.0806  0.2074
 7759SOL    HW134739   2.318   3.229  14.502 -0.3771 -0.1209 -1.0915
 7759SOL    HW234740   2.382   3.098  14.478 -0.3631  0.1530  0.2106
 7760SOL     OW34741   1.643   0.179   0.167  0.0165  0.0133  0.3354
 7760SOL    HW134742   1.550   0.200   0.175  0.0240  1.0690 -2.2862
 7760SOL    HW234743   1.644   0.098   0.218 -2.2792  0.6756  1.4728
 7761SOL     OW34744   2.210   0.502  13.003 -0.2798 -0.1335 -0.0787
 7761SOL    HW134745   2.120   0.473  13.018 -0.4294  0.0823 -0.5670
 7761SOL    HW234746   2.250   0.500  13.090  0.6148 -0.4174 -0.5005
 7762SOL     OW34747   3.529   0.947   3.008 -0.6405 -0.8386  0.2695
 7762SOL    HW134748   3.437   0.922   3.002 -1.1024  0.4337  2.2936
 7762SOL    HW234749   3.573   0.880   3.060  1.4169  1.7164  1.8086
 7763SOL     OW34750   0.644   3.605   7.459  0.3213  0.2441  0.4050
 7763SOL    HW134751   0.677   3.524   7.421 -0.7170 -0.1818  0.4013
 7763SOL    HW234752   0.704   3.664   7.413 -0.7892  0.4817 -0.7354
 7764SOL     OW34753   4.211   2.180   5.719 -0.5679  0.2654 -0.1757
 7764SOL    HW134754   4.154   2.198   5.644 -0.4091  1.0219 -0.1084
 7764SOL    HW234755   4.170   2.236   5.784  1.6566  0.3171  1.1812
 7765SOL     OW34756   3.672   1.252   7.868  0.2206 -0.1827  0.4898
 7765SOL    HW134757   3.744   1.223   7.811 -0.2616 -0.6911  0.1337
 7765SOL    HW234758   3.649   1.324   7.809 -0.5619 -1.5524 -0.8847
 7766SOL     OW34759   4.501   0.749   2.934  0.2738  0.2838 -0.1968
 7766SOL    HW134760   4.518   0.660   2.903  0.0774 -0.5008  1.9294
 7766SOL    HW234761   4.569   0.754   3.002  1.8774  1.9046 -1.9381
 7767SOL     OW34762   2.973   2.713  13.958  0.4400 -0.5560 -0.2577
 7767SOL    HW134763   3.004   2.790  13.909 -1.2620 -1.4579 -2.6971
 7767SOL    HW234764   2.922   2.763  14.022 -0.4824  0.1698 -1.5627
 7768SOL     OW34765   0.530   3.283   5.392  0.1381  0.0823  0.3929
 7768SOL    HW134766   0.444   3.297   5.430 -0.7768 -1.8878 -0.9387
 7768SOL    HW234767   0.567   3.349   5.451 -1.5077  0.4924  0.9634
 7769SOL     OW34768   1.572   2.467  15.092 -0.0519 -0.0131  0.6143
 7769SOL    HW134769   1.589   2.497  15.003  2.5079  0.4778  1.2849
 7769SOL    HW234770   1.479   2.445  15.083 -0.1792  0.1143  1.6315
 7770SOL     OW34771   1.094   3.257   9.041  0.2520  0.2159  0.3754
 7770SOL    HW134772   1.093   3.245   8.947  1.8237 -0.6910  0.4770
 7770SOL    HW234773   1.002   3.279   9.057 -0.0001  0.1584 -1.0048
 7771SOL     OW34774   0.001   3.703   9.945  0.1744  0.2545 -0.8046
 7771SOL    HW134775   0.020   3.789   9.907  0.4183  0.0101 -1.2455
 7771SOL    HW234776   4.690   3.667   9.864  0.5991  2.4308 -1.9764
 7772SOL     OW34777   0.134   2.528   7.678  0.2149  0.0835 -0.7454
 7772SOL    HW134778   0.141   2.551   7.585  1.1670 -0.1645 -0.7284
 7772SOL    HW234779   0.191   2.452   7.684  2.3875  1.7339 -0.6418
 7773SOL     OW34780   4.588   0.654  12.695  0.1265  0.5358 -0.6353
 7773SOL    HW134781   4.521   0.714  12.728 -0.1383  0.7646 -1.6127
 7773SOL    HW234782   4.664   0.690  12.743 -0.2464 -0.3667  0.6440
 7774SOL     OW34783   4.208   1.239   5.559  0.2729 -1.0707 -0.3067
 7774SOL    HW134784   4.274   1.214   5.495 -0.0616  0.1285 -1.1103
 7774SOL    HW234785   4.143   1.174   5.534  1.3206 -1.6875 -1.4528
 7775SOL     OW34786   2.239   2.419   6.429  0.2877 -0.2199  0.0215
 7775SOL    HW134787   2.327   2.381   6.434  0.8954  1.2347  0.3642
 7775SOL    HW234788   2.260   2.509   6.450 -1.6137  0.4121 -0.7891
 7776SOL     OW34789   3.535   0.542   8.571 -0.5849  0.3665  0.0001
 7776SOL    HW134790   3.443   0.522   8.553  0.2995 -0.0715 -4.0108
 7776SOL    HW234791   3.574   0.456   8.581 -0.6333  0.1033 -2.1536
 7777SOL     OW34792   3.620   0.117   2.137 -0.6841  1.1466  0.0635
 7777SOL    HW134793   3.549   0.058   2.162  0.3109 -0.9636 -2.1240
 7777SOL    HW234794   3.687   0.053   2.113 -3.0985 -1.2334 -0.3400
 7778SOL     OW34795   1.644   1.796   8.616 -0.2545  0.3606 -0.4884
 7778SOL    HW134796   1.703   1.731   8.655 -2.5948 -0.8144  1.0841
 7778SOL    HW234797   1.582   1.813   8.687  0.1278  0.1323 -0.0933
 7779SOL     OW34798   3.886   4.038   8.416 -0.3253 -0.0605 -0.0597
 7779SOL    HW134799   3.850   4.099   8.481 -0.5796 -1.6188  1.2754
 7779SOL    HW234800   3.807   4.029   8.363 -0.6321  0.3370  0.3197
 7780SOL     OW34801   2.196   0.140   4.483  0.3535 -0.2385 -0.1749
 7780SOL    HW134802   2.145   0.210   4.524 -0.6864 -1.6456  0.9210
 7780SOL    HW234803   2.178   0.151   4.389 -1.3079 -0.5762  0.0939
 7781SOL     OW34804   3.972   0.598   7.428 -0.0524 -0.0929 -0.1159
 7781SOL    HW134805   3.944   0.666   7.490  1.3069 -0.4967  0.9381
 7781SOL    HW234806   4.001   0.530   7.488  1.4497  0.5158 -0.1689
 7782SOL     OW34807   2.605   1.239  10.373  0.1784  0.1608  0.2152
 7782SOL    HW134808   2.568   1.153  10.355  0.8254 -0.4448  1.7890
 7782SOL    HW234809   2.529   1.297  10.374  0.7837  0.9784 -0.7175
 7783SOL     OW34810   2.869   3.855  16.783  0.3563  0.4428  0.0996
 7783SOL    HW134811   2.848   3.818  16.697 -1.2617  0.1846  0.6001
 7783SOL    HW234812   2.864   3.784  16.847  1.4523  1.2715  1.0813
 7784SOL     OW34813   2.785   0.541   4.887  0.0092 -0.1644  0.2663
 7784SOL    HW134814   2.815   0.461   4.930  0.1626  0.1586  0.7577
 7784SOL    HW234815   2.775   0.508   4.797  3.5440  0.2407 -0.2754
 7785SOL     OW34816   1.327   3.867   3.476  0.0756  0.1645 -0.2332
 7785SOL    HW134817   1.260   3.867   3.545 -1.4716  0.4558 -1.7548
 7785SOL    HW234818   1.284   3.890   3.395 -0.2424  1.2255  0.2422
 7786SOL     OW34819   1.782   2.881   9.635  0.8750  0.1076  0.1798
 7786SOL    HW134820   1.861   2.829   9.650  0.1979 -0.5968  1.2830
 7786SOL    HW234821   1.703   2.826   9.629  0.7021  0.0089  3.3711
 7787SOL     OW34822   0.366   1.667   2.234 -0.6120  0.4188 -0.8987
 7787SOL    HW134823   0.377   1.744   2.289  0.4041 -0.7333  0.5239
 7787SOL    HW234824   0.285   1.630   2.267 -0.1286  0.5641  0.4487
 7788SOL     OW34825   1.269   4.174   4.520  0.0380  0.3107 -0.1660
 7788SOL    HW134826   1.247   4.248   4.464 -0.6431  0.6035  0.4860
 7788SOL    HW234827   1.358   4.188   4.552 -0.2127  3.4320 -0.8126
 7789SOL     OW34828   4.602   1.966   8.199  0.4179 -0.2895 -0.4331
 7789SOL    HW134829   4.627   1.999   8.113 -0.3650 -0.1170 -0.5885
 7789SOL    HW234830   4.623   1.872   8.196 -3.0555 -1.0430 -1.4483
 7790SOL     OW34831   1.175   4.717  15.950  0.1451 -0.0867 -0.0113
 7790SOL    HW134832   1.204   4.637  15.993  0.1496 -0.8281 -1.4129
 7790SOL    HW234833   1.110   0.031  16.007 -0.4546 -3.3491  1.5757
 7791SOL     OW34834   2.139   0.273   5.454 -0.3679 -0.0412  0.0646
 7791SOL    HW134835   2.060   0.226   5.426  0.7050  0.4106 -3.7612
 7791SOL    HW234836   2.137   0.229   5.539 -2.0194 -0.6981 -0.3154
 7792SOL     OW34837   1.523   0.645   1.553 -0.3197  0.1646 -0.1884
 7792SOL    HW134838   1.556   0.727   1.591  2.6044 -2.2346  2.3789
 7792SOL    HW234839   1.533   0.573   1.614  0.9752 -0.7681 -1.4874
 7793SOL     OW34840   0.690   4.712   3.626 -0.1441 -0.3977  0.0347
 7793SOL    HW134841   0.718   0.056   3.568  0.9911 -1.6187 -0.8865
 7793SOL    HW234842   0.775   4.673   3.644 -0.0840  0.5296  1.8592
 7794SOL     OW34843   4.034   2.683  11.257  0.0617  0.4459  0.1048
 7794SOL    HW134844   3.980   2.760  11.274  0.7907  0.8279  0.6743
 7794SOL    HW234845   4.092   2.685  11.334 -0.6297  0.9362  0.6144
 7795SOL     OW34846   1.921   0.206   3.373 -0.3387 -0.8114  0.5322
 7795SOL    HW134847   1.955   0.278   3.425 -0.0716  0.4778 -1.4364
 7795SOL    HW234848   1.837   0.214   3.418 -0.1188 -0.4621  0.8760
 7796SOL     OW34849   0.279   3.485   3.952  0.1053  0.5983  0.4240
 7796SOL    HW134850   0.351   3.547   3.958 -0.2452  1.1227 -0.7712
 7796SOL    HW234851   0.290   3.427   3.877 -0.2729 -0.5853  1.2748
 7797SOL     OW34852   3.233   4.501   6.592  0.1432  0.0597 -0.1446
 7797SOL    HW134853   3.245   4.596   6.595 -2.4324  0.3408  1.5589
 7797SOL    HW234854   3.312   4.475   6.640  1.2640  0.9478 -1.5021
 7798SOL     OW34855   2.036   1.211  17.007 -0.2509  0.3133 -0.0044
 7798SOL    HW134856   2.072   1.213  17.095  1.2557  2.2192 -0.6526
 7798SOL    HW234857   1.959   1.154  17.008 -0.3494  0.4224 -1.3504
 7799SOL     OW34858   2.303   0.162   5.266 -0.5667 -0.1576 -0.4035
 7799SOL    HW134859   2.300   0.200   5.178 -0.8157  1.6326  0.3822
 7799SOL    HW234860   2.268   0.233   5.320 -1.0138  0.5545 -1.6131
 7800SOL     OW34861   2.487   4.675   3.149 -0.8329  0.6739  0.1714
 7800SOL    HW134862   2.577   4.649   3.132 -1.1107  0.6654 -1.3317
 7800SOL    HW234863   2.457   4.721   3.070  0.7612  2.1098  0.4064
 7801SOL     OW34864   3.484   2.878  11.344  0.0205  0.3249 -0.1810
 7801SOL    HW134865   3.519   2.955  11.389 -3.2053  2.7727 -1.8606
 7801SOL    HW234866   3.537   2.810  11.384  1.7000  1.7426 -0.0192
 7802SOL     OW34867   3.279   3.773  14.965 -0.5084 -0.3005 -0.6051
 7802SOL    HW134868   3.332   3.708  15.010  0.1989  1.2495  0.8140
 7802SOL    HW234869   3.338   3.847  14.981 -0.2894 -0.1087 -2.2934
 7803SOL     OW34870   4.297   1.762   4.288  0.3970 -0.1930  0.5188
 7803SOL    HW134871   4.214   1.764   4.337  0.0078  0.0788 -0.1437
 7803SOL    HW234872   4.276   1.832   4.225 -1.5112 -1.6351 -0.4691
 7804SOL     OW34873   1.622   2.980   5.591  0.1672  0.3517  0.1747
 7804SOL    HW134874   1.622   2.885   5.589 -1.5370  0.3201  1.6930
 7804SOL    HW234875   1.611   3.002   5.684 -2.7034  1.1487 -0.3295
 7805SOL     OW34876   3.120   4.389   8.286 -0.3809  0.3294  0.0614
 7805SOL    HW134877   3.186   4.325   8.315  1.9117  1.7767 -1.9096
 7805SOL    HW234878   3.045   4.366   8.341  0.1820  1.1408  1.1855
 7806SOL     OW34879   3.501   1.296   1.143 -0.1944  0.1873 -0.0685
 7806SOL    HW134880   3.436   1.283   1.212  0.9875  0.1768  1.0465
 7806SOL    HW234881   3.518   1.389   1.155 -0.0930  0.5356 -2.9908
 7807SOL     OW34882   3.107   4.285   3.630 -0.4649  0.2447  0.0123
 7807SOL    HW134883   3.160   4.214   3.664 -3.5250 -2.5364 -1.0804
 7807SOL    HW234884   3.063   4.231   3.564  0.7942  0.4360 -0.9900
 7808SOL     OW34885   2.669   4.628   6.290  0.0482 -0.2124 -0.1220
 7808SOL    HW134886   2.754   4.624   6.333  0.2125  0.0503 -0.4272
 7808SOL    HW234887   2.694   4.661   6.204 -1.2435  1.2770  0.0483
 7809SOL     OW34888   2.796   2.979  12.270  0.3003  0.2447 -0.1869
 7809SOL    HW134889   2.763   3.063  12.302  0.6839  0.7458 -1.1179
 7809SOL    HW234890   2.835   3.002  12.186 -1.9952  0.9163 -1.0721
 7810SOL     OW34891   0.027   0.084  14.919 -0.3150  0.1333 -0.2789
 7810SOL    HW134892   0.071   0.168  14.924  2.5366 -1.3263 -1.2616
 7810SOL    HW234893   4.702   0.094  14.839  0.8704 -2.1265 -1.2982
 7811SOL     OW34894   2.110   0.458   8.654  0.2364  0.2303 -0.2272
 7811SOL    HW134895   2.022   0.433   8.628  0.0191  1.3231 -0.5738
 7811SOL    HW234896   2.111   0.553   8.639  1.0847 -0.0211 -1.7063
 7812SOL     OW34897   0.777   4.271  13.978  0.4282  0.1845  0.1673
 7812SOL    HW134898   0.791   4.344  13.917 -0.0568 -0.6524 -0.9500
 7812SOL    HW234899   0.701   4.297  14.028  0.8883  0.5884  0.6498
 7813SOL     OW34900   0.301   0.561  16.312  0.5133 -0.6727  0.0957
 7813SOL    HW134901   0.248   0.523  16.243 -2.1011  0.2316  1.5992
 7813SOL    HW234902   0.334   0.480  16.350  0.7086 -0.4044  0.5042
 7814SOL     OW34903   3.339   1.059   6.792  0.4072 -0.4906  0.4866
 7814SOL    HW134904   3.296   0.987   6.839  0.1485  0.3420  1.5131
 7814SOL    HW234905   3.419   1.015   6.763  0.4082 -1.5896  2.1319
 7815SOL     OW34906   1.983   2.831   6.037 -0.5049  0.7207 -0.0854
 7815SOL    HW134907   1.968   2.755   6.094 -3.7091  0.5848 -1.0724
 7815SOL    HW234908   1.932   2.811   5.959  0.8196  2.4355 -1.3834
 7816SOL     OW34909   4.628   1.325   7.608 -0.0883 -0.2678  0.1793
 7816SOL    HW134910   4.575   1.257   7.566 -1.4356  2.3402 -2.2995
 7816SOL    HW234911   4.668   1.371   7.535 -0.2427 -1.1065 -0.4310
 7817SOL     OW34912   2.291   3.096   4.727 -0.4177  0.7166 -0.0170
 7817SOL    HW134913   2.369   3.110   4.782  0.2349 -2.3464 -0.1639
 7817SOL    HW234914   2.298   3.001   4.715 -0.2023  0.7780 -0.4090
 7818SOL     OW34915   0.296   1.329   1.932 -0.3657  0.8945 -0.4941
 7818SOL    HW134916   0.209   1.369   1.923 -1.2487 -0.9077  0.0617
 7818SOL    HW234917   0.272   1.240   1.956  1.6546  0.6139  0.4482
 7819SOL     OW34918   1.432   4.467   4.158  0.0337  0.1955 -0.3799
 7819SOL    HW134919   1.437   4.468   4.062  0.5505 -1.7281 -0.3768
 7819SOL    HW234920   1.488   4.542   4.178 -0.4633  0.8083 -1.2714
 7820SOL     OW34921   1.330   2.616  14.352 -0.1721  0.5792 -0.1068
 7820SOL    HW134922   1.242   2.592  14.379  0.4489  0.1013  1.4843
 7820SOL    HW234923   1.311   2.676  14.280 -3.2943 -1.4482 -0.9798
 7821SOL     OW34924   4.204   2.970   6.428  0.5581 -0.1911 -0.3148
 7821SOL    HW134925   4.199   2.962   6.332  4.1664 -1.5331 -0.4028
 7821SOL    HW234926   4.112   2.987   6.447  0.4249 -1.6859  0.3816
 7822SOL     OW34927   3.305   3.838   5.964  0.6129 -0.4839 -0.4499
 7822SOL    HW134928   3.224   3.848   6.013 -0.2573  1.6001 -2.3486
 7822SOL    HW234929   3.273   3.872   5.881  1.9313  0.0341 -0.7511
 7823SOL     OW34930   0.086   1.271   0.353 -0.5191  0.4566 -0.4059
 7823SOL    HW134931   0.004   1.300   0.313  0.3092  1.6616 -1.2610
 7823SOL    HW234932   0.135   1.353   0.341 -1.2746  1.0651  0.7136
 7824SOL     OW34933   1.110   3.730   8.608  0.0113  0.0760  0.2203
 7824SOL    HW134934   1.063   3.764   8.532 -0.2021 -1.4202 -0.3119
 7824SOL    HW234935   1.168   3.665   8.568 -0.4440 -1.1348  1.5230
 7825SOL     OW34936   3.400   4.713   0.648 -0.0926  0.6993 -0.4755
 7825SOL    HW134937   3.362   4.685   0.565  1.0200  0.8617 -1.0357
 7825SOL    HW234938   3.441   0.070   0.627 -1.4929  1.0364 -1.9258
 7826SOL     OW34939   3.285   1.499  15.275  0.5818 -0.3485  0.2825
 7826SOL    HW134940   3.197   1.468  15.296  0.5300  0.3773  1.1492
 7826SOL    HW234941   3.256   1.561  15.208  3.1947 -0.2364 -0.7294
 7827SOL     OW34942   2.168   3.657   9.671 -0.1740  0.3937 -0.0915
 7827SOL    HW134943   2.139   3.675   9.582  1.7980  1.4330 -0.5100
 7827SOL    HW234944   2.207   3.741   9.695 -0.9052  0.5707  0.5021
 7828SOL     OW34945   2.314   0.506  13.247 -0.8726 -0.1769  1.0339
 7828SOL    HW134946   2.304   0.519  13.341  2.0727  2.2101  0.9997
 7828SOL    HW234947   2.402   0.468  13.244 -1.5800 -1.8414  1.0311
 7829SOL     OW34948   2.983   2.607   6.880  0.2465  0.1884 -0.2252
 7829SOL    HW134949   3.075   2.634   6.889  0.3336  0.0506 -0.6555
 7829SOL    HW234950   2.965   2.662   6.804  0.0804  1.9976  1.1440
 7830SOL     OW34951   0.933   2.109   5.955 -0.6263 -0.5545 -0.2797
 7830SOL    HW134952   0.916   2.197   5.988 -0.7479 -1.6985  2.7363
 7830SOL    HW234953   1.024   2.123   5.929 -0.0779 -1.3413  1.2407
 7831SOL     OW34954   3.647   2.048   1.505  0.1705  0.3600 -0.2658
 7831SOL    HW134955   3.605   2.068   1.422  0.8991  1.7568 -0.2913
 7831SOL    HW234956   3.584   1.998   1.556  0.0967 -0.7973 -1.4648
 7832SOL     OW34957   3.635   3.168   8.439  0.7181  0.4080  0.0661
 7832SOL    HW134958   3.728   3.152   8.455  0.3275  0.8656  2.7443
 7832SOL    HW234959   3.592   3.125   8.513  0.0534 -0.4121 -0.7945
 7833SOL     OW34960   1.734   3.145   7.932 -0.0052  0.5161 -0.0285
 7833SOL    HW134961   1.770   3.182   7.851  1.4660  1.8547  1.2311
 7833SOL    HW234962   1.817   3.120   7.973 -1.3372  0.9202  2.9724
 7834SOL     OW34963   4.127   1.587   1.277  0.6082 -0.4700  0.1301
 7834SOL    HW134964   4.058   1.641   1.238 -0.7261 -0.4822  2.5140
 7834SOL    HW234965   4.071   1.569   1.352 -1.7496  2.6542 -0.8307
 7835SOL     OW34966   2.025   3.399  13.825 -0.5684  0.2833  0.2884
 7835SOL    HW134967   2.092   3.338  13.857  0.2790  1.1165  0.0984
 7835SOL    HW234968   2.068   3.445  13.752 -0.4292 -0.3552 -0.0294
 7836SOL     OW34969   2.960   2.612   6.147 -0.1549 -0.1624  0.0623
 7836SOL    HW134970   2.943   2.603   6.053  0.6813 -1.1581  0.0050
 7836SOL    HW234971   2.897   2.680   6.168  0.3037  0.1057  0.5627
 7837SOL     OW34972   3.650   1.074   8.090 -0.4003  0.0169  0.4393
 7837SOL    HW134973   3.654   1.154   8.036  2.2745  0.4898  1.3620
 7837SOL    HW234974   3.562   1.045   8.064  1.0859 -2.8290 -1.3228
 7838SOL     OW34975   2.729   0.499  16.053 -0.7055  0.1834  0.1453
 7838SOL    HW134976   2.793   0.520  16.122 -0.2085  1.6978 -0.7792
 7838SOL    HW234977   2.754   0.411  16.025  0.1921  0.9511 -1.4467
 7839SOL     OW34978   3.501   3.030   7.408 -0.2258  0.0188  0.1022
 7839SOL    HW134979   3.483   3.062   7.497  1.9888  1.4595  0.0288
 7839SOL    HW234980   3.417   2.990   7.385 -0.9737  0.6055  1.7808
 7840SOL     OW34981   1.235   1.173   3.870  0.3220 -0.0668  0.2376
 7840SOL    HW134982   1.268   1.112   3.804 -0.2068  0.6491 -0.6884
 7840SOL    HW234983   1.207   1.120   3.944 -0.6771 -0.5635 -0.4994
 7841SOL     OW34984   2.663   0.925   3.078 -0.1048 -0.2720  0.2584
 7841SOL    HW134985   2.613   0.948   3.000  0.5424  1.3346  0.3097
 7841SOL    HW234986   2.656   1.004   3.132 -0.5296 -0.7159  0.8582
 7842SOL     OW34987   1.825   2.814   9.365 -0.0639 -0.4355  0.2759
 7842SOL    HW134988   1.767   2.887   9.341  2.5810  1.9580  1.1748
 7842SOL    HW234989   1.848   2.830   9.456  1.4486  1.8021 -0.4838
 7843SOL     OW34990   0.603   2.641   7.508 -0.5276  0.1651  0.0760
 7843SOL    HW134991   0.659   2.719   7.503  0.1728 -0.5539 -3.1808
 7843SOL    HW234992   0.669   2.576   7.482 -1.1158 -0.4303  0.0765
 7844SOL     OW34993   2.039   1.729   5.960  0.0273 -0.3772  0.8344
 7844SOL    HW134994   2.094   1.734   5.882 -1.3157  1.8722  0.0463
 7844SOL    HW234995   1.952   1.732   5.922  1.1003  1.7186 -1.4619
 7845SOL     OW34996   1.397   4.545  13.053  0.7642  0.0105 -0.4611
 7845SOL    HW134997   1.469   4.521  12.994  0.1317 -0.8120 -0.8915
 7845SOL    HW234998   1.402   4.640  13.067  2.8576 -0.2742  0.7438
 7846SOL     OW34999   3.349   3.424  16.221  0.2127  0.1761 -0.2084
 7846SOL    HW135000   3.351   3.520  16.218  4.2414  0.1576  2.1011
 7846SOL    HW235001   3.312   3.395  16.138 -0.2139  1.5449 -0.4937
 7847SOL     OW35002   4.579   2.152   9.602 -0.4936  0.4392 -0.3631
 7847SOL    HW135003   4.550   2.227   9.654  1.6326  0.0388  1.3812
 7847SOL    HW235004   4.608   2.205   9.528 -1.3553 -0.1974 -1.1625
 7848SOL     OW35005   1.135   1.199  14.079  0.3938  0.5417  0.4574
 7848SOL    HW135006   1.132   1.104  14.086 -0.6653  0.6171  0.9563
 7848SOL    HW235007   1.090   1.212  14.162  0.0484 -0.0531  0.3567
 7849SOL     OW35008   0.106   1.601   3.178  0.4460  0.0155  0.3155
 7849SOL    HW135009   0.085   1.561   3.094  0.3046 -0.0111  0.3643
 7849SOL    HW235010   0.173   1.548   3.221 -0.6635 -0.4331  1.4588
 7850SOL     OW35011   3.719   1.903   1.091 -0.5163  0.8216 -0.0227
 7850SOL    HW135012   3.682   1.991   1.083 -1.0576  0.4959 -1.0913
 7850SOL    HW235013   3.740   1.895   0.998  0.2650  2.1873  0.0343
 7851SOL     OW35014   1.624   1.559   3.638 -0.1706  0.7693  0.6089
 7851SOL    HW135015   1.644   1.582   3.548  0.3642 -0.8312  0.3227
 7851SOL    HW235016   1.597   1.640   3.683 -0.5881  1.0175 -0.0920
 7852SOL     OW35017   3.649   3.560   7.857 -0.6825 -1.1560  0.4992
 7852SOL    HW135018   3.718   3.574   7.793  1.1477  0.3412  2.8374
 7852SOL    HW235019   3.614   3.474   7.834 -2.3086 -0.1546 -0.7179
 7853SOL     OW35020   2.237   1.683   3.447  0.2108  0.0415 -0.2587
 7853SOL    HW135021   2.159   1.719   3.491 -0.6676  0.0690 -1.8443
 7853SOL    HW235022   2.300   1.754   3.461  0.8315 -0.4650 -0.4858
 7854SOL     OW35023   4.515   0.529  13.926  0.3456  0.4452  0.0249
 7854SOL    HW135024   4.555   0.449  13.963 -1.3819  0.0472  1.0336
 7854SOL    HW235025   4.429   0.520  13.967  0.0363 -0.1846 -0.7767
 7855SOL     OW35026   2.187   1.864   3.866 -0.3817  0.0613  0.1905
 7855SOL    HW135027   2.092   1.866   3.862 -0.3366 -1.6259 -1.8880
 7855SOL    HW235028   2.206   1.956   3.883  1.6395 -0.6727  1.9577
 7856SOL     OW35029   0.119   2.908   2.891 -0.0825 -0.2600  0.3970
 7856SOL    HW135030   0.076   2.872   2.814  1.0483 -1.4550  0.3188
 7856SOL    HW235031   0.117   2.838   2.956 -0.5936  0.3696  1.0588
 7857SOL     OW35032   4.004   3.726   5.371  0.0778  0.0147  0.1956
 7857SOL    HW135033   3.964   3.648   5.333 -0.9962  0.3926  0.5583
 7857SOL    HW235034   4.090   3.685   5.381 -0.9182 -1.8534  0.9059
 7858SOL     OW35035   0.758   1.024   5.191 -0.0488 -0.4259  0.3921
 7858SOL    HW135036   0.816   1.006   5.266 -1.4505  1.0046  1.7905
 7858SOL    HW235037   0.735   1.116   5.199  2.1648  0.3687 -2.3889
 7859SOL     OW35038   2.615   4.437   6.880  0.0762  0.3951 -0.0366
 7859SOL    HW135039   2.668   4.503   6.925 -0.3335  0.2706  0.6145
 7859SOL    HW235040   2.611   4.465   6.788 -1.8102 -0.1727 -0.1259
 7860SOL     OW35041   0.993   3.136   7.592  0.4411 -0.1874 -0.8767
 7860SOL    HW135042   1.006   3.231   7.596  0.7120 -0.2653  0.0558
 7860SOL    HW235043   0.902   3.141   7.564 -0.5856 -2.7837  1.9252
 7861SOL     OW35044   0.604   4.414   5.338  0.0251  0.1495 -0.4319
 7861SOL    HW135045   0.571   4.344   5.282  2.6123  0.8347 -2.8452
 7861SOL    HW235046   0.691   4.420   5.300 -0.6238  0.5305 -1.8638
 7862SOL     OW35047   1.237   0.142   5.725  0.3936 -0.5260 -0.1590
 7862SOL    HW135048   1.160   0.196   5.710 -0.2057 -1.1850  0.5510
 7862SOL    HW235049   1.284   0.203   5.781  1.5394 -0.5221 -1.1174
 7863SOL     OW35050   0.732   4.326   1.590 -0.1915 -0.2059 -0.1525
 7863SOL    HW135051   0.770   4.265   1.527  1.9721 -0.0275  0.9625
 7863SOL    HW235052   0.656   4.355   1.539  0.0253  1.7298  0.6166
 7864SOL     OW35053   3.048   1.512  14.805 -0.1320 -0.5855  0.1598
 7864SOL    HW135054   3.011   1.601  14.804 -1.0621 -0.9808 -0.5584
 7864SOL    HW235055   2.971   1.461  14.830 -0.3743 -0.4630 -0.3410
 7865SOL     OW35056   1.356   4.187   3.850  0.2234 -0.1794 -0.4809
 7865SOL    HW135057   1.328   4.108   3.897  1.8130  0.0223  0.8179
 7865SOL    HW235058   1.431   4.206   3.907  1.6808 -2.2673 -1.7280
 7866SOL     OW35059   3.191   2.208   9.201  0.3637  0.0518 -0.0148
 7866SOL    HW135060   3.278   2.183   9.170  0.9000  1.8399  0.1029
 7866SOL    HW235061   3.156   2.253   9.124 -1.9709  0.1821  1.1151
 7867SOL     OW35062   1.413   3.521   3.557 -0.5099 -0.0279  0.3163
 7867SOL    HW135063   1.473   3.595   3.545  1.2217 -0.7480  4.3184
 7867SOL    HW235064   1.403   3.504   3.464 -2.4691  2.6490  0.0270
 7868SOL     OW35065   4.648   1.822  16.871 -0.3184 -0.3295  0.5676
 7868SOL    HW135066   4.646   1.735  16.911  0.2442 -1.0335 -0.9600
 7868SOL    HW235067   4.559   1.839  16.841 -1.4431 -1.4345  3.2494
 7869SOL     OW35068   0.629   2.581   2.406  0.6209  0.1528  0.3795
 7869SOL    HW135069   0.629   2.659   2.463 -0.9747  0.9156 -0.6525
 7869SOL    HW235070   0.566   2.603   2.337 -0.1531 -0.5179  0.8703
 7870SOL     OW35071   4.402   1.022   0.721  0.1361  0.1209  0.2368
 7870SOL    HW135072   4.412   1.086   0.650  3.1279  0.3838  0.9067
 7870SOL    HW235073   4.492   1.014   0.752  0.1789  0.2614  0.1506
 7871SOL     OW35074   0.801   0.153   4.973  0.2647  0.5518  0.3336
 7871SOL    HW135075   0.820   0.061   4.954 -1.9137 -0.5967  3.6056
 7871SOL    HW235076   0.727   0.143   5.034 -0.7563  0.2058 -0.9741
 7872SOL     OW35077   3.218   0.470   6.856 -0.0535  0.6550 -0.0838
 7872SOL    HW135078   3.275   0.535   6.897 -1.4203  0.3621  2.3063
 7872SOL    HW235079   3.135   0.486   6.902 -1.1452  2.7289 -2.7699
 7873SOL     OW35080   1.152   4.628   8.039 -0.3885 -0.0948  0.7802
 7873SOL    HW135081   1.120   4.615   8.128 -0.5971 -1.0540  0.5613
 7873SOL    HW235082   1.086   4.690   8.007  0.9191  0.6988 -0.3725
 7874SOL     OW35083   2.344   1.508   8.354 -0.1686  0.0853 -1.0199
 7874SOL    HW135084   2.392   1.508   8.436  0.1333 -1.6283 -1.1979
 7874SOL    HW235085   2.282   1.440   8.378 -2.0773  2.1278 -0.1676
 7875SOL     OW35086   3.293   2.209  15.446  0.1221  0.1975  0.6400
 7875SOL    HW135087   3.350   2.133  15.432  0.9810  1.1103 -0.8405
 7875SOL    HW235088   3.224   2.191  15.381 -0.5190  0.1913  1.3283
 7876SOL     OW35089   1.703   3.000  15.228  0.0184  0.1161 -0.7125
 7876SOL    HW135090   1.608   2.996  15.212  0.2757 -0.2276 -2.1315
 7876SOL    HW235091   1.726   2.925  15.282 -0.3093  0.4406 -0.1151
 7877SOL     OW35092   1.926   2.386  12.215  0.2622  0.8131 -0.3055
 7877SOL    HW135093   1.903   2.297  12.241 -0.1799  1.1108  0.2994
 7877SOL    HW235094   1.927   2.430  12.300 -2.4869 -0.1611  0.2317
 7878SOL     OW35095   4.199   0.170   4.438  0.3898 -0.0512  0.0830
 7878SOL    HW135096   4.187   0.077   4.420 -2.0640  0.3620 -0.5071
 7878SOL    HW235097   4.126   0.186   4.499 -1.7990 -2.6560 -1.8613
 7879SOL     OW35098   4.301   3.573   2.521 -0.4839 -0.4173  0.0864
 7879SOL    HW135099   4.366   3.626   2.567 -0.7004 -1.1204  1.2054
 7879SOL    HW235100   4.303   3.487   2.564 -2.0609 -1.2517 -1.4916
 7880SOL     OW35101   2.247   2.608   8.692  0.2725 -0.4143  0.3991
 7880SOL    HW135102   2.183   2.646   8.633  2.1403 -0.5436 -1.7356
 7880SOL    HW235103   2.216   2.652   8.771 -2.2431  1.4950 -1.6737
 7881SOL     OW35104   1.439   2.138  12.658 -0.5058 -0.1985  0.3280
 7881SOL    HW135105   1.488   2.142  12.740  0.6229  3.0657 -0.5037
 7881SOL    HW235106   1.424   2.230  12.637  2.0508 -0.0790 -0.9984
 7882SOL     OW35107   4.148   1.103  16.472 -0.4006  0.1054 -0.2134
 7882SOL    HW135108   4.110   1.179  16.515 -1.7667 -1.1472  0.7920
 7882SOL    HW235109   4.211   1.071  16.537  0.2536 -1.2866 -1.5246
 7883SOL     OW35110   4.047   0.399   3.962  0.6713  0.3265 -0.0157
 7883SOL    HW135111   4.024   0.442   4.045  2.8345 -1.2546  1.3998
 7883SOL    HW235112   4.070   0.309   3.984  0.5870  0.1046 -0.8568
 7884SOL     OW35113   0.290   1.424   3.287 -0.1213 -0.5312  0.3823
 7884SOL    HW135114   0.385   1.407   3.286  0.0894  0.5941  0.7605
 7884SOL    HW235115   0.253   1.337   3.302  0.2492 -0.7371  0.0865
 7885SOL     OW35116   4.029   0.078   2.841 -0.4172 -0.1479  0.5479
 7885SOL    HW135117   4.027   0.087   2.937  1.7800 -0.0923  0.5804
 7885SOL    HW235118   4.122   0.100   2.837 -0.3681 -0.6442 -1.0658
 7886SOL     OW35119   2.251   1.427   8.597  0.0077 -0.0664  0.1385
 7886SOL    HW135120   2.190   1.354   8.604  0.9083 -0.6963  1.3686
 7886SOL    HW235121   2.212   1.495   8.653 -0.5237 -0.6252  0.4440
 7887SOL     OW35122   1.995   3.509  12.955 -0.2008  0.4478  0.3806
 7887SOL    HW135123   2.015   3.554  13.038  1.0683 -2.1455  1.4733
 7887SOL    HW235124   1.901   3.491  12.961  0.2713 -2.1009  0.0733
 7888SOL     OW35125   1.562   2.429   0.876 -0.0209 -0.6026  0.8354
 7888SOL    HW135126   1.579   2.482   0.798 -0.0970 -2.5995 -0.5679
 7888SOL    HW235127   1.569   2.343   0.834 -2.2352 -0.5924  0.4489
 7889SOL     OW35128   3.420   0.165   0.960  0.2254 -0.1097  0.8622
 7889SOL    HW135129   3.488   0.139   0.898 -0.4344  2.0094 -0.7287
 7889SOL    HW235130   3.402   0.079   0.999 -0.1552 -0.3335  0.1811
 7890SOL     OW35131   4.325   4.713  12.467 -0.2913  0.1637  0.2835
 7890SOL    HW135132   4.419   4.696  12.462 -0.5897 -1.1808 -0.6261
 7890SOL    HW235133   4.300   4.628  12.502 -2.6573  0.2426 -1.2601
 7891SOL     OW35134   4.558   1.111   1.387 -0.3561 -0.4449  0.5188
 7891SOL    HW135135   4.497   1.037   1.392  0.1371 -0.9476 -1.0896
 7891SOL    HW235136   4.567   1.122   1.293 -2.3039  2.3148  0.6518
 7892SOL     OW35137   1.848   3.966   0.232 -0.0200 -0.2096  0.0744
 7892SOL    HW135138   1.844   3.926   0.145 -0.7110  0.1930 -0.0832
 7892SOL    HW235139   1.754   3.981   0.245  0.3268  2.1757 -0.1233
 7893SOL     OW35140   2.563   2.516   7.708 -0.2299 -0.1450  0.1379
 7893SOL    HW135141   2.621   2.593   7.706  1.4481 -1.3601  1.3200
 7893SOL    HW235142   2.533   2.526   7.798 -2.3340  0.4942 -0.6415
 7894SOL     OW35143   2.309   4.078   5.484 -0.3225 -0.1965 -0.4429
 7894SOL    HW135144   2.328   4.147   5.420 -0.6373  0.6411  0.3655
 7894SOL    HW235145   2.300   4.138   5.559  0.2911 -1.4855  0.6647
 7895SOL     OW35146   0.561   1.462   4.188  0.2053 -0.0631 -0.9230
 7895SOL    HW135147   0.558   1.366   4.197 -2.0358  0.1376  0.5596
 7895SOL    HW235148   0.513   1.483   4.108  0.0286 -3.2673 -1.6736
 7896SOL     OW35149   4.455   1.173   9.485  0.1215  0.2195  0.0009
 7896SOL    HW135150   4.447   1.182   9.580 -2.5263 -2.2460  0.0212
 7896SOL    HW235151   4.365   1.148   9.464 -0.3115  1.5839  0.2575
 7897SOL     OW35152   3.854   2.383  15.085  0.4578 -0.2331 -0.4599
 7897SOL    HW135153   3.768   2.413  15.113  0.9817  1.6944 -0.9406
 7897SOL    HW235154   3.851   2.298  15.130  2.5693  0.1105  0.3518
 7898SOL     OW35155   3.195   0.347  10.439  0.5829 -0.0356 -0.0576
 7898SOL    HW135156   3.132   0.281  10.409 -1.3593  1.2997  1.1120
 7898SOL    HW235157   3.217   0.382  10.353 -0.3940 -0.7664 -0.6103
 7899SOL     OW35158   0.370   1.628   3.544  0.0034  0.3963 -0.0675
 7899SOL    HW135159   0.340   1.595   3.629 -2.4127 -0.5053 -1.2871
 7899SOL    HW235160   0.299   1.603   3.485  0.5788 -2.6577  0.5267
 7900SOL     OW35161   2.724   1.504  11.541 -0.0850  0.1035 -0.5399
 7900SOL    HW135162   2.750   1.415  11.517  0.9214  0.2666 -0.0626
 7900SOL    HW235163   2.800   1.552  11.574 -1.0570  1.2768 -0.0073
 7901SOL     OW35164   3.296   0.486   9.116  1.0699  0.1401  0.5106
 7901SOL    HW135165   3.371   0.511   9.170 -0.1980 -0.4699  2.5563
 7901SOL    HW235166   3.343   0.438   9.048  1.6361 -1.4569  2.0349
 7902SOL     OW35167   1.840   2.232   7.352 -0.1112 -0.0488  0.0724
 7902SOL    HW135168   1.772   2.287   7.313 -1.3945 -1.1170  0.8059
 7902SOL    HW235169   1.884   2.206   7.272  0.1005  0.7146 -0.0554
 7903SOL     OW35170   0.350   3.279  17.554  0.1608 -0.1485  0.4580
 7903SOL    HW135171   0.302   3.261  17.474  0.3895 -0.4407  0.3887
 7903SOL    HW235172   0.326   3.204  17.608 -0.7970 -0.2394 -0.0984
 7904SOL     OW35173   3.401   3.729   4.294 -0.2976  0.1190  0.1189
 7904SOL    HW135174   3.454   3.807   4.313 -2.3811  1.1986  1.5764
 7904SOL    HW235175   3.346   3.761   4.223 -0.3182 -1.5642 -0.6084
 7905SOL     OW35176   2.839   2.229   6.841  0.4637  0.0704 -0.1839
 7905SOL    HW135177   2.909   2.282   6.803  0.2221  0.7524  0.3099
 7905SOL    HW235178   2.848   2.236   6.936  0.7888 -1.9643 -0.0680
 7906SOL     OW35179   0.378   2.635   6.068 -0.0369 -0.1743  0.9548
 7906SOL    HW135180   0.465   2.607   6.042  0.0747  2.1356 -1.1325
 7906SOL    HW235181   0.322   2.615   5.993 -1.3740  1.2076  1.5612
 7907SOL     OW35182   3.239   0.337   6.135  0.2528 -0.0230  0.1752
 7907SOL    HW135183   3.184   0.369   6.063  1.3175  1.0396 -0.1878
 7907SOL    HW235184   3.183   0.368   6.206  1.0473 -0.6922  1.0806
 7908SOL     OW35185   0.642   1.852   7.296 -0.0415 -0.2690 -0.1147
 7908SOL    HW135186   0.661   1.767   7.257 -0.9350 -1.0829  1.2325
 7908SOL    HW235187   0.711   1.853   7.362 -1.1113  2.3547  0.9837
 7909SOL     OW35188   1.261   3.967  10.095  0.1079  0.0096  0.1984
 7909SOL    HW135189   1.214   4.017  10.028 -3.0352 -0.9679  1.6391
 7909SOL    HW235190   1.268   4.029  10.168 -0.7493 -1.0499  1.1794
 7910SOL     OW35191   3.597   0.321   2.316 -0.1849 -0.0068 -0.1382
 7910SOL    HW135192   3.607   0.265   2.239  1.5731 -0.4037  0.3792
 7910SOL    HW235193   3.566   0.251   2.373 -2.1373  0.6108 -0.4435
 7911SOL     OW35194   0.736   1.314  16.210 -0.3063 -0.6153  0.5323
 7911SOL    HW135195   0.668   1.291  16.274 -0.9782 -0.9030 -0.2776
 7911SOL    HW235196   0.795   1.369  16.262 -0.7614 -0.1865  0.5980
 7912SOL     OW35197   0.360   4.387   7.893  0.6548  0.8862 -0.4649
 7912SOL    HW135198   0.305   4.349   7.825  0.5630  1.0481 -0.4833
 7912SOL    HW235199   0.448   4.399   7.857  0.1612  0.0213 -1.9620
 7913SOL     OW35200   3.771   2.405  12.132 -0.4308  0.2473  0.3365
 7913SOL    HW135201   3.829   2.336  12.098 -0.8810  0.3196 -0.5898
 7913SOL    HW235202   3.750   2.470  12.065 -1.4852 -1.9566 -1.4975
 7914SOL     OW35203   4.678   0.083   7.915 -0.0196 -0.0496 -0.0769
 7914SOL    HW135204   0.010   0.059   7.843 -2.5699 -0.9376 -1.8567
 7914SOL    HW235205   4.651   0.001   7.957  1.2841  0.0100  0.8694
 7915SOL     OW35206   1.423   1.782  11.047 -0.5394  0.4513  0.0569
 7915SOL    HW135207   1.483   1.707  11.048  0.0643  0.9061 -2.9813
 7915SOL    HW235208   1.478   1.847  11.090  0.3685 -0.0357 -0.3610
 7916SOL     OW35209   2.770   2.437   5.390 -1.2057  0.0186  0.0090
 7916SOL    HW135210   2.793   2.528   5.409  0.8776 -0.8659  1.8568
 7916SOL    HW235211   2.716   2.411   5.464 -0.0144 -1.0123  0.5253
 7917SOL     OW35212   0.430   1.823   5.638  0.0095 -0.2094 -0.3833
 7917SOL    HW135213   0.362   1.785   5.583 -0.9892 -1.4760  1.7022
 7917SOL    HW235214   0.410   1.914   5.616  0.3447  0.5512  2.4208
 7918SOL     OW35215   0.124   4.078   6.414  0.1043 -0.2130  0.1402
 7918SOL    HW135216   0.043   4.094   6.463 -1.8083 -2.1258 -2.4424
 7918SOL    HW235217   0.103   3.993   6.377  1.7214  0.4077 -2.1770
 7919SOL     OW35218   4.092   1.587   7.692 -0.2034  0.4490 -0.2270
 7919SOL    HW135219   4.097   1.502   7.735  1.2995  0.7503  0.1940
 7919SOL    HW235220   4.112   1.648   7.762 -0.2828  1.1468 -0.8039
 7920SOL     OW35221   2.951   2.059   6.075 -0.0563  0.0557 -0.1834
 7920SOL    HW135222   2.925   2.094   6.161  0.6860  0.9125 -0.3131
 7920SOL    HW235223   3.017   2.125   6.055 -1.4689  0.6896 -2.7300
 7921SOL     OW35224   2.066   4.258   2.300  0.3322 -0.4517 -0.3114
 7921SOL    HW135225   2.143   4.315   2.304 -1.3035  1.7859 -0.5057
 7921SOL    HW235226   2.025   4.275   2.385  0.2194  1.1435 -0.6833
 7922SOL     OW35227   2.793   0.849   2.381 -0.0782 -0.3092  0.4783
 7922SOL    HW135228   2.745   0.767   2.364 -0.5589  0.1656 -0.5046
 7922SOL    HW235229   2.772   0.863   2.473 -2.3268  1.2188 -0.2764
 7923SOL     OW35230   3.611   2.521   5.894  0.4777  0.0732 -0.5428
 7923SOL    HW135231   3.555   2.587   5.851  0.2033 -0.3140 -0.7824
 7923SOL    HW235232   3.678   2.576   5.934  1.1758 -0.5231 -0.9048
 7924SOL     OW35233   1.674   2.115   3.717  0.1423  0.5515 -0.1193
 7924SOL    HW135234   1.713   2.175   3.653  0.3694 -1.7561 -2.1325
 7924SOL    HW235235   1.699   2.033   3.676 -1.5444  0.9120 -1.8650
 7925SOL     OW35236   0.687   0.264   1.493 -0.4407 -0.3329 -0.0200
 7925SOL    HW135237   0.637   0.343   1.473  0.3882  0.5016  1.2139
 7925SOL    HW235238   0.654   0.205   1.425 -0.8534 -0.7459  0.5456
 7926SOL     OW35239   3.473   0.980  10.625  0.3931  0.9289 -0.3889
 7926SOL    HW135240   3.410   1.031  10.675 -0.9560 -1.4811  0.3966
 7926SOL    HW235241   3.560   1.003  10.656  0.8530 -0.7104 -0.4324
 7927SOL     OW35242   1.377   1.324   0.433  0.2615  0.0366  0.1014
 7927SOL    HW135243   1.441   1.274   0.382 -0.3745 -1.5773  0.8953
 7927SOL    HW235244   1.361   1.264   0.506 -2.2047  1.6508  0.8772
 7928SOL     OW35245   3.430   1.273   9.249 -0.0333 -0.0065 -0.3703
 7928SOL    HW135246   3.392   1.194   9.288 -1.0424 -0.0217 -1.3910
 7928SOL    HW235247   3.502   1.232   9.202  0.7282 -2.9972  3.4430
 7929SOL     OW35248   0.522   1.285   7.950 -0.1588  0.2677  0.4600
 7929SOL    HW135249   0.427   1.270   7.953  0.0306 -1.1652 -0.3543
 7929SOL    HW235250   0.539   1.259   8.040  1.0291  0.0791  0.1858
 7930SOL     OW35251   1.806   2.418  10.963  0.2357  0.0952 -0.2131
 7930SOL    HW135252   1.856   2.337  10.976 -0.6139 -0.3588  0.2057
 7930SOL    HW235253   1.723   2.378  10.939  0.0456 -0.0698  0.7145
 7931SOL     OW35254   1.432   1.977   7.369 -0.2014 -1.1143  0.4613
 7931SOL    HW135255   1.412   2.067   7.393  0.9164 -0.6682 -0.2423
 7931SOL    HW235256   1.371   1.970   7.295 -1.1525 -0.4999  1.1962
 7932SOL     OW35257   3.090   0.132   9.470  0.3941  0.0113  0.3394
 7932SOL    HW135258   3.120   0.152   9.382 -1.8623  0.9550 -0.1969
 7932SOL    HW235259   3.085   0.222   9.501  1.4576  0.4298 -0.7175
 7933SOL     OW35260   3.167   0.125   2.914 -0.2404 -1.0662 -0.2088
 7933SOL    HW135261   3.260   0.112   2.898 -0.2727 -1.1655 -0.3170
 7933SOL    HW235262   3.188   0.170   2.996 -1.0947 -0.0838 -0.5219
 7934SOL     OW35263   1.092   3.313   4.638  0.0357  0.4462 -0.2132
 7934SOL    HW135264   1.000   3.322   4.665  0.2121  3.7473 -0.7069
 7934SOL    HW235265   1.142   3.313   4.719 -0.4421 -1.2381  0.0786
 7935SOL     OW35266   0.789   1.548  14.946 -0.5469 -0.1025  0.2068
 7935SOL    HW135267   0.834   1.632  14.960 -0.8861 -0.0201  0.7995
 7935SOL    HW235268   0.787   1.504  15.031 -2.1150  0.1041  0.2832
 7936SOL     OW35269   3.762   3.183   5.074  0.1399 -0.3380  0.0308
 7936SOL    HW135270   3.717   3.245   5.017 -0.9777 -0.1447  1.1236
 7936SOL    HW235271   3.831   3.155   5.014  0.6022 -0.4454  0.6113
 7937SOL     OW35272   0.367   4.270   3.389  0.2682  0.3062 -0.3339
 7937SOL    HW135273   0.400   4.222   3.465 -1.5558 -1.0460 -0.3910
 7937SOL    HW235274   0.309   4.329   3.438 -1.1808  0.8298 -2.6960
 7938SOL     OW35275   3.056   4.530   5.062  0.1092  0.0653 -0.0569
 7938SOL    HW135276   3.139   4.526   5.013  1.9000 -1.9512  3.1576
 7938SOL    HW235277   3.064   4.459   5.126  0.2447  0.5881  0.5021
 7939SOL     OW35278   1.722   0.000   7.922  0.2887  0.2722 -0.3211
 7939SOL    HW135279   1.727   4.631   7.916  2.7451  0.4758 -1.5388
 7939SOL    HW235280   1.661   0.009   7.995 -2.1993  1.1051 -2.5203
 7940SOL     OW35281   1.926   2.165  12.535 -0.0060  0.0005  0.2727
 7940SOL    HW135282   1.846   2.212  12.513 -0.0898  0.0132  0.6119
 7940SOL    HW235283   1.941   2.124  12.449 -0.4548  0.4221 -0.0044
 7941SOL     OW35284   3.968   3.040   7.715  0.4066 -0.2520  0.0630
 7941SOL    HW135285   4.000   3.074   7.632  0.9906 -1.4696 -0.2126
 7941SOL    HW235286   4.053   3.006   7.743  1.5368  1.4023 -1.4122
 7942SOL     OW35287   3.114   1.207   6.716 -0.4188 -0.1455  0.6046
 7942SOL    HW135288   3.136   1.276   6.778 -1.1355  2.6892 -2.2818
 7942SOL    HW235289   3.161   1.131   6.749 -1.7089 -2.1480 -2.1160
 7943SOL     OW35290   1.402   3.482   7.627 -0.3332  0.2141  0.3703
 7943SOL    HW135291   1.360   3.423   7.690  0.3461 -2.5354 -1.7798
 7943SOL    HW235292   1.488   3.486   7.667 -0.1885 -0.4334  0.1113
 7944SOL     OW35293   4.026   2.868   2.690  0.2307  0.0797  0.1228
 7944SOL    HW135294   4.091   2.929   2.656  0.1939 -0.3354 -0.6770
 7944SOL    HW235295   3.958   2.935   2.690 -0.7765 -0.9455  1.6235
 7945SOL     OW35296   2.132   0.636   2.652  0.8011  0.5127 -0.0198
 7945SOL    HW135297   2.154   0.553   2.611 -0.6764 -0.7286  1.6686
 7945SOL    HW235298   2.216   0.681   2.651  1.7516 -1.3023 -2.0397
 7946SOL     OW35299   3.144   0.804   3.283  0.3810 -0.5491  0.3647
 7946SOL    HW135300   3.150   0.900   3.287 -1.4567 -0.4099 -0.2070
 7946SOL    HW235301   3.230   0.784   3.321  0.8743  1.0134  0.0762
 7947SOL     OW35302   3.792   2.755   2.591  0.3120  0.8313 -0.0560
 7947SOL    HW135303   3.784   2.807   2.671  0.8872 -2.0709  1.8905
 7947SOL    HW235304   3.888   2.748   2.595  0.1927  0.5774  1.9460
 7948SOL     OW35305   4.326   4.547   5.972 -0.5296 -0.6079 -0.0094
 7948SOL    HW135306   4.265   4.620   5.969  1.8250  1.3515 -0.3135
 7948SOL    HW235307   4.407   4.584   6.006 -2.1108  1.6263  1.3003
 7949SOL     OW35308   2.467   3.583   7.955  0.4153  0.0645 -0.8944
 7949SOL    HW135309   2.457   3.678   7.951  0.3878  0.1187  0.4056
 7949SOL    HW235310   2.562   3.585   7.972  0.5791  0.3441 -1.8456
 7950SOL     OW35311   3.105   1.679  11.406  0.0497 -0.1272 -0.3596
 7950SOL    HW135312   3.086   1.615  11.475 -1.4275  2.0652  1.2791
 7950SOL    HW235313   3.144   1.617  11.344  1.2903 -0.2138  0.5073
 7951SOL     OW35314   0.118   0.036   5.336 -0.0520  0.0273  0.5446
 7951SOL    HW135315   0.127   0.123   5.295  2.1290 -1.4663 -2.1580
 7951SOL    HW235316   0.024   0.025   5.340 -0.1270  1.3973  2.5034
 7952SOL     OW35317   2.229   1.285   3.978 -0.1928  0.7575 -0.3554
 7952SOL    HW135318   2.147   1.330   3.964 -0.7358  0.0065  0.4021
 7952SOL    HW235319   2.290   1.328   3.918 -0.1909  0.0770 -0.8386
 7953SOL     OW35320   1.338   1.942   4.926 -0.4681 -0.3399  0.2322
 7953SOL    HW135321   1.422   1.978   4.954 -0.0975 -0.1694 -1.1342
 7953SOL    HW235322   1.311   1.890   5.002  2.5880 -2.1524  0.0589
 7954SOL     OW35323   1.287   0.151   3.365  0.4637  0.1753 -0.0691
 7954SOL    HW135324   1.250   0.063   3.370 -0.9037  0.7910  0.8605
 7954SOL    HW235325   1.347   0.124   3.297  0.4603  1.6890 -0.6766
 7955SOL     OW35326   3.488   3.673   3.154 -0.0007 -0.3579 -0.6772
 7955SOL    HW135327   3.392   3.668   3.162  0.2370 -1.5247  1.3818
 7955SOL    HW235328   3.489   3.752   3.099 -1.1556  1.0509  1.2962
 7956SOL     OW35329   1.630   4.020   2.110 -0.0848  0.4574  0.5583
 7956SOL    HW135330   1.559   4.082   2.091  0.5157  0.5183 -1.4369
 7956SOL    HW235331   1.653   4.050   2.198  1.7931  2.5278 -0.6518
 7957SOL     OW35332   4.404   1.190   9.774 -0.2037 -0.0671 -0.7808
 7957SOL    HW135333   4.477   1.133   9.796  0.1421  0.2436 -1.1162
 7957SOL    HW235334   4.416   1.264   9.833  1.4991 -0.8582 -0.1291
 7958SOL     OW35335   4.182   3.161  11.413 -0.1967 -0.4368  0.3737
 7958SOL    HW135336   4.169   3.248  11.451  0.2002 -0.5717  0.8313
 7958SOL    HW235337   4.152   3.155  11.323  0.9304 -0.0848 -0.0221
 7959SOL     OW35338   4.509   4.367   4.307 -0.2527 -0.0978 -0.1219
 7959SOL    HW135339   4.518   4.458   4.278  0.8695 -0.6314 -1.4838
 7959SOL    HW235340   4.416   4.350   4.320  0.0442 -0.8797  1.0190
 7960SOL     OW35341   0.867   1.258   8.004  0.4033  0.2782  0.0058
 7960SOL    HW135342   0.830   1.256   7.916  0.7661  0.3511 -0.1490
 7960SOL    HW235343   0.956   1.230   7.983  0.9062  2.2837 -0.5594
 7961SOL     OW35344   4.609   2.107   8.444 -0.2534  0.4235  0.1688
 7961SOL    HW135345   4.637   2.027   8.489 -0.9667  0.9278  1.5054
 7961SOL    HW235346   4.614   2.071   8.356 -1.0022  0.8697 -0.0483
 7962SOL     OW35347   0.266   2.022   5.111 -0.5258 -0.1916 -0.0853
 7962SOL    HW135348   0.305   2.033   5.024 -0.5872 -0.7767 -0.1817
 7962SOL    HW235349   0.176   2.002   5.087 -0.0956 -1.3487 -0.7463
 7963SOL     OW35350   4.151   4.282   9.182 -0.0842  0.4276 -0.0381
 7963SOL    HW135351   4.126   4.341   9.253 -1.8562  1.2585 -1.3652
 7963SOL    HW235352   4.114   4.196   9.202 -0.0453  1.2583  3.6456
 7964SOL     OW35353   3.944   1.739   8.467 -0.0926 -0.0447 -0.5273
 7964SOL    HW135354   3.858   1.696   8.466 -0.2716  0.2607  2.2960
 7964SOL    HW235355   3.924   1.798   8.394  0.2208 -0.5143 -0.9982
 7965SOL     OW35356   2.884   2.252   7.105 -0.2075 -0.1508  0.1550
 7965SOL    HW135357   2.955   2.187   7.106  2.1272  2.3971  0.8704
 7965SOL    HW235358   2.842   2.231   7.188 -2.2139 -1.6324 -1.2547
 7966SOL     OW35359   3.315   4.406  12.751  0.2052  0.0196  0.4331
 7966SOL    HW135360   3.239   4.462  12.740  1.1195  1.4019  1.1156
 7966SOL    HW235361   3.301   4.354  12.830  1.0901 -0.0365  0.5615
 7967SOL     OW35362   2.013   3.804   2.644 -0.4065 -0.4118 -0.4131
 7967SOL    HW135363   2.091   3.749   2.635 -0.5701 -0.7663  0.3653
 7967SOL    HW235364   2.044   3.848   2.723  0.0867  0.4022 -1.0603
 7968SOL     OW35365   2.142   3.419  10.873  1.1034  0.1945  0.6091
 7968SOL    HW135366   2.067   3.473  10.900  2.0835  1.6566  0.4493
 7968SOL    HW235367   2.173   3.389  10.958  0.1903 -2.8507 -0.1339
 7969SOL     OW35368   4.628   2.313   7.624  0.4681 -0.1502  0.6305
 7969SOL    HW135369   4.625   2.253   7.699  2.0861 -0.6456  0.2940
 7969SOL    HW235370   4.680   2.386   7.657 -0.8960  1.6785 -1.2837
 7970SOL     OW35371   3.266   2.150  12.793  0.0583  0.9198 -0.0838
 7970SOL    HW135372   3.225   2.144  12.707 -0.8463 -1.6504  0.5385
 7970SOL    HW235373   3.264   2.245  12.806  0.9486  0.8082  0.9010
 7971SOL     OW35374   2.877   1.071   3.329 -0.5615  0.5321  0.0348
 7971SOL    HW135375   2.830   1.128   3.269 -2.3009 -0.7136  0.1971
 7971SOL    HW235376   2.966   1.065   3.294 -0.2489 -1.3537  1.1398
 7972SOL     OW35377   1.434   2.717   1.028  0.0760 -0.4258  0.0202
 7972SOL    HW135378   1.529   2.705   1.026 -0.0260 -0.8369 -1.8381
 7972SOL    HW235379   1.400   2.633   1.059  1.3168 -1.3321 -1.1276
 7973SOL     OW35380   4.649   2.061   5.302  0.0863 -0.5827  0.3946
 7973SOL    HW135381   4.603   2.007   5.238  0.2258 -1.0000  0.6479
 7973SOL    HW235382   4.614   2.028   5.385 -0.8450 -1.4830 -0.3765
 7974SOL     OW35383   2.805   3.163   5.786 -0.0121  0.6020  0.1951
 7974SOL    HW135384   2.714   3.141   5.806 -0.3846  1.3701 -0.6627
 7974SOL    HW235385   2.858   3.084   5.795 -1.5375 -0.6965 -2.1192
 7975SOL     OW35386   4.662   2.225   6.558  0.4879 -0.7146  0.3648
 7975SOL    HW135387   4.574   2.253   6.534  0.3604 -0.5949  0.9776
 7975SOL    HW235388   4.645   2.137   6.590  0.0374  0.2273  2.7011
 7976SOL     OW35389   3.440   2.068   2.986  0.3080  0.0179  0.4942
 7976SOL    HW135390   3.422   2.158   2.959  0.8691 -0.2089 -0.6294
 7976SOL    HW235391   3.355   2.026   2.988  0.6724 -0.6346  2.4445
 7977SOL     OW35392   3.180   3.130   4.888  0.0877  0.3662  0.6711
 7977SOL    HW135393   3.261   3.179   4.876 -1.1860  2.2300 -0.2729
 7977SOL    HW235394   3.217   3.069   4.952  2.7918  0.1980 -1.0379
 7978SOL     OW35395   1.961   3.710  14.194  0.2679 -0.1805 -0.7705
 7978SOL    HW135396   1.901   3.732  14.123  1.6189  0.7667 -1.6221
 7978SOL    HW235397   1.959   3.794  14.240  2.7547 -0.0383 -0.9599
 7979SOL     OW35398   4.102   3.258  11.057  0.6256 -0.3254  0.7295
 7979SOL    HW135399   4.076   3.298  11.139 -1.7332 -0.5605  0.0880
 7979SOL    HW235400   4.135   3.336  11.012 -3.2111 -0.4027 -2.1776
 7980SOL     OW35401   1.527   4.442   1.396 -0.4876  0.2442  0.0109
 7980SOL    HW135402   1.434   4.432   1.377 -0.2953  0.5559 -1.1452
 7980SOL    HW235403   1.526   4.420   1.489 -0.2258  0.7021  0.1208
 7981SOL     OW35404   3.043   0.155  11.073  0.4450 -0.2732 -0.3513
 7981SOL    HW135405   3.078   0.140  11.161  0.6476 -0.8494 -0.5334
 7981SOL    HW235406   3.032   0.070  11.032 -0.3051  0.2057 -1.1419
 7982SOL     OW35407   0.555   3.484   0.362  0.2801 -0.0574  0.0882
 7982SOL    HW135408   0.519   3.571   0.347  1.2566  0.0518 -1.5773
 7982SOL    HW235409   0.626   3.483   0.298  0.8487 -0.4971  0.7106
 7983SOL     OW35410   4.569   3.263   6.763  0.2835  0.3363 -0.1805
 7983SOL    HW135411   4.610   3.337   6.808  0.3943  0.6635 -0.8169
 7983SOL    HW235412   4.475   3.278   6.753  0.0039 -0.1621  1.7669
 7984SOL     OW35413   1.558   1.631  15.999 -0.3018  0.2854  0.3978
 7984SOL    HW135414   1.489   1.659  15.938  0.5952  1.2810 -0.1626
 7984SOL    HW235415   1.600   1.708  16.037 -0.5154  1.2333 -1.3004
 7985SOL     OW35416   0.628   0.389   5.475 -0.1126  0.2339  0.0942
 7985SOL    HW135417   0.648   0.333   5.549  2.1110  0.4170 -0.3830
 7985SOL    HW235418   0.606   0.329   5.404  0.2485 -0.6674  0.7461
 7986SOL     OW35419   2.425   0.558   0.714 -0.0452 -0.6731  0.4788
 7986SOL    HW135420   2.390   0.533   0.799  0.1684 -0.9484  0.4841
 7986SOL    HW235421   2.351   0.557   0.653  1.0141  1.0389 -0.8652
 7987SOL     OW35422   2.908   4.712   9.084  0.5293 -0.3669  0.1768
 7987SOL    HW135423   2.841   0.028   9.138  0.6816  0.3714 -0.2162
 7987SOL    HW235424   2.925   4.624   9.117  2.1438  0.4488  1.5103
 7988SOL     OW35425   0.851   2.323   5.603 -0.3859  0.3204  0.3482
 7988SOL    HW135426   0.759   2.342   5.586 -1.0790 -2.6938  0.7526
 7988SOL    HW235427   0.849   2.239   5.648 -0.0010  1.4326  2.4444
 7989SOL     OW35428   3.964   1.690   7.472  0.0203  0.3751 -0.3105
 7989SOL    HW135429   4.028   1.737   7.417 -1.1519 -1.0809 -2.9067
 7989SOL    HW235430   4.019   1.639   7.531 -0.6439  0.2001  0.1501
 7990SOL     OW35431   1.167   3.733   0.474  0.6807 -0.1002 -0.3067
 7990SOL    HW135432   1.174   3.712   0.568 -1.8545  0.1764 -0.0554
 7990SOL    HW235433   1.092   3.673   0.472  0.6482 -0.1708  2.6695
 7991SOL     OW35434   4.238   4.572  12.187 -0.3228 -0.5153  0.1707
 7991SOL    HW135435   4.196   4.554  12.271  0.4059 -0.1396  0.6159
 7991SOL    HW235436   4.257   4.491  12.140 -1.2087 -1.9821  2.3938
 7992SOL     OW35437   0.431   4.618   3.678  0.0355 -0.1508  0.0285
 7992SOL    HW135438   0.516   4.657   3.654  1.3152 -0.6195  3.9285
 7992SOL    HW235439   0.437   4.639   3.771 -1.5012  4.7108 -0.9639
 7993SOL     OW35440   1.518   0.676  13.583  0.8125  0.0989 -0.2371
 7993SOL    HW135441   1.471   0.754  13.612  0.1358  0.5631 -2.5588
 7993SOL    HW235442   1.560   0.694  13.498  0.0003  1.0205 -0.4473
 7994SOL     OW35443   2.997   1.654   4.713 -0.1222  0.6209 -0.3854
 7994SOL    HW135444   3.068   1.629   4.655  0.7290  0.4145  0.7321
 7994SOL    HW235445   2.921   1.669   4.657 -1.8308  0.8663  1.9671
 7995SOL     OW35446   0.782   3.790   6.568 -0.0105 -0.1543  0.0206
 7995SOL    HW135447   0.841   3.865   6.580  1.4367 -1.3102  0.1373
 7995SOL    HW235448   0.726   3.798   6.645  1.4408  0.1884  1.0566
 7996SOL     OW35449   0.210   1.635   5.901  0.5849  0.5843 -0.5348
 7996SOL    HW135450   0.157   1.637   5.981  0.4070  1.8892 -0.6946
 7996SOL    HW235451   0.296   1.613   5.937 -0.2542 -2.5418 -0.4596
 7997SOL     OW35452   3.802   1.006   1.174  0.4315  0.0559  0.1918
 7997SOL    HW135453   3.825   1.007   1.267 -0.5729 -1.5838  0.4711
 7997SOL    HW235454   3.799   1.097   1.147  0.5116  0.0069  0.0158
 7998SOL     OW35455   2.241   3.021   1.606  0.4700  0.1822 -0.7493
 7998SOL    HW135456   2.228   2.927   1.593  1.1716  0.2685 -2.0712
 7998SOL    HW235457   2.194   3.049   1.684  0.6352  0.7053 -0.8425
 7999SOL     OW35458   4.668   3.173   9.310  0.8499  0.1698  0.0070
 7999SOL    HW135459   0.025   3.129   9.327  1.2111  0.2374 -1.5362
 7999SOL    HW235460   4.622   3.104   9.262 -2.6582  1.9870  0.7655
 8000SOL     OW35461   0.253   3.847   0.371 -0.1627 -0.1366 -0.2863
 8000SOL    HW135462   0.257   3.936   0.336  0.2619  1.1014  2.9039
 8000SOL    HW235463   0.209   3.869   0.453 -2.3481  2.4446 -2.1492
 8001SOL     OW35464   1.476   1.381  10.238 -0.0416  0.0617 -0.0385
 8001SOL    HW135465   1.525   1.425  10.308  2.6464 -0.6349 -1.4866
 8001SOL    HW235466   1.501   1.440  10.166 -0.1055  0.9401  0.6557
 8002SOL     OW35467   1.979   0.042  16.714 -0.0898 -0.4876  0.2930
 8002SOL    HW135468   1.927   0.013  16.638 -1.6095  1.9953  0.3592
 8002SOL    HW235469   1.928   0.013  16.790 -1.6032 -0.3632 -0.6688
 8003SOL     OW35470   2.519   2.687  15.269 -0.0715 -0.3526  0.3555
 8003SOL    HW135471   2.476   2.610  15.305 -1.8045  0.1695 -0.6038
 8003SOL    HW235472   2.526   2.653  15.180  0.4885  0.2049  0.1817
 8004SOL     OW35473   3.625   1.147   0.924 -0.1336 -0.7029 -0.1418
 8004SOL    HW135474   3.552   1.190   0.968  0.1368 -1.1164  0.7162
 8004SOL    HW235475   3.649   1.074   0.982  0.3106 -0.8400 -0.5058
 8005SOL     OW35476   3.835   3.428   8.062  0.1018 -0.3058 -0.2655
 8005SOL    HW135477   3.865   3.516   8.038  2.7200 -1.7768 -2.4240
 8005SOL    HW235478   3.849   3.371   7.986  2.6748 -0.2025  0.1139
 8006SOL     OW35479   3.448   4.236  11.276 -0.2028 -0.2387  0.4843
 8006SOL    HW135480   3.502   4.214  11.201  1.3704  0.7358  1.3149
 8006SOL    HW235481   3.427   4.327  11.255 -0.6274 -0.6391 -0.7985
 8007SOL     OW35482   3.103   4.377  13.822 -1.1223  0.3245 -0.3979
 8007SOL    HW135483   3.185   4.345  13.785 -0.9796  0.3789 -0.1331
 8007SOL    HW235484   3.135   4.416  13.903 -2.1712  0.0946  0.1273
 8008SOL     OW35485   1.415   3.451   2.575 -0.7425  0.4011 -0.0025
 8008SOL    HW135486   1.356   3.523   2.552  0.0776  1.3069  0.7552
 8008SOL    HW235487   1.392   3.386   2.509 -2.6837  0.7428  0.3346
 8009SOL     OW35488   4.622   0.076   9.941 -0.0217 -0.1196 -0.4925
 8009SOL    HW135489   4.605   4.711   9.921  0.5094 -0.3858  0.2901
 8009SOL    HW235490   4.545   0.116   9.900 -0.6863  0.0723  0.9672
 8010SOL     OW35491   1.946   1.735   4.970 -0.5034  0.5524 -0.1586
 8010SOL    HW135492   1.896   1.741   5.051 -1.1928  1.2232 -0.6299
 8010SOL    HW235493   1.984   1.648   4.984 -1.0138  0.1378 -1.3414
 8011SOL     OW35494   2.886   3.720  15.152  0.1400 -0.0410  0.5866
 8011SOL    HW135495   2.893   3.635  15.194 -0.3670 -0.2133  0.3215
 8011SOL    HW235496   2.972   3.760  15.168  0.3807 -1.2356  2.2708
 8012SOL     OW35497   4.460   0.421   7.577  0.1876  0.0513 -0.1063
 8012SOL    HW135498   4.545   0.398   7.537  0.5404  0.9444  0.1302
 8012SOL    HW235499   4.421   0.336   7.599  1.0333 -0.8230 -1.9880
 8013SOL     OW35500   1.019   3.412   7.638  0.1704  0.2595  1.3377
 8013SOL    HW135501   0.966   3.433   7.715 -0.1429 -1.6545  1.6614
 8013SOL    HW235502   1.106   3.406   7.677  0.9149 -0.6051 -0.4341
 8014SOL     OW35503   0.638   1.677   0.022 -0.0617  0.2672  0.3232
 8014SOL    HW135504   0.696   1.607  17.696 -0.5271 -0.3130  0.7406
 8014SOL    HW235505   0.662   1.746  17.667  0.3349 -1.5616 -1.6132
 8015SOL     OW35506   2.621   3.916   2.421 -0.3073  0.2684 -0.0826
 8015SOL    HW135507   2.630   3.985   2.487 -1.2672  0.5117 -0.2112
 8015SOL    HW235508   2.538   3.873   2.441  0.5074 -1.4496 -0.3311
 8016SOL     OW35509   2.448   0.145   4.608 -0.1912  0.4772  0.1408
 8016SOL    HW135510   2.357   0.131   4.582  1.0602 -4.5039 -1.4053
 8016SOL    HW235511   2.472   0.217   4.550  1.5413  0.7490  1.2108
 8017SOL     OW35512   4.617   1.587   8.849 -0.3850 -0.3623  0.0681
 8017SOL    HW135513   4.612   1.653   8.918  1.2669 -3.2718  2.9536
 8017SOL    HW235514   4.712   1.579   8.853 -0.3494  1.5694  3.0924
 8018SOL     OW35515   0.906   4.350  14.760  0.2752  0.1593  0.4413
 8018SOL    HW135516   0.854   4.389  14.831 -0.0734  1.2007 -0.3807
 8018SOL    HW235517   0.856   4.377  14.683  1.5887 -1.8727 -1.1104
 8019SOL     OW35518   4.305   2.844   3.319  0.4814  0.3354  0.2156
 8019SOL    HW135519   4.269   2.801   3.397  1.6774  0.4417  0.8431
 8019SOL    HW235520   4.242   2.915   3.307 -1.1046 -1.2596 -0.8495
 8020SOL     OW35521   2.995   3.217   8.493  0.4193  0.0845  0.3139
 8020SOL    HW135522   3.053   3.144   8.474 -1.6502 -1.6773  0.7557
 8020SOL    HW235523   3.054   3.289   8.473 -1.1972  0.9467 -1.3708
 8021SOL     OW35524   1.643   2.828   6.123  0.6299  0.4295  0.2887
 8021SOL    HW135525   1.706   2.757   6.137 -1.7626 -1.9398 -1.0652
 8021SOL    HW235526   1.643   2.871   6.209  1.6365 -0.7554  0.8897
 8022SOL     OW35527   1.576   3.861  16.131  0.5173 -0.1956 -0.4063
 8022SOL    HW135528   1.491   3.899  16.152  0.4172 -1.4447  1.4973
 8022SOL    HW235529   1.617   3.939  16.094  0.8337 -1.0177 -1.7707
 8023SOL     OW35530   0.918   0.742   5.498  0.3361 -0.6530 -0.2603
 8023SOL    HW135531   0.892   0.763   5.588 -1.0909 -0.5509 -0.7025
 8023SOL    HW235532   1.010   0.769   5.498 -0.5564  2.4266 -2.5610
 8024SOL     OW35533   1.666   2.696   3.982  0.0231 -0.2583  0.4030
 8024SOL    HW135534   1.747   2.711   3.933 -0.5336 -0.4946 -0.6121
 8024SOL    HW235535   1.659   2.776   4.033  2.0803 -0.9895  1.7923
 8025SOL     OW35536   4.349   1.527   7.239  0.9384 -0.3846 -0.2834
 8025SOL    HW135537   4.411   1.599   7.223  1.5865 -0.1464  3.2540
 8025SOL    HW235538   4.373   1.477   7.161  0.9665  0.0384 -0.5458
 8026SOL     OW35539   3.624   1.602   3.297 -0.0391  0.2643  0.0856
 8026SOL    HW135540   3.548   1.549   3.320 -0.0618  1.1556  2.0494
 8026SOL    HW235541   3.598   1.637   3.212  0.6348  1.5590  0.4045
 8027SOL     OW35542   1.184   2.179   6.693  0.5539 -0.0613 -0.0507
 8027SOL    HW135543   1.117   2.199   6.628 -0.8184  2.7380  2.2415
 8027SOL    HW235544   1.205   2.091   6.664  1.9173  0.5518 -0.9428
 8028SOL     OW35545   1.033   4.631   4.725  0.0333  0.0705  0.2090
 8028SOL    HW135546   1.052   4.539   4.743  1.3349  0.2430 -0.3352
 8028SOL    HW235547   0.953   4.636   4.779  1.0295 -0.6378  1.7703
 8029SOL     OW35548   3.716   1.260  10.500  0.0860  0.2032 -0.2342
 8029SOL    HW135549   3.734   1.168  10.521 -0.7455  0.1290  0.1580
 8029SOL    HW235550   3.756   1.307  10.573  2.0084 -2.1445  0.2235
 8030SOL     OW35551   1.625   3.693  11.350 -0.2683 -0.2463 -0.8811
 8030SOL    HW135552   1.591   3.625  11.408  0.0666  0.0618 -0.3327
 8030SOL    HW235553   1.632   3.766  11.411 -0.1571 -0.9094 -0.1029
 8031SOL     OW35554   0.091   3.158  10.721  0.1754  0.1091  0.5858
 8031SOL    HW135555   0.035   3.179  10.646 -2.4174  1.8338  3.0062
 8031SOL    HW235556   0.163   3.115  10.675  2.0125  1.9845  1.6756
 8032SOL     OW35557   2.442   3.723   5.761 -0.1100  0.3662 -0.4693
 8032SOL    HW135558   2.375   3.697   5.699 -1.8528  0.9408  1.1776
 8032SOL    HW235559   2.434   3.817   5.746  0.4183  0.4170 -0.4531
 8033SOL     OW35560   1.724   1.593   1.089 -0.7285  0.9893 -0.6216
 8033SOL    HW135561   1.683   1.578   1.174 -1.0863  1.5821 -0.6912
 8033SOL    HW235562   1.673   1.671   1.066 -0.4726  1.1540 -0.6350
 8034SOL     OW35563   4.321   3.334   3.672  0.1365  0.6279 -0.7306
 8034SOL    HW135564   4.246   3.379   3.711  0.0363  2.8811 -3.5274
 8034SOL    HW235565   4.308   3.336   3.578 -1.0236  2.5292 -0.5418
 8035SOL     OW35566   1.146   0.734   4.778 -0.4459 -0.1219 -0.6516
 8035SOL    HW135567   1.128   0.810   4.834 -1.0741 -1.1448  0.5560
 8035SOL    HW235568   1.190   0.783   4.709  0.3781  0.8381  0.5302
 8036SOL     OW35569   0.860   3.388   2.884  0.9557  0.3608  0.2035
 8036SOL    HW135570   0.920   3.461   2.895  1.4257  0.1691 -1.1023
 8036SOL    HW235571   0.846   3.390   2.789  0.4532 -1.2458  0.2484
 8037SOL     OW35572   2.511   0.165  16.633  0.0575 -0.1851  0.2181
 8037SOL    HW135573   2.429   0.142  16.677  1.8850 -0.7484  3.3173
 8037SOL    HW235574   2.472   0.206  16.555  1.4691  2.3972  0.8799
 8038SOL     OW35575   2.814   0.084  16.589 -0.6030 -0.3005  0.0469
 8038SOL    HW135576   2.829   4.716  16.590 -2.4258 -0.6012 -0.8733
 8038SOL    HW235577   2.869   0.104  16.513 -0.9098 -1.3727 -0.4495
 8039SOL     OW35578   4.360   3.864  17.078 -0.6114 -0.1458 -0.1149
 8039SOL    HW135579   4.307   3.793  17.113 -1.3360 -0.7500 -2.4003
 8039SOL    HW235580   4.332   3.937  17.132 -1.0351 -0.0922 -0.4107
 8040SOL     OW35581   0.779   3.395   7.340  0.1294 -0.4218 -0.1292
 8040SOL    HW135582   0.874   3.384   7.347  0.3363  0.1720 -2.1751
 8040SOL    HW235583   0.769   3.429   7.251  0.0037  2.8495  1.1595
 8041SOL     OW35584   3.638   3.854   1.682  0.0745  0.0924  0.1669
 8041SOL    HW135585   3.569   3.908   1.721 -0.6076 -0.5307 -0.1869
 8041SOL    HW235586   3.619   3.763   1.704 -1.0123  0.5412  1.0891
 8042SOL     OW35587   4.445   4.219   3.943 -0.0677  0.0933 -0.2701
 8042SOL    HW135588   4.402   4.222   3.858  1.0685  2.0479 -0.7658
 8042SOL    HW235589   4.369   4.200   3.999 -1.2556  0.3295 -1.7967
 8043SOL     OW35590   1.650   3.827   0.660  0.1041  0.1143  0.2294
 8043SOL    HW135591   1.581   3.781   0.613  0.1096 -1.3663  1.6591
 8043SOL    HW235592   1.722   3.810   0.598 -1.5727  0.8442 -1.8959
 8044SOL     OW35593   3.460   2.209   4.638  0.5069 -0.3716 -0.3101
 8044SOL    HW135594   3.545   2.231   4.601  0.3638  2.1736  0.8187
 8044SOL    HW235595   3.477   2.194   4.731 -0.7160 -1.8200 -0.3261
 8045SOL     OW35596   4.694   4.702   5.574  0.0525  0.2725 -0.7641
 8045SOL    HW135597   0.024   4.651   5.515  0.0460  0.3355 -0.8244
 8045SOL    HW235598   4.608   4.687   5.535  0.4314  2.5344 -2.4892
 8046SOL     OW35599   1.679   3.794   5.827 -0.0947  0.4813 -0.1775
 8046SOL    HW135600   1.640   3.865   5.878 -1.5753  1.0358 -2.0604
 8046SOL    HW235601   1.680   3.831   5.739  0.9900 -1.1498 -0.8347
 8047SOL     OW35602   3.405   1.229  17.021  0.2829 -0.3796 -0.0639
 8047SOL    HW135603   3.377   1.281  16.945 -0.5913 -0.3686  0.2769
 8047SOL    HW235604   3.433   1.304  17.075 -2.3666 -0.7134  1.7449
 8048SOL     OW35605   4.122   3.659   7.825 -0.2802 -0.4452 -0.6478
 8048SOL    HW135606   4.124   3.681   7.918  0.9917  0.0130 -0.7867
 8048SOL    HW235607   4.103   3.565   7.830  0.9596 -0.6892 -0.5590
 8049SOL     OW35608   3.744   3.221   3.596  0.7038 -0.2095  0.5270
 8049SOL    HW135609   3.823   3.257   3.556 -0.3861  1.7560  0.1730
 8049SOL    HW235610   3.731   3.283   3.668 -0.2803 -0.3489  0.4628
 8050SOL     OW35611   2.131   1.244   5.144  0.3958  0.4742 -0.1841
 8050SOL    HW135612   2.184   1.218   5.069  1.1038  1.3921 -0.0129
 8050SOL    HW235613   2.130   1.165   5.197 -1.8744  0.3354 -0.4537
 8051SOL     OW35614   2.317   1.568   5.015  0.2341 -0.5239  0.0098
 8051SOL    HW135615   2.340   1.624   4.941  0.1206  1.8186  1.7474
 8051SOL    HW235616   2.386   1.594   5.076 -1.1491  1.0356  0.9045
 8052SOL     OW35617   1.971   2.100  11.460 -0.1638 -0.1158  0.1075
 8052SOL    HW135618   2.019   2.023  11.431  1.3874  1.7318 -2.1514
 8052SOL    HW235619   2.037   2.167  11.477  0.7951 -0.8932 -0.5836
 8053SOL     OW35620   4.189   3.232   2.237  0.0371 -0.2712 -0.0339
 8053SOL    HW135621   4.150   3.316   2.261 -0.8992 -1.1714  1.6629
 8053SOL    HW235622   4.283   3.248   2.233  0.4536 -2.7727 -0.5352
 8054SOL     OW35623   4.083   2.822   7.492 -0.0039 -0.4655 -0.1372
 8054SOL    HW135624   4.144   2.782   7.430  3.3367  1.2771  2.0905
 8054SOL    HW235625   4.107   2.914   7.481 -1.2763 -0.2784 -1.4047
 8055SOL     OW35626   4.124   4.401   9.706 -0.3893 -0.2541 -0.3520
 8055SOL    HW135627   4.087   4.349   9.777 -0.4245 -1.0821 -0.9661
 8055SOL    HW235628   4.064   4.475   9.708  0.2546  0.2379  0.2728
 8056SOL     OW35629   0.827   2.887   8.576 -0.0899  0.2480  0.2626
 8056SOL    HW135630   0.823   2.969   8.624 -0.8860  0.3946 -0.0481
 8056SOL    HW235631   0.905   2.840   8.606 -0.8929 -0.9553  0.5032
 8057SOL     OW35632   0.348   4.157   8.710  0.0662  0.0108  0.1122
 8057SOL    HW135633   0.298   4.222   8.662  1.3332  1.1266  0.3185
 8057SOL    HW235634   0.298   4.158   8.792 -0.0796  2.9439 -0.0339
 8058SOL     OW35635   0.354   0.222   5.847 -0.5198 -0.3398  0.2410
 8058SOL    HW135636   0.301   0.207   5.769  1.9838  2.8521 -2.0666
 8058SOL    HW235637   0.386   0.309   5.823  1.7654 -1.5385 -1.0435
 8059SOL     OW35638   4.391   3.819   6.669 -0.2217 -0.0642 -0.3356
 8059SOL    HW135639   4.348   3.798   6.586 -2.4252  0.3331  0.7345
 8059SOL    HW235640   4.349   3.904   6.678 -1.2668 -0.6490  0.3663
 8060SOL     OW35641   0.157   1.550   2.328  0.2716  0.3571 -0.1065
 8060SOL    HW135642   0.078   1.547   2.383 -0.4685 -1.0771 -1.2372
 8060SOL    HW235643   0.149   1.465   2.285 -2.4627 -0.1984  1.4940
 8061SOL     OW35644   4.557   1.114  13.084 -0.1438  0.7898  0.4101
 8061SOL    HW135645   4.537   1.093  13.175 -0.4246 -1.8621 -0.2611
 8061SOL    HW235646   4.638   1.063  13.079 -0.1511  0.8744 -0.6478
 8062SOL     OW35647   0.330   0.933   8.290 -0.3610 -0.3699  0.1662
 8062SOL    HW135648   0.344   0.838   8.297  0.0511 -0.3618 -0.5140
 8062SOL    HW235649   0.406   0.955   8.344 -0.6762 -1.5230  1.0841
 8063SOL     OW35650   0.775   2.239   3.094 -0.1153 -0.5538 -0.1130
 8063SOL    HW135651   0.821   2.241   3.010 -1.9758 -0.2354 -1.1238
 8063SOL    HW235652   0.685   2.226   3.065  0.0669 -0.6970 -0.6197
 8064SOL     OW35653   0.193   2.594   7.137 -0.5279 -0.1642  0.2986
 8064SOL    HW135654   0.196   2.675   7.086  0.1917  1.0428  2.2691
 8064SOL    HW235655   0.286   2.571   7.135 -0.0088  2.0329 -0.4477
 8065SOL     OW35656   1.961   1.677   0.998 -0.4513 -0.1350  0.4077
 8065SOL    HW135657   1.964   1.644   0.908  1.6582 -0.9055  0.7561
 8065SOL    HW235658   1.879   1.636   1.026 -0.3236  0.2199  1.3204
 8066SOL     OW35659   4.486   0.240   7.983 -0.7113 -0.0935  0.4991
 8066SOL    HW135660   4.570   0.204   7.955 -0.4577  2.1860 -1.7238
 8066SOL    HW235661   4.500   0.215   8.074 -0.5059  1.1108  0.8047
 8067SOL     OW35662   3.845   3.484   3.381 -0.2085  0.3866 -0.1494
 8067SOL    HW135663   3.829   3.433   3.301  0.5976  1.3426 -0.9257
 8067SOL    HW235664   3.918   3.437   3.420 -0.1377 -2.2827 -3.5142
 8068SOL     OW35665   1.052   4.619   6.675 -0.4747 -0.0365 -0.1960
 8068SOL    HW135666   1.099   4.699   6.698 -2.0793  1.3518 -1.7747
 8068SOL    HW235667   1.091   4.592   6.592  0.8305 -0.3761  0.5231
 8069SOL     OW35668   4.285   3.300   3.387  0.4173  0.1244 -0.1675
 8069SOL    HW135669   4.373   3.325   3.361 -0.6009  1.0205 -2.7056
 8069SOL    HW235670   4.234   3.346   3.320 -0.5155  0.1746  0.5692
 8070SOL     OW35671   3.086   2.432   7.283  0.0888 -0.3940 -0.2621
 8070SOL    HW135672   3.050   2.378   7.213  2.2253 -1.0267 -0.8753
 8070SOL    HW235673   3.027   2.411   7.355 -0.6932 -0.3911 -0.9009
 8071SOL     OW35674   3.704   1.018   2.487 -0.2155  0.5219 -0.5330
 8071SOL    HW135675   3.660   1.046   2.407 -0.0185 -1.1250 -1.2092
 8071SOL    HW235676   3.775   0.963   2.454 -0.3767  0.2398 -0.4099
 8072SOL     OW35677   1.854   1.061   8.293 -0.2995  0.2973  0.2359
 8072SOL    HW135678   1.791   1.114   8.244  0.1759  0.8393  0.2167
 8072SOL    HW235679   1.809   1.069   8.377 -0.5279  1.1136  0.0390
 8073SOL     OW35680   2.668   2.557  11.694  0.2946 -0.2026 -0.7467
 8073SOL    HW135681   2.674   2.591  11.784 -0.8504  1.0750 -1.1439
 8073SOL    HW235682   2.578   2.579  11.670  0.3552  0.3528 -0.4702
 8074SOL     OW35683   3.835   3.096   8.071  0.3746  0.0917 -0.4847
 8074SOL    HW135684   3.879   3.158   8.130 -2.2133  0.3715  1.1713
 8074SOL    HW235685   3.819   3.155   7.998 -2.1047  0.3929  0.2899
 8075SOL     OW35686   1.514   3.262   4.535  0.3904 -0.0351  0.3311
 8075SOL    HW135687   1.424   3.251   4.504  0.6671  1.4513 -0.9999
 8075SOL    HW235688   1.503   3.297   4.623 -0.5221  0.6609 -0.0584
 8076SOL     OW35689   4.160   2.084  13.479 -0.0662  0.0977  0.0802
 8076SOL    HW135690   4.169   2.178  13.462 -1.7988  0.0568 -1.0222
 8076SOL    HW235691   4.172   2.040  13.395 -1.2907  0.7301 -0.4244
 8077SOL     OW35692   4.399   0.249   8.623  0.1914  0.4827 -0.4943
 8077SOL    HW135693   4.402   0.339   8.656 -0.2142  1.5887 -3.4945
 8077SOL    HW235694   4.486   0.224   8.654  0.0343  0.2970 -0.2057
 8078SOL     OW35695   1.147   4.414  14.660  0.1152  0.9813  0.6167
 8078SOL    HW135696   1.054   4.400  14.675  0.3054 -0.9010  0.0387
 8078SOL    HW235697   1.164   4.346  14.595  0.6672 -0.6530  2.4703
 8079SOL     OW35698   2.861   3.467   8.452  0.1089 -0.2523  0.4488
 8079SOL    HW135699   2.832   3.509   8.533  1.7283  4.8602 -1.6223
 8079SOL    HW235700   2.828   3.379   8.474  0.4530 -0.3944  0.3976
 8080SOL     OW35701   2.076   0.240   6.878  0.4694  0.4324  0.1182
 8080SOL    HW135702   2.084   0.148   6.903 -0.1410 -0.0833 -1.6160
 8080SOL    HW235703   2.146   0.279   6.930  2.2730  0.0478 -2.0688
 8081SOL     OW35704   3.992   0.766   8.322 -0.0700 -0.3348  0.2472
 8081SOL    HW135705   3.979   0.684   8.369  1.4086 -0.8525 -0.2640
 8081SOL    HW235706   3.919   0.813   8.363 -2.0293 -3.9179  0.8381
 8082SOL     OW35707   4.117   1.740   7.909  0.5685 -0.1595  0.7177
 8082SOL    HW135708   4.137   1.828   7.940 -0.8831 -0.0072  1.2122
 8082SOL    HW235709   4.063   1.705   7.980 -0.8605  0.9165  0.1549
 8083SOL     OW35710   3.647   0.830  14.114  0.3641 -0.4700 -0.0540
 8083SOL    HW135711   3.681   0.784  14.037  0.9226 -0.2436  0.0567
 8083SOL    HW235712   3.722   0.835  14.173  1.1029  2.0091 -1.1800
 8084SOL     OW35713   1.657   1.424   8.716 -0.3261 -0.2018  0.6649
 8084SOL    HW135714   1.639   1.352   8.777 -2.4229  1.5982  2.1726
 8084SOL    HW235715   1.641   1.499   8.773 -0.3371 -0.4101  0.9316
 8085SOL     OW35716   0.717   1.652   2.889 -0.1647  0.3222  0.4906
 8085SOL    HW135717   0.719   1.611   2.803 -3.3237  1.7139 -0.2608
 8085SOL    HW235718   0.626   1.633   2.911  0.5463 -1.9462  1.5179
 8086SOL     OW35719   1.420   4.429   3.585 -0.0423  0.0750 -0.2898
 8086SOL    HW135720   1.411   4.401   3.494 -0.7615 -3.0277  0.7113
 8086SOL    HW235721   1.340   4.482   3.590 -0.2406 -0.1156 -1.6413
 8087SOL     OW35722   3.887   2.023   2.979 -0.0592  0.1039  0.0520
 8087SOL    HW135723   3.815   1.960   2.990 -1.6022  1.7589 -0.5639
 8087SOL    HW235724   3.857   2.072   2.902  0.2918 -1.2187 -0.9338
 8088SOL     OW35725   0.851   3.951   6.841  0.1375  0.0934 -0.0123
 8088SOL    HW135726   0.793   3.926   6.913  1.8836  0.6223  1.5688
 8088SOL    HW235727   0.929   3.899   6.855 -0.8323 -1.7437 -1.3643
 8089SOL     OW35728   4.594   0.169  10.969  0.0529 -0.2297 -0.2598
 8089SOL    HW135729   4.684   0.195  10.991 -0.2830  2.2363 -1.7781
 8089SOL    HW235730   4.605   0.156  10.875 -1.0165 -0.3718 -0.3600
 8090SOL     OW35731   0.716   2.057   3.312 -0.5342 -0.5264  0.0902
 8090SOL    HW135732   0.766   2.072   3.232 -2.4857 -0.1383 -1.0606
 8090SOL    HW235733   0.630   2.090   3.287 -1.2089 -2.0131  0.4860
 8091SOL     OW35734   1.320   0.100  11.082  0.1334 -0.2441  0.2025
 8091SOL    HW135735   1.295   0.084  10.991  0.2790  1.0546 -0.0626
 8091SOL    HW235736   1.312   0.007  11.104 -2.5095 -0.1355 -0.2793
 8092SOL     OW35737   2.077   1.760   4.204 -0.0696  0.0863  0.1122
 8092SOL    HW135738   2.145   1.814   4.245 -0.0990 -0.2128  0.5654
 8092SOL    HW235739   2.011   1.745   4.272 -0.1480 -0.8059 -0.1564
 8093SOL     OW35740   2.141   2.346  11.883  0.0815 -0.3286  0.1330
 8093SOL    HW135741   2.194   2.321  11.959 -1.1238 -0.6499  0.8675
 8093SOL    HW235742   2.093   2.267  11.861 -0.8447  0.5510 -1.0140
 8094SOL     OW35743   1.304   4.567  14.506 -0.2293 -0.0012 -0.0901
 8094SOL    HW135744   1.238   4.531  14.566 -3.1746  2.8924 -1.6382
 8094SOL    HW235745   1.253   4.554  14.426 -1.2039 -0.2658  0.5728
 8095SOL     OW35746   3.746   2.605  11.947 -0.2569 -0.1431  0.2235
 8095SOL    HW135747   3.833   2.633  11.918 -1.0222 -0.5141 -2.4242
 8095SOL    HW235748   3.696   2.660  11.887  0.7373  1.3020  0.7341
 8096SOL     OW35749   1.990   3.133   2.072 -0.0872  0.0697  0.1228
 8096SOL    HW135750   2.004   3.133   1.977 -0.0930  0.1036  0.1218
 8096SOL    HW235751   2.069   3.177   2.102 -1.1637  1.6538  0.6492
 8097SOL     OW35752   3.704   1.629   4.903  0.5173 -0.4958 -0.3438
 8097SOL    HW135753   3.798   1.625   4.921  0.3865 -2.8504 -0.1668
 8097SOL    HW235754   3.659   1.585   4.975 -1.0120  0.0086 -0.9849
 8098SOL     OW35755   2.173   4.609   3.449  0.1326 -0.0137 -0.1070
 8098SOL    HW135756   2.151   4.538   3.388  0.8859 -0.9651  0.7356
 8098SOL    HW235757   2.261   4.638   3.427  0.6737 -2.2203 -0.8036
 8099SOL     OW35758   3.758   2.459   2.297  0.5951 -0.4049 -0.0699
 8099SOL    HW135759   3.783   2.441   2.388 -0.8233  1.4852  0.6997
 8099SOL    HW235760   3.842   2.493   2.265 -0.5460  1.7687 -0.7351
 8100SOL     OW35761   4.456   2.083   6.012 -0.2850  0.2878  0.6919
 8100SOL    HW135762   4.491   2.027   6.081 -0.3559  0.8462  1.1769
 8100SOL    HW235763   4.452   2.165   6.061 -2.4559 -0.0669  1.0923
 8101SOL     OW35764   0.988   0.449  13.427 -0.2788  0.1569 -0.9809
 8101SOL    HW135765   1.046   0.383  13.390 -1.0331  0.0359 -1.9493
 8101SOL    HW235766   1.007   0.436  13.520 -0.3728  1.2883 -0.8127
 8102SOL     OW35767   2.127   2.283   5.317 -0.2440  0.0336  0.6229
 8102SOL    HW135768   2.096   2.347   5.382 -0.3301 -0.6687  1.2744
 8102SOL    HW235769   2.216   2.317   5.308 -0.2813  0.5423  2.0357
 8103SOL     OW35770   4.263   1.596  13.659 -0.2261  0.2372 -0.1184
 8103SOL    HW135771   4.342   1.542  13.651  0.2734  1.0109 -0.4687
 8103SOL    HW235772   4.307   1.679  13.680 -0.1145 -0.2149  1.4744
 8104SOL     OW35773   2.248   3.518   4.822  0.0497  0.1798  0.3299
 8104SOL    HW135774   2.206   3.460   4.886  0.3846  0.3415  0.6938
 8104SOL    HW235775   2.249   3.464   4.743  3.2368 -0.5158  0.8465
 8105SOL     OW35776   3.656   1.249   9.461  0.0976 -0.5053 -0.2367
 8105SOL    HW135777   3.651   1.337   9.499 -1.5857 -0.6317 -0.1422
 8105SOL    HW235778   3.577   1.257   9.407  1.2690 -1.0251 -2.0202
 8106SOL     OW35779   3.099   4.501  14.352 -0.3165  0.1796 -0.4080
 8106SOL    HW135780   3.032   4.514  14.419  0.0068 -3.4127  0.5662
 8106SOL    HW235781   3.157   4.574  14.373 -0.6053  0.3676 -0.2613
 8107SOL     OW35782   4.049   1.819  13.232  0.4070 -0.0425 -0.5529
 8107SOL    HW135783   4.077   1.785  13.317 -0.4140  1.4957  0.3369
 8107SOL    HW235784   3.956   1.822  13.256  0.3717 -1.0705 -0.5419
 8108SOL     OW35785   0.437   2.857   4.670 -0.2894  0.3696  0.2542
 8108SOL    HW135786   0.417   2.922   4.603  0.1358  0.3374  0.0984
 8108SOL    HW235787   0.387   2.883   4.748 -1.9725  1.9613 -1.3687
 8109SOL     OW35788   0.067   4.467   0.799  0.4060 -0.1673  0.2949
 8109SOL    HW135789   4.707   4.439   0.827  0.1302 -0.1555 -0.5650
 8109SOL    HW235790   0.067   4.557   0.832 -0.3349 -0.1454  0.2304
 8110SOL     OW35791   0.917   0.096   7.105  0.4112 -0.1927  0.2764
 8110SOL    HW135792   1.003   0.063   7.081  1.4106  1.3824  1.7152
 8110SOL    HW235793   0.928   0.098   7.200  0.3413  3.5646  0.2057
 8111SOL     OW35794   1.044   1.731   5.945  0.0689  0.1380 -0.0664
 8111SOL    HW135795   1.049   1.720   5.850  1.4241 -1.3743  0.1815
 8111SOL    HW235796   0.954   1.763   5.948 -0.3406 -1.2308  1.8866
 8112SOL     OW35797   1.206   3.023  12.118  0.1730 -0.3538 -0.3491
 8112SOL    HW135798   1.145   3.003  12.189  2.4008 -0.8590  1.4436
 8112SOL    HW235799   1.271   3.069  12.172  0.7378 -1.6171  0.0589
 8113SOL     OW35800   0.084   0.546   9.961  0.2336  0.4056 -0.3311
 8113SOL    HW135801   0.034   0.576  10.037 -0.2283  0.5113 -0.6841
 8113SOL    HW235802   0.166   0.595   9.973 -0.2396  0.6648  1.8309
 8114SOL     OW35803   3.436   3.164  10.018  0.0043 -0.5426 -0.4571
 8114SOL    HW135804   3.356   3.183   9.970 -0.9337 -1.6378  0.6948
 8114SOL    HW235805   3.505   3.218   9.980  1.2363 -0.9920  1.1049
 8115SOL     OW35806   3.159   0.937  15.130  0.0034 -0.3378 -0.1694
 8115SOL    HW135807   3.161   0.866  15.193 -0.4171 -1.6591 -1.6410
 8115SOL    HW235808   3.134   1.018  15.175  0.6898 -0.0695 -0.2735
 8116SOL     OW35809   1.017   3.285   0.541  0.3335  0.4795 -0.6969
 8116SOL    HW135810   1.068   3.249   0.613 -1.0809 -1.1671 -0.5335
 8116SOL    HW235811   0.932   3.245   0.559  0.8292 -1.0329 -1.6972
 8117SOL     OW35812   0.781   3.691   1.008  0.5424 -0.5199 -0.1184
 8117SOL    HW135813   0.823   3.688   0.922 -1.3755 -3.1159 -0.9637
 8117SOL    HW235814   0.847   3.736   1.060 -0.9902  1.7722 -0.1473
 8118SOL     OW35815   2.146   0.561  16.383 -0.4596  0.5956  0.0269
 8118SOL    HW135816   2.184   0.593  16.465  1.7186 -1.0833 -0.3491
 8118SOL    HW235817   2.060   0.604  16.385 -0.6899  0.1022  0.9250
 8119SOL     OW35818   3.940   2.336   8.755 -0.5354 -0.1029 -0.1367
 8119SOL    HW135819   3.908   2.362   8.669  1.5720  0.3517 -0.8003
 8119SOL    HW235820   3.963   2.245   8.734 -0.8019  0.1324 -1.4146
 8120SOL     OW35821   0.299   3.207   0.887  0.0570 -0.0502  0.2927
 8120SOL    HW135822   0.314   3.113   0.880  0.9875  0.0705  0.5772
 8120SOL    HW235823   0.365   3.227   0.820  1.1132  2.4552  2.0618
 8121SOL     OW35824   3.587   0.592   1.494 -0.2773  0.0784  0.3941
 8121SOL    HW135825   3.628   0.510   1.465 -0.4601  0.5753 -1.2816
 8121SOL    HW235826   3.527   0.613   1.422  1.2725 -1.5324 -1.3921
 8122SOL     OW35827   2.258   0.964  12.653 -0.1083 -0.1254 -0.6440
 8122SOL    HW135828   2.329   0.926  12.602  0.4903 -0.1729  0.2199
 8122SOL    HW235829   2.260   1.058  12.636  3.1751  0.0571  0.7438
 8123SOL     OW35830   1.952   0.277  16.923  0.2530 -0.9765 -0.0667
 8123SOL    HW135831   1.890   0.230  16.866  1.1416 -0.1275 -1.7416
 8123SOL    HW235832   1.920   0.272  17.013  3.0672  1.1338  1.0161
 8124SOL     OW35833   1.003   0.432   2.563  0.1636  1.1165 -0.1205
 8124SOL    HW135834   0.984   0.511   2.511 -1.9700  0.7995  0.1628
 8124SOL    HW235835   1.034   0.467   2.646 -0.5614 -2.2970  1.5597
 8125SOL     OW35836   4.062   0.316  13.619  0.1242 -0.3624  0.3530
 8125SOL    HW135837   4.045   0.361  13.537  1.7815  0.5635  0.5110
 8125SOL    HW235838   3.996   0.247  13.614 -1.2558  0.8922  1.0851
 8126SOL     OW35839   1.559   0.117   4.029 -0.1609 -0.3224 -0.3644
 8126SOL    HW135840   1.594   0.034   4.062  1.1687  1.3248  2.3669
 8126SOL    HW235841   1.492   0.147   4.090  0.4817 -0.0030  0.1991
 8127SOL     OW35842   3.207   1.750  16.706 -0.0674 -0.2368 -0.0830
 8127SOL    HW135843   3.237   1.766  16.796  0.9940 -0.0769 -0.4667
 8127SOL    HW235844   3.142   1.680  16.711 -1.3838  1.0795  1.3610
 8128SOL     OW35845   2.337   4.375   7.077  0.1982 -0.2610  0.1517
 8128SOL    HW135846   2.347   4.469   7.062  1.7754 -0.0079  2.6850
 8128SOL    HW235847   2.343   4.375   7.173  1.0945 -2.5965  0.1002
 8129SOL     OW35848   1.315   4.599  12.423 -0.4686  0.2964 -0.3827
 8129SOL    HW135849   1.364   4.583  12.342  0.5829  0.0731  0.3009
 8129SOL    HW235850   1.371   4.558  12.488 -0.5685  0.0087 -0.4775
 8130SOL     OW35851   1.368   1.005  17.471  0.1332  0.3757  0.1233
 8130SOL    HW135852   1.343   0.950  17.545 -0.5352  0.3730 -0.1053
 8130SOL    HW235853   1.347   0.950  17.395  0.9749 -0.2899  0.3754
 8131SOL     OW35854   2.882   3.389   7.828 -0.2274 -0.0158  0.2770
 8131SOL    HW135855   2.903   3.296   7.839  3.7491  0.8952  0.4151
 8131SOL    HW235856   2.903   3.413   7.738 -0.8674  0.3119  0.2173
 8132SOL     OW35857   2.609   1.932  14.128  0.5713  0.1620  0.2598
 8132SOL    HW135858   2.591   1.874  14.202  1.1176 -1.5299 -0.9291
 8132SOL    HW235859   2.704   1.923  14.115  0.5627 -1.6145  1.4551
 8133SOL     OW35860   3.047   4.639   4.785 -0.3294  0.0997 -0.2582
 8133SOL    HW135861   3.039   4.544   4.779 -0.1641  0.0509  0.2311
 8133SOL    HW235862   3.108   4.661   4.715 -0.6143  1.3290 -0.1223
 8134SOL     OW35863   0.339   2.658  10.903 -0.1990  0.2296 -0.0170
 8134SOL    HW135864   0.328   2.615  10.987 -0.1159  1.3264  0.5625
 8134SOL    HW235865   0.319   2.747  10.932 -1.5550 -0.3550  0.8591
 8135SOL     OW35866   2.965   2.820   3.808 -0.2337  0.2353  0.3223
 8135SOL    HW135867   2.992   2.758   3.876 -0.8994  1.1100  1.4000
 8135SOL    HW235868   2.874   2.843   3.830 -0.8128 -0.9529 -0.8581
 8136SOL     OW35869   4.042   2.523   2.402 -0.3529 -0.0905  0.6430
 8136SOL    HW135870   4.013   2.433   2.417 -0.8831  0.0799  0.6505
 8136SOL    HW235871   4.085   2.515   2.317 -0.4541 -1.5756  0.7431
 8137SOL     OW35872   2.038   2.202   5.047 -0.1435  0.1280 -0.0551
 8137SOL    HW135873   2.061   2.208   5.140 -1.1765  1.3128  0.1333
 8137SOL    HW235874   2.076   2.118   5.021  1.4100  0.6937  0.3654
 8138SOL     OW35875   2.648   1.560   3.640 -0.0004 -0.0566 -0.3224
 8138SOL    HW135876   2.633   1.654   3.630 -3.4961 -0.4228  1.4870
 8138SOL    HW235877   2.693   1.546   3.557  1.8375  0.5122  0.5820
 8139SOL     OW35878   2.562   4.639  16.470 -0.3633  0.0226 -0.4104
 8139SOL    HW135879   2.597   4.574  16.410 -0.8912  1.4742 -2.2791
 8139SOL    HW235880   2.609   4.719  16.444 -2.5737  1.1651 -0.8612
 8140SOL     OW35881   4.260   0.555   3.883 -0.2256  0.3390  0.4331
 8140SOL    HW135882   4.181   0.509   3.914  1.0186  0.6806  4.0928
 8140SOL    HW235883   4.273   0.515   3.797  2.6948  3.4591 -0.5587
 8141SOL     OW35884   4.624   2.999  17.253 -1.2000  0.2981  0.2473
 8141SOL    HW135885   4.622   2.938  17.179 -0.6532 -0.7367  1.0883
 8141SOL    HW235886   4.649   3.079  17.208  0.7870 -0.1635  0.5373
 8142SOL     OW35887   1.359   3.745  15.158 -0.0204  0.0234  0.2597
 8142SOL    HW135888   1.286   3.804  15.177 -0.9045 -1.3264  1.0786
 8142SOL    HW235889   1.339   3.713  15.070  0.7953  2.8993 -0.9535
 8143SOL     OW35890   2.946   4.635  15.395 -0.2599  0.7377  0.1675
 8143SOL    HW135891   2.932   4.674  15.481 -0.5103 -1.0393  0.9251
 8143SOL    HW235892   2.959   4.545  15.426  1.4283  1.3484  1.2486
 8144SOL     OW35893   2.176   1.451  16.070 -0.1027  0.5162 -0.4185
 8144SOL    HW135894   2.262   1.454  16.028  0.4817  1.6354  0.8356
 8144SOL    HW235895   2.195   1.480  16.160 -0.9888 -0.2188  0.0062
 8145SOL     OW35896   3.096   1.995   8.992 -0.0647 -0.3845  0.2581
 8145SOL    HW135897   3.078   2.089   8.985  0.8291 -0.1044  1.5986
 8145SOL    HW235898   3.176   1.987   8.940  0.3133  2.8086  0.3508
 8146SOL     OW35899   0.681   1.173   5.506 -0.0716 -0.1378 -1.0020
 8146SOL    HW135900   0.625   1.113   5.456  1.3054 -1.7965 -0.5678
 8146SOL    HW235901   0.720   1.117   5.573  0.6057 -1.2041 -2.2880
 8147SOL     OW35902   2.499   0.075   5.699 -0.4777  0.0881 -0.0042
 8147SOL    HW135903   2.448   0.030   5.766 -3.3329  1.2711 -1.3556
 8147SOL    HW235904   2.471   0.164   5.718 -2.6158 -1.1866  2.7197
 8148SOL     OW35905   3.515   3.567   4.513  1.1551 -0.1205  0.1402
 8148SOL    HW135906   3.465   3.612   4.445 -0.7720 -0.8203  1.0814
 8148SOL    HW235907   3.474   3.604   4.591 -3.7377 -1.3498 -1.7907
 8149SOL     OW35908   3.557   0.602   2.663 -0.3561 -0.3174 -0.4035
 8149SOL    HW135909   3.561   0.687   2.705 -2.6591 -0.3756 -0.0840
 8149SOL    HW235910   3.466   0.577   2.680  0.4361 -1.6385  1.9329
 8150SOL     OW35911   2.192   0.140   5.679 -0.2468  0.2551  0.4977
 8150SOL    HW135912   2.238   0.076   5.733  3.6745  1.7245 -1.0497
 8150SOL    HW235913   2.212   0.217   5.733 -0.4364 -1.1563  2.5749
 8151SOL     OW35914   2.810   0.538   8.533  0.4407  0.1682 -0.0165
 8151SOL    HW135915   2.824   0.444   8.545 -0.8497  0.1195  1.0409
 8151SOL    HW235916   2.802   0.571   8.622  1.4067  0.5967 -0.0932
 8152SOL     OW35917   2.429   1.636   6.937  0.2539 -0.3988  0.7467
 8152SOL    HW135918   2.504   1.578   6.953 -0.5054 -1.6628 -0.3369
 8152SOL    HW235919   2.429   1.674   7.025 -2.0312  2.4253 -0.4661
 8153SOL     OW35920   4.690   2.693  15.553 -0.3290  0.3047  0.0738
 8153SOL    HW135921   4.722   2.733  15.472 -0.4490 -0.0073 -0.1270
 8153SOL    HW235922   0.038   2.707  15.611  0.6822 -0.9052 -0.9306
 8154SOL     OW35923   4.604   1.219   5.992  0.1692 -0.0563 -0.3374
 8154SOL    HW135924   4.528   1.191   5.941 -0.7099  1.3857  0.1760
 8154SOL    HW235925   4.602   1.153   6.061 -0.3522 -0.7737 -1.0543
 8155SOL     OW35926   1.702   1.025   3.188  1.0086  0.8453  0.5679
 8155SOL    HW135927   1.760   1.034   3.113  1.0421  1.1374  0.6312
 8155SOL    HW235928   1.658   1.109   3.179 -1.8270 -0.7317 -0.5989
 8156SOL     OW35929   4.045   3.375   7.639 -0.1371 -0.7372 -0.0615
 8156SOL    HW135930   3.950   3.381   7.642 -0.0206  0.9954  0.4394
 8156SOL    HW235931   4.059   3.436   7.566  2.8129  0.5972  1.5870
 8157SOL     OW35932   0.885   4.716  12.628 -0.5879  0.2877 -0.1805
 8157SOL    HW135933   0.858   4.720  12.536 -2.4357  1.5552  0.4202
 8157SOL    HW235934   0.973   0.025  12.615 -0.5724  0.4979  0.5183
 8158SOL     OW35935   3.817   1.578   7.017 -0.0942  0.4762 -0.0207
 8158SOL    HW135936   3.744   1.533   7.061  0.0794 -0.3915 -0.6166
 8158SOL    HW235937   3.830   1.508   6.953 -0.2325 -0.7700  1.3114
 8159SOL     OW35938   4.133   0.162   6.817 -0.3706 -0.0558  0.4010
 8159SOL    HW135939   4.091   0.079   6.793 -0.0671  0.4577 -1.8075
 8159SOL    HW235940   4.062   0.198   6.871 -0.8559 -1.1444  0.5036
 8160SOL     OW35941   4.159   2.461  10.343 -0.0335  0.3599  0.4161
 8160SOL    HW135942   4.115   2.442  10.425 -2.2632 -0.1703 -0.8954
 8160SOL    HW235943   4.215   2.384  10.334  0.5413  0.7685  0.5119
 8161SOL     OW35944   0.519   3.138  11.448 -0.7315 -0.1868 -0.4446
 8161SOL    HW135945   0.609   3.108  11.461  0.3902  1.9833 -3.2338
 8161SOL    HW235946   0.530   3.221  11.494 -2.9059 -0.8783  1.3540
 8162SOL     OW35947   1.161   0.423  17.295 -0.2918 -0.3174  0.3399
 8162SOL    HW135948   1.123   0.347  17.339  0.0033 -1.0436 -0.6715
 8162SOL    HW235949   1.137   0.396  17.206  0.1065  0.2154  0.0679
 8163SOL     OW35950   3.626   2.494   9.931  0.0502  0.0352  0.3209
 8163SOL    HW135951   3.629   2.575   9.880  1.9050  0.1962  0.6761
 8163SOL    HW235952   3.665   2.438   9.863 -0.5863 -0.4781  0.3783
 8164SOL     OW35953   3.125   3.441   3.778 -0.0293  0.3010  0.2927
 8164SOL    HW135954   3.110   3.380   3.707 -0.1974  0.3793  0.2617
 8164SOL    HW235955   3.047   3.443   3.834 -0.5472  0.0510 -0.4160
 8165SOL     OW35956   3.456   1.204  11.123  0.2304  0.0994  0.3465
 8165SOL    HW135957   3.433   1.297  11.122 -0.6363 -0.1247 -0.1258
 8165SOL    HW235958   3.551   1.219  11.124  0.4350 -1.1504  0.0944
 8166SOL     OW35959   2.877   3.377   4.980 -0.1728 -0.1483 -0.0787
 8166SOL    HW135960   2.826   3.447   5.022  0.5619  0.6829 -0.5637
 8166SOL    HW235961   2.967   3.408   4.987  1.4405 -4.6836 -1.0880
 8167SOL     OW35962   0.331   1.327   5.437 -0.2752 -0.1638 -0.2903
 8167SOL    HW135963   0.385   1.369   5.504 -2.3820  0.3757  1.0732
 8167SOL    HW235964   0.250   1.318   5.487  0.0531 -1.2877  0.0389
 8168SOL     OW35965   0.072   2.084   3.546  0.0890 -0.0997 -0.2229
 8168SOL    HW135966   4.720   2.050   3.589  0.7081 -1.0202  0.1763
 8168SOL    HW235967   0.080   2.039   3.462  0.3845 -0.1078 -0.1918
 8169SOL     OW35968   1.103   2.558   6.166  0.1793 -0.5506 -0.2299
 8169SOL    HW135969   1.064   2.552   6.079  0.7297 -1.6211 -0.3976
 8169SOL    HW235970   1.133   2.648   6.151 -0.9582 -0.0982  0.2111
 8170SOL     OW35971   4.542   1.777   5.797  0.2769  0.3178 -0.5463
 8170SOL    HW135972   4.513   1.688   5.773  1.5726  0.0393 -1.0968
 8170SOL    HW235973   4.465   1.824   5.763 -2.3954 -1.8040  2.5842
 8171SOL     OW35974   4.704   3.697   2.356 -0.2515  0.6492 -0.1962
 8171SOL    HW135975   0.037   3.770   2.341  0.3958 -0.3797 -2.6881
 8171SOL    HW235976   0.044   3.643   2.399 -1.0124 -0.3672 -0.2999
 8172SOL     OW35977   1.846   3.186  10.951  0.2946 -0.1625 -0.1957
 8172SOL    HW135978   1.828   3.246  11.024  1.8066  0.7975 -0.6110
 8172SOL    HW235979   1.810   3.110  10.997 -0.1841  0.6654  0.7986
 8173SOL     OW35980   0.092   3.552  10.125 -0.4141 -0.3048 -0.1422
 8173SOL    HW135981   0.117   3.614  10.194  1.9037 -1.0316 -0.3160
 8173SOL    HW235982   0.041   3.603  10.062 -0.1107 -1.7167 -1.5555
 8174SOL     OW35983   4.197   3.165   6.032 -0.0631  0.5865  0.7098
 8174SOL    HW135984   4.236   3.246   5.999  0.1745  0.5638  0.9361
 8174SOL    HW235985   4.271   3.138   6.086  0.5157 -0.5139 -0.6393
 8175SOL     OW35986   2.084   2.553   2.050 -0.2214  0.2892  0.5374
 8175SOL    HW135987   2.105   2.562   2.143  0.2141  1.3726  0.3416
 8175SOL    HW235988   2.169   2.526   2.016 -0.4061  0.6670 -0.2269
 8176SOL     OW35989   0.480   1.638   3.114 -0.4726 -0.2805  0.0243
 8176SOL    HW135990   0.520   1.555   3.140  1.4990  0.6089 -0.1500
 8176SOL    HW235991   0.510   1.688   3.189 -1.9887  0.4272  0.1610
 8177SOL     OW35992   3.345   1.226   7.760  0.3699  0.1565  0.6035
 8177SOL    HW135993   3.414   1.175   7.801  0.8905  0.8738  0.6114
 8177SOL    HW235994   3.275   1.182   7.808  1.5442 -1.6197  0.6751
 8178SOL     OW35995   2.423   3.297   6.554 -0.1527  0.5223  0.5740
 8178SOL    HW135996   2.510   3.284   6.518 -0.3699  0.6965 -0.0026
 8178SOL    HW235997   2.386   3.310   6.467 -1.1747  1.1874  1.1047
 8179SOL     OW35998   4.637   1.681   4.818 -0.2522  0.3977  0.2928
 8179SOL    HW135999   4.693   1.618   4.773 -0.6164  1.2238 -1.2995
 8179SOL    HW236000   4.577   1.700   4.746 -0.5639  2.1493  1.0112
 8180SOL     OW36001   3.203   3.938   6.581 -0.6740 -0.3364  0.4872
 8180SOL    HW136002   3.260   3.912   6.509  0.0753  0.9942  0.6101
 8180SOL    HW236003   3.116   3.932   6.542  0.4138 -0.6191 -1.8687
 8181SOL     OW36004   0.162   3.545  17.142 -0.4157 -0.3143 -0.8600
 8181SOL    HW136005   0.139   3.608  17.210 -3.2422 -2.0598 -0.1904
 8181SOL    HW236006   0.245   3.514  17.177 -1.9743 -2.3395  1.0425
 8182SOL     OW36007   3.061   4.248   5.709 -0.1081 -0.8580 -0.1036
 8182SOL    HW136008   3.079   4.332   5.751  0.1469 -0.1439 -1.6468
 8182SOL    HW236009   2.989   4.280   5.654  1.5582  0.9868 -1.2447
 8183SOL     OW36010   2.646   4.075   3.753 -0.1297 -0.4838 -0.3551
 8183SOL    HW136011   2.571   4.037   3.706  0.7315  1.4707 -3.3026
 8183SOL    HW236012   2.698   4.105   3.679 -1.4521  0.7815 -0.7739
 8184SOL     OW36013   4.701   4.297   8.174 -1.0852 -0.2890 -0.0725
 8184SOL    HW136014   4.708   4.234   8.245 -1.4037  1.6128  1.6453
 8184SOL    HW236015   4.614   4.332   8.195 -1.0136  0.4040 -0.9140
 8185SOL     OW36016   3.856   0.960   1.448 -0.0946 -0.6263  0.4927
 8185SOL    HW136017   3.811   0.883   1.484 -0.8990  0.0695  0.9740
 8185SOL    HW236018   3.944   0.922   1.443 -0.5167 -1.6343  0.6878
 8186SOL     OW36019   2.138   1.320   7.848  0.4022  0.1658 -0.4779
 8186SOL    HW136020   2.058   1.370   7.830  0.1802 -0.8516 -2.3267
 8186SOL    HW236021   2.165   1.288   7.762  0.7900  1.9356 -1.0078
 8187SOL     OW36022   4.283   1.480  13.980 -0.1237  0.2485 -0.0133
 8187SOL    HW136023   4.205   1.521  13.942  0.7316  1.0170 -0.9308
 8187SOL    HW236024   4.276   1.498  14.074  2.1963 -1.7404  0.5343
 8188SOL     OW36025   1.824   3.107   0.063  0.2418 -0.2733  0.7663
 8188SOL    HW136026   1.870   3.154   0.132 -0.6170  0.3636  0.9150
 8188SOL    HW236027   1.760   3.174   0.039 -1.2570 -1.6399  0.9629
 8189SOL     OW36028   2.673   1.855   0.925  0.9354 -0.6207  0.3349
 8189SOL    HW136029   2.717   1.787   0.976 -0.4587 -1.5174  0.3558
 8189SOL    HW236030   2.658   1.930   0.983 -0.6603 -0.0395 -0.8406
 8190SOL     OW36031   4.226   0.831   3.949  0.1792 -0.7489  0.5704
 8190SOL    HW136032   4.201   0.751   3.903  2.0946  0.0856 -1.9531
 8190SOL    HW236033   4.214   0.800   4.039  0.3583  0.4012  0.9887
 8191SOL     OW36034   0.251   4.429   5.194  0.0908  0.8255  0.1671
 8191SOL    HW136035   0.242   4.391   5.281 -1.0818  1.4322  0.3070
 8191SOL    HW236036   0.177   4.414   5.135 -2.7503  0.4981  3.8400
 8192SOL     OW36037   1.700   3.211  16.322  0.8822  0.4891 -0.0776
 8192SOL    HW136038   1.698   3.281  16.257  0.8075  0.9237  0.3917
 8192SOL    HW236039   1.789   3.237  16.347  0.7550  1.0357 -0.1965
 8193SOL     OW36040   0.476   2.313  14.224 -0.5839  0.3025  0.3697
 8193SOL    HW136041   0.536   2.257  14.273  0.8495  1.2177 -0.3397
 8193SOL    HW236042   0.522   2.397  14.233 -3.4832  1.9704 -0.4817
 8194SOL     OW36043   1.092   0.527   7.475  0.1905  0.3634 -0.5593
 8194SOL    HW136044   1.167   0.495   7.524  0.6782  1.3241 -0.6716
 8194SOL    HW236045   1.026   0.549   7.540  1.9088 -0.8261  1.5755
 8195SOL     OW36046   4.694   3.444  16.974 -0.1816 -0.3770 -0.0141
 8195SOL    HW136047   0.035   3.496  17.018 -1.3275 -0.8720  2.3803
 8195SOL    HW236048   4.683   3.511  16.907  0.0086  0.7732  1.0975
 8196SOL     OW36049   3.771   0.911   7.832  0.1444 -0.6802  0.0350
 8196SOL    HW136050   3.711   0.968   7.880 -1.7648 -1.0506 -1.8952
 8196SOL    HW236051   3.706   0.844   7.813 -0.5645 -0.3970  1.4786
 8197SOL     OW36052   4.184   4.086   9.777 -0.3834  0.1740  0.2213
 8197SOL    HW136053   4.273   4.095   9.809 -0.6630 -2.0466  1.6304
 8197SOL    HW236054   4.196   4.102   9.683 -1.3948  1.9913  0.3995
 8198SOL     OW36055   1.721   4.035   6.280  0.2989 -0.6257  0.2559
 8198SOL    HW136056   1.814   4.055   6.291  0.4796 -1.2811 -0.0735
 8198SOL    HW236057   1.706   3.990   6.363  2.2291  0.5282  1.2253
 8199SOL     OW36058   1.007   4.077   8.050  0.2540 -0.5209 -0.1855
 8199SOL    HW136059   0.961   4.091   7.967  1.8878 -0.2912 -1.0414
 8199SOL    HW236060   1.072   4.013   8.020  0.9565 -0.9587  2.2669
 8200SOL     OW36061   4.203   1.585  15.170  0.3986  0.1792 -0.3202
 8200SOL    HW136062   4.187   1.662  15.225  1.0398  0.7768 -0.9764
 8200SOL    HW236063   4.232   1.525  15.239 -0.7427 -0.4780 -0.4120
 8201SOL     OW36064   3.159   3.097   8.962 -0.4002  0.0097  0.4066
 8201SOL    HW136065   3.082   3.150   8.945 -1.5984 -1.8316  0.1333
 8201SOL    HW236066   3.234   3.156   8.965 -0.3065 -0.0157 -1.5290
 8202SOL     OW36067   3.094   1.429   8.401 -0.1997 -0.1246  0.2185
 8202SOL    HW136068   3.176   1.472   8.425  0.3189 -0.2374 -1.3110
 8202SOL    HW236069   3.133   1.347   8.372 -1.7852 -0.8955  0.2824
 8203SOL     OW36070   1.856   4.614   9.213  0.3453 -0.1670  0.5265
 8203SOL    HW136071   1.827   4.523   9.198 -0.2978 -0.0607  1.0727
 8203SOL    HW236072   1.914   4.628   9.139 -0.1331 -1.3969 -0.0917
 8204SOL     OW36073   1.152   1.603   3.984 -0.0476 -0.2799  0.1573
 8204SOL    HW136074   1.231   1.591   4.037  0.3680  1.6987 -0.0345
 8204SOL    HW236075   1.186   1.582   3.897  1.3264 -1.8245  1.0504
 8205SOL     OW36076   1.281   1.730  11.337  0.2100  0.1606  0.2398
 8205SOL    HW136077   1.318   1.655  11.384 -0.0129 -0.0916  0.0130
 8205SOL    HW236078   1.331   1.739  11.256 -0.6009  0.0013 -0.2834
 8206SOL     OW36079   4.269   3.430   5.885  0.1424  0.6652  0.0190
 8206SOL    HW136080   4.237   3.484   5.813  0.2506  1.6349  0.6867
 8206SOL    HW236081   4.294   3.505   5.939  1.0014  1.3890 -1.3939
 8207SOL     OW36082   1.444   0.369   5.758  0.1808  0.1856  0.2422
 8207SOL    HW136083   1.423   0.462   5.757 -1.6897 -0.2367 -0.1869
 8207SOL    HW236084   1.505   0.375   5.685  1.2387  0.3090  1.1310
 8208SOL     OW36085   1.388   2.334  10.549  0.1334 -0.1123  0.0830
 8208SOL    HW136086   1.484   2.326  10.545  0.3422  3.0216 -1.5594
 8208SOL    HW236087   1.356   2.278  10.620 -1.2694 -0.1568 -0.5990
 8209SOL     OW36088   3.130   0.409   6.581 -0.7587  0.4563  0.5185
 8209SOL    HW136089   3.186   0.473   6.538 -0.1113 -0.5988 -0.2064
 8209SOL    HW236090   3.138   0.442   6.670 -0.2865 -3.8792  2.0864
 8210SOL     OW36091   0.183   1.952   5.576 -0.1759  0.4635 -0.2869
 8210SOL    HW136092   0.144   1.922   5.659 -0.7264  3.7942  0.6704
 8210SOL    HW236093   0.193   1.873   5.524  0.1586  0.0741  0.3677
 8211SOL     OW36094   0.484   3.081   8.044 -0.2154  0.0935  0.4258
 8211SOL    HW136095   0.397   3.051   8.071 -0.3903  1.1939  1.0505
 8211SOL    HW236096   0.535   3.000   8.045 -0.1578  0.1238 -0.0670
 8212SOL     OW36097   0.287   4.361   4.680 -0.0098  0.1609 -0.6399
 8212SOL    HW136098   0.329   4.399   4.602 -0.5846  1.2258 -0.4328
 8212SOL    HW236099   0.358   4.305   4.711 -0.4340 -1.2245 -2.1617
 8213SOL     OW36100   3.221   1.844  17.052  0.0120  0.6397 -0.1112
 8213SOL    HW136101   3.196   1.936  17.046  1.0321  0.6224 -5.0928
 8213SOL    HW236102   3.281   1.854  17.126 -1.9603  1.5379  1.3314
 8214SOL     OW36103   3.332   1.620   3.541 -0.3468  0.6253  0.3071
 8214SOL    HW136104   3.424   1.593   3.535 -0.7767 -0.6920 -0.3666
 8214SOL    HW236105   3.284   1.538   3.547 -0.2692  0.5133 -0.5276
 8215SOL     OW36106   4.362   3.119   5.059 -0.1763 -0.3148 -0.2461
 8215SOL    HW136107   4.412   3.092   5.136  1.8535 -1.3332 -1.9400
 8215SOL    HW236108   4.291   3.162   5.107 -1.5899 -2.5105 -0.3263
 8216SOL     OW36109   0.161   4.121   2.107  0.5161  0.0494 -0.1901
 8216SOL    HW136110   0.236   4.179   2.119  1.5862 -1.5526  0.8254
 8216SOL    HW236111   0.088   4.181   2.124  0.0313  0.1251 -2.4288
 8217SOL     OW36112   3.163   0.896   2.043  0.6137  0.1027 -0.6886
 8217SOL    HW136113   3.104   0.959   2.001  1.3005 -0.4895 -2.5640
 8217SOL    HW236114   3.245   0.911   1.995  0.9713 -1.4818 -0.5715
 8218SOL     OW36115   2.413   2.463   8.958 -1.0335 -0.4566  0.1519
 8218SOL    HW136116   2.483   2.528   8.950 -0.4664 -0.6332  3.9672
 8218SOL    HW236117   2.345   2.509   9.007  0.0839  1.5453 -0.1910
 8219SOL     OW36118   3.886   1.844  14.069  0.1026 -0.2696 -0.0251
 8219SOL    HW136119   3.964   1.896  14.049  0.4333 -0.2427  1.3726
 8219SOL    HW236120   3.828   1.870  13.997 -0.3763 -1.2154  0.0113
 8220SOL     OW36121   0.464   3.210   4.766 -0.3122  0.1752  0.0142
 8220SOL    HW136122   0.394   3.178   4.710 -2.1031  2.1698  1.0881
 8220SOL    HW236123   0.539   3.186   4.711  1.1485  1.1706  1.5595
 8221SOL     OW36124   0.785   3.631   6.825 -0.2394  0.2912 -0.1094
 8221SOL    HW136125   0.788   3.601   6.735  1.7641 -1.0414  0.4285
 8221SOL    HW236126   0.701   3.677   6.815 -0.1608  0.8240  1.5748
 8222SOL     OW36127   1.853   2.935   5.134 -0.4619 -0.5117  0.2913
 8222SOL    HW136128   1.879   2.846   5.157 -0.3609 -0.5828 -0.0978
 8222SOL    HW236129   1.771   2.916   5.088 -1.3758  0.4625  1.5454
 8223SOL     OW36130   1.977   2.717  15.286 -0.2363  0.0426  0.7592
 8223SOL    HW136131   1.930   2.749  15.209 -0.8160 -0.8673  0.7392
 8223SOL    HW236132   2.068   2.745  15.279 -0.7456  0.9200 -2.2446
 8224SOL     OW36133   2.128   1.838   5.724 -0.3067 -0.2135  0.0557
 8224SOL    HW136134   2.166   1.921   5.752  0.4079 -0.3676 -0.4396
 8224SOL    HW236135   2.205   1.793   5.689  0.1614 -0.3758  1.3297
 8225SOL     OW36136   3.136   3.479  16.715 -0.7527  0.1967 -0.4781
 8225SOL    HW136137   3.198   3.411  16.743  0.6439  2.1548  1.1699
 8225SOL    HW236138   3.056   3.459  16.762  0.3170 -0.8690  0.8838
 8226SOL     OW36139   1.532   2.067   6.122  0.6257  0.0040 -0.3619
 8226SOL    HW136140   1.608   2.045   6.176  0.8328  2.0061  0.1661
 8226SOL    HW236141   1.537   2.018   6.040 -0.6281  0.9500 -1.0170
 8227SOL     OW36142   3.280   1.478   1.818 -0.1777 -0.5240  0.1615
 8227SOL    HW136143   3.214   1.425   1.863  0.6967  0.5083  2.6995
 8227SOL    HW236144   3.279   1.555   1.875  1.1200 -0.0763 -0.4173
 8228SOL     OW36145   1.536   1.233   3.140  0.5507  0.1385 -0.3196
 8228SOL    HW136146   1.554   1.251   3.048  0.8249 -0.6359 -0.4128
 8228SOL    HW236147   1.440   1.229   3.140  0.5233  0.7259 -1.4981
 8229SOL     OW36148   2.190   0.370   3.219 -0.2436  0.0315  0.5545
 8229SOL    HW136149   2.209   0.360   3.313  0.7535 -2.0731  0.1455
 8229SOL    HW236150   2.116   0.309   3.213 -0.5492  0.5339 -0.6167
 8230SOL     OW36151   3.619   3.161  10.710  0.3244 -0.4375 -0.2619
 8230SOL    HW136152   3.708   3.191  10.690  1.2632 -1.2234  2.7274
 8230SOL    HW236153   3.571   3.239  10.738  0.5137 -1.2025  2.2469
 8231SOL     OW36154   1.932   3.490  12.436  0.7907  0.2556 -0.2239
 8231SOL    HW136155   1.953   3.411  12.485  0.8241  0.1296 -0.4406
 8231SOL    HW236156   1.839   3.474  12.418  0.3743  2.3760  0.0706
 8232SOL     OW36157   3.018   2.901  12.431  0.1025 -0.5879 -0.2203
 8232SOL    HW136158   2.962   2.950  12.371 -1.2761 -2.6914 -0.6469
 8232SOL    HW236159   2.950   2.902  12.499 -1.3722  1.1296 -1.7430
 8233SOL     OW36160   4.693   2.858   3.581  0.7026 -0.2823  0.7321
 8233SOL    HW136161   4.646   2.887   3.503  0.6914 -2.2772  0.0020
 8233SOL    HW236162   4.712   2.769   3.550  1.3244  0.9717 -2.5345
 8234SOL     OW36163   3.212   0.741   5.824 -0.0555  0.7470  0.3419
 8234SOL    HW136164   3.202   0.696   5.907  0.3090 -3.5408 -1.9199
 8234SOL    HW236165   3.233   0.830   5.851 -0.3922  1.1591 -0.7402
 8235SOL     OW36166   0.548   0.432   2.438 -0.1482  0.1977 -0.7320
 8235SOL    HW136167   0.633   0.405   2.403  0.7278 -2.6881  3.5454
 8235SOL    HW236168   0.490   0.450   2.364 -0.8969  0.0280 -0.1883
 8236SOL     OW36169   0.138   0.515  17.623  0.4371  0.0861 -0.9513
 8236SOL    HW136170   0.149   0.445  17.559 -1.9093 -2.1164  1.0059
 8236SOL    HW236171   0.125   0.590  17.565 -3.5360 -1.4993 -2.1145
 8237SOL     OW36172   4.104   2.036  14.451  0.5694 -0.9066  0.3618
 8237SOL    HW136173   4.025   1.992  14.483  0.4409  1.2616  2.9925
 8237SOL    HW236174   4.146   2.083  14.523 -0.9856  1.8018 -0.5144
 8238SOL     OW36175   0.250   2.325   3.386  0.1426  0.2901 -0.3636
 8238SOL    HW136176   0.322   2.316   3.448  0.5417  0.4042 -0.8122
 8238SOL    HW236177   0.271   2.256   3.323  2.8555 -0.0233  0.8946
 8239SOL     OW36178   0.179   3.254  17.339 -0.0519  0.1874  0.1075
 8239SOL    HW136179   0.252   3.277  17.282 -1.5743  0.3707 -1.7393
 8239SOL    HW236180   0.115   3.248  17.268  0.1483  0.9276 -0.1396
 8240SOL     OW36181   3.397   3.472   3.863  0.1354  0.1871 -0.1496
 8240SOL    HW136182   3.366   3.401   3.918 -0.5326  1.4603  1.1280
 8240SOL    HW236183   3.314   3.507   3.830  0.7249  1.5559 -0.1767
 8241SOL     OW36184   1.913   0.803   2.185 -0.2497  0.1712  0.1421
 8241SOL    HW136185   2.001   0.827   2.215 -0.8144  1.4951  0.7392
 8241SOL    HW236186   1.931   0.804   2.091 -0.6182  1.5187  0.0789
 8242SOL     OW36187   2.960   1.730  10.627  0.2198 -0.1153  0.2232
 8242SOL    HW136188   3.049   1.755  10.601  0.6798 -0.5498  1.3769
 8242SOL    HW236189   2.953   1.775  10.712 -0.3935  1.4368 -0.6336
 8243SOL     OW36190   0.311   4.347   4.059  0.3066  0.4385 -0.1926
 8243SOL    HW136191   0.380   4.296   4.101 -0.6477 -0.2568  0.5240
 8243SOL    HW236192   0.328   4.436   4.090 -0.9195 -0.1194  2.0771
 8244SOL     OW36193   2.646   1.230  13.654  0.2914  0.0985 -0.2626
 8244SOL    HW136194   2.619   1.150  13.699 -1.2040  1.2511  0.8452
 8244SOL    HW236195   2.601   1.210  13.572  1.0331  0.5134 -0.7763
 8245SOL     OW36196   1.319   4.217  17.455  0.7046 -0.1598 -0.4183
 8245SOL    HW136197   1.310   4.311  17.440 -0.0639  0.0726  1.4929
 8245SOL    HW236198   1.375   4.200  17.379  1.2354 -0.9465  0.1492
 8246SOL     OW36199   3.199   4.487  11.536 -0.1571 -0.0818  0.4556
 8246SOL    HW136200   3.162   4.561  11.584 -0.0225 -1.1669  2.2258
 8246SOL    HW236201   3.232   4.430  11.605  1.8745 -0.3783 -0.7539
 8247SOL     OW36202   2.412   1.155   5.711 -0.3818  0.0476 -0.5832
 8247SOL    HW136203   2.319   1.161   5.733 -0.3089  0.6799 -0.4727
 8247SOL    HW236204   2.397   1.167   5.617  0.2558 -1.4662 -0.8802
 8248SOL     OW36205   1.311   4.093  17.070 -0.1522  0.1101  0.4397
 8248SOL    HW136206   1.268   4.171  17.035  0.0566  1.0665  2.3393
 8248SOL    HW236207   1.368   4.131  17.136  0.1263  0.3541  0.0571
 8249SOL     OW36208   0.572   2.132   7.315  0.7621  0.3580 -0.4441
 8249SOL    HW136209   0.633   2.059   7.306 -0.9776 -1.4993  2.6473
 8249SOL    HW236210   0.509   2.106   7.248 -0.5814 -1.7506  1.6058
 8250SOL     OW36211   0.177   1.984   6.009  0.9329  0.3544  0.2270
 8250SOL    HW136212   0.124   1.948   5.938 -1.0239  0.8933  1.4299
 8250SOL    HW236213   0.263   1.949   5.983  0.2570  0.5158 -2.2628
 8251SOL     OW36214   3.826   0.309   7.778 -0.2440  0.5747 -0.4073
 8251SOL    HW136215   3.742   0.340   7.813 -1.7074 -0.8368 -2.7571
 8251SOL    HW236216   3.824   0.217   7.805 -0.7611  0.3403 -1.2491
 8252SOL     OW36217   4.626   0.776   5.821 -0.2868  0.5122  0.2917
 8252SOL    HW136218   4.668   0.782   5.907  1.4086  2.1204 -0.6423
 8252SOL    HW236219   4.703   0.797   5.767  0.6633  0.0290  1.4641
 8253SOL     OW36220   0.882   3.209   2.180  0.4426 -0.2900 -0.5920
 8253SOL    HW136221   0.819   3.268   2.140  0.8179  0.8563  0.5063
 8253SOL    HW236222   0.852   3.127   2.140 -2.1683 -0.4224  1.6305
 8254SOL     OW36223   2.455   1.272  13.394  0.2816 -0.0102  0.2200
 8254SOL    HW136224   2.498   1.316  13.321 -1.6598  0.9783 -0.3151
 8254SOL    HW236225   2.380   1.329  13.409 -0.0607 -0.8599  1.7546
 8255SOL     OW36226   0.753   2.873  11.129  0.2616 -1.2939  0.0299
 8255SOL    HW136227   0.783   2.796  11.177  0.4285  0.1867  2.2520
 8255SOL    HW236228   0.702   2.912  11.200  0.3413 -1.1296 -0.0037
 8256SOL     OW36229   1.357   3.703  15.692  0.8376 -0.0528 -0.1877
 8256SOL    HW136230   1.446   3.668  15.687  0.8418 -0.0113 -0.3788
 8256SOL    HW236231   1.358   3.729  15.600  2.5169 -0.6605 -0.3340
 8257SOL     OW36232   2.110   4.671   2.085 -0.0038 -0.1466 -0.0943
 8257SOL    HW136233   2.105   4.724   2.006  2.8887 -1.1085 -0.9245
 8257SOL    HW236234   2.201   4.686   2.111 -1.2106  3.3900  2.1652
 8258SOL     OW36235   0.414   2.466   6.551  0.4199 -0.1162  0.2495
 8258SOL    HW136236   0.404   2.496   6.461 -1.1632 -0.2223  0.3864
 8258SOL    HW236237   0.324   2.445   6.576  0.5166 -0.9276 -0.0898
 8259SOL     OW36238   4.211   3.095   8.307 -0.0577 -0.6390 -0.4734
 8259SOL    HW136239   4.185   3.028   8.370  0.6138 -0.9374 -0.5175
 8259SOL    HW236240   4.305   3.075   8.301  0.4105  1.1967  0.6944
 8260SOL     OW36241   1.591   2.214   4.691  0.2402 -0.3710 -0.1990
 8260SOL    HW136242   1.631   2.280   4.634 -0.9644  1.4292  1.0586
 8260SOL    HW236243   1.500   2.235   4.672  0.2295 -0.8933 -0.7234
 8261SOL     OW36244   1.473   2.140   2.407  0.1900  0.5174  0.7569
 8261SOL    HW136245   1.562   2.119   2.436 -0.9452 -2.3396  2.1552
 8261SOL    HW236246   1.442   2.056   2.374 -0.8990  0.9779  0.6157
 8262SOL     OW36247   4.023   2.363  12.970 -0.4878  0.7505 -0.4111
 8262SOL    HW136248   4.019   2.438  12.911 -0.6202  1.9769  1.1416
 8262SOL    HW236249   4.099   2.328  12.924  0.7173  0.3531  1.8574
 8263SOL     OW36250   2.776   1.742  12.048 -0.9314 -0.0294  0.3822
 8263SOL    HW136251   2.781   1.653  12.082 -2.3665  0.0942  0.9068
 8263SOL    HW236252   2.853   1.782  12.089  0.2244 -0.4986 -1.3423
 8264SOL     OW36253   4.393   0.119   8.963 -0.4888  0.4473 -0.0273
 8264SOL    HW136254   4.299   0.100   8.972 -1.0661  2.6591 -1.3108
 8264SOL    HW236255   4.422   0.085   9.047 -1.3948  1.9597  0.9036
 8265SOL     OW36256   0.298   0.048  10.071  0.0110  0.7362 -0.0660
 8265SOL    HW136257   0.288   0.140  10.096 -1.2370  0.1722  1.5304
 8265SOL    HW236258   0.393   0.049  10.078  0.1709  0.4455 -2.1914
 8266SOL     OW36259   3.510   1.794   7.998 -0.2310  0.4271  0.2272
 8266SOL    HW136260   3.580   1.735   8.024 -0.7172 -0.7154 -1.0211
 8266SOL    HW236261   3.534   1.881   8.030 -0.5668  0.0748  1.4356
 8267SOL     OW36262   0.858   2.325   2.820  0.1177 -0.3176  0.2179
 8267SOL    HW136263   0.833   2.405   2.773  0.5056 -0.9990 -1.1543
 8267SOL    HW236264   0.889   2.279   2.742 -0.6928 -1.6669  0.6849
 8268SOL     OW36265   3.011   0.579   9.111  0.0657 -0.8673 -0.2767
 8268SOL    HW136266   2.971   0.504   9.156 -2.8500  1.1027  0.4025
 8268SOL    HW236267   3.095   0.541   9.086  2.0512  2.8209  0.7736
 8269SOL     OW36268   0.421   1.160   1.406 -0.9965 -0.2082  0.0444
 8269SOL    HW136269   0.507   1.129   1.435  0.3389  2.3751 -1.1397
 8269SOL    HW236270   0.389   1.181   1.494 -0.3710  1.0528 -0.0362
 8270SOL     OW36271   1.208   3.578  16.871 -0.1072  0.3377  0.4662
 8270SOL    HW136272   1.276   3.644  16.886 -0.8911  1.0415  0.9781
 8270SOL    HW236273   1.255   3.497  16.890  0.5748  0.5675 -0.2478
 8271SOL     OW36274   4.019   1.306   9.064  0.2077  0.2544 -0.9203
 8271SOL    HW136275   3.990   1.284   8.976 -1.9152 -0.3609 -0.0760
 8271SOL    HW236276   4.096   1.249   9.063  0.1877  0.1666  2.3199
 8272SOL     OW36277   3.097   2.492  15.730  0.5344  0.2303 -0.2909
 8272SOL    HW136278   3.143   2.575  15.743  0.1831  0.4593 -0.4962
 8272SOL    HW236279   3.089   2.492  15.634  3.4433 -0.3803 -0.5472
 8273SOL     OW36280   3.511   3.065   8.186  0.2051 -0.4903  0.5119
 8273SOL    HW136281   3.538   3.132   8.248 -1.6952  1.1251 -0.4246
 8273SOL    HW236282   3.549   3.092   8.102  1.4587  0.2453  1.3200
 8274SOL     OW36283   1.005   1.848   6.715 -0.3358  0.4523  0.5690
 8274SOL    HW136284   0.915   1.878   6.705 -0.6972 -0.5995  0.5822
 8274SOL    HW236285   1.007   1.754   6.697 -0.2465  0.5535  0.0440
 8275SOL     OW36286   2.528   3.237   3.981 -0.4794 -0.3637  0.1764
 8275SOL    HW136287   2.436   3.210   3.970  0.2187 -2.9055  0.6286
 8275SOL    HW236288   2.524   3.330   3.955 -0.0023 -0.1167  1.0058
 8276SOL     OW36289   2.795   2.771   2.780 -0.7179 -0.3803 -0.1824
 8276SOL    HW136290   2.788   2.731   2.867  3.2249 -1.8614 -0.5400
 8276SOL    HW236291   2.781   2.692   2.728 -0.4180  1.2026 -2.6380
 8277SOL     OW36292   2.098   0.966   9.059  0.5872 -0.0737 -0.0930
 8277SOL    HW136293   2.168   0.901   9.055  1.2830  0.6196  0.8253
 8277SOL    HW236294   2.092   0.969   9.155  0.3956  0.1891 -0.1133
 8278SOL     OW36295   0.219   3.235   8.738  0.2849 -0.1256 -0.5308
 8278SOL    HW136296   0.227   3.329   8.758  0.3409 -0.3233  0.3809
 8278SOL    HW236297   0.143   3.251   8.683 -0.5073 -0.1475  0.5662
 8279SOL     OW36298   0.982   4.271  17.414  0.0006 -0.1053 -0.4825
 8279SOL    HW136299   0.988   4.311  17.328 -0.0052  0.0409 -0.4155
 8279SOL    HW236300   0.967   4.178  17.398 -0.1118  0.0452 -1.2246
 8280SOL     OW36301   4.016   4.091   8.836  0.1310 -0.1516 -0.8110
 8280SOL    HW136302   3.974   4.022   8.784  0.6499  1.0459 -2.7858
 8280SOL    HW236303   3.933   4.135   8.856 -0.6988 -2.4567  0.8696
 8281SOL     OW36304   1.988   1.827  17.166 -0.0019 -0.5037 -0.4684
 8281SOL    HW136305   1.964   1.920  17.157 -1.2894 -1.0241 -2.4777
 8281SOL    HW236306   1.980   1.807  17.073  1.7760  2.5222 -1.2878
 8282SOL     OW36307   1.380   0.503   2.662 -0.2059 -0.0881  0.5694
 8282SOL    HW136308   1.303   0.558   2.675 -0.1671 -0.2100  1.3205
 8282SOL    HW236309   1.385   0.454   2.744 -0.6829 -0.7738  0.1896
 8283SOL     OW36310   0.225   4.261   8.938  0.1573 -0.3238 -0.1950
 8283SOL    HW136311   0.246   4.281   9.029  0.3219 -1.8482  0.1111
 8283SOL    HW236312   0.163   4.333   8.928  0.3774  0.1701  2.0484
 8284SOL     OW36313   1.414   2.509  10.144 -0.0737 -0.2826  0.9044
 8284SOL    HW136314   1.489   2.491  10.200  0.6340  1.3256  0.4434
 8284SOL    HW236315   1.447   2.587  10.100 -1.5690 -0.8011 -1.1595
 8285SOL     OW36316   4.162   0.386  15.958 -0.1214 -0.5838 -0.0884
 8285SOL    HW136317   4.149   0.476  15.989 -0.5550 -1.4886  2.3973
 8285SOL    HW236318   4.257   0.375  15.959  0.0552  0.9621  0.2132
 8286SOL     OW36319   0.192   2.014   9.985 -0.0738 -0.1605 -0.2389
 8286SOL    HW136320   0.140   2.042  10.060 -2.9840  0.0452 -2.3252
 8286SOL    HW236321   0.177   2.074   9.912  0.5784  1.1228  0.6854
 8287SOL     OW36322   0.820   2.585   1.940 -0.0346  0.3686  0.0351
 8287SOL    HW136323   0.733   2.591   1.978 -0.2744 -1.4708 -0.2404
 8287SOL    HW236324   0.810   2.506   1.887 -1.6245  1.1178 -0.7760
 8288SOL     OW36325   4.644   0.183   6.301  0.2524  0.0532  0.1361
 8288SOL    HW136326   4.696   0.103   6.311 -0.2326 -0.2692  0.1073
 8288SOL    HW236327   4.642   0.190   6.205  0.0206 -1.7442  0.0062
 8289SOL     OW36328   4.683   0.922  17.565 -0.0310  0.3326  0.0920
 8289SOL    HW136329   4.611   0.984  17.574  1.0807  1.5809  0.4383
 8289SOL    HW236330   4.697   0.895  17.656 -1.2461  2.9509  1.0576
 8290SOL     OW36331   3.093   1.927   5.461  0.0679  0.4512 -0.4307
 8290SOL    HW136332   3.010   1.901   5.420  0.6118 -0.3454 -1.0326
 8290SOL    HW236333   3.093   2.023   5.456 -0.7047  0.4974  0.4320
 8291SOL     OW36334   4.247   0.078   7.764  0.0784  0.7289 -0.3603
 8291SOL    HW136335   4.204   0.134   7.700 -2.0443 -0.0295  0.3745
 8291SOL    HW236336   4.320   0.133   7.792  0.0016  0.7227 -0.1451
 8292SOL     OW36337   0.333   1.626   6.298  0.0725  0.1985 -0.2766
 8292SOL    HW136338   0.408   1.642   6.240  0.4216 -3.0576 -0.7430
 8292SOL    HW236339   0.347   1.699   6.359  2.5076 -0.7411  0.3160
 8293SOL     OW36340   4.509   2.259  13.418  0.4196  0.4065  0.4073
 8293SOL    HW136341   4.568   2.314  13.367  0.1336  1.7216  1.5069
 8293SOL    HW236342   4.429   2.275  13.368  0.6032  1.1356  0.3531
 8294SOL     OW36343   1.846   3.071   2.330 -0.2265  0.7060 -0.6577
 8294SOL    HW136344   1.795   3.084   2.409  0.1046  2.4778 -0.7307
 8294SOL    HW236345   1.908   3.144   2.335  2.3150 -1.5583  0.4697
 8295SOL     OW36346   4.352   4.382  11.030  1.1729  0.4138  0.1934
 8295SOL    HW136347   4.321   4.291  11.027 -0.7935  1.0135  2.0935
 8295SOL    HW236348   4.363   4.404  11.122  1.9565 -0.7821  0.3922
 8296SOL     OW36349   4.134   0.302   2.367  0.1161 -0.1310  0.4605
 8296SOL    HW136350   4.090   0.286   2.283 -1.4095  0.6430  1.1078
 8296SOL    HW236351   4.072   0.262   2.428 -0.2617  0.9421  0.7743
 8297SOL     OW36352   2.102   0.729   8.592 -0.0225  0.3584  0.3218
 8297SOL    HW136353   2.182   0.782   8.594 -0.1723  0.4306  5.2572
 8297SOL    HW236354   2.033   0.791   8.567 -1.6592 -1.2431  0.8485
 8298SOL     OW36355   3.548   2.168   6.893 -0.4003 -0.4082 -0.1589
 8298SOL    HW136356   3.523   2.257   6.871  0.8606 -0.9215 -3.5595
 8298SOL    HW236357   3.621   2.146   6.835  0.9615 -0.5917  1.6194
 8299SOL     OW36358   3.155   0.898   9.399 -0.6534 -0.1079  0.3722
 8299SOL    HW136359   3.064   0.927   9.404 -0.4212  0.0450  3.9309
 8299SOL    HW236360   3.171   0.844   9.477  0.7651  0.3574  0.3990
 8300SOL     OW36361   3.958   1.529   6.218 -0.0269 -0.0362 -0.0087
 8300SOL    HW136362   3.868   1.510   6.246 -0.7668 -1.1406 -3.1620
 8300SOL    HW236363   3.989   1.440   6.234 -1.2868 -0.4454  0.1997
 8301SOL     OW36364   4.623   2.540   2.077  0.1683  0.2146  0.2032
 8301SOL    HW136365   4.587   2.626   2.058 -1.0135  0.0477  1.6263
 8301SOL    HW236366   4.696   2.549   2.017  1.4303 -0.7991  1.5667
 8302SOL     OW36367   1.763   2.162   3.196 -0.1326  0.8874 -0.3503
 8302SOL    HW136368   1.782   2.079   3.153  1.2278  1.2159 -0.4018
 8302SOL    HW236369   1.834   2.208   3.151  0.8807  1.9238  2.2646
 8303SOL     OW36370   3.140   1.699   2.526  0.2101  0.7127 -0.0380
 8303SOL    HW136371   3.176   1.713   2.614 -0.2661 -0.1783  0.2999
 8303SOL    HW236372   3.225   1.681   2.485  0.1493  1.1870 -0.3724
 8304SOL     OW36373   3.020   3.114   7.787  0.5429  0.4866 -0.2438
 8304SOL    HW136374   3.086   3.076   7.845 -1.3845 -2.4926 -0.0019
 8304SOL    HW236375   2.980   3.027   7.790 -0.1504  0.7723 -1.1733
 8305SOL     OW36376   2.748   3.062   8.520  0.9299  0.0933 -0.4869
 8305SOL    HW136377   2.775   3.056   8.612  2.2226  1.6602 -0.7729
 8305SOL    HW236378   2.755   3.158   8.519  0.8648  0.0903 -1.6002
 8306SOL     OW36379   3.333   3.567   8.239 -0.0826 -0.1583  0.5285
 8306SOL    HW136380   3.424   3.542   8.225  0.2912  1.7151 -0.3323
 8306SOL    HW236381   3.292   3.533   8.159  1.9425  1.6494 -1.2415
 8307SOL     OW36382   0.985   3.171   2.416 -0.7290  0.0518  0.4572
 8307SOL    HW136383   0.937   3.199   2.339  1.8066  1.7386 -0.5248
 8307SOL    HW236384   0.942   3.214   2.490  0.6370  1.2521  0.5794
 8308SOL     OW36385   4.514   0.832   3.663 -0.8712 -0.0180 -0.0407
 8308SOL    HW136386   4.599   0.875   3.654 -0.8965 -0.0162 -0.2973
 8308SOL    HW236387   4.491   0.859   3.751  1.0942  2.1781 -0.1959
 8309SOL     OW36388   1.754   3.616  11.871 -0.6035  0.0321  0.1903
 8309SOL    HW136389   1.842   3.616  11.908 -1.9255 -1.9399  3.2443
 8309SOL    HW236390   1.734   3.709  11.887  0.7038  0.3334  0.0738
 8310SOL     OW36391   2.682   3.311   8.611  0.3383  0.0881  0.8153
 8310SOL    HW136392   2.716   3.348   8.692 -1.6354  3.3568  0.1820
 8310SOL    HW236393   2.596   3.353   8.607 -1.2472 -3.5286 -2.5566
 8311SOL     OW36394   1.548   4.524   3.174  0.4217 -0.0520 -0.3456
 8311SOL    HW136395   1.588   4.463   3.113  0.6243  0.6224 -0.8960
 8311SOL    HW236396   1.455   4.530   3.154  0.4035 -0.4241 -0.3648
 8312SOL     OW36397   0.960   3.158   3.029 -0.0173  0.5165 -0.5347
 8312SOL    HW136398   1.046   3.201   3.022  0.4749 -0.5587 -1.0526
 8312SOL    HW236399   0.909   3.225   2.983 -2.4847 -0.5753  0.6408
 8313SOL     OW36400   3.628   1.831   5.949 -0.2311  0.6338  0.2712
 8313SOL    HW136401   3.554   1.884   5.978 -0.0378  0.5113  0.9680
 8313SOL    HW236402   3.604   1.742   5.976 -0.2649  1.0677  1.6735
 8314SOL     OW36403   0.987   0.152   2.415  0.0492 -0.5363 -0.1257
 8314SOL    HW136404   0.971   0.236   2.459  0.1021 -0.5304 -0.1180
 8314SOL    HW236405   1.025   0.172   2.329  1.7312 -0.1552  0.7054
 8315SOL     OW36406   2.530   3.932   8.289 -0.4955 -0.5290  0.2797
 8315SOL    HW136407   2.513   3.913   8.197  1.4485  1.0192 -0.3838
 8315SOL    HW236408   2.525   4.027   8.292  1.7730 -0.3857 -0.9455
 8316SOL     OW36409   3.083   1.765   1.142 -0.0129 -0.3445  0.6834
 8316SOL    HW136410   3.015   1.783   1.206 -1.7879  1.1881 -1.6219
 8316SOL    HW236411   3.140   1.713   1.199 -1.7649  0.0887  2.8300
 8317SOL     OW36412   3.013   2.632   3.143 -0.1923 -0.5280  0.4241
 8317SOL    HW136413   3.084   2.645   3.080  0.3746 -1.4445  0.8632
 8317SOL    HW236414   3.036   2.543   3.169  0.0911 -0.5629  0.0427
 8318SOL     OW36415   3.268   0.151   4.635  0.3045 -0.3068  0.6494
 8318SOL    HW136416   3.349   0.126   4.678  1.1481  1.9814  0.4239
 8318SOL    HW236417   3.251   0.096   4.558 -0.0355  2.1614 -1.0520
 8319SOL     OW36418   2.314   2.374   7.986 -0.1081 -0.1025  0.1972
 8319SOL    HW136419   2.290   2.297   8.036 -2.5528  0.2940 -0.3448
 8319SOL    HW236420   2.221   2.397   7.974  0.4812  2.6223  0.7403
 8320SOL     OW36421   0.514   4.196   0.947 -0.2268 -0.2152  0.3472
 8320SOL    HW136422   0.436   4.140   0.945 -1.7562  1.9122  0.9891
 8320SOL    HW236423   0.502   4.269   0.887 -0.9166  0.7742  1.7030
 8321SOL     OW36424   4.211   2.640  10.757  0.3471 -0.0848 -0.0657
 8321SOL    HW136425   4.139   2.639  10.694  1.6508 -2.9838 -1.5171
 8321SOL    HW236426   4.177   2.695  10.828 -0.9245 -0.7402 -0.1651
 8322SOL     OW36427   1.727   1.341   9.698  0.3844 -0.2150 -0.6619
 8322SOL    HW136428   1.821   1.341   9.680  0.8955  0.6821  1.9758
 8322SOL    HW236429   1.724   1.254   9.739  0.4125  0.4915  0.8325
 8323SOL     OW36430   0.246   0.338  10.064 -0.2949 -0.1587  0.2202
 8323SOL    HW136431   0.186   0.350   9.991 -0.1955 -0.0140  0.1629
 8323SOL    HW236432   0.324   0.375  10.021 -0.6357 -1.4105 -1.4831
 8324SOL     OW36433   2.430   4.497   7.635 -0.4387 -0.2418  0.0507
 8324SOL    HW136434   2.447   4.544   7.717  1.6590  1.2243 -1.2236
 8324SOL    HW236435   2.439   4.566   7.569 -2.0972  0.4143  0.4956
 8325SOL     OW36436   3.158   0.243   9.228 -0.2939  0.5294  0.2857
 8325SOL    HW136437   3.202   0.322   9.195  0.0601  0.6977  1.1590
 8325SOL    HW236438   3.069   0.277   9.215  0.1723  1.5270 -0.3189
 8326SOL     OW36439   3.802   2.887  11.499  0.0921 -0.2279 -0.2516
 8326SOL    HW136440   3.889   2.921  11.521  0.5994 -0.5928 -1.6764
 8326SOL    HW236441   3.755   2.930  11.570  0.8241 -1.1150  0.7592
 8327SOL     OW36442   1.864   4.396  10.394  0.4393 -0.3587  0.5928
 8327SOL    HW136443   1.885   4.380  10.302 -1.7980 -0.0700  0.0228
 8327SOL    HW236444   1.948   4.419  10.434  0.1675 -0.5560  1.2667
 8328SOL     OW36445   2.114   0.862   3.864  0.3388  0.6880  0.7852
 8328SOL    HW136446   2.057   0.937   3.848 -2.0637 -0.9271  1.6806
 8328SOL    HW236447   2.165   0.883   3.942  2.1147  0.3334 -0.2933
 8329SOL     OW36448   0.442   2.994   6.435  0.2434 -0.7993 -0.3945
 8329SOL    HW136449   0.454   2.965   6.345 -1.1188 -0.9390 -0.5325
 8329SOL    HW236450   0.519   2.961   6.482  0.3245 -0.0956 -0.0293
 8330SOL     OW36451   1.339   0.178  15.850 -0.0399 -0.2898 -0.4920
 8330SOL    HW136452   1.273   0.245  15.830 -0.5620 -1.3057 -2.1401
 8330SOL    HW236453   1.290   0.110  15.895 -0.1864 -0.5788 -1.0913
 8331SOL     OW36454   0.378   2.275  12.261 -0.0941 -0.7236 -0.2196
 8331SOL    HW136455   0.372   2.232  12.346  0.7678 -1.3650 -0.4842
 8331SOL    HW236456   0.365   2.365  12.292 -1.6474 -1.2221  0.5760
 8332SOL     OW36457   2.578   1.309   2.722  0.4696  0.4392 -0.5455
 8332SOL    HW136458   2.658   1.293   2.671  0.4734 -1.0492 -0.0914
 8332SOL    HW236459   2.512   1.335   2.658  0.1935  0.6870 -0.1591
 8333SOL     OW36460   3.396   1.260   2.902  0.3891 -0.2343  0.0059
 8333SOL    HW136461   3.378   1.195   2.834 -1.3392  0.6326 -0.3811
 8333SOL    HW236462   3.472   1.300   2.861 -1.8945  2.0407 -2.0562
 8334SOL     OW36463   4.244   1.372  15.622  0.3269 -0.0604  0.0921
 8334SOL    HW136464   4.274   1.405  15.706 -1.8554  0.2571  0.7504
 8334SOL    HW236465   4.175   1.309  15.643  0.5195 -0.5536 -0.7428
 8335SOL     OW36466   4.136   1.981   9.843 -0.2013 -0.0668  0.4111
 8335SOL    HW136467   4.136   1.978   9.939  0.3307 -2.0303  0.3539
 8335SOL    HW236468   4.139   2.076   9.832 -1.7104 -0.2386 -1.4089
 8336SOL     OW36469   1.128   0.555  12.160 -1.0030  0.5455  0.0010
 8336SOL    HW136470   1.169   0.615  12.223 -3.4123  0.4459  1.6763
 8336SOL    HW236471   1.141   0.473  12.208 -2.5703  1.1075  1.3743
 8337SOL     OW36472   0.213   2.860   9.381 -0.1995 -0.2103  0.7272
 8337SOL    HW136473   0.219   2.889   9.472  0.2918 -1.0620  0.9608
 8337SOL    HW236474   0.228   2.938   9.328 -0.9209 -0.4203  0.2193
 8338SOL     OW36475   1.263   3.938   4.015 -0.3222  0.4914  0.9493
 8338SOL    HW136476   1.306   3.942   4.101  0.4918  0.9644  0.5284
 8338SOL    HW236477   1.211   3.863   4.044 -1.1495  0.5421 -0.3948
 8339SOL     OW36478   0.178   3.236   4.885 -1.0503 -0.0173 -0.2545
 8339SOL    HW136479   0.117   3.177   4.842  0.7678 -2.8543  1.0537
 8339SOL    HW236480   0.131   3.273   4.960  0.5859 -1.2704  1.3957
 8340SOL     OW36481   3.571   4.596   6.389  0.9910  0.0912  0.6163
 8340SOL    HW136482   3.556   4.601   6.484  2.5047  0.5491  0.8275
 8340SOL    HW236483   3.486   4.564   6.359  1.7069  0.9322 -2.2640
 8341SOL     OW36484   3.676   1.292  16.550 -0.5629  0.1709 -0.0152
 8341SOL    HW136485   3.702   1.269  16.640 -0.9859 -1.5516 -0.3269
 8341SOL    HW236486   3.582   1.276  16.552 -0.8628  2.1463  1.8474
 8342SOL     OW36487   0.635   4.629  16.980  0.0931 -0.0256  0.1872
 8342SOL    HW136488   0.626   4.653  16.888 -2.1962 -1.3256  0.0571
 8342SOL    HW236489   0.722   4.590  16.977  0.1487  0.1506 -0.5858
 8343SOL     OW36490   4.031   1.716   0.777  0.1209  0.8485  0.5677
 8343SOL    HW136491   4.021   1.787   0.715 -0.9308 -0.1426 -0.4094
 8343SOL    HW236492   3.974   1.745   0.849 -1.5522  2.7938 -1.5279
 8344SOL     OW36493   2.120   1.849  16.914 -0.4314 -0.0003  0.0722
 8344SOL    HW136494   2.160   1.872  16.830  0.2479 -2.0030 -0.1745
 8344SOL    HW236495   2.126   1.939  16.944 -0.8753 -0.0568  0.3291
 8345SOL     OW36496   2.900   4.588   6.443  0.6520 -0.5478 -0.3498
 8345SOL    HW136497   2.848   4.644   6.500  3.1762  1.7928 -0.3779
 8345SOL    HW236498   2.975   4.647   6.434  1.2306 -1.0106  1.3130
 8346SOL     OW36499   3.229   3.547   5.774  0.1398 -0.6594  0.4340
 8346SOL    HW136500   3.285   3.557   5.850  0.1140 -4.3073  0.9405
 8346SOL    HW236501   3.270   3.600   5.706  0.1832 -0.9729  0.2150
 8347SOL     OW36502   2.706   4.177   3.999 -0.3229 -0.1673 -0.0628
 8347SOL    HW136503   2.662   4.127   3.931 -0.6252 -2.0595  1.5490
 8347SOL    HW236504   2.794   4.196   3.965 -0.2396 -0.5799 -0.0738
 8348SOL     OW36505   1.049   2.956   8.797 -0.0853  0.5985  0.1814
 8348SOL    HW136506   1.136   2.933   8.765 -0.5520  1.1743 -1.5027
 8348SOL    HW236507   1.061   3.051   8.793 -1.4437  0.7008 -1.5161
 8349SOL     OW36508   2.494   0.327   6.657 -0.6249 -0.4939  0.1924
 8349SOL    HW136509   2.511   0.276   6.578 -1.1708  1.9646 -1.5256
 8349SOL    HW236510   2.399   0.324   6.668 -0.7620 -0.5033 -0.9782
 8350SOL     OW36511   0.805   4.285   4.768 -0.2788 -0.0530  0.6710
 8350SOL    HW136512   0.896   4.304   4.746 -1.5071  2.3794 -2.3338
 8350SOL    HW236513   0.773   4.297   4.679 -1.4030  1.3729  1.2553
 8351SOL     OW36514   1.553   1.123  14.770 -0.0995 -0.5189 -0.1603
 8351SOL    HW136515   1.485   1.057  14.781 -1.1173  0.4864 -0.4984
 8351SOL    HW236516   1.607   1.080  14.703  2.8433  2.9870 -0.0621
 8352SOL     OW36517   1.696   2.261  12.426 -0.1720 -0.7526 -0.2058
 8352SOL    HW136518   1.690   2.213  12.343  0.2670 -1.4461  0.1697
 8352SOL    HW236519   1.606   2.251  12.458 -0.5514 -0.4844 -1.1704
 8353SOL     OW36520   4.584   3.068  14.289  0.8652  0.1482  0.3369
 8353SOL    HW136521   4.626   3.119  14.220 -0.4566 -1.8856 -1.9824
 8353SOL    HW236522   4.656   3.006  14.298  2.0427  1.3421 -0.9448
 8354SOL     OW36523   1.116   0.761   7.980 -0.6918  0.3300 -0.1163
 8354SOL    HW136524   1.187   0.759   8.044 -1.2391 -0.5098  0.4692
 8354SOL    HW236525   1.042   0.788   8.035 -1.2879 -0.4508 -0.5250
 8355SOL     OW36526   0.063   0.615   8.073  0.1485 -0.0164 -0.3047
 8355SOL    HW136527   0.035   0.634   8.163 -1.4087 -1.2869 -0.5121
 8355SOL    HW236528   4.716   0.563   8.041 -0.8029  1.5078 -0.5751
 8356SOL     OW36529   2.292   4.238   5.694  0.2329 -0.3238 -0.3260
 8356SOL    HW136530   2.241   4.319   5.690  1.1730  0.1664 -2.2017
 8356SOL    HW236531   2.239   4.188   5.757  0.5594  0.2046  0.3623
 8357SOL     OW36532   4.606   0.169   1.126 -0.1523  0.4246  0.3555
 8357SOL    HW136533   4.631   0.260   1.112 -0.0216  0.2177 -0.7873
 8357SOL    HW236534   4.518   0.178   1.090  0.4414 -1.9981 -1.6963
 8358SOL     OW36535   0.324   1.879   1.432  0.0376  0.2757 -0.1729
 8358SOL    HW136536   0.410   1.921   1.423 -0.7040  1.4217 -1.8527
 8358SOL    HW236537   0.284   1.908   1.351 -2.2707  2.5477  1.7751
 8359SOL     OW36538   3.914   4.591  10.083 -0.4257 -0.1381  0.5717
 8359SOL    HW136539   3.932   4.505  10.123 -1.4106 -0.5883  0.0446
 8359SOL    HW236540   3.938   4.653  10.152 -0.6884 -0.6814  1.1501
 8360SOL     OW36541   4.316   2.747   7.327  0.0744 -0.4023  0.2190
 8360SOL    HW136542   4.393   2.801   7.308 -0.9386  0.5418 -1.2501
 8360SOL    HW236543   4.350   2.662   7.352  0.9518  0.1851  1.0034
 8361SOL     OW36544   1.791   3.968   3.423 -0.0883 -0.3752 -0.0705
 8361SOL    HW136545   1.711   4.021   3.414  0.0968  0.1735  1.6027
 8361SOL    HW236546   1.771   3.892   3.368 -0.6171 -0.7723  0.6719
 8362SOL     OW36547   4.547   3.490   4.765 -0.1996  0.6651  0.1509
 8362SOL    HW136548   4.471   3.530   4.722  0.4947  0.8121 -0.9560
 8362SOL    HW236549   4.512   3.401   4.764  1.5210 -0.0061 -1.2393
 8363SOL     OW36550   1.397   0.407  14.795  0.1493  0.2970 -0.2065
 8363SOL    HW136551   1.484   0.445  14.785  0.8568 -0.8089  1.7361
 8363SOL    HW236552   1.420   0.329  14.845  0.7372 -2.7115 -5.2265
 8364SOL     OW36553   3.772   0.605   2.503  0.8869  0.7952 -0.2908
 8364SOL    HW136554   3.735   0.684   2.463 -0.5916  0.1274 -0.2370
 8364SOL    HW236555   3.707   0.590   2.572  1.1023  1.0200 -0.0368
 8365SOL     OW36556   4.221   2.975   8.578  0.3143  0.8414  0.7268
 8365SOL    HW136557   4.314   2.956   8.585  0.7762  3.4372  1.6224
 8365SOL    HW236558   4.176   2.914   8.638 -0.7052  0.8636 -0.0113
 8366SOL     OW36559   1.283   4.060  16.559  0.1854 -0.2515  0.4408
 8366SOL    HW136560   1.217   4.112  16.604  2.4864  0.6726  2.7253
 8366SOL    HW236561   1.296   4.127  16.492  1.5496  1.4689  2.4647
 8367SOL     OW36562   2.833   1.703  11.799  0.8480 -0.0252  0.5158
 8367SOL    HW136563   2.882   1.783  11.780  2.3069 -1.1481 -0.4098
 8367SOL    HW236564   2.820   1.715  11.893 -1.3319 -1.0726  0.3701
 8368SOL     OW36565   3.860   2.064   2.332  0.3496  0.2712  0.4833
 8368SOL    HW136566   3.788   2.011   2.367  0.9123 -1.7140 -1.4141
 8368SOL    HW236567   3.809   2.105   2.262 -0.2525  0.1371  0.8421
 8369SOL     OW36568   1.085   4.488   5.046 -0.0287  0.1187 -0.3176
 8369SOL    HW136569   1.126   4.555   5.100 -1.9311  0.1358  1.1321
 8369SOL    HW236570   1.009   4.468   5.102 -0.2648  1.9642  0.0170
 8370SOL     OW36571   3.042   1.841   6.872  0.2446 -0.1515  0.5618
 8370SOL    HW136572   3.083   1.758   6.894  0.9341  0.0581  0.0626
 8370SOL    HW236573   3.115   1.899   6.893  0.3426 -0.1361  0.1730
 8371SOL     OW36574   4.686   3.681  14.028 -0.3775  0.4668  0.2226
 8371SOL    HW136575   4.609   3.726  14.063 -1.8152 -0.9202 -1.1486
 8371SOL    HW236576   0.000   3.655  14.110  1.2641  2.5011  0.0652
 8372SOL     OW36577   3.306   1.787   9.791 -0.5560  0.4480  0.2851
 8372SOL    HW136578   3.301   1.831   9.706 -2.6786  0.0904  0.2067
 8372SOL    HW236579   3.213   1.764   9.786 -0.0603 -1.6522  0.8294
 8373SOL     OW36580   0.815   1.134   4.921  0.0124 -0.4410 -0.2880
 8373SOL    HW136581   0.864   1.092   4.992  2.0972  1.5603 -0.5250
 8373SOL    HW236582   0.810   1.073   4.848 -1.0092  0.0706 -0.6559
 8374SOL     OW36583   3.919   2.423   7.679  0.0992  0.1018 -0.3557
 8374SOL    HW136584   3.879   2.354   7.627  2.0499 -0.5269 -1.0259
 8374SOL    HW236585   3.955   2.388   7.761 -0.9342  0.5014  0.2721
 8375SOL     OW36586   1.629   2.452  10.336  0.4380 -0.4849  0.2288
 8375SOL    HW136587   1.616   2.430  10.428 -0.7483 -1.0079 -0.0704
 8375SOL    HW236588   1.725   2.450  10.337  0.3134 -3.5007  3.1551
 8376SOL     OW36589   2.985   4.236   7.293 -0.4703 -0.4261  0.5910
 8376SOL    HW136590   2.914   4.259   7.233 -0.6162 -1.6095  0.3128
 8376SOL    HW236591   3.001   4.316   7.343  1.5050 -0.6297  0.2499
 8377SOL     OW36592   1.748   3.306   3.469 -0.0964 -1.0597  0.4176
 8377SOL    HW136593   1.659   3.274   3.456 -0.3294 -0.6022  0.8952
 8377SOL    HW236594   1.779   3.243   3.533 -3.5386  1.8668  4.9693
 8378SOL     OW36595   1.711   1.898   6.270  0.1944 -0.2876  0.1258
 8378SOL    HW136596   1.671   1.823   6.226  1.7452 -1.2688  0.3626
 8378SOL    HW236597   1.782   1.907   6.206 -0.8267 -1.8737 -1.2165
 8379SOL     OW36598   1.560   2.542   4.980  0.5917  0.2032 -0.2216
 8379SOL    HW136599   1.562   2.553   4.885  0.3122 -1.5204 -0.4384
 8379SOL    HW236600   1.467   2.522   4.993  0.4316  0.5130 -0.8958
 8380SOL     OW36601   0.688   2.730   9.080  0.0131  0.1608  0.3964
 8380SOL    HW136602   0.737   2.810   9.102 -1.3632  0.4636  2.2640
 8380SOL    HW236603   0.750   2.675   9.031  1.4916  1.0262  1.3067
 8381SOL     OW36604   1.750   0.930  11.068  0.1905 -0.1716  0.6497
 8381SOL    HW136605   1.781   0.887  11.148  1.0743  0.5587  0.6967
 8381SOL    HW236606   1.760   1.023  11.085  0.7650 -0.3294  1.1745
 8382SOL     OW36607   1.983   1.520  17.073  0.5457  0.5284 -0.5100
 8382SOL    HW136608   1.991   1.544  17.165 -1.6350  2.6237 -0.9045
 8382SOL    HW236609   2.013   1.429  17.077  0.4337  0.4543 -1.3307
 8383SOL     OW36610   4.608   0.080   6.799 -0.3239  1.0290  0.2579
 8383SOL    HW136611   4.524   0.125   6.792  0.4359  2.4776  0.5130
 8383SOL    HW236612   4.653   0.137   6.736 -1.0061  2.7460  1.3442
 8384SOL     OW36613   2.810   2.432   3.449  0.4917 -0.5543 -0.1677
 8384SOL    HW136614   2.729   2.482   3.464  0.4464 -0.6697 -0.0258
 8384SOL    HW236615   2.862   2.482   3.511 -1.2024  2.7431 -1.3736
 8385SOL     OW36616   1.481   1.962  13.454 -0.0305 -0.0650 -0.0304
 8385SOL    HW136617   1.475   1.907  13.532  2.0086  0.8548  0.7624
 8385SOL    HW236618   1.419   1.920  13.395  0.4855 -2.4547  1.1679
 8386SOL     OW36619   2.764   3.729  17.125  0.8565  0.4439  0.4185
 8386SOL    HW136620   2.838   3.780  17.094  0.0529  2.1757  1.3829
 8386SOL    HW236621   2.725   3.687  17.048 -1.5649 -0.2221  2.0148
 8387SOL     OW36622   3.578   0.217   4.314 -0.0584 -0.2770 -0.0842
 8387SOL    HW136623   3.639   0.200   4.242 -0.7160 -2.7951 -0.0297
 8387SOL    HW236624   3.625   0.278   4.371 -0.5723  0.0591 -0.0204
 8388SOL     OW36625   2.381   3.903   8.019  0.3089 -0.0691 -0.7166
 8388SOL    HW136626   2.342   3.928   7.935 -2.5378  3.0593  1.5595
 8388SOL    HW236627   2.472   3.924   7.998  0.7498 -0.2269  1.0099
 8389SOL     OW36628   0.905   1.758   4.032 -0.0095 -0.1508  0.4065
 8389SOL    HW136629   0.994   1.725   4.022 -0.4898 -1.6015  0.9413
 8389SOL    HW236630   0.861   1.705   3.966  2.2303 -2.9663  1.2036
 8390SOL     OW36631   0.268   3.070   4.615  0.2558  0.3912 -0.2146
 8390SOL    HW136632   0.224   3.138   4.665  1.6379  2.7086 -2.1681
 8390SOL    HW236633   0.216   3.072   4.535 -1.7293  0.7712  1.0834
 8391SOL     OW36634   2.772   2.397  11.484 -0.0622 -0.5749  0.0424
 8391SOL    HW136635   2.743   2.325  11.540  0.2027  0.5657  1.6403
 8391SOL    HW236636   2.734   2.468  11.536 -0.3779 -1.0283  0.4259
 8392SOL     OW36637   3.790   0.612   8.504 -0.7554  0.3387  0.0177
 8392SOL    HW136638   3.783   0.609   8.409  0.7288  0.3305 -0.0865
 8392SOL    HW236639   3.707   0.576   8.536 -0.4753 -1.1350 -0.9554
 8393SOL     OW36640   1.498   0.752   7.480  0.7187  0.3955 -0.2137
 8393SOL    HW136641   1.474   0.761   7.572 -4.0376  0.3629 -1.4983
 8393SOL    HW236642   1.588   0.784   7.472  1.1125 -0.6661 -0.1116
 8394SOL     OW36643   1.630   2.501  13.374 -0.4664  0.3680  0.3396
 8394SOL    HW136644   1.537   2.516  13.358 -0.3139  1.4697  0.5215
 8394SOL    HW236645   1.635   2.462  13.461  0.8291 -4.1047 -1.7353
 8395SOL     OW36646   0.511   4.564  15.034  0.3819 -0.1981  0.2219
 8395SOL    HW136647   0.481   4.596  15.119 -0.9328 -1.3099  0.1890
 8395SOL    HW236648   0.438   4.584  14.975  0.7965 -0.1317 -0.2672
 8396SOL     OW36649   3.306   1.991   7.844 -0.1805 -0.1788  0.1807
 8396SOL    HW136650   3.218   2.006   7.878 -0.6442  0.8385 -1.4931
 8396SOL    HW236651   3.344   2.076   7.869  0.3203  0.7252 -3.6104
 8397SOL     OW36652   4.263   1.442   8.640 -0.8299  0.1378 -0.3733
 8397SOL    HW136653   4.233   1.512   8.698  1.1970  0.7937 -0.1341
 8397SOL    HW236654   4.336   1.481   8.592 -0.1054 -1.8663 -0.9011
 8398SOL     OW36655   2.580   1.967   3.988 -0.3129 -0.7660 -0.0670
 8398SOL    HW136656   2.585   1.874   3.964 -1.7487 -0.4737 -1.5067
 8398SOL    HW236657   2.573   2.013   3.905  2.1052 -1.2588 -0.5451
 8399SOL     OW36658   2.518   0.393   7.718 -0.3824 -0.2350  0.0276
 8399SOL    HW136659   2.427   0.370   7.704 -0.7725  0.2428  1.7375
 8399SOL    HW236660   2.533   0.356   7.805 -3.0727  1.1745  1.0859
 8400SOL     OW36661   0.649   1.323   3.700  0.5218  0.1972  0.1081
 8400SOL    HW136662   0.658   1.402   3.647 -1.2638  0.5423  0.3086
 8400SOL    HW236663   0.716   1.270   3.657  1.3636  1.7209 -0.4402
 8401SOL     OW36664   1.992   0.571  13.796 -0.7902  0.2048 -0.6102
 8401SOL    HW136665   2.014   0.542  13.707  1.1408  1.0899 -0.4123
 8401SOL    HW236666   1.896   0.569  13.794 -0.8419  0.5839  1.3377
 8402SOL     OW36667   3.740   3.154   4.629  0.5387 -0.8666 -0.1014
 8402SOL    HW136668   3.772   3.203   4.554 -0.0857 -1.7733 -0.9597
 8402SOL    HW236669   3.659   3.203   4.646  1.3947  1.0510 -1.5307
 8403SOL     OW36670   0.058   3.853   4.747 -0.2912  0.0140  0.5988
 8403SOL    HW136671   0.141   3.901   4.739  0.8788 -2.3455 -1.4234
 8403SOL    HW236672   0.007   3.897   4.679  1.5028  2.1334  0.6206
 8404SOL     OW36673   0.218   1.598   9.405 -0.1302  0.9338 -0.3680
 8404SOL    HW136674   0.248   1.649   9.480 -0.0991  1.7936 -0.9710
 8404SOL    HW236675   0.165   1.541   9.460 -0.9511  1.4149 -0.6633
 8405SOL     OW36676   0.530   3.880  14.632  0.5941  0.2369 -0.5057
 8405SOL    HW136677   0.507   3.831  14.711 -1.8248  0.8501 -0.8126
 8405SOL    HW236678   0.462   3.948  14.628  2.3925  2.0272 -0.5168
 8406SOL     OW36679   3.403   3.416   6.822 -0.6403 -0.1917 -0.4645
 8406SOL    HW136680   3.316   3.414   6.861 -1.3903 -0.9247 -2.1753
 8406SOL    HW236681   3.444   3.334   6.850  2.4377  0.9059 -1.7722
 8407SOL     OW36682   2.388   1.127   2.299  0.0196  0.2012  0.2155
 8407SOL    HW136683   2.421   1.136   2.209  1.8531 -3.3806  0.5368
 8407SOL    HW236684   2.382   1.216   2.335  1.1370 -0.1763  1.3303
 8408SOL     OW36685   2.108   2.604  12.157 -0.1201 -0.5150 -0.1376
 8408SOL    HW136686   2.062   2.671  12.207  0.4171  1.1695 -1.8559
 8408SOL    HW236687   2.050   2.529  12.161  0.5191 -1.1452 -2.6389
 8409SOL     OW36688   4.600   1.743   7.496 -0.1863  0.1534  0.0106
 8409SOL    HW136689   4.662   1.702   7.437 -0.0796 -0.9297  0.8756
 8409SOL    HW236690   4.537   1.672   7.505 -1.4702  1.2041 -0.7063
 8410SOL     OW36691   2.686   1.428   7.418 -0.3827  0.3284  0.2957
 8410SOL    HW136692   2.671   1.362   7.351 -1.1758  0.7545  0.0463
 8410SOL    HW236693   2.650   1.495   7.359 -2.9431 -1.7096 -0.4481
 8411SOL     OW36694   1.365   3.034   9.240 -0.5381  0.2409 -0.5461
 8411SOL    HW136695   1.277   3.001   9.224 -0.3436 -0.0371 -1.0505
 8411SOL    HW236696   1.369   3.110   9.182 -0.9299  0.4365 -0.3110
 8412SOL     OW36697   0.084   4.677  10.217 -0.0325 -0.5012  0.3669
 8412SOL    HW136698   0.175   4.703  10.199 -0.5084  1.5969  0.9700
 8412SOL    HW236699   0.053   0.041  10.215 -1.0952 -0.8791 -0.6460
 8413SOL     OW36700   4.518   0.002   9.174  0.2909 -0.2222 -0.8037
 8413SOL    HW136701   4.558   4.642   9.183  1.0197  0.3087  1.0043
 8413SOL    HW236702   4.558   0.047   9.248  0.1847 -0.8386 -0.3721
 8414SOL     OW36703   1.063   3.613  11.409  0.3116 -0.1185  0.1268
 8414SOL    HW136704   1.135   3.589  11.351 -0.8777  0.9902 -1.7913
 8414SOL    HW236705   0.994   3.604  11.344  0.7912  1.3111 -0.5933
 8415SOL     OW36706   0.184   4.386   6.436  0.0369  0.1923 -0.3224
 8415SOL    HW136707   0.183   4.351   6.526 -1.1869 -2.1323 -1.2217
 8415SOL    HW236708   0.099   4.350   6.409 -0.6529  1.3393  0.3363
 8416SOL     OW36709   2.457   3.437   0.579  0.1975  0.7453 -0.2006
 8416SOL    HW136710   2.381   3.473   0.533  0.4698  0.0533 -1.1876
 8416SOL    HW236711   2.517   3.511   0.581  2.7176 -1.2372 -2.8397
 8417SOL     OW36712   4.158   0.789   6.714 -0.1274  0.0637  0.0393
 8417SOL    HW136713   4.186   0.828   6.632  0.7373 -0.0785  0.2728
 8417SOL    HW236714   4.204   0.706   6.726 -0.3559  0.0410  0.7545
 8418SOL     OW36715   1.679   4.589   6.623  0.3640  0.2086  0.3463
 8418SOL    HW136716   1.605   4.594   6.684  0.3013  0.9601  0.2090
 8418SOL    HW236717   1.752   4.581   6.684  0.5138 -3.2156 -0.2637
 8419SOL     OW36718   3.284   3.861   4.021 -0.0378  0.1355  0.2565
 8419SOL    HW136719   3.280   3.830   3.931 -0.2001  0.7573  0.0492
 8419SOL    HW236720   3.347   3.931   4.005  1.1308 -1.2698 -1.2621
 8420SOL     OW36721   3.426   2.654   8.583  0.4869 -0.3389  0.1128
 8420SOL    HW136722   3.353   2.665   8.521 -0.0479 -1.3024  0.5754
 8420SOL    HW236723   3.459   2.566   8.564 -0.2693 -0.5225 -0.3872
 8421SOL     OW36724   2.047   0.109   6.162  0.3138  0.0532 -0.1016
 8421SOL    HW136725   2.069   0.147   6.077  1.2243  0.9475  0.5350
 8421SOL    HW236726   2.097   0.164   6.221 -1.6610 -1.1435  2.6699
 8422SOL     OW36727   3.088   1.432   6.389 -0.4432  1.0011  0.5884
 8422SOL    HW136728   3.047   1.361   6.439  0.2011  0.3279  0.1623
 8422SOL    HW236729   3.118   1.384   6.312 -2.4679 -0.5185  0.7644
 8423SOL     OW36730   2.340   1.645   8.804  0.0747 -0.0436  0.6531
 8423SOL    HW136731   2.289   1.625   8.882  0.5661 -0.9661  0.7398
 8423SOL    HW236732   2.421   1.593   8.809 -1.5324 -2.4903  1.0538
 8424SOL     OW36733   2.760   2.987  14.972  0.5726 -0.2310 -0.4181
 8424SOL    HW136734   2.685   3.004  15.028  0.8353 -3.3933  0.8834
 8424SOL    HW236735   2.834   2.999  15.031  1.4400  0.7473 -1.6961
 8425SOL     OW36736   2.396   3.840   1.234  0.4857 -0.1236 -0.7191
 8425SOL    HW136737   2.488   3.865   1.230  0.7606 -1.0461 -0.2203
 8425SOL    HW236738   2.388   3.862   1.141  0.6649  0.0142 -0.6993
 8426SOL     OW36739   3.818   2.005  14.309  0.1816  0.0605  0.3948
 8426SOL    HW136740   3.819   1.940  14.238  2.1872 -0.2413  0.7046
 8426SOL    HW236741   3.846   1.953  14.385 -0.5899 -0.4307  0.3530
 8427SOL     OW36742   3.118   2.890  16.636 -0.4655  0.1321  0.5630
 8427SOL    HW136743   3.176   2.869  16.563  0.2205  0.7823  0.9137
 8427SOL    HW236744   3.180   2.885  16.709  0.2942  1.1429 -0.0186
 8428SOL     OW36745   2.982   3.030   3.237  0.2445 -0.1374  0.5575
 8428SOL    HW136746   2.906   3.003   3.185  1.5086 -2.2930 -0.1436
 8428SOL    HW236747   2.934   3.086   3.297  2.0021  1.0352  0.8819
 8429SOL     OW36748   3.770   2.726   2.923 -0.2157 -0.3078 -0.3615
 8429SOL    HW136749   3.733   2.713   3.010 -1.5762  0.1682 -0.8738
 8429SOL    HW236750   3.703   2.781   2.882 -0.3370  0.2956  0.6573
 8430SOL     OW36751   0.284   4.099   1.309 -0.8740 -0.1212  0.3898
 8430SOL    HW136752   0.346   4.052   1.364 -1.1731 -1.3707 -0.3484
 8430SOL    HW236753   0.324   4.103   1.222 -0.5646  1.4627  0.6022
 8431SOL     OW36754   0.454   2.762   8.921 -0.5353 -0.1692  0.1371
 8431SOL    HW136755   0.534   2.738   8.969  0.3675  0.7048 -0.9412
 8431SOL    HW236756   0.433   2.681   8.875  1.6665 -1.3086  1.1206
 8432SOL     OW36757   0.555   3.917   0.725  0.1845 -0.0571 -0.2802
 8432SOL    HW136758   0.508   3.931   0.642 -1.0336 -1.2495  0.1925
 8432SOL    HW236759   0.646   3.931   0.699 -0.9078  3.7708 -1.9872
 8433SOL     OW36760   4.125   3.573   7.442 -0.1814 -0.0590 -0.3121
 8433SOL    HW136761   4.035   3.594   7.415 -0.1229  0.8439  0.1876
 8433SOL    HW236762   4.162   3.658   7.465  0.7441 -0.3696 -0.6862
 8434SOL     OW36763   1.650   2.954   6.384 -0.5442  0.1212 -0.3294
 8434SOL    HW136764   1.569   2.997   6.358 -0.4810  0.9368  0.8352
 8434SOL    HW236765   1.615   2.873   6.422  1.1424 -1.1641 -1.5364
 8435SOL     OW36766   0.377   1.802   8.610 -0.1749 -0.5389  0.3039
 8435SOL    HW136767   0.426   1.850   8.544  0.1636 -1.1358  0.1191
 8435SOL    HW236768   0.409   1.713   8.594 -0.2766 -0.8587  1.8624
 8436SOL     OW36769   1.123   4.121   8.430 -0.4310  0.6037 -0.1012
 8436SOL    HW136770   1.136   4.215   8.426 -2.6568  0.8143 -2.1850
 8436SOL    HW236771   1.139   4.095   8.521 -0.4055 -0.1967 -0.3355
 8437SOL     OW36772   2.768   4.027   8.744  0.2004 -0.2861 -0.0111
 8437SOL    HW136773   2.749   3.939   8.777 -0.2102 -0.3704 -0.4599
 8437SOL    HW236774   2.686   4.047   8.699  0.7417  0.9208 -0.4702
 8438SOL     OW36775   4.023   0.992  12.103  0.0890 -0.2336  0.1661
 8438SOL    HW136776   4.005   0.982  12.010  1.3789  0.0721 -0.1221
 8438SOL    HW236777   4.079   0.915  12.112 -0.4512 -0.4955  1.1905
 8439SOL     OW36778   2.518   3.111   0.879  0.2925  0.1441  0.0597
 8439SOL    HW136779   2.607   3.131   0.851  0.8492 -0.0493  1.7164
 8439SOL    HW236780   2.520   3.021   0.845 -1.0334  1.0977 -2.5217
 8440SOL     OW36781   1.271   4.004   2.770  0.4321  0.0819 -0.3846
 8440SOL    HW136782   1.326   3.999   2.691 -1.1353 -1.5998 -1.3735
 8440SOL    HW236783   1.327   3.985   2.845  0.9078  0.7457 -0.5765
 8441SOL     OW36784   4.643   2.841  17.033  0.1370  0.2876  0.8572
 8441SOL    HW136785   4.716   2.811  16.980  0.8312  0.5701  1.6588
 8441SOL    HW236786   4.611   2.896  16.961 -0.1696 -1.7688 -0.6021
 8442SOL     OW36787   3.145   3.847   4.567  0.2630 -0.4150 -0.2283
 8442SOL    HW136788   3.232   3.867   4.603  0.0596  0.9812 -0.5187
 8442SOL    HW236789   3.093   3.927   4.572  0.4772 -0.3511  1.0022
 8443SOL     OW36790   2.506   0.522  16.615  0.1285  0.8185 -0.2972
 8443SOL    HW136791   2.411   0.531  16.621  0.0138 -1.7298  2.2690
 8443SOL    HW236792   2.511   0.463  16.540 -0.5312  0.3739  0.0000
 8444SOL     OW36793   3.747   0.250  11.056  0.5892  0.1992  0.5811
 8444SOL    HW136794   3.754   0.247  10.960  0.5348 -2.2379  0.6681
 8444SOL    HW236795   3.839   0.260  11.080  0.9781  0.5900 -1.0474
 8445SOL     OW36796   0.152   0.805  10.422 -0.5452  0.0352  0.2977
 8445SOL    HW136797   0.195   0.883  10.387 -2.4108  1.1949  0.6076
 8445SOL    HW236798   0.155   0.832  10.513 -0.8866 -0.7221  0.5333
 8446SOL     OW36799   3.447   2.107   6.318 -0.1800  0.5248 -0.7770
 8446SOL    HW136800   3.492   2.026   6.344 -0.8684  0.6658  0.8893
 8446SOL    HW236801   3.435   2.087   6.225 -0.5486  3.0389 -1.2556
 8447SOL     OW36802   3.320   2.875   9.060 -0.2050 -0.0163 -0.3845
 8447SOL    HW136803   3.298   2.921   9.141 -0.9393 -0.5742 -0.2671
 8447SOL    HW236804   3.304   2.939   8.990 -2.2565 -0.1264  0.0015
 8448SOL     OW36805   1.934   3.384  15.621 -0.0719  0.0922  0.5717
 8448SOL    HW136806   1.909   3.453  15.681  0.2681 -0.4224  1.3096
 8448SOL    HW236807   1.874   3.385  15.546 -0.2562 -0.7393  0.7038
 8449SOL     OW36808   1.887   2.161  11.031 -0.1701  0.1776  0.6964
 8449SOL    HW136809   1.953   2.207  11.082  0.2651 -2.0030  2.1365
 8449SOL    HW236810   1.939   2.092  10.989  0.3300 -0.5047  2.4385
 8450SOL     OW36811   0.314   1.667   4.745  0.4996  0.1815 -0.0067
 8450SOL    HW136812   0.377   1.736   4.769  1.0281 -0.6572  1.0064
 8450SOL    HW236813   0.319   1.607   4.820  0.8151  0.0064 -0.1656
 8451SOL     OW36814   4.041   4.438   8.437  0.3295  0.0386 -0.7360
 8451SOL    HW136815   4.125   4.459   8.478 -1.2940 -0.7633  3.0949
 8451SOL    HW236816   3.981   4.465   8.508 -0.2441 -1.4347 -0.6633
 8452SOL     OW36817   2.584   3.145   1.991  0.0115  0.2124 -1.0914
 8452SOL    HW136818   2.565   3.072   1.932 -2.3206 -1.5421  1.8610
 8452SOL    HW236819   2.512   3.206   1.976  0.0997  0.9728  1.6243
 8453SOL     OW36820   4.495   0.088   4.875 -0.1923  1.3940  0.1771
 8453SOL    HW136821   4.564   0.148   4.847  0.1182  1.2855  0.7155
 8453SOL    HW236822   4.427   0.151   4.851  0.9557  2.4119 -0.3778
 8454SOL     OW36823   2.045   2.614   7.769 -0.1964 -0.1094 -0.0209
 8454SOL    HW136824   2.057   2.682   7.835 -2.3728 -0.4872  0.7658
 8454SOL    HW236825   2.052   2.668   7.691  2.6155 -1.6253 -0.8380
 8455SOL     OW36826   1.393   1.736  12.680 -0.1518 -0.2730 -0.3659
 8455SOL    HW136827   1.404   1.651  12.724  2.5389  0.5789  0.5533
 8455SOL    HW236828   1.316   1.772  12.725  0.2780  1.3763 -0.9831
 8456SOL     OW36829   1.531   3.726   4.255  0.0959  0.4519  0.0468
 8456SOL    HW136830   1.493   3.713   4.168  2.0802  0.3856 -0.8128
 8456SOL    HW236831   1.450   3.729   4.305  0.1004 -1.9733  0.2127
 8457SOL     OW36832   2.538   0.409   7.034 -0.0410  0.1874  0.3252
 8457SOL    HW136833   2.545   0.468   6.959  0.0992  0.5040  0.5909
 8457SOL    HW236834   2.614   0.351   7.021  0.6506  1.0432  0.5935
 8458SOL     OW36835   1.501   3.376   0.188 -0.4958  0.1024  0.1691
 8458SOL    HW136836   1.422   3.427   0.169 -0.8748 -0.3048  0.6227
 8458SOL    HW236837   1.462   3.315   0.252  0.4684 -0.9252 -0.2319
 8459SOL     OW36838   4.226   3.492   9.105  0.4034 -0.6066  0.0335
 8459SOL    HW136839   4.174   3.441   9.167  0.2803 -0.6201 -0.0808
 8459SOL    HW236840   4.257   3.429   9.041  0.1661  0.4314 -1.0998
 8460SOL     OW36841   2.923   1.841   2.871 -0.1319 -0.3990 -0.1478
 8460SOL    HW136842   2.949   1.749   2.871  1.2627 -0.0067  0.8535
 8460SOL    HW236843   2.847   1.846   2.929  1.2170 -0.0129  1.5906
 8461SOL     OW36844   1.516   4.245   9.984 -0.3106  0.0298  0.6250
 8461SOL    HW136845   1.480   4.158   9.969 -2.5300  0.4198  3.7626
 8461SOL    HW236846   1.442   4.291  10.023  0.5478 -0.8431  3.3559
 8462SOL     OW36847   0.407   1.817  13.981 -0.4410  0.0817 -0.6752
 8462SOL    HW136848   0.329   1.828  13.927 -0.2939 -2.2647 -1.3626
 8462SOL    HW236849   0.438   1.730  13.958  0.0539  0.0680  0.0216
 8463SOL     OW36850   1.458   0.453   6.467 -0.0269 -0.5420  0.1723
 8463SOL    HW136851   1.452   0.467   6.373  3.9949 -1.0053 -0.1446
 8463SOL    HW236852   1.488   0.533   6.509 -1.8590  0.8025 -1.0797
 8464SOL     OW36853   0.448   3.418   4.348 -0.2201  0.1158 -0.2378
 8464SOL    HW136854   0.445   3.347   4.411 -2.8367  0.0255 -0.4587
 8464SOL    HW236855   0.355   3.440   4.336 -0.1645 -0.1956 -1.2478
 8465SOL     OW36856   3.466   2.196   7.310 -0.1061  0.0815 -0.0773
 8465SOL    HW136857   3.491   2.145   7.234  0.8036  0.7160 -0.1995
 8465SOL    HW236858   3.534   2.263   7.320  0.7804 -1.3366  3.4074
 8466SOL     OW36859   3.819   3.067   9.272  0.0302 -0.2041 -0.1775
 8466SOL    HW136860   3.820   3.021   9.356  1.3608 -0.5177 -0.3676
 8466SOL    HW236861   3.754   3.024   9.217  0.2150 -1.4352  0.5741
 8467SOL     OW36862   1.092   0.944  14.101  0.2109 -0.1100 -0.1359
 8467SOL    HW136863   1.027   0.878  14.125 -0.1130  0.1268 -0.3740
 8467SOL    HW236864   1.128   0.946  14.190  2.6999  0.1579 -1.1457
 8468SOL     OW36865   0.369   3.497   5.241  0.2549  0.5626  0.2860
 8468SOL    HW136866   0.343   3.441   5.313 -1.1404 -0.1779 -0.7961
 8468SOL    HW236867   0.306   3.473   5.173 -1.4515  1.4895  1.5504
 8469SOL     OW36868   3.594   0.604   1.197 -0.3160  0.7029 -0.1311
 8469SOL    HW136869   3.553   0.570   1.118  2.0058  1.2703 -1.5733
 8469SOL    HW236870   3.666   0.662   1.172  0.9645 -0.6690  0.3837
 8470SOL     OW36871   3.933   3.151  10.885  0.6146 -0.8908  0.2750
 8470SOL    HW136872   3.992   3.182  10.954  0.8352  0.5394 -0.5466
 8470SOL    HW236873   3.924   3.059  10.909 -2.0943 -0.8986 -0.7901
 8471SOL     OW36874   2.148   1.912  11.755 -0.4089 -0.2481 -0.3191
 8471SOL    HW136875   2.226   1.890  11.807  0.1619  1.0744 -0.6112
 8471SOL    HW236876   2.153   1.845  11.687  1.0953 -1.6713  1.1762
 8472SOL     OW36877   3.334   2.469   3.741  0.3992 -0.5614  0.3164
 8472SOL    HW136878   3.421   2.432   3.750 -0.0967 -1.2382  2.2824
 8472SOL    HW236879   3.304   2.450   3.829 -2.2563  0.1001 -0.4328
 8473SOL     OW36880   1.944   1.412   7.539  0.0717 -0.4665 -0.1214
 8473SOL    HW136881   1.873   1.348   7.539 -0.6815  0.3639 -1.0085
 8473SOL    HW236882   2.016   1.361   7.576  0.3797 -0.0004 -0.0836
 8474SOL     OW36883   1.244   2.720  14.124  0.0864  0.1878  0.5149
 8474SOL    HW136884   1.165   2.668  14.109  0.6673 -0.7540  0.7056
 8474SOL    HW236885   1.209   2.796  14.078 -2.1406 -1.3048 -0.2781
 8475SOL     OW36886   2.885   2.352   7.461  0.0367 -0.3761  0.0597
 8475SOL    HW136887   2.909   2.368   7.552 -0.5169  0.6266  0.0194
 8475SOL    HW236888   2.895   2.258   7.446  2.8115  0.2479 -2.0208
 8476SOL     OW36889   3.240   4.270   2.893  0.0952 -0.6133 -0.2819
 8476SOL    HW136890   3.209   4.357   2.918  0.4546 -0.0142 -1.9141
 8476SOL    HW236891   3.167   4.236   2.841  0.6235  0.1069 -1.4762
 8477SOL     OW36892   3.001   3.390   1.833  0.6992  0.0966 -0.0888
 8477SOL    HW136893   3.059   3.418   1.762 -0.8969 -2.4045 -2.3522
 8477SOL    HW236894   2.920   3.420   1.793  0.6455  1.6842  1.1842
 8478SOL     OW36895   1.273   1.276   2.550 -0.2379  0.5908  0.3805
 8478SOL    HW136896   1.280   1.310   2.639  1.7879  3.5595 -0.8930
 8478SOL    HW236897   1.229   1.191   2.554  2.6101 -1.1664 -4.4939
 8479SOL     OW36898   1.849   1.707   2.362  0.4395  0.3649 -0.0812
 8479SOL    HW136899   1.799   1.661   2.429  0.0854 -0.5627 -0.9757
 8479SOL    HW236900   1.934   1.673   2.390  1.2107  1.8144 -0.6750
 8480SOL     OW36901   2.217   4.136   7.208  0.4416 -0.0933  0.2692
 8480SOL    HW136902   2.194   4.184   7.129 -1.0963 -0.6970  0.3603
 8480SOL    HW236903   2.134   4.134   7.255  1.1163  0.1718  1.4565
 8481SOL     OW36904   1.038   1.210   7.320  0.1901 -0.4342 -0.1649
 8481SOL    HW136905   0.962   1.245   7.273 -0.2976 -1.0030  0.1998
 8481SOL    HW236906   1.055   1.130   7.270  1.7109  0.1163 -0.5356
 8482SOL     OW36907   4.041   4.203  10.908 -0.1301  0.6786  0.0082
 8482SOL    HW136908   4.064   4.140  10.840 -1.7193  0.7535 -0.5860
 8482SOL    HW236909   4.048   4.289  10.866  0.1872  0.2050 -0.8920
 8483SOL     OW36910   4.180   3.463  17.514  0.4002 -0.3674  0.1396
 8483SOL    HW136911   4.189   3.525  17.442  0.4220  0.0451  0.4959
 8483SOL    HW236912   4.094   3.492  17.546 -0.4952 -2.4599 -0.3306
 8484SOL     OW36913   3.631   0.808  15.755  0.5357  0.1947 -0.2816
 8484SOL    HW136914   3.566   0.737  15.749  0.9780 -0.3353  1.3636
 8484SOL    HW236915   3.600   0.857  15.831  0.0567 -1.0398  0.3316
 8485SOL     OW36916   2.626   0.249  13.511  0.0280  0.2886 -0.3770
 8485SOL    HW136917   2.712   0.278  13.479  0.7661 -1.2043  0.2482
 8485SOL    HW236918   2.580   0.236  13.429  0.3966 -0.7878 -0.4188
 8486SOL     OW36919   1.456   1.003  15.597 -0.0489 -0.1341 -0.4183
 8486SOL    HW136920   1.458   0.907  15.594 -2.4951 -0.2272  0.9399
 8486SOL    HW236921   1.472   1.028  15.688  0.3821 -1.2892 -0.1780
 8487SOL     OW36922   4.714   3.871   2.755  0.3544 -0.9406 -0.8578
 8487SOL    HW136923   4.647   3.864   2.687 -1.6812 -1.6365  1.2253
 8487SOL    HW236924   0.039   3.791   2.751  2.3348  0.3645 -1.7930
 8488SOL     OW36925   0.111   2.564  15.893  0.5987 -0.1425 -0.1694
 8488SOL    HW136926   0.196   2.590  15.858 -0.1946  4.3037  1.1496
 8488SOL    HW236927   0.123   2.577  15.987  0.6794 -1.2464 -0.0317
 8489SOL     OW36928   0.028   4.692   3.853  0.5771 -0.5499 -0.6996
 8489SOL    HW136929   4.705   4.621   3.894 -1.4942  2.5149  2.0362
 8489SOL    HW236930   0.090   4.645   3.797  2.3105  1.5095 -0.5104
 8490SOL     OW36931   3.991   2.679   6.378 -0.0995 -0.0828  0.5236
 8490SOL    HW136932   4.022   2.664   6.468 -1.3919 -1.8246  0.6817
 8490SOL    HW236933   3.956   2.592   6.357 -0.0871  0.4411 -1.6070
 8491SOL     OW36934   3.371   1.043   5.303 -0.1918  0.2202  0.1276
 8491SOL    HW136935   3.282   1.058   5.332  0.4325 -0.0297  2.1651
 8491SOL    HW236936   3.369   1.028   5.209 -2.2626 -0.9015  0.3732
 8492SOL     OW36937   4.223   2.130   7.037  0.6168 -0.0208  0.3263
 8492SOL    HW136938   4.264   2.187   6.971  0.1271  1.4812  1.3075
 8492SOL    HW236939   4.164   2.082   6.978  1.2501  1.8554 -1.8383
 8493SOL     OW36940   1.360   2.974   1.007 -0.3247 -0.2841 -0.3585
 8493SOL    HW136941   1.445   3.015   0.991 -0.1776 -0.6483 -0.5059
 8493SOL    HW236942   1.384   2.885   1.033 -0.3864  0.1868  1.3328
 8494SOL     OW36943   3.969   4.587  13.702  0.0357  0.3804 -0.3422
 8494SOL    HW136944   3.915   4.523  13.655 -0.4144  0.4430  0.0850
 8494SOL    HW236945   4.045   4.588  13.644  0.8681 -1.1249  0.7152
 8495SOL     OW36946   0.369   4.644   5.278 -0.6000  0.1430 -0.0050
 8495SOL    HW136947   0.283   4.672   5.309 -0.4999  1.6717 -1.0981
 8495SOL    HW236948   0.341   4.559   5.245  1.7412 -0.6561  0.0850
 8496SOL     OW36949   0.365   1.028   7.566  0.5962  0.5097 -0.7308
 8496SOL    HW136950   0.389   1.059   7.479 -0.4975 -1.1456 -1.6329
 8496SOL    HW236951   0.368   0.933   7.549 -0.3157  0.2438  0.5706
 8497SOL     OW36952   4.100   1.956   2.801 -0.4533  0.1748 -0.5461
 8497SOL    HW136953   4.046   1.963   2.880 -0.5605 -1.8831 -0.4340
 8497SOL    HW236954   4.063   1.880   2.757 -1.2687  0.4582 -0.3657
 8498SOL     OW36955   3.207   3.343   5.436  0.1998 -0.1904 -0.4382
 8498SOL    HW136956   3.300   3.365   5.433 -0.5083  2.8170  0.0746
 8498SOL    HW236957   3.206   3.315   5.528 -0.0514  0.3311 -0.2843
 8499SOL     OW36958   3.793   1.003   6.249 -0.1202  0.5051 -0.2112
 8499SOL    HW136959   3.722   1.001   6.313 -0.2975 -0.1324 -0.4220
 8499SOL    HW236960   3.759   1.060   6.180 -2.9476 -1.1413 -0.2201
 8500SOL     OW36961   3.668   2.524  10.349 -0.3286  0.4169 -0.4442
 8500SOL    HW136962   3.613   2.552  10.422 -0.1459  1.9441 -0.8935
 8500SOL    HW236963   3.723   2.602  10.355  0.1866  0.1784 -2.1968
 8501SOL     OW36964   2.897   1.544   0.996 -0.2211 -0.1373 -0.4548
 8501SOL    HW136965   2.946   1.488   1.056  2.7918  1.6547 -1.2756
 8501SOL    HW236966   2.880   1.626   1.042  1.3532  0.1271 -0.3606
 8502SOL     OW36967   3.089   4.071   0.209  0.0345  0.0397 -0.5835
 8502SOL    HW136968   3.171   4.116   0.190  0.6819 -0.8789  0.0276
 8502SOL    HW236969   3.019   4.134   0.228  0.5537  1.1807 -2.4398
 8503SOL     OW36970   1.508   2.688   5.481 -0.2920 -0.1923  0.8593
 8503SOL    HW136971   1.434   2.746   5.462 -1.2793 -2.2686 -1.6970
 8503SOL    HW236972   1.562   2.680   5.403 -1.6557  0.8821 -0.1945
 8504SOL     OW36973   4.547   0.359   3.382  0.4801 -0.0567 -0.1600
 8504SOL    HW136974   4.538   0.437   3.436 -1.3802  1.1262 -2.1712
 8504SOL    HW236975   4.565   0.399   3.297 -2.0811 -1.9015 -1.5738
 8505SOL     OW36976   4.227   2.680   0.215 -0.3515 -0.6659 -0.2640
 8505SOL    HW136977   4.209   2.661   0.307  1.0596  1.3872  0.4442
 8505SOL    HW236978   4.149   2.641   0.175  0.4962  0.1175 -2.6850
 8506SOL     OW36979   4.158   0.879  11.307 -0.4149 -0.3370 -0.2849
 8506SOL    HW136980   4.206   0.925  11.238  0.0390 -1.4607 -0.7150
 8506SOL    HW236981   4.137   0.808  11.246 -0.2906  1.1616 -2.0977
 8507SOL     OW36982   3.356   0.720   3.458  0.5285  0.4005  0.0717
 8507SOL    HW136983   3.312   0.783   3.515 -3.0715 -0.5022 -1.7410
 8507SOL    HW236984   3.426   0.682   3.513  1.1433  1.5609  0.1020
 8508SOL     OW36985   4.255   1.370  14.828 -0.8055  0.5811 -0.6966
 8508SOL    HW136986   4.326   1.306  14.830  0.6976  2.2658  0.2470
 8508SOL    HW236987   4.221   1.361  14.739 -0.5716 -1.2111 -0.6122
 8509SOL     OW36988   2.918   3.734   2.835  0.1847  0.4563 -0.3597
 8509SOL    HW136989   2.993   3.712   2.890 -0.2665  1.0257  0.4950
 8509SOL    HW236990   2.866   3.654   2.842 -1.9387  1.5969 -2.8781
 8510SOL     OW36991   0.565   3.708   5.501 -0.2244  0.4640 -0.4483
 8510SOL    HW136992   0.573   3.802   5.487 -1.3419  0.8199  1.2956
 8510SOL    HW236993   0.482   3.699   5.548 -0.5780 -0.1451 -1.1876
 8511SOL     OW36994   3.070   0.493  11.673  0.4072  0.5091  0.0686
 8511SOL    HW136995   3.088   0.540  11.754 -1.3296 -0.5207  1.0668
 8511SOL    HW236996   3.156   0.511  11.635  1.3489 -1.8916  1.0992
 8512SOL     OW36997   3.260   2.110   7.441  0.5534  0.7177 -0.3960
 8512SOL    HW136998   3.295   2.038   7.494  0.4790  0.9310 -0.0577
 8512SOL    HW236999   3.345   2.133   7.404  0.2805  1.8783 -0.2905
 8513SOL     OW37000   2.546   4.551   5.925  0.0980 -0.1950  0.6254
 8513SOL    HW137001   2.639   4.528   5.919  0.7730  2.3596  1.2841
 8513SOL    HW237002   2.521   4.477   5.981 -0.0261 -1.9328 -1.7237
 8514SOL     OW37003   0.666   3.884  12.299  0.2603  0.0753 -1.0084
 8514SOL    HW137004   0.761   3.893  12.292  0.5371 -1.8260  0.5587
 8514SOL    HW237005   0.634   3.954  12.242  0.1917  2.3450  1.8134
 8515SOL     OW37006   0.113   0.020   0.828  0.0346 -0.5286  0.7169
 8515SOL    HW137007   0.186   0.081   0.829  0.8243 -1.4925  2.7090
 8515SOL    HW237008   0.078   0.023   0.739  1.2124  2.3433  0.3586
 8516SOL     OW37009   2.382   1.748  15.081 -0.0645  0.1960  0.6299
 8516SOL    HW137010   2.304   1.763  15.027 -0.0277 -0.0894  0.4976
 8516SOL    HW237011   2.431   1.828  15.062 -0.3961  0.6440  1.7082
 8517SOL     OW37012   3.354   0.735  12.001  0.3236  0.1719  0.1512
 8517SOL    HW137013   3.434   0.728  12.053 -0.2441  0.0683  1.0113
 8517SOL    HW237014   3.352   0.643  11.973 -1.7052 -0.9251  3.9378
 8518SOL     OW37015   2.389   0.706   4.716 -0.0660 -0.0185 -0.8051
 8518SOL    HW137016   2.397   0.628   4.660 -0.3342 -0.6217 -0.0130
 8518SOL    HW237017   2.464   0.694   4.774 -1.5710 -0.4692  1.0529
 8519SOL     OW37018   2.145   2.857   4.307  0.0290  0.1802 -0.0925
 8519SOL    HW137019   2.131   2.764   4.328  2.2639 -0.5020 -1.6338
 8519SOL    HW237020   2.121   2.907   4.385 -1.1648 -1.1516  0.3975
 8520SOL     OW37021   4.225   1.337  10.487 -0.2453  0.5815 -0.1563
 8520SOL    HW137022   4.254   1.397  10.418  5.2114 -0.2841  1.3513
 8520SOL    HW237023   4.294   1.270  10.493 -1.5261 -0.7574 -0.5610
 8521SOL     OW37024   0.406   1.843   6.439  0.5743  0.0274 -0.0196
 8521SOL    HW137025   0.357   1.915   6.478  1.2598  0.9977 -0.9627
 8521SOL    HW237026   0.473   1.903   6.405  1.4733 -0.8944  0.1313
 8522SOL     OW37027   0.662   4.480   6.852 -0.0150  0.2442 -0.4628
 8522SOL    HW137028   0.704   4.554   6.897 -0.3323  0.5662 -0.7000
 8522SOL    HW237029   0.664   4.415   6.923  1.0719  0.2092 -0.5129
 8523SOL     OW37030   0.104   1.423  11.681 -1.0991  0.3963 -0.1134
 8523SOL    HW137031   0.192   1.456  11.701 -2.4807  1.5043  4.0517
 8523SOL    HW237032   0.098   1.449  11.589 -0.2855 -0.3439 -0.3867
 8524SOL     OW37033   0.318   3.515   4.897  0.2691  0.1595  0.3135
 8524SOL    HW137034   0.307   3.429   4.938 -0.5023  1.5612  3.0255
 8524SOL    HW237035   0.240   3.517   4.842  1.6534  2.2809 -1.5886
 8525SOL     OW37036   0.772   1.340   7.670 -0.1252  0.5634 -0.7523
 8525SOL    HW137037   0.720   1.260   7.674 -0.0322  0.5789  0.9095
 8525SOL    HW237038   0.844   1.305   7.618 -0.2186  0.6977 -0.9723
 8526SOL     OW37039   0.133   3.027   6.318  0.4203 -0.4341  0.3645
 8526SOL    HW137040   0.204   3.032   6.382  1.2747  0.3894 -0.6539
 8526SOL    HW237041   0.099   2.937   6.323 -2.9149  0.7834 -0.4331
 8527SOL     OW37042   1.129   1.202   4.278 -0.0874  0.3041 -0.2482
 8527SOL    HW137043   1.097   1.273   4.222  0.0296  1.0770  0.6704
 8527SOL    HW237044   1.162   1.138   4.215 -1.4115 -0.2695 -0.3617
 8528SOL     OW37045   2.554   0.212   8.450 -0.1270  0.0748 -0.1167
 8528SOL    HW137046   2.615   0.174   8.512 -0.7291 -0.7382 -0.0202
 8528SOL    HW237047   2.475   0.232   8.501  0.0050  0.0109  0.1099
 8529SOL     OW37048   2.830   4.057   8.092 -0.5906 -0.5184 -0.5237
 8529SOL    HW137049   2.831   4.153   8.095  0.6452 -0.5816  0.9462
 8529SOL    HW237050   2.924   4.044   8.102 -0.7055 -1.2996 -0.5073
 8530SOL     OW37051   0.907   0.973   3.994 -0.9315 -0.0743 -0.1506
 8530SOL    HW137052   0.872   1.058   3.969 -1.0281 -0.3694 -1.0192
 8530SOL    HW237053   0.955   0.952   3.914 -1.5216 -0.1839 -0.4805
 8531SOL     OW37054   1.049   3.713   2.541  0.2047 -0.6532  0.0621
 8531SOL    HW137055   1.120   3.677   2.487 -0.9343 -0.7737 -1.3625
 8531SOL    HW237056   0.997   3.743   2.466 -1.3813 -0.6360  1.1752
 8532SOL     OW37057   0.611   4.384  10.251 -0.1304 -0.0366  0.7786
 8532SOL    HW137058   0.550   4.459  10.252 -0.9005 -0.6654  0.7412
 8532SOL    HW237059   0.670   4.409  10.322  1.6559 -0.6656 -0.4996
 8533SOL     OW37060   3.579   0.413   7.871  0.1073 -0.2760 -0.1540
 8533SOL    HW137061   3.547   0.393   7.959 -0.5525  1.2332 -0.0562
 8533SOL    HW237062   3.541   0.339   7.824 -0.5501 -0.1758  0.2321
 8534SOL     OW37063   2.381   0.594   9.174  0.5017  0.2206  0.1836
 8534SOL    HW137064   2.293   0.585   9.209  1.1644 -0.2581  1.7542
 8534SOL    HW237065   2.381   0.688   9.155 -0.9009  0.3551  0.8522
 8535SOL     OW37066   3.236   1.563  13.370  0.1494  0.0492  0.0314
 8535SOL    HW137067   3.193   1.595  13.449  0.4195  0.3516  0.0561
 8535SOL    HW237068   3.312   1.519  13.407  0.6633  2.1492  1.4503
 8536SOL     OW37069   2.943   3.209   8.785 -0.5004 -0.5029  0.2225
 8536SOL    HW137070   2.985   3.185   8.703  2.6046 -1.5192  2.1300
 8536SOL    HW237071   2.859   3.164   8.792 -1.3705  0.8700 -1.6093
 8537SOL     OW37072   2.157   3.386  16.205 -0.3963 -0.1591  0.4471
 8537SOL    HW137073   2.158   3.376  16.110  0.6167 -0.0933  0.4452
 8537SOL    HW237074   2.086   3.448  16.219 -1.8212 -1.3900 -1.3919
 8538SOL     OW37075   3.524   2.555   3.417  0.0248  0.6931  0.3668
 8538SOL    HW137076   3.562   2.551   3.505  1.7030  0.5089 -0.3642
 8538SOL    HW237077   3.466   2.631   3.424 -1.2819 -0.2933  0.1320
 8539SOL     OW37078   0.505   2.251   9.075 -0.1038 -0.2206 -0.0908
 8539SOL    HW137079   0.442   2.215   9.138 -0.5750 -0.2587 -0.5911
 8539SOL    HW237080   0.507   2.342   9.106  1.0082 -0.1734 -0.3040
 8540SOL     OW37081   1.465   1.159   2.364 -0.0787  0.1983  0.1774
 8540SOL    HW137082   1.380   1.200   2.345 -0.5496 -1.1433 -0.5950
 8540SOL    HW237083   1.475   1.093   2.296 -0.0466 -0.7493  1.1020
 8541SOL     OW37084   0.441   3.680   7.297  0.2274  0.5553  0.8069
 8541SOL    HW137085   0.427   3.754   7.356 -3.0921  1.3863 -1.0273
 8541SOL    HW237086   0.495   3.622   7.351 -0.8451 -0.4440  0.8166
 8542SOL     OW37087   0.673   1.286   5.107 -0.0058 -0.4514  0.4580
 8542SOL    HW137088   0.670   1.381   5.099 -1.6689 -0.5911 -0.4977
 8542SOL    HW237089   0.708   1.276   5.019 -1.4975 -1.0681 -0.0479
 8543SOL     OW37090   3.539   3.026   7.911  0.7684 -0.4945  0.4396
 8543SOL    HW137091   3.609   3.004   7.850 -0.8987  0.1688 -1.7179
 8543SOL    HW237092   3.494   2.942   7.918  0.4358 -0.5078 -1.8112
 8544SOL     OW37093   1.684   3.335  10.804 -0.2829  0.3910  0.5563
 8544SOL    HW137094   1.738   3.275  10.854 -1.3507 -2.0411 -1.2338
 8544SOL    HW237095   1.747   3.366  10.740  0.0942 -2.3711 -0.3965
 8545SOL     OW37096   3.009   4.511  13.605 -0.6800 -0.1861  0.7277
 8545SOL    HW137097   3.046   4.469  13.683  1.4215  0.0791 -0.1355
 8545SOL    HW237098   3.033   4.432  13.558 -1.9768  1.1200 -2.1106
 8546SOL     OW37099   0.587   4.465   3.303 -0.4157 -0.0851 -0.4247
 8546SOL    HW137100   0.504   4.430   3.336 -0.8294  1.2110 -0.0875
 8546SOL    HW237101   0.548   4.520   3.236 -1.5297 -0.4648 -0.0786
 8547SOL     OW37102   3.443   3.139   7.631 -0.2821  0.2250  0.2210
 8547SOL    HW137103   3.425   3.232   7.627 -1.2002  0.0278 -0.3604
 8547SOL    HW237104   3.483   3.138   7.718  2.2869 -0.2992 -0.9820
 8548SOL     OW37105   4.190   1.239   2.273 -0.1294  0.0098 -0.2312
 8548SOL    HW137106   4.122   1.237   2.340 -0.9651 -0.9613 -1.1230
 8548SOL    HW237107   4.161   1.172   2.211 -0.8930  0.3243 -0.2125
 8549SOL     OW37108   3.611   0.795   1.695 -0.1505  0.0374  0.6084
 8549SOL    HW137109   3.551   0.860   1.659  0.8541  0.6051 -0.0577
 8549SOL    HW237110   3.578   0.733   1.630  1.4883 -1.1334  0.8827
 8550SOL     OW37111   3.593   2.655   5.195  0.2805 -0.4811 -0.2249
 8550SOL    HW137112   3.601   2.707   5.275  1.2518  0.1272 -0.7149
 8550SOL    HW237113   3.545   2.710   5.133 -0.8183 -0.1111  0.9490
 8551SOL     OW37114   4.433   3.507   2.757  0.0969 -0.4514 -0.6705
 8551SOL    HW137115   4.455   3.558   2.835  1.6165 -1.7523 -0.2604
 8551SOL    HW237116   4.361   3.453   2.789 -0.6424  1.1873  0.4793
 8552SOL     OW37117   2.000   2.097   0.315  0.3259  0.6831  0.2036
 8552SOL    HW137118   1.944   2.035   0.269  0.1118 -0.2001  1.6417
 8552SOL    HW237119   2.061   2.127   0.248  0.3186  0.3181  0.0358
 8553SOL     OW37120   2.691   3.842  12.364 -0.1395 -0.1066 -0.4305
 8553SOL    HW137121   2.741   3.770  12.404 -0.8635 -0.4878 -0.2085
 8553SOL    HW237122   2.612   3.836  12.416  0.6097  3.2765  1.0575
 8554SOL     OW37123   2.906   1.304   6.566 -0.3228  0.4012 -0.0718
 8554SOL    HW137124   2.832   1.258   6.607  0.0678 -0.6269 -0.5434
 8554SOL    HW237125   2.975   1.252   6.606 -0.9850  0.7547  1.5551
 8555SOL     OW37126   3.467   0.362   5.721 -0.1768 -0.4613 -0.8892
 8555SOL    HW137127   3.392   0.409   5.684 -0.9112 -0.1115  1.0071
 8555SOL    HW237128   3.508   0.435   5.769 -0.5006 -0.5177 -0.5200
 8556SOL     OW37129   4.707   4.073   5.756  0.1935  0.2156  0.1601
 8556SOL    HW137130   0.063   4.035   5.788  1.3643  2.4705 -0.1982
 8556SOL    HW237131   4.697   4.147   5.815  0.5409  1.4994 -1.3770
 8557SOL     OW37132   0.396   3.036   8.427  0.4600 -0.0263  0.4508
 8557SOL    HW137133   0.432   3.077   8.505  0.1834  1.5937 -0.2614
 8557SOL    HW237134   0.415   3.098   8.356 -0.8386  1.0824  1.0702
 8558SOL     OW37135   0.434   3.302   3.412 -0.4089 -0.2766 -0.6435
 8558SOL    HW137136   0.480   3.366   3.466  0.6798 -3.0708  1.7601
 8558SOL    HW237137   0.504   3.250   3.373 -1.2217 -3.0795  1.5881
 8559SOL     OW37138   0.962   3.792   3.728 -0.4422  0.6076  0.1415
 8559SOL    HW137139   1.018   3.846   3.783  1.5253 -2.2571  0.9836
 8559SOL    HW237140   1.028   3.733   3.690 -0.3403 -0.9999  2.8004
 8560SOL     OW37141   1.257   0.434  11.395  0.3369  0.0970  0.0444
 8560SOL    HW137142   1.241   0.453  11.488  0.1274 -3.3681  0.7278
 8560SOL    HW237143   1.259   0.340  11.376 -1.2198 -0.6642  3.6904
 8561SOL     OW37144   4.699   2.729   9.452  0.3891 -0.2016  0.6295
 8561SOL    HW137145   0.052   2.759   9.408 -0.2490  3.2256  1.8236
 8561SOL    HW237146   4.708   2.767   9.540  1.8031  0.5832  0.1474
 8562SOL     OW37147   2.628   0.276  13.047  0.7750  0.2848 -0.4662
 8562SOL    HW137148   2.545   0.249  13.008  1.8377 -1.3306 -1.5968
 8562SOL    HW237149   2.695   0.279  12.979 -1.7974 -0.3400 -3.0139
 8563SOL     OW37150   2.082   1.425  14.343  0.1352 -0.4067 -0.1834
 8563SOL    HW137151   2.011   1.394  14.287  0.8406  1.1275 -1.9313
 8563SOL    HW237152   2.113   1.343  14.380  0.9553 -0.0665 -0.1226
 8564SOL     OW37153   1.861   0.898  13.595  0.3504 -0.2963  0.5896
 8564SOL    HW137154   1.883   0.828  13.533 -0.6111  1.8810 -2.1699
 8564SOL    HW237155   1.886   0.977  13.548  2.5280 -1.9401 -1.0755
 8565SOL     OW37156   2.990   2.072   1.313 -0.7084  0.4466 -0.0829
 8565SOL    HW137157   2.932   2.148   1.314  0.6727  1.4844  1.2183
 8565SOL    HW237158   3.059   2.097   1.374 -0.2874 -0.1401 -0.3116
 8566SOL     OW37159   2.481   1.276   8.142 -0.5290  0.2341 -0.1587
 8566SOL    HW137160   2.484   1.314   8.054  2.3341 -1.0423 -0.6251
 8566SOL    HW237161   2.534   1.342   8.185  1.6965 -2.0854  0.6782
 8567SOL     OW37162   4.033   0.600   2.264 -0.0362 -0.3837  0.1184
 8567SOL    HW137163   4.051   0.615   2.357 -0.8958 -0.1323  0.2470
 8567SOL    HW237164   4.094   0.533   2.236  1.1982 -0.0524  1.9976
 8568SOL     OW37165   3.560   2.746   6.413 -0.6416 -0.0035  0.3100
 8568SOL    HW137166   3.649   2.780   6.428  0.2199 -2.4080  0.6838
 8568SOL    HW237167   3.584   2.691   6.338  0.9397  1.3757 -0.2011
 8569SOL     OW37168   0.566   4.038  16.552 -0.3030  0.4090 -0.4777
 8569SOL    HW137169   0.541   4.032  16.460  2.0600  1.1490 -1.1630
 8569SOL    HW237170   0.576   3.945  16.571  1.6503  0.3274 -1.8519
 8570SOL     OW37171   3.972   3.418   4.751 -0.1742  0.0218  0.5070
 8570SOL    HW137172   3.922   3.432   4.671 -0.1499 -0.4574  0.4053
 8570SOL    HW237173   4.065   3.427   4.732 -0.4032  1.5062  0.1658
 8571SOL     OW37174   1.957   1.294  11.087 -0.5346 -0.0680  0.0074
 8571SOL    HW137175   2.049   1.277  11.108 -0.9349 -1.8340  0.2915
 8571SOL    HW237176   1.911   1.231  11.141 -0.9051  1.0666  1.0188
 8572SOL     OW37177   1.456   3.744   2.078 -0.1085 -0.0399  0.1587
 8572SOL    HW137178   1.551   3.739   2.065 -0.1365 -2.3210  0.8645
 8572SOL    HW237179   1.424   3.694   2.003  0.9021 -0.8300  0.2529
 8573SOL     OW37180   0.198   4.589   7.916  0.1098  0.4545  0.1666
 8573SOL    HW137181   0.270   4.530   7.893  0.6986  1.1443  0.2316
 8573SOL    HW237182   0.245   4.666   7.883  0.5940  1.2112  2.6205
 8574SOL     OW37183   4.398   1.303  16.994 -0.6645  0.2114 -0.2305
 8574SOL    HW137184   4.377   1.393  16.970 -0.8347 -0.8954 -4.3937
 8574SOL    HW237185   4.326   1.282  17.053  2.1766 -0.5116  2.9739
 8575SOL     OW37186   0.193   2.298   3.818  0.3716 -0.4436 -0.3114
 8575SOL    HW137187   0.138   2.251   3.756 -4.5809 -0.1801  3.9094
 8575SOL    HW237188   0.142   2.377   3.830 -0.5770 -1.5043  2.6731
 8576SOL     OW37189   3.222   3.429   9.838  0.2667 -0.2705  0.1423
 8576SOL    HW137190   3.203   3.337   9.855 -0.9260 -0.1220 -0.3369
 8576SOL    HW237191   3.195   3.438   9.746  1.8614 -1.2030 -0.3993
 8577SOL     OW37192   0.677   0.606  16.343  0.1718 -0.5952  0.1609
 8577SOL    HW137193   0.758   0.642  16.308  1.2697 -2.1696  1.0953
 8577SOL    HW237194   0.705   0.520  16.375 -1.1998 -1.3466 -0.6595
 8578SOL     OW37195   3.337   1.710   1.648  0.1587 -0.6810 -0.5718
 8578SOL    HW137196   3.275   1.640   1.670  0.8253 -0.8360  0.8018
 8578SOL    HW237197   3.405   1.659   1.604  2.4345  1.4946  0.4342
 8579SOL     OW37198   2.519   3.137   3.270  0.2027  0.8268 -0.3398
 8579SOL    HW137199   2.430   3.169   3.286 -0.2725  0.2182 -1.7800
 8579SOL    HW237200   2.543   3.190   3.195  1.2229 -0.1850 -0.7192
 8580SOL     OW37201   0.968   2.138  10.314 -0.1711 -0.6304  0.2074
 8580SOL    HW137202   1.017   2.201  10.368 -2.0297  0.4551  0.6246
 8580SOL    HW237203   0.906   2.103  10.378 -0.8455 -0.2368 -0.2385
 8581SOL     OW37204   4.143   2.978   3.994  0.2464 -0.0630 -0.4342
 8581SOL    HW137205   4.215   3.038   4.011 -0.7746  0.9560  0.2439
 8581SOL    HW237206   4.064   3.030   4.002  1.0023  0.7911  1.4041
 8582SOL     OW37207   2.155   3.775  10.927 -0.0623  0.2795  0.1555
 8582SOL    HW137208   2.237   3.730  10.908  0.0351  0.5810 -0.1328
 8582SOL    HW237209   2.091   3.709  10.900 -0.9660  0.7988  0.9895
 8583SOL     OW37210   0.690   0.154   5.645  0.3251 -0.0575 -0.1599
 8583SOL    HW137211   0.635   0.084   5.609  1.2295 -0.3281 -1.0097
 8583SOL    HW237212   0.660   0.163   5.736 -0.0924  0.1042 -0.3155
 8584SOL     OW37213   3.697   1.644   8.489 -0.3490 -0.4501 -0.4621
 8584SOL    HW137214   3.627   1.674   8.431 -1.0323 -1.2925 -0.0742
 8584SOL    HW237215   3.639   1.601   8.552  1.2083 -3.2686 -0.9471
 8585SOL     OW37216   3.174   1.918   3.818 -0.6320  0.0724  0.0020
 8585SOL    HW137217   3.146   1.851   3.881 -0.4677  0.1120  0.1146
 8585SOL    HW237218   3.131   1.999   3.847  0.6032  0.8367 -0.3111
 8586SOL     OW37219   3.113   4.557   7.128 -0.2155 -0.0210  0.3356
 8586SOL    HW137220   3.087   4.618   7.198 -2.8250  0.4762 -1.0293
 8586SOL    HW237221   3.063   4.593   7.054 -0.1621 -1.7650 -0.5455
 8587SOL     OW37222   1.872   1.218   7.213 -0.0957  0.0695 -0.5806
 8587SOL    HW137223   1.781   1.243   7.194 -0.6123 -0.4404  1.2033
 8587SOL    HW237224   1.902   1.309   7.215  3.7918 -1.2351 -0.3357
 8588SOL     OW37225   2.545   3.101   5.760  0.2626 -0.2083  0.6950
 8588SOL    HW137226   2.491   3.031   5.722 -0.2011 -0.6238  2.1413
 8588SOL    HW237227   2.475   3.138   5.814 -2.0545 -2.5122 -0.7628
 8589SOL     OW37228   2.302   3.956  12.806  0.3444 -0.0932  0.1027
 8589SOL    HW137229   2.341   3.953  12.893  0.6158  0.3579 -0.0026
 8589SOL    HW237230   2.211   3.927  12.811  0.0714  0.7663  0.1092
 8590SOL     OW37231   2.594   0.314   3.640  0.5265  0.2139 -0.1122
 8590SOL    HW137232   2.559   0.351   3.721  0.5505 -1.9916  0.8879
 8590SOL    HW237233   2.652   0.244   3.670 -1.5335  0.2030  3.7911
 8591SOL     OW37234   2.001   1.285  16.750  0.0371 -0.2503 -0.6341
 8591SOL    HW137235   2.054   1.227  16.696  1.7875  1.3137 -0.6081
 8591SOL    HW237236   2.023   1.252  16.838  1.1400  0.5372 -0.6133
 8592SOL     OW37237   4.656   3.796  13.588  0.1998  0.1912 -0.0267
 8592SOL    HW137238   4.659   3.719  13.531 -0.5917  0.2308 -0.1134
 8592SOL    HW237239   4.701   3.757  13.663 -0.0526  0.1349  0.0947
 8593SOL     OW37240   3.888   0.329   2.160 -0.0339  0.0621 -0.5478
 8593SOL    HW137241   3.907   0.377   2.080 -0.2808 -0.7452 -1.0869
 8593SOL    HW237242   3.865   0.242   2.130  3.5902 -0.9284 -0.4186
 8594SOL     OW37243   3.444   3.293   6.144  0.6490  0.2410 -0.1883
 8594SOL    HW137244   3.528   3.257   6.115  0.4995  0.5148 -0.9611
 8594SOL    HW237245   3.398   3.212   6.165  0.4030  0.0592 -1.4178
 8595SOL     OW37246   3.141   2.500   7.967 -0.3244 -0.3371 -0.1201
 8595SOL    HW137247   3.113   2.499   8.059 -0.0564 -2.1683 -0.0579
 8595SOL    HW237248   3.128   2.409   7.941 -1.4029 -0.1436 -0.2417
 8596SOL     OW37249   1.997   2.039   5.449 -0.1125  0.0104 -0.8174
 8596SOL    HW137250   1.991   2.131   5.425 -1.8743  0.6629  2.1491
 8596SOL    HW237251   2.091   2.018   5.446 -0.3215 -1.0513  0.0303
 8597SOL     OW37252   0.021   4.173   1.164  0.8117  0.1396  0.2147
 8597SOL    HW137253   0.062   4.185   1.078  0.8921 -3.1004 -0.1880
 8597SOL    HW237254   0.089   4.206   1.224 -0.9068  0.5465  1.9167
 8598SOL     OW37255   1.110   4.669   0.804  0.3383  0.5908 -0.2939
 8598SOL    HW137256   1.115   4.661   0.709  0.4557 -2.4231 -0.0301
 8598SOL    HW237257   1.100   4.579   0.835  1.6273  0.2641 -0.8325
 8599SOL     OW37258   0.102   3.710   8.782  0.0362 -0.5540 -0.5575
 8599SOL    HW137259   0.171   3.775   8.777 -0.1388 -0.2784  0.4916
 8599SOL    HW237260   0.026   3.767   8.770 -0.0533 -0.9877 -2.0588
 8600SOL     OW37261   3.126   3.521   0.926 -0.1681  0.0582  0.4401
 8600SOL    HW137262   3.159   3.592   0.981  0.8404  0.5756 -0.8172
 8600SOL    HW237263   3.170   3.534   0.842 -0.7294 -1.1864 -0.0494
 8601SOL     OW37264   0.349   0.913   6.196  0.3216 -0.7318 -0.4855
 8601SOL    HW137265   0.294   0.954   6.130  0.2782 -1.2476 -0.7707
 8601SOL    HW237266   0.333   0.964   6.275 -1.7559 -0.8866 -0.8051
 8602SOL     OW37267   2.163   2.495  11.468 -0.2613 -0.2783  0.4282
 8602SOL    HW137268   2.081   2.545  11.472 -0.3596 -0.4796  0.9192
 8602SOL    HW237269   2.211   2.534  11.395 -0.5463  1.6371  1.2674
 8603SOL     OW37270   2.584   0.433  16.876 -0.0449  0.0186  0.2598
 8603SOL    HW137271   2.566   0.471  16.790  1.6956  0.4870  0.1067
 8603SOL    HW237272   2.678   0.448  16.885 -0.2742  1.5082  0.1068
 8604SOL     OW37273   1.097   1.087   5.779  0.0115  0.0307 -0.2089
 8604SOL    HW137274   1.150   1.022   5.734 -0.0567 -1.9119  2.5573
 8604SOL    HW237275   1.153   1.164   5.769 -1.1035  0.7747 -0.7757
 8605SOL     OW37276   0.484   0.276   3.256  0.0945  0.5465  0.0668
 8605SOL    HW137277   0.415   0.343   3.257  0.0463  0.4776  2.0656
 8605SOL    HW237278   0.551   0.324   3.305  0.0527  0.9780 -0.2913
 8606SOL     OW37279   4.215   0.350   1.702 -0.1767 -0.1975 -0.6308
 8606SOL    HW137280   4.144   0.303   1.658 -0.6565  0.3839 -0.4786
 8606SOL    HW237281   4.219   0.303   1.786 -2.6054  0.3548 -0.1926
 8607SOL     OW37282   4.150   2.399   2.806 -0.2463 -0.0095 -0.0707
 8607SOL    HW137283   4.181   2.459   2.738  0.0052 -0.1578 -0.0866
 8607SOL    HW237284   4.064   2.433   2.832 -0.1264  0.0682  0.2195
 8608SOL     OW37285   1.023   0.816   4.444  0.0563  0.2514 -0.2189
 8608SOL    HW137286   0.935   0.791   4.472 -0.3790  0.1365 -1.6981
 8608SOL    HW237287   1.036   0.901   4.487 -2.4945  0.0870  0.9015
 8609SOL     OW37288   0.242   0.675   0.128  0.3369 -0.3757  0.1620
 8609SOL    HW137289   0.248   0.595   0.179  1.4747 -0.5240 -0.2028
 8609SOL    HW237290   0.248   0.634   0.041  0.6525 -0.9484  0.4549
 8610SOL     OW37291   2.658   4.413   0.817 -0.0314  0.3524 -0.8631
 8610SOL    HW137292   2.604   4.482   0.778 -0.2640 -0.1237 -1.3841
 8610SOL    HW237293   2.702   4.446   0.896 -0.5019  0.7144 -0.7536
 8611SOL     OW37294   0.696   2.532  11.102 -0.9500  0.1893 -0.3184
 8611SOL    HW137295   0.736   2.588  11.170 -2.6734  2.3725 -1.1168
 8611SOL    HW237296   0.767   2.510  11.042  0.8294  0.3307  1.7373
 8612SOL     OW37297   3.787   3.464   8.685  0.2310  0.8960  0.3865
 8612SOL    HW137298   3.858   3.525   8.706 -0.0502  1.1104  0.7138
 8612SOL    HW237299   3.733   3.477   8.763 -2.1154 -1.0565 -0.9288
 8613SOL     OW37300   2.082   0.523   5.383 -0.9535  0.2538 -0.1609
 8613SOL    HW137301   2.055   0.500   5.294  1.0338  0.6152 -0.8494
 8613SOL    HW237302   2.118   0.441   5.416  0.6203  2.2942  3.1235
 8614SOL     OW37303   0.159   1.544  15.919 -0.3059  0.2667 -0.0685
 8614SOL    HW137304   0.144   1.450  15.911  0.5611  0.1893 -0.7969
 8614SOL    HW237305   0.222   1.547  15.847 -0.8143  1.2355 -0.4716
 8615SOL     OW37306   2.142   4.406   7.600  0.0403 -0.2976  0.3976
 8615SOL    HW137307   2.103   4.488   7.570  2.1340  0.1747 -1.0060
 8615SOL    HW237308   2.207   4.443   7.661 -0.4597 -1.5910  1.7031
 8616SOL     OW37309   0.930   4.708   3.226 -0.1632 -0.1207  0.5153
 8616SOL    HW137310   0.916   4.617   3.253 -0.1190 -0.5526 -0.8903
 8616SOL    HW237311   1.016   4.722   3.265 -0.2779 -1.1188  1.1133
 8617SOL     OW37312   1.520   2.983  15.535 -0.0790 -0.0009  0.2722
 8617SOL    HW137313   1.471   2.950  15.460 -2.9036  1.3511  1.5227
 8617SOL    HW237314   1.596   3.028  15.497  0.4750 -0.2641  1.0650
 8618SOL     OW37315   1.533   3.322   3.755  0.1524 -0.0402  0.1472
 8618SOL    HW137316   1.485   3.375   3.691  0.4107 -0.1642 -0.1488
 8618SOL    HW237317   1.472   3.334   3.827  0.2572 -0.8581  0.3639
 8619SOL     OW37318   4.325   4.563   6.273 -0.3106  0.3937  0.6485
 8619SOL    HW137319   4.266   4.608   6.213 -0.3277  0.5376  0.7724
 8619SOL    HW237320   4.411   4.586   6.239  0.2135 -3.2825 -0.5113
 8620SOL     OW37321   0.556   3.525   3.507  0.0392  0.5590 -0.1553
 8620SOL    HW137322   0.501   3.595   3.541  0.1740 -0.9210  3.1502
 8620SOL    HW237323   0.565   3.564   3.420 -1.8082  2.2087  0.3941
 8621SOL     OW37324   4.095   2.438   4.954  0.4231  0.0955 -0.3490
 8621SOL    HW137325   4.065   2.405   4.869 -2.8682  0.2652  0.7481
 8621SOL    HW237326   4.189   2.429   4.939  0.1885 -1.3146 -1.0159
 8622SOL     OW37327   4.324   3.660   4.647 -0.0293 -0.6244 -0.1315
 8622SOL    HW137328   4.303   3.628   4.559 -0.1829 -0.0020 -0.3212
 8622SOL    HW237329   4.278   3.744   4.645  1.1116 -0.0113 -0.6382
 8623SOL     OW37330   4.651   1.975   4.317  0.0313 -0.2997  0.5356
 8623SOL    HW137331   4.653   1.880   4.329  0.5762 -0.4064 -0.4511
 8623SOL    HW237332   4.627   2.001   4.406  2.2978 -2.0926  1.6799
 8624SOL     OW37333   1.807   1.763   7.183 -0.3492  0.6013  0.0804
 8624SOL    HW137334   1.719   1.799   7.171 -0.5292  0.0116 -0.3393
 8624SOL    HW237335   1.797   1.711   7.263  1.4006 -0.1036 -0.1641
 8625SOL     OW37336   3.021   1.471   8.977 -0.3270 -0.4300  0.7366
 8625SOL    HW137337   3.094   1.443   9.031 -0.1717 -1.0698  0.1945
 8625SOL    HW237338   3.031   1.565   8.983  1.6940 -0.4892 -1.6704
 8626SOL     OW37339   3.723   2.328  16.555 -0.1210 -0.2969 -0.4245
 8626SOL    HW137340   3.729   2.419  16.584  1.9638 -0.7970  0.7023
 8626SOL    HW237341   3.704   2.347  16.463 -2.0603  1.1243  0.2683
 8627SOL     OW37342   0.628   2.474  14.741  0.0592 -0.0258 -0.7714
 8627SOL    HW137343   0.625   2.379  14.744  1.3225 -0.0805 -1.2753
 8627SOL    HW237344   0.669   2.501  14.823  0.6762  1.0524 -1.4201
 8628SOL     OW37345   4.454   4.401   5.087 -0.0177 -0.3107 -0.3771
 8628SOL    HW137346   4.398   4.396   5.009  1.7128 -0.3817 -1.6164
 8628SOL    HW237347   4.413   4.338   5.146  2.1880 -0.4129  1.0475
 8629SOL     OW37348   3.188   0.204   2.470 -0.3929  0.3014 -0.2246
 8629SOL    HW137349   3.126   0.157   2.414 -0.9362  0.3911  0.3118
 8629SOL    HW237350   3.174   0.288   2.424 -1.2543  0.7128  0.8006
 8630SOL     OW37351   3.299   4.274   2.578  0.1102  0.8513 -0.2741
 8630SOL    HW137352   3.269   4.227   2.500  1.1294  0.5045 -0.4508
 8630SOL    HW237353   3.254   4.358   2.579 -1.2027  0.1476  0.2333
 8631SOL     OW37354   3.946   0.133   9.296 -0.2005  0.1853 -0.0077
 8631SOL    HW137355   3.889   0.177   9.233  0.2375  0.2769 -0.3393
 8631SOL    HW237356   3.885   0.110   9.367 -0.2445  1.5388  0.3825
 8632SOL     OW37357   4.043   2.352   5.863  0.1249  0.6875 -0.2828
 8632SOL    HW137358   4.069   2.369   5.953  0.1017 -2.4747  0.3139
 8632SOL    HW237359   4.035   2.438   5.822  2.2049  1.0713  0.1230
 8633SOL     OW37360   3.863   2.955   5.454 -0.3880  0.6382  0.1713
 8633SOL    HW137361   3.788   2.907   5.420 -0.8249  1.3597  0.1156
 8633SOL    HW237362   3.852   2.932   5.547 -0.7258  0.4725  0.0915
 8634SOL     OW37363   0.998   4.353   6.741 -0.8583 -0.1456  0.4409
 8634SOL    HW137364   0.960   4.359   6.829  0.3454 -1.5448  1.0669
 8634SOL    HW237365   1.047   4.435   6.738 -0.9730 -0.1229 -0.9068
 8635SOL     OW37366   0.520   3.691   4.352 -0.3573  0.4976  0.1316
 8635SOL    HW137367   0.478   3.605   4.354  0.0326  0.2647 -1.1880
 8635SOL    HW237368   0.453   3.737   4.301  0.4265 -0.0547 -1.4120
 8636SOL     OW37369   0.227   0.514   7.427  0.4085 -0.4085  0.2146
 8636SOL    HW137370   0.160   0.456   7.462  0.0101 -0.4095 -0.5308
 8636SOL    HW237371   0.183   0.573   7.365  3.2826  1.2510 -0.2663
 8637SOL     OW37372   4.635   3.468   2.211  0.1003  0.1152  0.1447
 8637SOL    HW137373   4.719   3.448   2.170 -0.0345 -3.5994  1.6284
 8637SOL    HW237374   4.657   3.537   2.273 -0.6587 -0.3895  0.9838
 8638SOL     OW37375   3.867   4.185   4.603 -0.4557  0.5943 -0.2672
 8638SOL    HW137376   3.831   4.217   4.520 -0.1105 -2.8760 -1.7791
 8638SOL    HW237377   3.814   4.105   4.612  1.1254 -0.5543 -1.1032
 8639SOL     OW37378   2.857   2.123   0.840 -0.2693  0.2577  0.1537
 8639SOL    HW137379   2.854   2.142   0.934 -0.7397 -0.1479  0.2242
 8639SOL    HW237380   2.772   2.078   0.837 -0.0282 -0.3746  2.5592
 8640SOL     OW37381   3.372   0.237   3.843 -0.4137 -0.0518  0.1180
 8640SOL    HW137382   3.328   0.164   3.887 -0.2407  0.0549  0.4634
 8640SOL    HW237383   3.462   0.229   3.874  0.1049 -4.2182 -2.4664
 8641SOL     OW37384   3.330   3.219   9.652  0.1869  0.0941  0.1943
 8641SOL    HW137385   3.283   3.204   9.734  0.0034 -0.3085  0.0137
 8641SOL    HW237386   3.419   3.188   9.670 -0.3009 -1.2950  0.1598
 8642SOL     OW37387   3.828   4.161   3.663  0.0609 -0.1253  0.0617
 8642SOL    HW137388   3.833   4.254   3.687 -1.8513 -0.7725  3.0226
 8642SOL    HW237389   3.753   4.163   3.603  0.6348 -0.5480 -0.6620
 8643SOL     OW37390   1.474   3.920   2.944  0.3929 -0.1657 -0.3155
 8643SOL    HW137391   1.523   3.838   2.948  2.0364  0.8874  1.0022
 8643SOL    HW237392   1.515   3.971   3.013  2.7385  0.0860 -1.9006
 8644SOL     OW37393   4.511   2.969   7.603 -0.3535 -0.4323 -0.0837
 8644SOL    HW137394   4.447   2.903   7.631  0.3121 -0.9289  0.2794
 8644SOL    HW237395   4.577   2.921   7.552 -1.8399 -0.9899 -1.4528
 8645SOL     OW37396   3.177   1.267   3.074 -0.0443 -0.3605  0.2714
 8645SOL    HW137397   3.247   1.268   3.009 -0.7532  1.4265 -0.4630
 8645SOL    HW237398   3.186   1.354   3.113 -1.8852  0.3453 -0.9265
 8646SOL     OW37399   1.502   4.242  17.228  0.4100 -0.2562  0.1504
 8646SOL    HW137400   1.550   4.297  17.289  1.5398 -1.2846  0.1953
 8646SOL    HW237401   1.571   4.182  17.199  0.7243 -0.1908  0.7587
 8647SOL     OW37402   4.724   1.299   5.408 -0.1804 -0.1427 -0.1348
 8647SOL    HW137403   4.709   1.336   5.495 -0.3611  0.4644 -0.4272
 8647SOL    HW237404   4.637   1.300   5.368 -1.1117 -0.0437  1.8739
 8648SOL     OW37405   2.549   4.534   1.388  0.0700 -0.2465 -0.0412
 8648SOL    HW137406   2.526   4.450   1.428 -1.1090 -0.2801 -0.7890
 8648SOL    HW237407   2.638   4.547   1.423 -1.2563  0.0600  3.2348
 8649SOL     OW37408   0.840   3.480   6.368  0.6941  0.2155  0.2780
 8649SOL    HW137409   0.835   3.576   6.365 -1.1450  0.2273  4.1618
 8649SOL    HW237410   0.809   3.447   6.284  1.4288  0.0877  0.0597
 8650SOL     OW37411   3.901   1.773   6.450  0.0861  0.2965 -0.1523
 8650SOL    HW137412   3.862   1.861   6.455 -1.2486 -0.2442 -1.4614
 8650SOL    HW237413   3.915   1.762   6.356  0.3222  0.0648 -0.0885
 8651SOL     OW37414   3.084   3.593   2.999 -0.5821 -0.8524  0.1360
 8651SOL    HW137415   3.121   3.626   3.081  1.2607 -0.2588 -0.9317
 8651SOL    HW237416   3.049   3.509   3.028 -1.1499 -1.0152 -1.0016
 8652SOL     OW37417   0.620   3.428   1.481 -0.5785  0.5751  0.4377
 8652SOL    HW137418   0.714   3.427   1.500 -0.6258 -2.7993  0.3431
 8652SOL    HW237419   0.579   3.362   1.536  0.7993 -0.1251  0.6328
 8653SOL     OW37420   0.939   2.999   1.557  0.4986 -0.2287  0.2591
 8653SOL    HW137421   0.925   3.062   1.487  3.5171 -0.3408 -0.4591
 8653SOL    HW237422   1.013   2.947   1.524 -0.9454 -0.7690 -2.1517
 8654SOL     OW37423   4.562   4.290   4.685  0.3481  0.2224 -0.1003
 8654SOL    HW137424   4.581   4.231   4.612 -0.4373 -1.1466  0.8053
 8654SOL    HW237425   4.636   4.268   4.741  0.2424 -0.5285 -0.2483
 8655SOL     OW37426   2.987   2.514  12.237 -0.3211 -0.4847 -0.5801
 8655SOL    HW137427   2.928   2.443  12.214 -1.7005  0.6044 -0.4214
 8655SOL    HW237428   2.925   2.587  12.246 -0.5516 -0.6000 -1.2465
 8656SOL     OW37429   2.045   1.499   5.677 -0.4408 -0.6801  0.5462
 8656SOL    HW137430   2.012   1.589   5.677  1.1432 -0.1078 -0.6795
 8656SOL    HW237431   2.131   1.518   5.640 -0.0127 -1.8592  0.9440
 8657SOL     OW37432   1.641   2.957   5.877 -0.1512  0.5232  0.2461
 8657SOL    HW137433   1.614   2.919   5.960  2.6639 -0.1433  0.8693
 8657SOL    HW237434   1.715   2.900   5.855  1.3398  3.2419 -1.8429
 8658SOL     OW37435   2.572   3.835   0.417 -0.2568 -0.1742  0.0843
 8658SOL    HW137436   2.577   3.770   0.487  1.4199 -0.5124 -0.3400
 8658SOL    HW237437   2.618   3.906   0.462  2.3781 -3.0191  1.8898
 8659SOL     OW37438   0.355   0.743   7.537 -0.3982  0.1777 -0.0295
 8659SOL    HW137439   0.316   0.662   7.505 -1.2213  0.4825  0.1864
 8659SOL    HW237440   0.343   0.739   7.632 -0.8347  0.3629 -0.0777
 8660SOL     OW37441   2.506   4.130   5.138 -0.1407  0.1821  0.2293
 8660SOL    HW137442   2.528   4.133   5.044 -1.4522  2.1206 -0.0254
 8660SOL    HW237443   2.522   4.038   5.155 -3.8126 -0.3449  0.7186
 8661SOL     OW37444   1.599   3.646   8.072 -0.1306  0.1628 -0.6090
 8661SOL    HW137445   1.525   3.588   8.091 -1.3133  2.5585  2.1970
 8661SOL    HW237446   1.649   3.651   8.154  0.1372  1.1384 -0.8329
 8662SOL     OW37447   4.606   4.253   9.014 -0.1542  0.0324 -0.2865
 8662SOL    HW137448   4.663   4.216   9.081  1.6486  0.4672 -1.5663
 8662SOL    HW237449   4.520   4.258   9.056 -0.2325  0.3455 -0.4794
 8663SOL     OW37450   1.976   0.076   8.136 -0.3589  0.4923  0.4062
 8663SOL    HW137451   1.936   4.721   8.104  0.7134  1.0526 -2.3998
 8663SOL    HW237452   1.907   0.093   8.199 -0.7591 -2.1904  0.7134
 8664SOL     OW37453   2.744   2.028   4.616 -0.0469  1.1438 -0.1263
 8664SOL    HW137454   2.682   2.009   4.687 -0.1185 -0.5501 -0.6486
 8664SOL    HW237455   2.785   2.107   4.652 -0.7358 -0.3076  3.9448
 8665SOL     OW37456   4.692   2.882   4.072  0.4261  0.8554  0.1417
 8665SOL    HW137457   0.050   2.870   4.029  0.2878 -0.2485  0.1746
 8665SOL    HW237458   4.641   2.822   4.018 -0.9687  3.9685 -2.0060
 8666SOL     OW37459   4.189   2.778   4.405  0.7517  0.0437 -0.2101
 8666SOL    HW137460   4.251   2.729   4.351  1.2145  1.0837 -0.6168
 8666SOL    HW237461   4.153   2.856   4.362  1.3239  0.6847  0.4793
 8667SOL     OW37462   3.215   3.273   6.512 -1.0094 -0.4457  0.3123
 8667SOL    HW137463   3.234   3.364   6.534 -1.5349 -0.4365  0.7186
 8667SOL    HW237464   3.182   3.239   6.595  0.1424 -0.7772  0.6329
 8668SOL     OW37465   3.139   2.874  15.273 -0.5958 -0.1400  0.3441
 8668SOL    HW137466   3.083   2.817  15.325 -0.8018 -0.2104  0.0439
 8668SOL    HW237467   3.226   2.835  15.277 -0.2048  0.5027 -1.9938
 8669SOL     OW37468   3.538   0.467   4.654 -0.0388 -0.4197 -0.2981
 8669SOL    HW137469   3.447   0.496   4.650 -0.9151 -2.7328  2.9772
 8669SOL    HW237470   3.532   0.392   4.713  3.1921 -0.2788  0.1822
 8670SOL     OW37471   3.807   2.864   6.489  0.2011 -0.0182 -0.0728
 8670SOL    HW137472   3.868   2.934   6.468  0.6138 -0.4725 -0.3906
 8670SOL    HW237473   3.853   2.788   6.453 -1.1565 -0.3652 -1.0838
 8671SOL     OW37474   2.320   3.738  12.196  0.1066  0.1055 -0.3678
 8671SOL    HW137475   2.242   3.685  12.211  0.4787 -0.9397 -2.1806
 8671SOL    HW237476   2.365   3.734  12.280 -0.8177  0.2510  0.1422
 8672SOL     OW37477   3.740   3.820   2.735  0.4146 -0.3269 -0.1668
 8672SOL    HW137478   3.734   3.887   2.803 -0.7762 -0.0102 -0.5875
 8672SOL    HW237479   3.651   3.791   2.716  0.1696  1.2954 -1.5626
 8673SOL     OW37480   3.066   3.087   4.019 -0.6063 -0.2393  0.2143
 8673SOL    HW137481   3.091   2.995   4.016  3.0121  0.7117  0.6065
 8673SOL    HW237482   2.976   3.081   3.989  0.1719  0.1866 -2.1774
 8674SOL     OW37483   3.847   0.157   7.525  0.1928 -0.2033 -0.5116
 8674SOL    HW137484   3.871   0.209   7.602 -1.1184 -0.0061 -0.2469
 8674SOL    HW237485   3.787   0.097   7.569  1.0734 -0.1002  0.8398
 8675SOL     OW37486   0.376   3.248   8.261  0.1733  0.1170 -0.2031
 8675SOL    HW137487   0.422   3.322   8.300 -1.6043  0.5083  1.1149
 8675SOL    HW237488   0.407   3.247   8.170  1.6646  0.6926  0.2966
 8676SOL     OW37489   2.640   0.318  17.559 -1.1038  0.1326  0.4274
 8676SOL    HW137490   2.656   0.260  17.634 -1.5678  0.6833  0.9522
 8676SOL    HW237491   2.584   0.382  17.603 -0.1422 -0.0336  1.9311
 8677SOL     OW37492   1.679   1.974  17.593  0.4622  0.3302 -0.2586
 8677SOL    HW137493   1.697   1.947  17.503  0.5721 -1.3827  0.2772
 8677SOL    HW237494   1.598   2.023  17.575  0.5749 -0.2320 -2.3167
 8678SOL     OW37495   1.240   3.954  12.635  0.1755 -0.3413  0.0893
 8678SOL    HW137496   1.168   3.900  12.603 -1.7959  1.0819  2.0922
 8678SOL    HW237497   1.302   3.885  12.612 -2.0720 -2.0371 -0.9105
 8679SOL     OW37498   4.413   1.762   1.876  0.3379 -0.0282  0.0145
 8679SOL    HW137499   4.358   1.722   1.808 -1.6135 -0.6442  1.9599
 8679SOL    HW237500   4.470   1.821   1.827  0.5785  0.4776  0.9190
 8680SOL     OW37501   3.784   0.109   1.069 -0.1568  0.1350 -0.1265
 8680SOL    HW137502   3.853   0.131   1.132  0.3204 -2.1816  0.1838
 8680SOL    HW237503   3.761   0.018   1.086  1.3736 -0.0556  1.0223
 8681SOL     OW37504   4.055   0.536   6.915  0.0932 -0.3028  0.0134
 8681SOL    HW137505   4.139   0.500   6.945 -1.2345 -0.0254  4.1391
 8681SOL    HW237506   4.068   0.628   6.936 -0.8370 -0.4267  1.1415
 8682SOL     OW37507   4.521   0.239   3.770 -0.2089 -0.2541 -0.1939
 8682SOL    HW137508   4.608   0.276   3.789 -0.5980 -0.0064  1.1230
 8682SOL    HW237509   4.493   0.204   3.854 -0.0031 -0.9089 -0.4024
 8683SOL     OW37510   3.616   3.013   9.044  0.1954 -0.5333 -0.8592
 8683SOL    HW137511   3.681   3.037   8.978 -0.2034 -0.3811 -1.1961
 8683SOL    HW237512   3.574   3.099   9.054  1.7277 -0.0079  1.2620
 8684SOL     OW37513   1.713   4.451   5.725 -0.4957 -0.1828  0.2052
 8684SOL    HW137514   1.641   4.463   5.787 -0.3169 -2.2033  0.8096
 8684SOL    HW237515   1.786   4.447   5.788  3.4145 -1.0072 -4.4327
 8685SOL     OW37516   0.162   2.688   5.213  0.2639  0.6849  0.3462
 8685SOL    HW137517   0.246   2.643   5.218 -0.1303 -0.1182 -0.4382
 8685SOL    HW237518   0.106   2.617   5.182  1.0717  0.8644 -1.5088
 8686SOL     OW37519   3.151   2.060   6.644 -0.0099  0.1404 -0.4109
 8686SOL    HW137520   3.158   2.144   6.690 -1.4809 -0.0734  0.2069
 8686SOL    HW237521   3.202   2.000   6.698  1.1848  1.2896 -0.2574
 8687SOL     OW37522   4.012   4.246   8.257 -0.2058  0.1478  0.0343
 8687SOL    HW137523   4.012   4.321   8.317 -1.6613  1.0467 -1.0809
 8687SOL    HW237524   3.982   4.175   8.314  0.2708 -2.2304 -2.6835
 8688SOL     OW37525   1.392   3.741   0.931  0.1685  0.2094 -0.0256
 8688SOL    HW137526   1.476   3.708   0.964 -0.0954 -1.5718 -1.1265
 8688SOL    HW237527   1.336   3.764   1.005 -1.5018 -1.1404 -0.8672
 8689SOL     OW37528   0.159   2.907   8.401 -0.3036  0.2358  0.5722
 8689SOL    HW137529   0.214   2.830   8.392 -2.5712 -1.3225 -0.0305
 8689SOL    HW237530   0.231   2.964   8.428  1.0372 -1.0232 -0.3416
 8690SOL     OW37531   1.449   2.877   1.888 -0.3905  0.0127 -0.5602
 8690SOL    HW137532   1.406   2.932   1.823 -0.9365 -3.0580 -2.8078
 8690SOL    HW237533   1.487   2.812   1.829 -3.0155 -0.9723 -1.1969
 8691SOL     OW37534   1.360   3.482  12.309 -0.8346  0.0767  0.0534
 8691SOL    HW137535   1.274   3.499  12.348 -0.8955 -2.0408  0.8650
 8691SOL    HW237536   1.341   3.418  12.240 -0.6359 -0.6465  0.6719
 8692SOL     OW37537   1.925   2.832  17.263 -0.0979  0.0103  0.1476
 8692SOL    HW137538   1.838   2.797  17.247  0.2836 -0.4837 -0.8225
 8692SOL    HW237539   1.972   2.749  17.268 -0.3801 -0.1777 -0.3349
 8693SOL     OW37540   3.511   4.695   9.831 -0.4061  0.3301  0.2020
 8693SOL    HW137541   3.450   4.725   9.899 -0.1643 -0.4454  0.7544
 8693SOL    HW237542   3.579   0.036   9.836  0.0945 -0.2021  0.5015
 8694SOL     OW37543   0.541   1.781   4.940  0.4292 -0.3842 -0.7802
 8694SOL    HW137544   0.587   1.860   4.910 -0.6130  0.7655  0.6080
 8694SOL    HW237545   0.487   1.814   5.013  0.4515  0.6263 -1.2139
 8695SOL     OW37546   4.244   1.769  14.587 -0.1398 -0.4066 -0.6432
 8695SOL    HW137547   4.201   1.684  14.574  3.9871 -2.6155  0.2070
 8695SOL    HW237548   4.203   1.817  14.515 -3.2139 -1.7335  0.2392
 8696SOL     OW37549   0.657   1.588   8.081  0.3414 -0.3617 -0.1419
 8696SOL    HW137550   0.704   1.591   8.165  1.7701 -0.1774 -0.9393
 8696SOL    HW237551   0.575   1.554   8.116 -0.7747  1.7549 -0.7660
 8697SOL     OW37552   2.084   3.583  14.920  0.4225 -0.2528  0.3896
 8697SOL    HW137553   2.134   3.541  14.990  0.5980  1.0946  1.0644
 8697SOL    HW237554   2.001   3.592  14.966 -0.4148  4.2544 -2.0573
 8698SOL     OW37555   0.578   0.066  14.412 -0.1361 -0.3787  0.3886
 8698SOL    HW137556   0.615   0.106  14.490 -1.0728  0.6754  0.2893
 8698SOL    HW237557   0.527   0.136  14.372  1.7346 -0.9063 -2.8679
 8699SOL     OW37558   3.730   1.827  11.038 -1.1176  0.0714 -0.6751
 8699SOL    HW137559   3.792   1.871  11.095  2.5439 -2.0296 -3.0051
 8699SOL    HW237560   3.666   1.801  11.105 -2.0120  3.1864 -0.3492
 8700SOL     OW37561   3.636   0.278   2.776 -0.0084  0.1930  0.3563
 8700SOL    HW137562   3.729   0.298   2.790  0.3627  0.3072 -2.2079
 8700SOL    HW237563   3.603   0.368   2.779  0.6946  0.4364  0.7847
 8701SOL     OW37564   1.337   4.381   3.351  0.1483 -0.0729  0.3322
 8701SOL    HW137565   1.383   4.406   3.270  1.3664  0.0562  1.0741
 8701SOL    HW237566   1.287   4.306   3.319  1.7964 -0.8329 -0.4409
 8702SOL     OW37567   3.494   1.130   8.378 -0.0486  0.1592  0.3476
 8702SOL    HW137568   3.485   1.036   8.366 -0.7670  0.0540  1.7330
 8702SOL    HW237569   3.541   1.118   8.460  0.0433  0.3951  0.3309
 8703SOL     OW37570   1.758   1.450   6.053  0.1306  0.3192 -0.8866
 8703SOL    HW137571   1.775   1.451   5.959  0.6938 -0.1159 -0.7904
 8703SOL    HW237572   1.835   1.401   6.080 -1.4585 -1.1279  0.9932
 8704SOL     OW37573   4.496   2.812   8.567 -0.0364 -0.5135 -0.4170
 8704SOL    HW137574   4.588   2.788   8.573  0.1608  0.1571 -0.6547
 8704SOL    HW237575   4.489   2.848   8.655  0.3234 -1.4298 -0.0129
 8705SOL     OW37576   1.952   4.162   6.441  0.1465  0.2664 -0.3099
 8705SOL    HW137577   2.029   4.199   6.483  0.0831  0.9864 -0.8140
 8705SOL    HW237578   1.879   4.211   6.480 -1.7922 -2.7351 -0.1484
 8706SOL     OW37579   0.538   3.023  11.783  0.4281 -0.7554  0.0897
 8706SOL    HW137580   0.626   3.040  11.818  1.4325 -1.9780 -1.8623
 8706SOL    HW237581   0.485   3.020  11.863 -0.2684 -1.8451 -0.4063
 8707SOL     OW37582   0.448   0.348   4.543  0.1903 -0.6178 -0.4761
 8707SOL    HW137583   0.377   0.404   4.576  0.4746 -1.2417  1.1629
 8707SOL    HW237584   0.481   0.316   4.627 -0.0317 -1.2817 -0.6437
 8708SOL     OW37585   3.656   4.055  12.536 -0.0598  0.4732  0.2030
 8708SOL    HW137586   3.603   4.079  12.612  1.3998  0.7829  1.1164
 8708SOL    HW237587   3.709   3.979  12.558 -2.2218 -0.9772  0.3869
 8709SOL     OW37588   1.803   1.787  15.349  0.3708 -0.5419 -0.2665
 8709SOL    HW137589   1.736   1.826  15.405  0.2148 -2.6413  1.0159
 8709SOL    HW237590   1.881   1.821  15.393  0.0759  1.6253 -1.4493
 8710SOL     OW37591   3.245   3.327   4.524 -0.1947 -0.1801 -0.8142
 8710SOL    HW137592   3.235   3.416   4.490 -0.0991  1.0323  2.3538
 8710SOL    HW237593   3.156   3.306   4.552 -0.8134  0.0237 -2.6245
 8711SOL     OW37594   3.980   1.294  16.577 -0.3667  0.2053  0.3307
 8711SOL    HW137595   3.909   1.317  16.518 -0.3765 -1.5554 -0.3421
 8711SOL    HW237596   3.973   1.364  16.642 -1.4668  1.5145 -1.2097
 8712SOL     OW37597   1.584   1.753  14.761  0.4169  0.5281  0.2722
 8712SOL    HW137598   1.609   1.674  14.809 -0.0720 -0.0964 -0.4894
 8712SOL    HW237599   1.667   1.799  14.757  0.1376  1.0405  0.3941
 8713SOL     OW37600   1.142   2.328   1.502  0.6837  0.3495 -0.2944
 8713SOL    HW137601   1.102   2.241   1.510 -2.0251  1.9189  3.2826
 8713SOL    HW237602   1.176   2.317   1.413  1.1589  1.0460 -0.1973
 8714SOL     OW37603   1.403   2.044   7.906 -0.6507 -0.4632  0.1736
 8714SOL    HW137604   1.430   2.011   7.820 -0.7201 -0.8437  0.2991
 8714SOL    HW237605   1.326   1.990   7.923 -1.1896  1.0852  2.6667
 8715SOL     OW37606   0.337   0.465   5.361  0.4406  0.1945  0.0566
 8715SOL    HW137607   0.348   0.500   5.273  0.7589  0.2418  0.1147
 8715SOL    HW237608   0.416   0.509   5.392  1.7468 -1.0404 -1.5467
 8716SOL     OW37609   3.665   0.339  11.303  0.0458 -0.1663  0.4410
 8716SOL    HW137610   3.570   0.337  11.291  0.0132  1.4522  0.3985
 8716SOL    HW237611   3.691   0.296  11.222  3.2520  0.2385  1.2302
 8717SOL     OW37612   3.135   3.448   4.962 -0.3216  0.2750 -0.5142
 8717SOL    HW137613   3.171   3.387   4.898  0.0237 -0.9681  0.8530
 8717SOL    HW237614   3.185   3.435   5.043 -1.5499  2.4022  0.5880
 8718SOL     OW37615   1.062   4.627  13.893 -0.5115 -0.1513 -0.2522
 8718SOL    HW137616   1.027   4.626  13.982  2.1351 -0.8469  0.7672
 8718SOL    HW237617   1.023   4.544  13.866 -1.8542  0.0463  1.0347
 8719SOL     OW37618   0.998   1.542   0.585  0.2769  0.0750  0.4006
 8719SOL    HW137619   0.912   1.525   0.622  0.7407 -0.0063  1.4368
 8719SOL    HW237620   0.991   1.505   0.497  0.2410 -3.6888  1.9969
 8720SOL     OW37621   0.450   0.924   4.419  0.8285 -0.0103 -0.2699
 8720SOL    HW137622   0.477   0.832   4.415  0.0839 -0.2401 -0.0417
 8720SOL    HW237623   0.391   0.934   4.345  1.5535 -2.2248 -1.1427
 8721SOL     OW37624   1.527   2.719   1.678 -0.4606  0.5345  0.0169
 8721SOL    HW137625   1.585   2.761   1.614 -0.2274  1.2410  0.6915
 8721SOL    HW237626   1.580   2.651   1.718  1.7152  1.1018 -1.8883
 8722SOL     OW37627   1.652   3.030   0.365  0.0305  0.4287 -0.3605
 8722SOL    HW137628   1.698   3.062   0.288 -0.1411  1.7602  0.0955
 8722SOL    HW237629   1.694   3.081   0.434 -1.5119  0.0079  0.9051
 8723SOL     OW37630   2.194   3.904   9.074  0.4518  0.1068  0.2663
 8723SOL    HW137631   2.284   3.935   9.083  0.2273  0.8808 -0.1688
 8723SOL    HW237632   2.207   3.810   9.057 -0.0819 -0.7727  4.7582
 8724SOL     OW37633   0.505   1.317   5.639  0.0637 -0.1173  0.0816
 8724SOL    HW137634   0.488   1.243   5.697  0.5167  0.3131  0.7723
 8724SOL    HW237635   0.571   1.274   5.586  0.0446  0.0140 -0.0500
 8725SOL     OW37636   0.252   1.203   4.963  0.0100 -0.2318  0.0674
 8725SOL    HW137637   0.288   1.213   4.875 -1.6568  0.1018 -0.5905
 8725SOL    HW237638   0.324   1.219   5.023  0.7247  1.1691 -1.1602
 8726SOL     OW37639   3.566   1.268   0.122 -0.3842  0.4382 -0.8594
 8726SOL    HW137640   3.493   1.320   0.155  1.3873  1.8151  0.8859
 8726SOL    HW237641   3.640   1.308   0.167 -1.4037  1.9912 -0.5558
 8727SOL     OW37642   0.396   1.822   8.056  0.5647 -0.2866 -0.1793
 8727SOL    HW137643   0.341   1.784   8.125 -0.2072  0.6367 -0.2994
 8727SOL    HW237644   0.375   1.760   7.986  2.3740  2.1286 -2.8414
 8728SOL     OW37645   0.228   1.232  10.645  0.9001 -0.2491  0.1086
 8728SOL    HW137646   0.278   1.262  10.721  1.6781  0.1278 -0.5500
 8728SOL    HW237647   0.178   1.311  10.623 -0.9017 -1.5073 -0.3424
 8729SOL     OW37648   2.416   3.377   1.626 -0.3737 -0.2406  0.1435
 8729SOL    HW137649   2.497   3.366   1.677  1.7838  1.3363 -2.9411
 8729SOL    HW237650   2.425   3.290   1.586  2.0248  1.1445 -2.3776
 8730SOL     OW37651   0.968   0.372  11.184  0.6344  0.3416 -0.0750
 8730SOL    HW137652   0.919   0.454  11.191 -0.7358 -0.5070  0.3653
 8730SOL    HW237653   1.008   0.393  11.100  0.2639 -1.1628 -0.6353
 8731SOL     OW37654   4.128   1.205   5.966 -0.1795 -0.1926 -0.0079
 8731SOL    HW137655   4.133   1.240   6.054 -0.5167 -3.8981  1.4823
 8731SOL    HW237656   4.113   1.112   5.979 -0.9442 -0.0532  0.0636
 8732SOL     OW37657   2.540   3.561  17.532 -0.2250  0.0730 -0.1552
 8732SOL    HW137658   2.507   3.649  17.550 -0.8425 -0.6629  2.2585
 8732SOL    HW237659   2.465   3.510  17.562 -0.8435  1.9651  1.5385
 8733SOL     OW37660   4.672   0.032  14.432 -0.2303  0.0756  0.4107
 8733SOL    HW137661   0.027   0.059  14.389  1.2665  1.3038  4.0570
 8733SOL    HW237662   4.619   0.107  14.409 -1.1186 -0.0918  1.9354
 8734SOL     OW37663   1.523   1.177   9.091  0.4071 -0.0674  0.3749
 8734SOL    HW137664   1.461   1.128   9.145  1.9296 -0.8480  1.4320
 8734SOL    HW237665   1.485   1.264   9.077  1.1059  0.2771  0.5984
 8735SOL     OW37666   0.689   4.679   0.357 -0.0681 -0.0121 -0.2889
 8735SOL    HW137667   0.744   4.694   0.280  0.3565 -0.6475 -0.1135
 8735SOL    HW237668   0.617   4.634   0.313 -0.2922 -0.7746  0.8378
 8736SOL     OW37669   1.105   1.592   6.655  0.7270 -0.2226 -0.5483
 8736SOL    HW137670   1.155   1.563   6.731 -1.0483 -0.5234  0.5017
 8736SOL    HW237671   1.164   1.567   6.583  1.6086 -0.9409  0.4328
 8737SOL     OW37672   0.858   3.969   4.754 -0.1438 -0.1720 -0.0623
 8737SOL    HW137673   0.914   3.925   4.818 -1.2179 -0.3735  0.7455
 8737SOL    HW237674   0.833   4.056   4.786 -1.6433 -0.7922  0.4799
 8738SOL     OW37675   4.664   1.079   2.490 -0.6220  0.5811 -0.3282
 8738SOL    HW137676   0.013   1.136   2.479  0.6769 -0.8577  1.0443
 8738SOL    HW237677   4.694   0.989   2.478 -1.7166  0.0046  1.2147
 8739SOL     OW37678   2.219   2.327  10.347 -0.2560  0.0929  0.5267
 8739SOL    HW137679   2.284   2.274  10.301  0.2176  2.7102 -1.8488
 8739SOL    HW237680   2.185   2.373  10.270  1.5942 -0.9232 -0.9089
 8740SOL     OW37681   2.874   3.613   0.614 -0.3475  0.0386  0.2598
 8740SOL    HW137682   2.882   3.667   0.536  1.7458  0.6906  0.9223
 8740SOL    HW237683   2.887   3.530   0.569  2.8061  0.1807  0.8892
 8741SOL     OW37684   1.251   1.322   5.729 -0.4646  0.1389 -0.2162
 8741SOL    HW137685   1.208   1.375   5.796  0.9702 -0.9582  1.5432
 8741SOL    HW237686   1.204   1.356   5.652  0.4678 -0.6195 -1.1197
 8742SOL     OW37687   0.729   2.924  10.193  0.0993 -0.6075  1.0825
 8742SOL    HW137688   0.647   2.973  10.192 -0.1348 -0.9973  1.2160
 8742SOL    HW237689   0.742   2.883  10.107  0.5255  0.5749  0.5831
 8743SOL     OW37690   1.930   4.479   3.818  0.6107  0.1559 -0.7198
 8743SOL    HW137691   2.009   4.455   3.769 -0.0534 -1.4720 -0.9747
 8743SOL    HW237692   1.903   4.550   3.759 -0.0270  0.8367  0.3914
 8744SOL     OW37693   4.220   1.309   1.341 -0.0148  0.3286  0.6929
 8744SOL    HW137694   4.175   1.392   1.323  0.5188  0.8296  1.7050
 8744SOL    HW237695   4.198   1.287   1.431  0.9174 -0.3663  0.7480
 8745SOL     OW37696   2.987   3.769   0.380 -0.2923 -0.1082 -0.2041
 8745SOL    HW137697   2.985   3.715   0.301 -0.7767  0.1128 -0.3468
 8745SOL    HW237698   2.908   3.823   0.376  2.2840  3.6368 -0.9580
 8746SOL     OW37699   0.929   2.177   4.183 -0.0283  0.2310  0.0575
 8746SOL    HW137700   0.919   2.127   4.102 -0.8562  0.6231 -0.0804
 8746SOL    HW237701   0.992   2.243   4.154  0.2407  0.3595  0.9300
 8747SOL     OW37702   1.600   1.554  10.068  0.0106 -0.7653  0.0871
 8747SOL    HW137703   1.615   1.538   9.975 -0.9917 -1.0979 -0.0253
 8747SOL    HW237704   1.637   1.641  10.082 -1.9202  0.1993 -0.8515
 8748SOL     OW37705   3.042   0.513   3.266  0.1997  0.3336  0.2382
 8748SOL    HW137706   2.952   0.531   3.238 -0.3046  0.4605  1.9147
 8748SOL    HW237707   3.082   0.599   3.272 -0.8406  0.9041 -1.0960
 8749SOL     OW37708   1.287   2.711  13.747 -0.0159  0.3348 -0.0961
 8749SOL    HW137709   1.251   2.632  13.706  0.4229  0.5215 -0.8392
 8749SOL    HW237710   1.341   2.660  13.808  1.4454  3.6208  1.3472
 8750SOL     OW37711   1.678   3.103   3.737 -0.0602 -0.4857  0.1097
 8750SOL    HW137712   1.624   3.045   3.683  0.1340 -0.2116 -0.3769
 8750SOL    HW237713   1.625   3.181   3.752 -0.0459 -0.1367 -1.7063
 8751SOL     OW37714   0.913   3.778   3.370 -0.3590 -0.3354 -0.3878
 8751SOL    HW137715   0.928   3.696   3.417 -1.4410 -0.0941  0.3638
 8751SOL    HW237716   0.818   3.789   3.378 -0.1234 -0.1759  2.0737
 8752SOL     OW37717   2.225   1.460   6.587  0.2043  0.1112  0.5800
 8752SOL    HW137718   2.289   1.498   6.647  0.7059  1.8801 -1.0593
 8752SOL    HW237719   2.236   1.365   6.597  3.3072  0.4207  0.1136
 8753SOL     OW37720   2.727   1.619   3.165 -0.1323  0.8255  0.0847
 8753SOL    HW137721   2.686   1.705   3.176 -2.2064 -0.1381 -0.3287
 8753SOL    HW237722   2.723   1.580   3.252  0.4801 -0.9036 -0.6492
 8754SOL     OW37723   0.776   1.452   5.856  0.1378 -0.0993 -0.2957
 8754SOL    HW137724   0.684   1.438   5.832 -0.6928  4.0398  0.4199
 8754SOL    HW237725   0.803   1.506   5.782 -2.0599  1.7885  0.2666
 8755SOL     OW37726   1.480   1.688   3.362 -0.6855 -0.0780 -0.2090
 8755SOL    HW137727   1.415   1.693   3.292  0.6749  0.4968 -1.4344
 8755SOL    HW237728   1.523   1.607   3.334  0.6961  0.3051  0.7899
 8756SOL     OW37729   0.214   4.002   3.114  0.2448 -0.2702 -0.3905
 8756SOL    HW137730   0.145   4.015   3.048 -0.4962  0.8007  0.6064
 8756SOL    HW237731   0.227   4.093   3.143  3.0128 -0.0587 -2.2712
 8757SOL     OW37732   3.984   0.882   3.079  0.7222 -0.0460 -0.3476
 8757SOL    HW137733   3.935   0.860   3.000  0.0881  0.6168 -0.1465
 8757SOL    HW237734   3.980   0.800   3.127  3.2556 -0.2272 -0.4393
 8758SOL     OW37735   4.006   0.534   4.704  0.1109 -0.0936 -0.2550
 8758SOL    HW137736   3.919   0.567   4.723  0.7541  1.9733 -0.9184
 8758SOL    HW237737   4.058   0.615   4.706 -0.8194  0.5264 -2.1735
 8759SOL     OW37738   3.630   1.765   5.327 -0.0848  0.4165  0.2027
 8759SOL    HW137739   3.607   1.688   5.379  1.2563 -0.1975 -0.1133
 8759SOL    HW237740   3.649   1.724   5.243 -2.0105 -0.0653 -0.0133
 8760SOL     OW37741   2.404   1.023   8.059 -0.3595  0.0041 -0.0691
 8760SOL    HW137742   2.450   1.097   8.099  1.4033  0.7571 -3.4405
 8760SOL    HW237743   2.315   1.057   8.051 -0.7299 -1.0239 -0.2892
 8761SOL     OW37744   4.705   2.811  13.160 -0.0548 -0.8102  0.0804
 8761SOL    HW137745   0.018   2.768  13.236 -1.8818 -2.0621  0.3091
 8761SOL    HW237746   0.002   2.753  13.087  1.1797 -1.6890  1.1696
 8762SOL     OW37747   2.845   0.327  13.377 -0.5006 -0.4625  0.2850
 8762SOL    HW137748   2.829   0.416  13.347 -2.2853  0.2493  3.3855
 8762SOL    HW237749   2.921   0.330  13.435  1.2551  1.5732 -2.1505
 8763SOL     OW37750   2.921   1.349  11.726 -0.3579  0.0200 -0.0199
 8763SOL    HW137751   2.889   1.288  11.659  1.4338 -0.2747 -0.5962
 8763SOL    HW237752   2.990   1.398  11.683 -0.2111  2.3181  2.8539
 8764SOL     OW37753   1.522   1.102   2.650  0.5266  0.5598  0.3885
 8764SOL    HW137754   1.618   1.094   2.644  0.4781  0.4003 -0.2198
 8764SOL    HW237755   1.497   1.113   2.558  3.5441 -1.8699 -0.7491
 8765SOL     OW37756   3.553   2.718  17.562  0.2478  0.3046 -0.2749
 8765SOL    HW137757   3.503   2.745  17.639  0.5770  0.2842 -0.0506
 8765SOL    HW237758   3.576   2.802  17.522  0.0366 -0.5708 -2.2082
 8766SOL     OW37759   4.038   1.621   5.204  0.2708 -0.1748  0.3075
 8766SOL    HW137760   4.046   1.545   5.145  1.4625 -0.5263  0.9313
 8766SOL    HW237761   3.980   1.584   5.270 -0.9987 -2.2645 -1.9726
 8767SOL     OW37762   3.112   4.139  10.716  0.2019 -0.0155 -0.0954
 8767SOL    HW137763   3.187   4.184  10.677  0.3150 -0.5551 -0.5054
 8767SOL    HW237764   3.107   4.174  10.805  1.4024  1.6267 -0.6624
 8768SOL     OW37765   1.111   4.006   8.684  0.0663  0.2512  0.2934
 8768SOL    HW137766   1.015   4.015   8.688 -0.2285 -2.0268 -1.3442
 8768SOL    HW237767   1.118   3.913   8.663  1.8852  0.3987  0.3010
 8769SOL     OW37768   1.988   4.327   2.576  0.3929  0.2359 -0.3523
 8769SOL    HW137769   1.987   4.237   2.608 -0.6121  0.9289  1.5594
 8769SOL    HW237770   1.903   4.365   2.597 -0.3040 -2.0865  1.0312
 8770SOL     OW37771   1.695   3.741   8.351  0.3366 -0.4094 -0.0417
 8770SOL    HW137772   1.787   3.762   8.367 -0.3447  1.0669  1.9757
 8770SOL    HW237773   1.694   3.646   8.358 -1.3981 -0.5413 -1.9580
 8771SOL     OW37774   3.515   1.763   8.302  0.0787 -0.2606  0.2245
 8771SOL    HW137775   3.564   1.842   8.323  0.9891  0.0152 -2.9204
 8771SOL    HW237776   3.565   1.731   8.226 -0.8796 -0.6670 -0.2392
 8772SOL     OW37777   1.720   1.645  16.603 -0.0803 -0.3148  0.7830
 8772SOL    HW137778   1.668   1.723  16.580  2.8160  1.4987  0.3732
 8772SOL    HW237779   1.753   1.616  16.518 -2.9303  1.0696 -0.7839
 8773SOL     OW37780   0.836   4.189   7.231 -0.1020  0.1192 -0.0067
 8773SOL    HW137781   0.925   4.166   7.258 -0.3330  0.4602  1.0469
 8773SOL    HW237782   0.790   4.107   7.248  1.1599 -0.2964  1.4665
 8774SOL     OW37783   1.418   2.928   0.288  0.1998 -0.2653  0.2359
 8774SOL    HW137784   1.443   2.835   0.293  2.9032  0.5519  1.8945
 8774SOL    HW237785   1.494   2.975   0.322  0.8138 -0.1285 -1.3387
 8775SOL     OW37786   0.417   0.358   7.325  0.2778  0.4096 -0.0701
 8775SOL    HW137787   0.364   0.297   7.273  0.8537 -0.1756  0.0283
 8775SOL    HW237788   0.354   0.423   7.356  0.6389  0.8603 -0.2649
 8776SOL     OW37789   0.696   1.672  10.050 -0.2789 -0.5884  0.5175
 8776SOL    HW137790   0.668   1.761  10.030 -1.8873 -1.3625 -0.6670
 8776SOL    HW237791   0.623   1.642  10.103 -1.7446 -1.3502 -1.9252
 8777SOL     OW37792   3.645   1.001   5.392  0.0120  0.1343 -0.5834
 8777SOL    HW137793   3.666   1.003   5.486 -1.0031  0.5098 -0.3625
 8777SOL    HW237794   3.550   1.009   5.391  0.0368  0.1252 -2.9669
 8778SOL     OW37795   3.780   1.182   4.828  0.4472  0.4404 -0.0332
 8778SOL    HW137796   3.721   1.112   4.799  0.0694  0.3895  0.8795
 8778SOL    HW237797   3.769   1.240   4.753 -2.8571  0.1902  0.2591
 8779SOL     OW37798   4.059   4.510   4.700 -0.8141  0.8896 -0.0837
 8779SOL    HW137799   4.090   4.420   4.696 -0.4207  1.0490 -0.5988
 8779SOL    HW237800   3.964   4.499   4.689 -0.6923 -0.9284  0.6096
 8780SOL     OW37801   3.962   0.282   6.994 -0.0227 -0.2818 -0.1683
 8780SOL    HW137802   3.978   0.311   7.083 -2.2924  2.0615 -0.5512
 8780SOL    HW237803   3.973   0.362   6.943  0.2548 -0.1446  0.1054
 8781SOL     OW37804   1.364   0.884  13.636  0.2039  0.2483  0.5909
 8781SOL    HW137805   1.355   0.885  13.731  0.0665 -0.0071  0.5829
 8781SOL    HW237806   1.285   0.935  13.622 -0.3607 -0.8302 -0.1578
 8782SOL     OW37807   0.299   3.669   2.121  0.2082 -0.0120  0.0015
 8782SOL    HW137808   0.281   3.752   2.164  0.4777 -0.8897  1.7842
 8782SOL    HW237809   0.275   3.683   2.029 -1.7599  1.5276  0.7504
 8783SOL     OW37810   2.225   4.667   4.168 -0.0896 -1.0074 -0.2994
 8783SOL    HW137811   2.200   0.033   4.177  0.2432 -0.8702 -0.7672
 8783SOL    HW237812   2.189   4.653   4.080 -0.9968  0.0709 -0.1093
 8784SOL     OW37813   3.915   1.693  10.524 -0.2330 -0.5015 -0.2043
 8784SOL    HW137814   3.968   1.712  10.601  0.1555 -0.7835 -0.4013
 8784SOL    HW237815   3.953   1.606  10.511 -2.0887 -1.4277  0.4169
 8785SOL     OW37816   3.872   0.434  14.616 -0.0961  0.0638 -0.2949
 8785SOL    HW137817   3.890   0.371  14.686 -1.4296 -0.7235 -0.6660
 8785SOL    HW237818   3.780   0.409  14.608 -0.3667  0.7362  0.6731
 8786SOL     OW37819   1.658   3.254   6.805 -0.7006 -0.1850 -0.5061
 8786SOL    HW137820   1.563   3.264   6.807 -0.9189 -3.0381  1.8731
 8786SOL    HW237821   1.682   3.346   6.821  2.4116 -0.4945 -3.3811
 8787SOL     OW37822   4.414   4.684   9.802  1.0249  0.5097  0.5891
 8787SOL    HW137823   4.381   4.707   9.715  2.5859  1.7101  0.3191
 8787SOL    HW237824   4.430   4.589   9.799 -1.6326  0.1084 -1.4177
 8788SOL     OW37825   1.713   0.516   8.217  0.3625  0.3711  0.5031
 8788SOL    HW137826   1.714   0.550   8.128 -1.3196  0.9835  0.7204
 8788SOL    HW237827   1.668   0.587   8.264 -2.2147 -1.7666  1.2575
 8789SOL     OW37828   4.194   0.205  13.849  0.6887 -0.3371  0.3188
 8789SOL    HW137829   4.283   0.206  13.814  0.3907  2.5081 -0.3648
 8789SOL    HW237830   4.147   0.248  13.777  1.6013  0.2023  0.0481
 8790SOL     OW37831   3.211   1.584   1.343 -0.5190  0.4168 -0.1216
 8790SOL    HW137832   3.152   1.560   1.415 -0.1323  3.1098  1.0660
 8790SOL    HW237833   3.296   1.545   1.363 -1.5101 -1.1060  1.1586
 8791SOL     OW37834   1.701   0.804   2.790  0.5446 -0.2921 -0.8191
 8791SOL    HW137835   1.668   0.762   2.711 -1.0508  0.2254 -0.4155
 8791SOL    HW237836   1.757   0.736   2.829  1.8679  1.5272  0.4613
 8792SOL     OW37837   0.483   2.557   7.057  0.2612  0.2889  0.0277
 8792SOL    HW137838   0.563   2.591   7.096  0.8040  0.0327 -0.8664
 8792SOL    HW237839   0.448   2.502   7.127  1.4221  0.7964  1.0073
 8793SOL     OW37840   0.869   4.253  15.884  0.1077 -0.0092  0.0985
 8793SOL    HW137841   0.893   4.189  15.951 -1.7919 -2.0998 -1.2258
 8793SOL    HW237842   0.835   4.200  15.812  1.4964 -1.0310  0.1880
 8794SOL     OW37843   4.362   3.004   4.629  0.1468  0.2413 -0.7408
 8794SOL    HW137844   4.429   2.952   4.586 -1.2558 -2.6474  0.6205
 8794SOL    HW237845   4.333   2.944   4.697  2.7966  0.1507  0.2973
 8795SOL     OW37846   1.905   0.659  13.426  0.0672  0.0846 -0.7692
 8795SOL    HW137847   1.950   0.584  13.465  0.7482 -0.3659 -2.4500
 8795SOL    HW237848   1.976   0.703  13.380 -0.1514 -0.0138 -1.2033
 8796SOL     OW37849   2.437   0.687   8.191  0.2660 -0.1898  0.3602
 8796SOL    HW137850   2.486   0.692   8.272  0.1287 -0.3801  0.4540
 8796SOL    HW237851   2.348   0.684   8.227  0.7795 -0.6675  1.5727
 8797SOL     OW37852   4.437   3.551   7.669  0.4093  0.1097 -0.0611
 8797SOL    HW137853   4.500   3.499   7.719 -0.1427 -0.3694  0.1367
 8797SOL    HW237854   4.354   3.509   7.689  0.1147  0.5421 -0.3836
 8798SOL     OW37855   4.628   2.978  11.131  0.2336 -0.2631  0.6220
 8798SOL    HW137856   4.550   3.007  11.177  1.3680 -1.2428  3.1367
 8798SOL    HW237857   4.600   2.925  11.056  1.3682  0.4052 -0.2624
 8799SOL     OW37858   0.869   2.472  10.397  0.5599 -0.0812 -0.2163
 8799SOL    HW137859   0.803   2.541  10.402  1.6188  0.9025  0.2466
 8799SOL    HW237860   0.900   2.479  10.488  2.3824  0.9094 -0.9114
 8800SOL     OW37861   1.141   0.040  12.568  0.2859 -0.1423 -0.3712
 8800SOL    HW137862   1.199   4.700  12.530 -0.4348 -0.7122 -0.4720
 8800SOL    HW237863   1.199   0.116  12.564 -3.1615  2.4274 -1.4140
 8801SOL     OW37864   4.000   0.564  15.653  0.0948  0.3745 -0.4254
 8801SOL    HW137865   4.040   0.549  15.738 -0.1091 -1.0931 -0.5807
 8801SOL    HW237866   3.995   0.474  15.619 -3.0264  1.3073 -2.5128
 8802SOL     OW37867   0.478   2.756   0.508 -0.0577  0.6195  0.2349
 8802SOL    HW137868   0.494   2.851   0.511  0.3679  0.5577 -0.2362
 8802SOL    HW237869   0.399   2.756   0.562 -1.1195 -0.5212 -1.3242
 8803SOL     OW37870   0.292   2.972   1.914 -0.1155  0.0932 -0.1140
 8803SOL    HW137871   0.240   2.969   1.994 -1.4771 -1.6578 -1.0628
 8803SOL    HW237872   0.250   3.043   1.866  0.8821 -0.1088 -1.2811
 8804SOL     OW37873   4.629   2.101   2.784 -0.3505  0.3108 -0.5598
 8804SOL    HW137874   4.551   2.047   2.767 -0.1724  0.0704 -0.6097
 8804SOL    HW237875   4.600   2.191   2.804 -2.5589 -0.3163 -0.9069
 8805SOL     OW37876   3.182   3.558   3.276 -0.3578  0.0152  0.3585
 8805SOL    HW137877   3.172   3.463   3.266  2.1306  0.0080 -2.1326
 8805SOL    HW237878   3.239   3.561   3.353 -1.1097 -0.1329  0.9172
 8806SOL     OW37879   2.761   4.289   9.557 -0.0887 -0.5466 -0.4857
 8806SOL    HW137880   2.708   4.210   9.549 -0.2106 -0.4707 -0.4256
 8806SOL    HW237881   2.840   4.247   9.591 -2.0491 -2.5019  1.6232
 8807SOL     OW37882   0.500   0.920   5.104  0.2132  0.3032 -0.1570
 8807SOL    HW137883   0.482   1.011   5.077 -2.8590  0.1842  1.4733
 8807SOL    HW237884   0.595   0.909   5.107  0.2457  0.7106  0.3106
 8808SOL     OW37885   2.266   1.622   0.747  0.4897  0.5842  0.6191
 8808SOL    HW137886   2.319   1.698   0.772 -1.3250  2.2702 -0.6702
 8808SOL    HW237887   2.274   1.572   0.828 -1.9296  0.1759  0.6019
 8809SOL     OW37888   3.864   2.486   6.140 -0.0194 -0.6943 -0.6459
 8809SOL    HW137889   3.823   2.421   6.197  1.4204 -0.0558  1.1208
 8809SOL    HW237890   3.955   2.457   6.142 -0.3557 -1.8164 -1.3723
 8810SOL     OW37891   2.545   3.844   7.297 -0.8414  0.2598 -0.5354
 8810SOL    HW137892   2.498   3.864   7.216 -0.9722  0.7146 -0.3491
 8810SOL    HW237893   2.491   3.771   7.328  0.8032 -0.8836 -0.3751
 8811SOL     OW37894   3.225   3.503   1.646 -0.1765 -0.6608  0.6628
 8811SOL    HW137895   3.232   3.565   1.718  0.3890 -2.2026  1.9344
 8811SOL    HW237896   3.193   3.565   1.581  2.9854  1.5584  1.2397
 8812SOL     OW37897   4.693   2.900   4.709  0.6077 -0.4619 -0.1654
 8812SOL    HW137898   4.625   2.838   4.735 -0.9970  0.8749 -1.1892
 8812SOL    HW237899   4.672   2.919   4.618 -0.4446  1.6341  0.5215
 8813SOL     OW37900   2.984   3.235   4.559  0.0234 -0.3471 -0.1097
 8813SOL    HW137901   2.925   3.206   4.628 -1.3212  1.3364 -0.5511
 8813SOL    HW237902   2.920   3.285   4.508 -1.4541 -1.4178  0.6843
 8814SOL     OW37903   2.883   3.731   7.533 -0.2541 -0.0541  0.8622
 8814SOL    HW137904   2.952   3.797   7.531 -0.8283  0.5082 -0.1621
 8814SOL    HW237905   2.810   3.787   7.508  0.5033 -0.5958 -2.4862
 8815SOL     OW37906   4.589   2.417   8.189  0.4976 -0.2379 -0.5562
 8815SOL    HW137907   4.566   2.495   8.137  1.1515  2.4697  3.2317
 8815SOL    HW237908   4.620   2.357   8.121  2.0833 -0.5668  0.4650
 8816SOL     OW37909   4.116   2.831   6.832  0.2487  0.1462  0.3067
 8816SOL    HW137910   4.169   2.911   6.825  0.2302  0.1152 -0.2041
 8816SOL    HW237911   4.034   2.868   6.863 -0.8680  0.1556 -2.6408
 8817SOL     OW37912   0.932   3.745   7.688  0.3990  0.0051  0.2437
 8817SOL    HW137913   0.858   3.695   7.653  2.3843 -2.7117 -0.0866
 8817SOL    HW237914   0.988   3.682   7.734 -0.1359 -0.0780  0.7741
 8818SOL     OW37915   1.643   3.826  17.336 -0.2292 -0.1731  0.6426
 8818SOL    HW137916   1.624   3.916  17.310 -0.4428 -0.2408  0.5641
 8818SOL    HW237917   1.734   3.840  17.361 -0.6553  1.8583  1.0627
 8819SOL     OW37918   1.875   3.375  10.604 -0.7729 -0.1003  0.1153
 8819SOL    HW137919   1.868   3.400  10.512 -1.6401 -0.7751  0.0024
 8819SOL    HW237920   1.871   3.464  10.638  2.7032  0.3607 -0.5826
 8820SOL     OW37921   3.417   3.268   4.286  0.3036 -0.0861 -0.1666
 8820SOL    HW137922   3.396   3.181   4.253  0.3162  0.3849 -1.4154
 8820SOL    HW237923   3.373   3.269   4.371 -0.0593  1.8255 -0.3713
 8821SOL     OW37924   4.236   1.167  11.965 -0.0768  0.2750  0.3468
 8821SOL    HW137925   4.201   1.235  12.023  0.2745  0.5008  0.2956
 8821SOL    HW237926   4.168   1.165  11.898  1.0020  1.1698 -0.7602
 8822SOL     OW37927   3.316   4.135   6.249  0.3854 -0.0083 -0.5036
 8822SOL    HW137928   3.344   4.149   6.340  0.3818  0.8963 -0.6449
 8822SOL    HW237929   3.221   4.149   6.251  0.5429  1.0647 -0.3846
 8823SOL     OW37930   0.913   0.819   6.240  0.2942 -0.9141  0.2355
 8823SOL    HW137931   0.822   0.842   6.223  0.6309  0.6814  0.6418
 8823SOL    HW237932   0.934   0.756   6.171 -0.5579  0.4373 -1.2372
 8824SOL     OW37933   4.062   2.123   7.764  0.1427 -0.2177 -0.0035
 8824SOL    HW137934   4.020   2.097   7.682 -0.3478 -0.3851  0.3034
 8824SOL    HW237935   4.120   2.190   7.728 -0.1071 -0.3461 -0.6471
 8825SOL     OW37936   2.384   3.276   5.058  0.0434  0.5920 -0.7489
 8825SOL    HW137937   2.374   3.290   5.152  0.1441  0.3455 -0.7011
 8825SOL    HW237938   2.302   3.312   5.026 -1.2002 -0.0270  1.7091
 8826SOL     OW37939   0.276   2.056   6.609  0.2898  0.3498 -0.0285
 8826SOL    HW137940   0.217   2.130   6.590 -0.2644 -0.1658 -0.3271
 8826SOL    HW237941   0.215   1.999   6.655 -0.9561  0.7940 -1.1235
 8827SOL     OW37942   4.563   4.329   8.728  0.1697 -0.0308 -0.1927
 8827SOL    HW137943   4.542   4.419   8.753 -0.6656 -0.5963  1.2117
 8827SOL    HW237944   4.604   4.293   8.808 -3.0552 -1.9359  0.6153
 8828SOL     OW37945   0.897   4.084   8.282 -0.3525 -0.9647 -0.2309
 8828SOL    HW137946   0.934   4.091   8.194 -0.5479 -2.7595 -0.4691
 8828SOL    HW237947   0.974   4.070   8.336 -1.2467 -2.2053  0.7371
 8829SOL     OW37948   1.256   1.473   4.324 -0.3561  0.1750 -0.2631
 8829SOL    HW137949   1.294   1.387   4.304 -1.9674 -0.7226  0.5086
 8829SOL    HW237950   1.331   1.532   4.325 -0.6952  0.5929  0.3493
 8830SOL     OW37951   1.211   3.794   1.680 -0.6571  1.2464  0.2959
 8830SOL    HW137952   1.198   3.885   1.652  0.4374  0.2262 -3.5163
 8830SOL    HW237953   1.307   3.801   1.678 -0.5630 -0.4784 -0.8191
 8831SOL     OW37954   0.538   2.945   1.443 -0.6846  0.3245  0.2007
 8831SOL    HW137955   0.548   2.987   1.358  1.3626 -0.3471  0.1041
 8831SOL    HW237956   0.480   2.873   1.417 -1.9549  1.0868  0.9278
 8832SOL     OW37957   4.243   0.248   2.952  0.4948  0.4331 -0.3289
 8832SOL    HW137958   4.258   0.274   3.043 -0.7072 -2.6120  0.7410
 8832SOL    HW237959   4.190   0.317   2.912 -2.6299 -1.5521  0.3895
 8833SOL     OW37960   0.481   2.243   1.459 -0.1368  0.4212  0.2701
 8833SOL    HW137961   0.535   2.166   1.443  0.3738  0.5369  1.5211
 8833SOL    HW237962   0.459   2.269   1.369  0.2023  1.5610  0.5270
 8834SOL     OW37963   2.661   0.204  15.635  0.8406 -0.3148 -0.0709
 8834SOL    HW137964   2.569   0.195  15.661  1.3132  0.2103  1.8145
 8834SOL    HW237965   2.648   0.223  15.542 -2.1560 -1.1555  0.1883
 8835SOL     OW37966   1.275   0.849  17.672 -0.9298  0.1661 -0.2746
 8835SOL    HW137967   1.272   0.759  17.639  1.2048  0.4086 -1.0667
 8835SOL    HW237968   1.212   0.848   0.038  0.4978  2.0693  0.9902
 8836SOL     OW37969   1.719   2.966   1.147  0.2278 -0.5797 -0.2338
 8836SOL    HW137970   1.745   2.969   1.239  0.4285 -0.1544 -0.3039
 8836SOL    HW237971   1.680   3.052   1.131  0.2470 -1.1574 -3.2915
 8837SOL     OW37972   2.781   4.110  12.388 -0.2178 -0.4419 -0.0442
 8837SOL    HW137973   2.760   4.018  12.400  2.1851 -1.1607 -1.2865
 8837SOL    HW237974   2.703   4.149  12.347  1.4721  2.6567 -0.3386
 8838SOL     OW37975   0.939   1.231   4.485  0.3351  1.0286  0.2009
 8838SOL    HW137976   0.994   1.244   4.408  0.5730 -0.4536  0.1165
 8838SOL    HW237977   0.851   1.218   4.449  1.5096 -1.5244 -1.7518
 8839SOL     OW37978   4.443   3.576  14.625  0.1218 -0.1598 -0.8604
 8839SOL    HW137979   4.382   3.596  14.554 -0.3237  1.3902 -0.0318
 8839SOL    HW237980   4.528   3.595  14.584 -1.1540 -0.6329 -3.7242
 8840SOL     OW37981   2.501   0.437  13.671  0.0754 -0.3113 -0.2353
 8840SOL    HW137982   2.581   0.461  13.718 -0.2937  1.4349 -0.4788
 8840SOL    HW237983   2.545   0.377  13.611  2.2046 -0.5041  1.5329
 8841SOL     OW37984   0.849   2.511   8.889 -0.1964  0.3663  0.0036
 8841SOL    HW137985   0.889   2.499   8.803 -4.4928  0.7609 -2.0635
 8841SOL    HW237986   0.892   2.451   8.950 -0.6139 -0.4968 -0.5459
 8842SOL     OW37987   1.204   3.922   6.723 -0.0393 -0.5315 -0.0415
 8842SOL    HW137988   1.142   3.866   6.770 -0.2239  0.2804  0.6748
 8842SOL    HW237989   1.198   4.006   6.768  1.4159 -0.4187 -0.0524
 8843SOL     OW37990   1.199   0.701   6.173  0.2042  0.1346  0.1973
 8843SOL    HW137991   1.241   0.725   6.090  0.8256 -0.5037  0.3264
 8843SOL    HW237992   1.277   0.706   6.228  0.3846  0.6192 -0.1001
 8844SOL     OW37993   2.307   4.385   4.663 -0.4153  0.1093 -0.1420
 8844SOL    HW137994   2.293   4.468   4.709 -0.1371  1.6932 -2.8830
 8844SOL    HW237995   2.304   4.416   4.572  0.9166  2.0216  0.4765
 8845SOL     OW37996   1.117   4.220   3.711 -0.3384 -0.2783  0.0375
 8845SOL    HW137997   1.206   4.201   3.738 -0.1498  2.1536  1.0678
 8845SOL    HW237998   1.137   4.301   3.665 -4.5849 -0.4594 -2.2013
 8846SOL     OW37999   4.528   4.707   6.137  0.4043  0.2016 -0.3067
 8846SOL    HW138000   4.557   0.062   6.096  2.0595  0.1572  0.8118
 8846SOL    HW238001   4.595   4.641   6.121  1.0917  0.3172  2.0501
 8847SOL     OW38002   0.034   3.654   7.626 -0.0354  0.2156  0.3607
 8847SOL    HW138003   0.004   3.605   7.549  0.2065 -0.2015  0.5300
 8847SOL    HW238004   0.071   3.588   7.685 -0.3678  0.2707  0.6328
 8848SOL     OW38005   0.289   4.539  16.233  0.3163 -0.8480 -0.3974
 8848SOL    HW138006   0.272   4.459  16.282 -1.3149 -0.0920  0.2636
 8848SOL    HW238007   0.268   4.515  16.143 -0.7875  0.7421 -0.5727
 8849SOL     OW38008   2.167   2.897  14.925 -0.0458  0.1769 -0.3452
 8849SOL    HW138009   2.137   2.816  14.884  1.3888 -0.4027 -0.2577
 8849SOL    HW238010   2.255   2.907  14.888 -0.2725  2.8941 -0.1545
 8850SOL     OW38011   2.075   4.366   2.858 -0.4245  0.4391  0.1607
 8850SOL    HW138012   2.045   4.385   2.770  0.1489  0.0707 -0.1167
 8850SOL    HW238013   2.089   4.456   2.891 -0.3414  0.7622 -0.7683
 8851SOL     OW38014   2.413   2.325   3.791 -0.1868 -0.3302  0.1220
 8851SOL    HW138015   2.411   2.421   3.787  0.7497 -0.3228 -0.2504
 8851SOL    HW238016   2.391   2.296   3.702  1.0563  3.2184 -1.3320
 8852SOL     OW38017   0.001   4.395   0.263  0.0600 -0.0263 -0.2123
 8852SOL    HW138018   4.708   4.364   0.352 -0.0554  0.6657  0.0037
 8852SOL    HW238019   4.644   4.409   0.219 -0.3393  0.5509  0.7358
 8853SOL     OW38020   3.355   4.030   4.701 -0.3629 -0.0479  0.1242
 8853SOL    HW138021   3.319   4.056   4.617 -2.6229  0.9897  1.4129
 8853SOL    HW238022   3.370   4.115   4.742  2.0977 -0.3052 -0.1952
 8854SOL     OW38023   3.169   1.090   3.273  0.0611  0.1075  0.2604
 8854SOL    HW138024   3.258   1.086   3.307 -0.0548  1.3670  0.7028
 8854SOL    HW238025   3.172   1.149   3.197 -1.5035 -1.0713 -0.7231
 8855SOL     OW38026   2.479   2.230   6.904  0.5558 -0.7600  0.0908
 8855SOL    HW138027   2.518   2.316   6.911 -0.4960 -0.1076 -1.9825
 8855SOL    HW238028   2.518   2.195   6.824  1.1238 -0.3477  0.1907
 8856SOL     OW38029   1.488   2.932   4.300 -0.5843  0.1093 -0.1629
 8856SOL    HW138030   1.410   2.983   4.280  0.3385  2.5870  2.5211
 8856SOL    HW238031   1.538   2.931   4.218 -1.6672 -2.1330 -0.7943
 8857SOL     OW38032   0.386   2.924  16.107  0.3035  0.4873 -0.4058
 8857SOL    HW138033   0.353   2.877  16.184  0.1240  0.6400 -0.3885
 8857SOL    HW238034   0.326   2.998  16.110  1.1579  1.2355 -1.7296
 8858SOL     OW38035   3.983   1.429  10.546 -0.1846 -0.2847 -0.3150
 8858SOL    HW138036   4.063   1.379  10.527  0.3556  0.1892  0.7274
 8858SOL    HW238037   3.964   1.401  10.635 -1.9939 -0.2077 -0.6776
 8859SOL     OW38038   4.223   1.445   2.115 -0.5365 -0.0901  0.7538
 8859SOL    HW138039   4.236   1.374   2.177 -0.2375 -0.6743  0.0264
 8859SOL    HW238040   4.131   1.425   2.097 -1.2541  2.5141  1.6151
 8860SOL     OW38041   1.268   2.220   4.015  0.1814  0.1682  0.0388
 8860SOL    HW138042   1.268   2.300   3.964 -0.3028  0.3069  0.2518
 8860SOL    HW238043   1.356   2.187   3.998  0.9052  0.7240  2.6876
 8861SOL     OW38044   2.400   2.781   2.268 -0.0656  0.3532 -0.1857
 8861SOL    HW138045   2.445   2.731   2.200  0.4434  0.2093  0.2540
 8861SOL    HW238046   2.443   2.747   2.347 -1.6261 -0.4702  0.3165
 8862SOL     OW38047   0.126   2.413   3.031  0.4100 -0.2082 -0.4712
 8862SOL    HW138048   0.064   2.347   3.061  0.4680  0.8606  2.0016
 8862SOL    HW238049   0.097   2.431   2.941 -2.5688 -1.7069  0.2020
 8863SOL     OW38050   0.871   1.699   3.117  0.2971  0.4376 -0.4330
 8863SOL    HW138051   0.816   1.675   3.042 -0.2135 -0.1919  0.1439
 8863SOL    HW238052   0.808   1.709   3.189  1.2394 -2.3634  0.7796
 8864SOL     OW38053   1.429   3.139  16.315 -0.2178 -0.0188  0.0994
 8864SOL    HW138054   1.427   3.143  16.219  0.1370  0.0814  0.0982
 8864SOL    HW238055   1.503   3.198  16.328 -1.2265  1.1795  0.4602
 8865SOL     OW38056   1.869   2.502   6.543  0.4271  0.8174  0.3590
 8865SOL    HW138057   1.870   2.470   6.453 -1.3647  3.0733 -0.4481
 8865SOL    HW238058   1.831   2.432   6.597 -2.5397  1.3374 -1.0973
 8866SOL     OW38059   2.497   4.581   9.367 -0.2124 -0.2368 -0.0537
 8866SOL    HW138060   2.551   4.562   9.444 -1.6667  0.6912  1.1940
 8866SOL    HW238061   2.443   4.502   9.364  1.1753 -1.1791 -0.3298
 8867SOL     OW38062   4.387   0.521   6.994 -0.6522  0.7361  0.3280
 8867SOL    HW138063   4.478   0.500   7.014  0.2319  3.6304 -0.8086
 8867SOL    HW238064   4.355   0.575   7.067 -0.3095  1.8031 -0.3175
 8868SOL     OW38065   2.554   1.670  11.714  0.1263 -0.0057  0.3512
 8868SOL    HW138066   2.637   1.714  11.734  0.5058 -1.0775  1.1322
 8868SOL    HW238067   2.590   1.588  11.679 -0.5198  0.3186 -1.0853
 8869SOL     OW38068   2.841   0.654   9.683  0.9107  0.1057 -0.0934
 8869SOL    HW138069   2.749   0.671   9.659  0.8535 -0.9957 -0.6537
 8869SOL    HW238070   2.880   0.690   9.603 -0.7461  2.0205 -0.0647
 8870SOL     OW38071   1.086   3.538   6.630 -0.5125 -0.2242  0.1404
 8870SOL    HW138072   1.127   3.595   6.565  0.4808  0.0860  1.0195
 8870SOL    HW238073   1.164   3.508   6.677  0.3081  3.8891  1.4891
 8871SOL     OW38074   3.262   3.991   3.272  0.4793  0.4041 -0.0739
 8871SOL    HW138075   3.309   4.043   3.206  1.2729  1.4995  1.3578
 8871SOL    HW238076   3.171   4.018   3.257 -0.3910 -1.4437  1.9869
 8872SOL     OW38077   3.234   1.254  15.078 -0.1521  0.3485 -0.0688
 8872SOL    HW138078   3.286   1.332  15.097 -1.3403  1.7281 -2.5956
 8872SOL    HW238079   3.231   1.258  14.983  0.5245  0.2377 -0.0975
 8873SOL     OW38080   4.563   2.842   7.211 -0.1447  0.1929  0.4293
 8873SOL    HW138081   4.567   2.932   7.179  1.4406 -0.9182 -2.4388
 8873SOL    HW238082   4.575   2.795   7.129  0.6151 -1.8811  1.7503
 8874SOL     OW38083   0.248   4.632   4.695  0.4846 -0.3638  0.7216
 8874SOL    HW138084   0.230   4.638   4.789 -0.5609  0.0967  0.4930
 8874SOL    HW238085   0.245   4.537   4.687  1.2931 -0.3221 -0.0985
 8875SOL     OW38086   1.282   4.218   7.503  0.3543 -0.2074  0.6505
 8875SOL    HW138087   1.220   4.191   7.570 -2.5157 -0.6611 -2.1900
 8875SOL    HW238088   1.227   4.235   7.427  0.7772 -1.3929  0.0693
 8876SOL     OW38089   0.219   0.247   4.775  0.4486  0.2852  0.0759
 8876SOL    HW138090   0.278   0.212   4.708 -0.3846 -0.1059 -0.4475
 8876SOL    HW238091   0.250   0.338   4.777  0.7774  0.1849 -0.4669
 8877SOL     OW38092   1.926   2.822   5.514 -0.5900 -0.5607 -0.1118
 8877SOL    HW138093   2.013   2.826   5.475 -1.5394  0.3890 -2.1215
 8877SOL    HW238094   1.878   2.889   5.467  0.3752 -0.7975 -1.4319
 8878SOL     OW38095   1.242   3.770  14.333  0.0191 -0.3534  0.7203
 8878SOL    HW138096   1.293   3.836  14.286  0.5797 -2.0247 -1.0522
 8878SOL    HW238097   1.193   3.724  14.264 -0.2555  1.3269 -0.2149
 8879SOL     OW38098   3.119   2.067   4.898 -0.2583 -0.0787  0.2008
 8879SOL    HW138099   3.025   2.082   4.893  0.1389  1.6318 -2.2913
 8879SOL    HW238100   3.155   2.150   4.930  0.3720  0.5612 -2.1212
 8880SOL     OW38101   4.071   0.775   1.524  0.8176 -0.2473 -0.3866
 8880SOL    HW138102   4.140   0.715   1.494  0.6961 -2.1073  2.9103
 8880SOL    HW238103   4.009   0.713   1.563  0.6229 -0.2076 -0.6363
 8881SOL     OW38104   2.533   4.080   8.630  0.0260  0.2849 -0.2970
 8881SOL    HW138105   2.537   4.106   8.538 -0.2305 -0.0070 -0.3936
 8881SOL    HW238106   2.497   4.157   8.675  2.2404 -0.0550  2.0299
 8882SOL     OW38107   2.416   1.539  16.503  0.3443  0.1005 -0.8530
 8882SOL    HW138108   2.472   1.513  16.430  1.2103  0.0747 -0.1709
 8882SOL    HW238109   2.330   1.549  16.461  0.5125  1.6138 -0.8374
 8883SOL     OW38110   2.724   1.044   6.949 -0.0267  0.8292 -0.1035
 8883SOL    HW138111   2.643   1.000   6.973  0.7199 -0.5555 -0.1321
 8883SOL    HW238112   2.783   1.023   7.022  1.7722 -1.4600 -2.2283
 8884SOL     OW38113   0.587   3.327   1.207  0.7392 -0.1393  0.0531
 8884SOL    HW138114   0.591   3.354   1.299  1.5600 -1.2266  0.3491
 8884SOL    HW238115   0.580   3.232   1.218  1.9241 -0.3197 -0.8157
 8885SOL     OW38116   0.784   4.467   1.812 -0.2016 -0.3824 -0.5721
 8885SOL    HW138117   0.799   4.543   1.756 -0.4166  1.3880  1.7211
 8885SOL    HW238118   0.773   4.399   1.746  1.6289 -1.1905 -0.0287
 8886SOL     OW38119   4.679   4.031   0.065 -0.2144  0.2894 -0.5972
 8886SOL    HW138120   0.043   4.033   0.033 -0.0916  0.2860 -0.2469
 8886SOL    HW238121   4.696   4.045   0.158  2.2151 -0.5872 -0.9151
 8887SOL     OW38122   3.458   3.631  12.703 -0.1093  0.6255  0.5915
 8887SOL    HW138123   3.369   3.602  12.685  0.3031 -0.3752  0.1506
 8887SOL    HW238124   3.486   3.671  12.620 -0.7644 -0.4048 -0.1304
 8888SOL     OW38125   4.437   1.738   6.665  0.0809  0.0371  0.1925
 8888SOL    HW138126   4.477   1.653   6.643 -1.1865 -0.3381 -0.7158
 8888SOL    HW238127   4.370   1.750   6.598  1.4857 -3.6519 -1.8706
 8889SOL     OW38128   1.579   0.726  17.160  0.7000  0.0227 -0.0935
 8889SOL    HW138129   1.573   0.638  17.122 -2.3213  0.3586 -0.4380
 8889SOL    HW238130   1.618   0.770  17.085  0.3540  1.1276  0.3795
 8890SOL     OW38131   3.501   1.674   7.749  0.6416  0.3498  0.1495
 8890SOL    HW138132   3.488   1.701   7.840  2.1313 -1.4748  0.9075
 8890SOL    HW238133   3.486   1.758   7.705 -0.2499 -0.6449 -1.4709
 8891SOL     OW38134   4.314   4.342   2.908  0.3895 -0.7172  0.1872
 8891SOL    HW138135   4.322   4.366   3.000 -0.0816 -0.3386  0.1281
 8891SOL    HW238136   4.394   4.380   2.871 -0.1648  0.4725  0.2224
 8892SOL     OW38137   1.970   1.378   9.576  0.1580  0.0107  0.2817
 8892SOL    HW138138   2.033   1.312   9.546  0.8728  0.4225  0.8781
 8892SOL    HW238139   2.018   1.458   9.552  1.0759 -0.0502  1.9435
 8893SOL     OW38140   1.886   1.398   8.332 -0.2996 -0.1701  0.1144
 8893SOL    HW138141   1.867   1.472   8.390 -0.3717  1.0023 -1.4014
 8893SOL    HW238142   1.913   1.331   8.394 -0.6631  1.2081  1.7631
 8894SOL     OW38143   0.290   1.052  10.447  0.2047  0.3699 -0.5033
 8894SOL    HW138144   0.380   1.032  10.473 -0.2712 -1.1074  0.0043
 8894SOL    HW238145   0.271   1.137  10.487  0.7717  0.6110 -0.7483
 8895SOL     OW38146   3.740   2.471  15.385 -0.3838 -0.0170 -0.0558
 8895SOL    HW138147   3.700   2.388  15.361 -0.6218  0.2220 -0.4813
 8895SOL    HW238148   3.829   2.453  15.414 -1.3333  0.3135  3.0419
 8896SOL     OW38149   0.807   1.760  17.177  0.2672 -0.1514 -0.0236
 8896SOL    HW138150   0.749   1.758  17.101 -1.3389  0.3676  1.1732
 8896SOL    HW238151   0.875   1.817  17.143 -1.2318  1.5029 -0.2653
 8897SOL     OW38152   3.412   4.053  16.781 -0.5442 -0.2149  0.2246
 8897SOL    HW138153   3.484   3.995  16.757 -0.2541  0.6614 -1.0437
 8897SOL    HW238154   3.339   3.995  16.802 -2.3342  1.5829 -0.9946
 8898SOL     OW38155   3.389   2.210   8.316  0.0442  0.3133  0.0488
 8898SOL    HW138156   3.315   2.197   8.256  0.3264 -2.5642  0.3592
 8898SOL    HW238157   3.363   2.170   8.399  1.8913 -0.3795  0.2876
 8899SOL     OW38158   3.748   4.580   2.125  0.0784  0.0969 -0.4178
 8899SOL    HW138159   3.785   4.500   2.162 -0.4598  1.0309  2.1960
 8899SOL    HW238160   3.712   4.533   2.050  0.2519 -0.0999 -0.3767
 8900SOL     OW38161   0.313   2.809   5.707 -0.9529 -0.5211  0.8049
 8900SOL    HW138162   0.323   2.741   5.639  0.4808 -0.2269  0.7088
 8900SOL    HW238163   0.284   2.752   5.778  2.7440 -1.4974  1.5287
 8901SOL     OW38164   2.943   0.047   4.509 -0.1040 -0.5216 -0.6425
 8901SOL    HW138165   2.919   4.681   4.508  0.2769 -0.6270 -0.1207
 8901SOL    HW238166   3.001   0.057   4.434 -0.4736  2.6133 -0.5154
 8902SOL     OW38167   0.120   3.155   5.587 -0.3178 -0.1277 -0.5894
 8902SOL    HW138168   0.029   3.160   5.559 -0.1513 -0.7918 -1.2467
 8902SOL    HW238169   0.158   3.094   5.524  1.2886  0.2483  0.0155
 8903SOL     OW38170   3.192   4.020  12.523  0.3115 -0.7821  0.4462
 8903SOL    HW138171   3.267   3.977  12.482  2.0321  0.7531  1.9603
 8903SOL    HW238172   3.209   4.105  12.482  1.4274 -0.8886  0.6993
 8904SOL     OW38173   4.582   2.148   0.698  0.4947  0.0006 -0.0895
 8904SOL    HW138174   4.590   2.192   0.613  1.5399 -0.4434 -0.2141
 8904SOL    HW238175   4.506   2.191   0.737  0.9504 -1.1467  2.0554
 8905SOL     OW38176   3.298   4.153   7.945 -0.3740  0.2370 -0.1996
 8905SOL    HW138177   3.274   4.135   8.036 -1.6407  0.6511 -0.4582
 8905SOL    HW238178   3.212   4.174   7.909 -1.0715  0.1449  1.4546
 8906SOL     OW38179   0.987   1.898   8.582 -0.3114  0.3083  0.2050
 8906SOL    HW138180   0.943   1.813   8.578 -1.7336  1.0535 -0.1256
 8906SOL    HW238181   1.052   1.889   8.652  0.7934 -1.6320 -1.0785
 8907SOL     OW38182   2.867   0.625   8.795 -0.2036  0.0626 -0.6578
 8907SOL    HW138183   2.859   0.718   8.816 -1.6167 -0.4945  1.2045
 8907SOL    HW238184   2.963   0.618   8.800 -0.4948 -3.0286  0.5759
 8908SOL     OW38185   2.082   3.826   7.605  0.4395  0.3177  0.5736
 8908SOL    HW138186   2.126   3.758   7.656  0.3681 -1.8069 -2.2106
 8908SOL    HW238187   2.149   3.835   7.538  0.0411 -0.2880  0.0898
 8909SOL     OW38188   1.995   2.251   3.444  0.1709  0.0670  0.5730
 8909SOL    HW138189   1.990   2.320   3.379 -0.2918 -2.9024 -2.5256
 8909SOL    HW238190   2.071   2.278   3.495  0.3921  0.8691 -0.1800
 8910SOL     OW38191   2.167   1.039   3.182  0.0158  0.1508  0.2358
 8910SOL    HW138192   2.174   0.945   3.162  2.2182 -0.1346  2.3159
 8910SOL    HW238193   2.213   1.080   3.109 -0.2420  0.3834  0.2052
 8911SOL     OW38194   3.205   2.983   0.822 -0.2109 -0.6117 -0.6691
 8911SOL    HW138195   3.122   2.991   0.775 -0.9250  1.2739  0.9048
 8911SOL    HW238196   3.213   3.075   0.848 -0.7950 -0.8295  0.2731
 8912SOL     OW38197   3.490   1.615   9.300 -0.2213  0.2398  0.1636
 8912SOL    HW138198   3.501   1.680   9.230  0.0783  0.2710  0.2399
 8912SOL    HW238199   3.496   1.532   9.252 -0.6171  0.7156 -0.7211
 8913SOL     OW38200   2.297   3.069   2.933  0.2633 -0.2428 -0.3498
 8913SOL    HW138201   2.349   3.146   2.955  0.0057  0.2438 -1.4336
 8913SOL    HW238202   2.206   3.101   2.930  0.1750 -0.4416  0.0674
 8914SOL     OW38203   2.734   1.148   9.332 -0.4170 -0.7697 -0.1708
 8914SOL    HW138204   2.781   1.066   9.350 -0.5249 -0.4588  1.4896
 8914SOL    HW238205   2.757   1.167   9.241 -3.8969 -0.3101 -0.9709
 8915SOL     OW38206   3.511   0.905   7.096  0.2795 -0.0377  0.4476
 8915SOL    HW138207   3.558   0.838   7.144  1.0527  0.1321 -0.0713
 8915SOL    HW238208   3.579   0.972   7.105 -1.4543  1.6145  1.2866
 8916SOL     OW38209   3.465   3.739   3.620  0.2438 -0.3125  0.5769
 8916SOL    HW138210   3.546   3.759   3.572  0.5244  0.3343  1.3219
 8916SOL    HW238211   3.443   3.652   3.588 -3.0308  0.7180  0.0716
 8917SOL     OW38212   1.821   2.726   2.643 -0.0867  0.3025  0.5839
 8917SOL    HW138213   1.862   2.718   2.557  1.9212 -3.1178  1.8273
 8917SOL    HW238214   1.848   2.642   2.682 -0.7991  0.0966  0.6288
 8918SOL     OW38215   2.186   2.125   2.926 -0.3848  0.1907 -0.3529
 8918SOL    HW138216   2.149   2.211   2.909  1.2006  0.3600 -2.9093
 8918SOL    HW238217   2.266   2.143   2.975 -0.9435 -1.3180  1.1010
 8919SOL     OW38218   4.439   0.156  13.765  0.3915 -0.6487  0.8493
 8919SOL    HW138219   4.452   0.068  13.730 -0.1237 -0.7807  0.9993
 8919SOL    HW238220   4.528   0.190  13.774 -0.9289  2.6809  1.2443
 8920SOL     OW38221   1.347   4.000   5.279  0.2348  0.2515  0.5902
 8920SOL    HW138222   1.355   3.993   5.374  1.3479 -1.4839  0.3810
 8920SOL    HW238223   1.314   4.090   5.279  0.0681  0.1882  0.0080
 8921SOL     OW38224   0.378   3.630   2.477  0.2268 -0.2193  0.8984
 8921SOL    HW138225   0.416   3.607   2.392 -1.4028  1.3622 -0.2516
 8921SOL    HW238226   0.455   3.619   2.533  2.3181 -1.3898 -2.1450
 8922SOL     OW38227   3.127   0.390   9.558 -0.7057 -1.0346 -0.0147
 8922SOL    HW138228   3.138   0.443   9.638 -0.0136 -0.6040 -0.3952
 8922SOL    HW238229   3.106   0.454   9.491 -0.7495 -0.6122  0.3998
 8923SOL     OW38230   4.175   4.322  10.045  0.0985  0.0353 -1.0531
 8923SOL    HW138231   4.092   4.325  10.093  0.0042  0.3417 -1.2319
 8923SOL    HW238232   4.227   4.399  10.068  1.3617 -0.4031 -2.4143
 8924SOL     OW38233   3.715   3.968   6.066 -0.6509  0.2741 -0.3320
 8924SOL    HW138234   3.722   3.966   6.162 -0.2120  1.3147 -0.3416
 8924SOL    HW238235   3.627   4.005   6.057 -0.6366  0.2499 -0.5729
 8925SOL     OW38236   1.493   2.362   3.821 -0.2099 -0.1405 -0.5384
 8925SOL    HW138237   1.553   2.435   3.832 -0.6930 -0.1617  2.3826
 8925SOL    HW238238   1.413   2.397   3.860  0.6506 -0.0585  1.1452
 8926SOL     OW38239   1.971   1.509   5.322  0.7039 -0.3083  0.0800
 8926SOL    HW138240   1.961   1.492   5.229  0.3565 -0.5234  0.1572
 8926SOL    HW238241   1.983   1.604   5.320  0.1099 -0.1821  2.2255
 8927SOL     OW38242   0.602   0.773   2.185  0.1909  0.6915 -0.4806
 8927SOL    HW138243   0.672   0.813   2.135  3.0145 -2.4455  0.9979
 8927SOL    HW238244   0.559   0.717   2.121  0.9512  1.0693 -1.3099
 8928SOL     OW38245   1.992   1.732   1.259  0.1232  0.2183  0.1639
 8928SOL    HW138246   2.001   1.690   1.174 -0.0842 -0.7913  0.6374
 8928SOL    HW238247   2.080   1.769   1.268  1.4036 -2.1012 -2.7263
 8929SOL     OW38248   3.975   3.568  11.126  0.6327  0.3536 -0.1578
 8929SOL    HW138249   3.890   3.562  11.081  0.0041  3.3923  0.5968
 8929SOL    HW238250   4.051   3.552  11.071  0.9640  0.7413  0.1923
 8930SOL     OW38251   3.934   1.166   9.387 -0.3024  0.4154 -0.4976
 8930SOL    HW138252   3.844   1.138   9.369 -0.6716  1.6848 -0.6610
 8930SOL    HW238253   3.995   1.097   9.360 -0.4577  0.5544 -1.1880
 8931SOL     OW38254   2.802   2.630  12.975  0.1348 -0.1756 -0.1200
 8931SOL    HW138255   2.870   2.587  12.925  0.0473 -0.8374  0.3216
 8931SOL    HW238256   2.729   2.604  12.919  1.6936  2.5829 -3.4013
 8932SOL     OW38257   0.170   2.000   7.399 -0.3810  0.4726 -0.2249
 8932SOL    HW138258   0.126   1.992   7.484 -0.7062  0.9190 -0.3526
 8932SOL    HW238259   0.259   1.964   7.403  0.0131  1.6755  1.7071
 8933SOL     OW38260   1.776   3.106  13.011  0.4292  0.6906 -0.0783
 8933SOL    HW138261   1.831   3.156  13.070 -0.2409 -0.8209  1.8179
 8933SOL    HW238262   1.688   3.115  13.049  0.3362 -0.5104  0.0047
 8934SOL     OW38263   1.216   4.605   5.253  0.0302  0.2838  0.3374
 8934SOL    HW138264   1.284   4.554   5.297 -0.0527 -0.0616  0.0588
 8934SOL    HW238265   1.173   4.638   5.332  0.4636  0.0483  0.6703
 8935SOL     OW38266   3.345   3.206  15.720 -0.1326 -0.0813  0.3660
 8935SOL    HW138267   3.390   3.176  15.641  2.0662 -0.0556  1.6263
 8935SOL    HW238268   3.255   3.211  15.686  0.5690  1.5415 -1.2453
 8936SOL     OW38269   0.049   2.546   3.849 -0.5373 -0.3413  0.2042
 8936SOL    HW138270   0.105   2.624   3.847 -1.0908  0.0391 -0.4815
 8936SOL    HW238271   4.695   2.584   3.884 -0.2330 -0.8408  1.4204
 8937SOL     OW38272   0.517   0.307   0.372  0.1882  0.0098 -0.0287
 8937SOL    HW138273   0.538   0.399   0.362  1.3519 -0.2844 -0.3412
 8937SOL    HW238274   0.607   0.275   0.366  0.1233  0.1335 -1.6175
 8938SOL     OW38275   2.964   0.637   6.796  0.0564 -0.5455  0.0523
 8938SOL    HW138276   2.912   0.557   6.792 -1.7397  0.6824 -1.8886
 8938SOL    HW238277   2.899   0.694   6.839  0.7742  0.4641 -0.1972
 8939SOL     OW38278   1.253   1.235   3.111 -0.3831  0.0698  0.3553
 8939SOL    HW138279   1.160   1.230   3.132 -0.7085 -0.8535 -1.2919
 8939SOL    HW238280   1.247   1.196   3.023 -1.1454  1.3660 -0.1727
 8940SOL     OW38281   3.431   4.629   1.078 -0.1319  0.8061 -0.4929
 8940SOL    HW138282   3.407   4.585   1.160  0.4159  1.7644  0.1772
 8940SOL    HW238283   3.526   4.617   1.082 -0.3210 -0.7791 -0.4837
 8941SOL     OW38284   2.809   4.466   4.995 -0.2767  0.3257 -0.7301
 8941SOL    HW138285   2.801   4.378   5.031 -2.0200  0.0771 -1.7317
 8941SOL    HW238286   2.900   4.487   5.015  0.6142 -2.6784 -1.6055
 8942SOL     OW38287   4.006   3.897   7.113  0.0357 -0.1391 -0.2494
 8942SOL    HW138288   4.038   3.888   7.023 -1.9470 -1.4617 -0.8329
 8942SOL    HW238289   3.917   3.864   7.101 -0.0892 -0.0145  0.3353
 8943SOL     OW38290   4.590   1.036   6.178 -0.4075  0.0180 -0.2756
 8943SOL    HW138291   4.633   0.972   6.234  0.9646  0.0115 -1.3276
 8943SOL    HW238292   4.518   1.063   6.234 -0.1974 -0.5956  0.2837
 8944SOL     OW38293   2.724   2.500  10.900 -0.3175  0.4988 -0.2987
 8944SOL    HW138294   2.701   2.456  10.983  1.2612 -0.6674 -0.4716
 8944SOL    HW238295   2.640   2.522  10.860 -1.1856 -2.9123 -0.3588
 8945SOL     OW38296   1.363   1.513   4.874 -0.1312  0.0025 -0.7982
 8945SOL    HW138297   1.269   1.507   4.893 -0.4684  2.0558 -1.8116
 8945SOL    HW238298   1.369   1.503   4.779  2.1414  2.1504 -0.8877
 8946SOL     OW38299   1.761   3.751   3.231 -0.4655 -0.1375  0.5383
 8946SOL    HW138300   1.671   3.757   3.199 -0.0122 -0.0525 -0.6844
 8946SOL    HW238301   1.790   3.677   3.179 -1.4620 -0.3599  0.3059
 8947SOL     OW38302   3.805   3.223   6.909  0.4736  0.8975  0.0822
 8947SOL    HW138303   3.820   3.292   6.844 -2.1354  0.4938 -0.9364
 8947SOL    HW238304   3.711   3.210   6.898  0.5786 -0.6217  0.9644
 8948SOL     OW38305   1.309   2.289   1.300  0.0093  0.0324 -0.6918
 8948SOL    HW138306   1.353   2.227   1.242 -0.2402  1.5480 -2.4778
 8948SOL    HW238307   1.318   2.367   1.246  0.5359  0.5287  0.1210
 8949SOL     OW38308   0.558   0.235   4.765  0.4243 -0.0063 -0.2762
 8949SOL    HW138309   0.565   0.173   4.838  1.4452  1.6133  1.0111
 8949SOL    HW238310   0.539   0.321   4.804 -1.9959 -0.4733 -0.4308
 8950SOL     OW38311   2.240   3.213  13.841 -0.0045 -0.3678 -0.3112
 8950SOL    HW138312   2.310   3.155  13.811 -1.0316 -0.2547 -2.9381
 8950SOL    HW238313   2.257   3.225  13.935 -0.3258  1.5401 -0.5105
 8951SOL     OW38314   3.802   1.050  12.287  0.0749 -0.1303 -0.6060
 8951SOL    HW138315   3.725   1.073  12.235 -1.0274 -3.1014 -0.2687
 8951SOL    HW238316   3.870   1.038  12.220  0.6568  0.2299 -0.0756
 8952SOL     OW38317   3.349   2.371   3.313 -0.1865  0.4997 -0.7397
 8952SOL    HW138318   3.383   2.373   3.223 -0.2112 -1.4336 -0.7814
 8952SOL    HW238319   3.401   2.437   3.359  0.0853  0.6857 -1.3068
 8953SOL     OW38320   3.760   2.066   5.260 -0.2876 -0.3448 -0.0114
 8953SOL    HW138321   3.699   1.995   5.283  0.0292 -0.5766  0.1156
 8953SOL    HW238322   3.742   2.140   5.317 -4.1857 -1.2732 -0.0294
 8954SOL     OW38323   0.776   4.098   0.900  0.2606 -0.8032  0.2373
 8954SOL    HW138324   0.807   4.105   0.810 -2.4420 -3.9108 -0.9399
 8954SOL    HW238325   0.684   4.124   0.896  0.1934 -0.9762  0.6561
 8955SOL     OW38326   2.890   0.783   0.298  0.5254 -0.7021  0.7305
 8955SOL    HW138327   2.860   0.752   0.383  0.9349 -0.4993  0.9456
 8955SOL    HW238328   2.831   0.731   0.243 -0.5454  0.6986  0.5501
 8956SOL     OW38329   4.017   1.213   1.806  0.2028 -0.0213  0.1852
 8956SOL    HW138330   4.040   1.121   1.818  3.0104  0.5403 -0.7333
 8956SOL    HW238331   3.932   1.209   1.763  0.8437 -1.6948 -0.9258
 8957SOL     OW38332   1.878   1.946   5.665  0.4258 -0.4717  0.3595
 8957SOL    HW138333   1.903   1.975   5.577  1.3734  2.0298  1.4507
 8957SOL    HW238334   1.958   1.916   5.707  0.9470  0.6711  0.1983
 8958SOL     OW38335   2.951   3.119   2.615 -0.1757  0.7721  0.7876
 8958SOL    HW138336   2.982   3.138   2.527  1.0378 -0.5659  0.9213
 8958SOL    HW238337   3.024   3.080   2.662  0.7216 -0.3108 -1.5121
 8959SOL     OW38338   3.396   1.045   8.013 -0.4224  0.3576 -0.1862
 8959SOL    HW138339   3.362   1.012   8.096  0.4494  1.0143  0.4378
 8959SOL    HW238340   3.314   1.075   7.975 -1.5665 -3.3542 -0.5790
 8960SOL     OW38341   2.653   0.609  15.284  0.3963  0.5914  0.2274
 8960SOL    HW138342   2.723   0.663  15.248  0.6100  0.7554  0.8835
 8960SOL    HW238343   2.632   0.560  15.204 -2.0216 -1.4258  2.0752
 8961SOL     OW38344   1.012   2.944   1.238 -0.2991 -0.1374 -0.3533
 8961SOL    HW138345   0.941   3.005   1.217 -0.5974 -0.4557 -0.2706
 8961SOL    HW238346   0.974   2.867   1.194 -0.7013 -0.7695  1.0917
 8962SOL     OW38347   3.132   3.654   9.183  0.1821  0.2943  0.1788
 8962SOL    HW138348   3.104   3.722   9.121  0.2378  1.2395  1.2025
 8962SOL    HW238349   3.071   3.582   9.165  1.6984 -0.9165 -0.0680
 8963SOL     OW38350   0.451   1.883   3.873  0.4140 -0.4292 -0.0007
 8963SOL    HW138351   0.441   1.970   3.833 -0.3122 -0.9166 -0.8782
 8963SOL    HW238352   0.522   1.901   3.936 -1.6551 -0.6992  2.3931
 8964SOL     OW38353   1.220   1.785   7.925 -0.0785  0.1359 -0.3052
 8964SOL    HW138354   1.132   1.763   7.954 -0.5355 -0.3305 -2.0369
 8964SOL    HW238355   1.220   1.713   7.861  2.7147  0.5329 -0.7820
 8965SOL     OW38356   0.998   0.450  13.715  0.3128 -0.1672  0.5228
 8965SOL    HW138357   0.945   0.523  13.748 -1.5454 -1.4098  0.2920
 8965SOL    HW238358   1.086   0.488  13.714  0.4655 -0.4545  2.3654
 8966SOL     OW38359   2.157   4.412   6.857 -0.3562 -0.1597 -0.3688
 8966SOL    HW138360   2.111   4.334   6.887 -1.3504  0.9120  0.8761
 8966SOL    HW238361   2.231   4.413   6.917 -2.9859 -0.3663  2.8548
 8967SOL     OW38362   1.645   3.204   0.671 -0.3589 -0.2903 -0.1096
 8967SOL    HW138363   1.577   3.148   0.635  1.8932 -2.8836 -0.3755
 8967SOL    HW238364   1.708   3.151   0.721  0.2389  1.5701  1.1009
 8968SOL     OW38365   3.281   2.694   2.380 -0.3529 -0.2057  0.0205
 8968SOL    HW138366   3.230   2.659   2.307 -1.3750  2.8375 -0.7326
 8968SOL    HW238367   3.343   2.621   2.385 -1.6305 -1.1140  2.4981
 8969SOL     OW38368   1.560   0.169   0.456  0.1105 -0.2176  0.1616
 8969SOL    HW138369   1.629   0.145   0.518  0.8284 -0.9131 -0.9031
 8969SOL    HW238370   1.549   0.080   0.423 -0.7704  0.0228 -0.1785
 8970SOL     OW38371   1.558   4.710   5.014  0.1665 -0.0741  0.7995
 8970SOL    HW138372   1.547   0.077   4.996 -1.4031 -0.2167  1.0430
 8970SOL    HW238373   1.530   4.713   5.106  3.4628 -1.6985  1.8471
 8971SOL     OW38374   3.333   0.089   6.223 -0.0350  0.6258  0.0270
 8971SOL    HW138375   3.318   0.173   6.180 -2.2199  1.3027  2.1598
 8971SOL    HW238376   3.367   0.045   6.145  0.9363  0.5911  0.4625
 8972SOL     OW38377   1.757   3.362   6.354 -0.3685  0.1357  0.4963
 8972SOL    HW138378   1.664   3.367   6.334  0.3273  0.4469 -2.6026
 8972SOL    HW238379   1.755   3.423   6.428  0.0383  0.7519  0.0039
 8973SOL     OW38380   3.050   0.670   4.309  0.0765 -0.4780  0.2153
 8973SOL    HW138381   3.008   0.591   4.341  0.1376  0.4087  2.4706
 8973SOL    HW238382   3.143   0.648   4.305  0.2852  0.4623 -0.3134
 8974SOL     OW38383   0.313   3.416  10.681 -0.6451 -0.1196 -0.6340
 8974SOL    HW138384   0.234   3.369  10.656 -0.0435 -0.8270 -1.2201
 8974SOL    HW238385   0.304   3.401  10.775  2.4348 -0.9856 -0.4592
 8975SOL     OW38386   3.301   3.749   9.644 -0.1419  0.4733 -0.0466
 8975SOL    HW138387   3.391   3.722   9.661  0.0390  1.0164 -0.1608
 8975SOL    HW238388   3.310   3.773   9.552 -2.3462 -0.1606 -0.4370
 8976SOL     OW38389   0.249   4.632   7.037  0.3885 -0.1364  0.7017
 8976SOL    HW138390   0.299   4.618   6.956 -1.1028 -1.9754  0.1130
 8976SOL    HW238391   0.286   4.563   7.091 -0.4088 -1.4461 -0.4352
 8977SOL     OW38392   3.388   2.465   2.488  0.0593  0.7054 -0.2658
 8977SOL    HW138393   3.312   2.410   2.508  0.0959 -0.4785 -3.4311
 8977SOL    HW238394   3.431   2.415   2.419 -1.4624 -0.9364 -0.0264
 8978SOL     OW38395   3.045   1.978   7.971  0.0387 -0.1084  0.4069
 8978SOL    HW138396   3.102   1.927   8.028  1.3287  2.7326  1.6565
 8978SOL    HW238397   2.973   1.920   7.947  0.0101  0.0265  0.1650
 8979SOL     OW38398   1.248   2.827   1.659 -0.1235 -0.1591  0.1487
 8979SOL    HW138399   1.337   2.797   1.642 -0.1575 -0.7934  1.0908
 8979SOL    HW238400   1.203   2.744   1.676  0.6082 -0.4231  0.7970
 8980SOL     OW38401   2.220   0.342   7.739 -0.0009 -0.1606 -0.4159
 8980SOL    HW138402   2.152   0.409   7.743  0.3234  0.0927  1.1238
 8980SOL    HW238403   2.181   0.270   7.789  1.5400 -0.5054  0.3195
 8981SOL     OW38404   2.780   2.155   7.989  0.1099 -0.9281  0.3559
 8981SOL    HW138405   2.686   2.170   7.980  0.2662  0.6279  1.4261
 8981SOL    HW238406   2.805   2.144   8.080  1.3034 -1.4665 -0.0299
 8982SOL     OW38407   4.295   3.321   6.724 -0.2859  0.2899 -0.4337
 8982SOL    HW138408   4.291   3.395   6.662 -0.9194 -0.6477 -1.5074
 8982SOL    HW238409   4.229   3.353   6.786 -1.1025 -1.7623 -0.2748
 8983SOL     OW38410   1.555   2.843   0.686 -0.0608  0.0535 -0.2066
 8983SOL    HW138411   1.604   2.762   0.697 -1.7998 -0.9480  0.1580
 8983SOL    HW238412   1.625   2.907   0.701  0.2387 -0.5366  0.9323
 8984SOL     OW38413   0.989   3.563   4.367 -0.5249 -0.4658 -0.2831
 8984SOL    HW138414   0.929   3.595   4.299 -0.9962 -1.2965 -0.2523
 8984SOL    HW238415   0.958   3.573   4.457  0.6706  1.7513 -0.1159
 8985SOL     OW38416   1.482   0.454  10.192  0.5770 -0.0271 -0.2282
 8985SOL    HW138417   1.541   0.507  10.138 -1.5680  0.6321 -1.9322
 8985SOL    HW238418   1.408   0.446  10.131  0.8544 -1.5064 -0.3865
 8986SOL     OW38419   1.169   0.093   4.312 -0.3374  0.2916  0.2687
 8986SOL    HW138420   1.217   0.022   4.354  1.4167 -0.4431 -2.9563
 8986SOL    HW238421   1.121   0.116   4.392 -3.5613  2.1431 -2.2149
 8987SOL     OW38422   0.866   1.897   5.791 -0.2488  0.3896  0.2068
 8987SOL    HW138423   0.794   1.886   5.854 -2.6403  3.5043 -1.9679
 8987SOL    HW238424   0.909   1.974   5.828  1.9430 -0.6890 -0.0771
 8988SOL     OW38425   3.314   4.601   5.511  0.1307 -0.5242 -0.0046
 8988SOL    HW138426   3.318   4.506   5.520 -0.2105 -0.1736  3.8552
 8988SOL    HW238427   3.338   4.630   5.599 -0.9590  2.5539 -0.7031
 8989SOL     OW38428   4.101   2.166  11.386 -0.4739 -0.2855  0.4129
 8989SOL    HW138429   4.151   2.219  11.325  1.3217 -1.4841  0.8547
 8989SOL    HW238430   4.142   2.080  11.397 -2.2549 -0.8826  2.5173
 8990SOL     OW38431   1.362   2.577   3.513 -0.5268  0.3972  0.3013
 8990SOL    HW138432   1.431   2.593   3.449  0.3133  2.6826  1.7689
 8990SOL    HW238433   1.409   2.606   3.591  1.6427  1.2430 -1.3223
 8991SOL     OW38434   3.024   3.945   2.290  0.0784  0.1653  0.3748
 8991SOL    HW138435   2.988   4.024   2.248 -0.7576 -0.1650  0.4774
 8991SOL    HW238436   2.989   3.877   2.234 -1.0782  0.1241  1.1334
 8992SOL     OW38437   2.509   2.284   6.481  0.1913 -0.3051  0.4233
 8992SOL    HW138438   2.521   2.261   6.573  0.3960  0.7308  0.6453
 8992SOL    HW238439   2.576   2.352   6.479  0.1739 -0.2770  0.8358
 8993SOL     OW38440   3.682   0.770   3.206 -0.3058 -0.0599 -0.2460
 8993SOL    HW138441   3.673   0.826   3.283  0.8863  0.6961 -0.6552
 8993SOL    HW238442   3.705   0.691   3.256 -0.9754  1.5981  2.6797
 8994SOL     OW38443   1.303   0.494  13.348 -0.5793 -1.0946  1.0176
 8994SOL    HW138444   1.292   0.572  13.402  0.9353  0.9207 -1.5516
 8994SOL    HW238445   1.393   0.499  13.315 -2.5113  3.3800 -3.6518
 8995SOL     OW38446   2.513   4.248   9.366  0.1664  0.2855  0.4188
 8995SOL    HW138447   2.541   4.188   9.435  2.2960 -0.0811 -0.7642
 8995SOL    HW238448   2.447   4.203   9.313  0.0949  0.8829 -0.0061
 8996SOL     OW38449   1.502   3.935  16.985  0.1322 -0.0576  0.4064
 8996SOL    HW138450   1.433   4.001  16.992 -0.1224 -0.1249 -1.4314
 8996SOL    HW238451   1.481   3.899  16.899 -2.5826 -1.7032  1.7849
 8997SOL     OW38452   2.348   3.725   1.468  0.0261 -1.0346  0.0042
 8997SOL    HW138453   2.371   3.765   1.384 -0.5753  1.8516  1.1961
 8997SOL    HW238454   2.293   3.797   1.501 -2.1102 -2.3488 -0.6765
 8998SOL     OW38455   1.136   1.197  14.821 -0.0880  0.2695  0.4057
 8998SOL    HW138456   1.188   1.117  14.818  0.6325  0.6730  1.9071
 8998SOL    HW238457   1.142   1.227  14.731  0.6092 -0.6245  0.1505
 8999SOL     OW38458   4.368   0.759   7.886  0.0948 -0.5439 -0.1331
 8999SOL    HW138459   4.380   0.832   7.946  0.8336 -1.5892  1.0078
 8999SOL    HW238460   4.296   0.794   7.835  0.8196  0.4150 -0.4885
 9000SOL     OW38461   3.447   1.828   3.792 -0.6402  0.1853  0.4075
 9000SOL    HW138462   3.365   1.877   3.783 -0.9911 -0.7015 -1.2865
 9000SOL    HW238463   3.421   1.780   3.870 -0.3160 -2.1648 -0.9146
 9001SOL     OW38464   0.968   0.952   5.989  0.3588  0.2086 -0.0151
 9001SOL    HW138465   1.010   1.019   6.044  1.3914 -0.8078  0.4434
 9001SOL    HW238466   1.008   0.999   5.916 -0.2185  1.9480  0.7780
 9002SOL     OW38467   3.061   1.790   3.578 -0.6685 -0.1960  0.0028
 9002SOL    HW138468   3.149   1.789   3.541 -0.6790 -0.1909 -0.0228
 9002SOL    HW238469   3.057   1.865   3.637  0.4778 -0.2228  0.1111
 9003SOL     OW38470   2.172   2.771   3.760 -0.5537  0.2768 -0.1831
 9003SOL    HW138471   2.119   2.837   3.806 -3.0110 -1.5494 -0.3659
 9003SOL    HW238472   2.189   2.823   3.681 -0.8891 -3.6057 -2.8136
 9004SOL     OW38473   3.194   3.683   1.849  0.5681 -0.5615  0.0239
 9004SOL    HW138474   3.268   3.723   1.896 -1.8078  0.9451  2.5017
 9004SOL    HW238475   3.169   3.634   1.927  0.2174 -1.5522 -0.7157
 9005SOL     OW38476   1.570   0.389   7.477  0.3448  0.0648  0.5308
 9005SOL    HW138477   1.498   0.413   7.536 -0.0413  1.6733 -0.6001
 9005SOL    HW238478   1.648   0.395   7.532  1.3965  0.3843 -0.9876
 9006SOL     OW38479   1.563   2.708   7.955  0.0083  0.4913  0.3625
 9006SOL    HW138480   1.562   2.735   7.863 -0.6138  0.3910  0.3433
 9006SOL    HW238481   1.637   2.759   7.988  0.7212 -1.6612  2.0460
 9007SOL     OW38482   3.646   0.681   5.586 -0.1389 -0.2710 -0.3738
 9007SOL    HW138483   3.594   0.659   5.664 -0.5624 -2.8758 -1.3804
 9007SOL    HW238484   3.731   0.653   5.621 -0.3339 -0.4336 -0.0303
 9008SOL     OW38485   2.636   2.159   6.696 -0.2403  0.0469  0.1094
 9008SOL    HW138486   2.707   2.196   6.749 -0.5129 -1.3977  1.4793
 9008SOL    HW238487   2.691   2.128   6.624  1.7363  1.4151  1.0328
 9009SOL     OW38488   1.040   3.042   9.955 -0.2120  0.4105 -0.7250
 9009SOL    HW138489   1.056   2.980  10.026  1.1106  0.8996 -0.5815
 9009SOL    HW238490   1.072   2.995   9.878 -0.1519 -1.9929  0.7861
 9010SOL     OW38491   1.033   2.992   6.985 -0.0726 -0.2605  0.1704
 9010SOL    HW138492   1.117   2.984   7.032  0.4891 -0.7559 -0.9101
 9010SOL    HW238493   0.976   3.007   7.060  2.6253 -0.4127  2.2898
 9011SOL     OW38494   0.996   1.718   0.024  0.0636 -0.0993 -0.1293
 9011SOL    HW138495   0.976   1.810   0.009 -2.8542 -0.6373  0.5483
 9011SOL    HW238496   1.036   1.723   0.110  1.9802  2.2653 -1.1570
 9012SOL     OW38497   2.124   1.548   9.455 -0.3625 -0.0833  0.2708
 9012SOL    HW138498   2.131   1.624   9.514 -0.0677 -0.5437  0.8307
 9012SOL    HW238499   2.216   1.524   9.448  0.0419  2.5977 -3.9992
 9013SOL     OW38500   3.814   3.767   3.221 -0.2629 -0.6131  0.4692
 9013SOL    HW138501   3.768   3.839   3.264  3.2892  0.8523  1.8815
 9013SOL    HW238502   3.808   3.694   3.282 -1.4250  0.3639  1.5165
 9014SOL     OW38503   0.941   4.575   1.588 -0.1147 -0.6635 -0.0100
 9014SOL    HW138504   1.029   4.572   1.624  0.2511  1.0369 -0.7245
 9014SOL    HW238505   0.963   4.516   1.516 -0.1363 -0.6833 -0.0003
 9015SOL     OW38506   3.135   2.814   4.052 -0.4750  0.7994  0.4035
 9015SOL    HW138507   3.105   2.756   4.122 -0.7415  0.9688  0.4280
 9015SOL    HW238508   3.215   2.773   4.017 -0.0792  1.9284 -0.0178
 9016SOL     OW38509   0.759   2.152  11.419 -0.3626 -0.2979  0.7546
 9016SOL    HW138510   0.752   2.242  11.449 -1.5703 -0.5376  1.1763
 9016SOL    HW238511   0.720   2.161  11.332  1.2682 -2.6124 -0.2249
 9017SOL     OW38512   4.295   0.898   2.066  0.1473 -0.3017  0.5966
 9017SOL    HW138513   4.337   0.969   2.017  1.7107 -1.0215  0.9114
 9017SOL    HW238514   4.361   0.830   2.078  0.9910  0.5673  0.9177
 9018SOL     OW38515   3.616   0.743  16.771 -0.2756  0.6415  0.0218
 9018SOL    HW138516   3.674   0.809  16.732  0.6334 -0.1736 -0.0202
 9018SOL    HW238517   3.595   0.688  16.696  1.6773 -0.2442  0.1012
 9019SOL     OW38518   1.205   1.782   6.148  0.0840 -0.7311 -0.4725
 9019SOL    HW138519   1.133   1.765   6.087 -0.8752 -0.2952  0.5432
 9019SOL    HW238520   1.270   1.828   6.095  0.2597  0.7391  1.0480
 9020SOL     OW38521   0.616   2.795   2.013  0.0161  0.4524 -0.3960
 9020SOL    HW138522   0.687   2.856   1.993  0.1132  0.2424 -0.6815
 9020SOL    HW238523   0.577   2.782   1.927 -0.8649  1.9454 -0.2163
 9021SOL     OW38524   2.440   2.900   5.381  0.4029 -0.0828  0.1364
 9021SOL    HW138525   2.504   2.965   5.411  0.1366  0.5755 -0.7090
 9021SOL    HW238526   2.426   2.921   5.288 -1.4935 -1.1890  0.1828
 9022SOL     OW38527   2.802   3.636   4.590  0.1139  0.2330 -0.2407
 9022SOL    HW138528   2.767   3.703   4.532  0.6266  1.1981  0.5821
 9022SOL    HW238529   2.897   3.652   4.591  0.4027 -1.3554 -1.4868
 9023SOL     OW38530   1.591   1.545  16.978  0.4326  0.1459  0.4538
 9023SOL    HW138531   1.607   1.473  17.039  0.4466  1.8333  2.4425
 9023SOL    HW238532   1.510   1.510  16.943  0.5444 -0.5928  0.9293
 9024SOL     OW38533   0.983   1.434   4.099  0.1151 -0.2994 -0.0473
 9024SOL    HW138534   1.053   1.497   4.085  1.0926 -1.5521 -0.7732
 9024SOL    HW238535   0.968   1.405   4.009  0.7962 -4.1640  1.0576
 9025SOL     OW38536   2.531   0.687   7.595 -0.1044 -0.4305  0.1211
 9025SOL    HW138537   2.551   0.637   7.675 -1.1150  2.3465  2.1321
 9025SOL    HW238538   2.437   0.697   7.606 -0.1845 -0.6406 -0.3773
 9026SOL     OW38539   3.989   2.151   1.320  0.0395  0.1582 -0.0843
 9026SOL    HW138540   3.958   2.208   1.249  0.6282  1.2971  0.5738
 9026SOL    HW238541   3.979   2.209   1.395 -0.7734  4.7567 -3.6736
 9027SOL     OW38542   0.448   2.550   1.089  0.0734  0.4374  0.1175
 9027SOL    HW138543   0.364   2.596   1.093 -0.9516 -1.4895  0.7283
 9027SOL    HW238544   0.442   2.473   1.146 -2.1956  0.4289 -0.1047
 9028SOL     OW38545   2.569   1.502   8.841  0.1007  0.0911 -0.1011
 9028SOL    HW138546   2.618   1.449   8.903  0.7250 -0.0049 -0.6772
 9028SOL    HW238547   2.622   1.474   8.766  0.1890 -2.9479  1.1199
 9029SOL     OW38548   3.598   1.202   3.532 -0.0031  0.0737 -0.9434
 9029SOL    HW138549   3.683   1.226   3.493  0.1385  0.0280 -0.6634
 9029SOL    HW238550   3.622   1.143   3.603 -1.3223 -0.5817 -1.0609
 9030SOL     OW38551   3.104   0.612   4.923  0.3823  0.0701 -0.0904
 9030SOL    HW138552   3.065   0.541   4.975 -1.4604  0.5035 -0.8783
 9030SOL    HW238553   3.108   0.687   4.982 -2.4186 -0.4219  0.7403
 9031SOL     OW38554   4.391   0.951  16.334 -0.1276 -0.1968 -0.6148
 9031SOL    HW138555   4.380   0.975  16.242 -1.0219 -2.0433 -1.0047
 9031SOL    HW238556   4.302   0.944  16.369  0.1993 -0.3189  0.1839
 9032SOL     OW38557   4.208   0.459  12.509 -0.6660 -0.0932 -0.1513
 9032SOL    HW138558   4.293   0.476  12.549 -0.2437 -0.7730 -0.7554
 9032SOL    HW238559   4.202   0.367  12.534  1.2692 -0.0155  0.5878
 9033SOL     OW38560   4.421   0.422  12.749  0.0342 -0.3367 -0.1735
 9033SOL    HW138561   4.381   0.343  12.786 -2.8203  1.2806  0.1523
 9033SOL    HW238562   4.431   0.474  12.828  3.3616 -0.8358 -0.2289
 9034SOL     OW38563   3.049   1.425   1.219  0.2714  0.7942  0.0886
 9034SOL    HW138564   3.105   1.465   1.285 -0.0849 -0.2043  1.0033
 9034SOL    HW238565   2.983   1.382   1.273 -1.8061  0.5110 -2.6332
 9035SOL     OW38566   1.958   0.879   9.705 -0.1501  0.0804 -0.4767
 9035SOL    HW138567   2.028   0.944   9.715 -1.5920  1.7297 -1.0145
 9035SOL    HW238568   1.996   0.796   9.733 -0.2894  0.4118  0.7234
 9036SOL     OW38569   1.631   0.534   2.981 -0.3663 -0.1887  0.2770
 9036SOL    HW138570   1.579   0.598   3.030  1.5299  2.1082 -0.6918
 9036SOL    HW238571   1.710   0.527   3.035  0.9936  0.1082 -1.6877
 9037SOL     OW38572   3.773   3.419   7.627  0.3262  0.2721  0.2575
 9037SOL    HW138573   3.736   3.377   7.550 -0.3724  3.1113 -0.9550
 9037SOL    HW238574   3.756   3.509   7.597 -0.3415  0.0389 -0.0645
 9038SOL     OW38575   2.782   0.494   4.159  0.5259  0.1870 -0.4224
 9038SOL    HW138576   2.829   0.462   4.236 -1.6972 -2.9450 -0.3614
 9038SOL    HW238577   2.866   0.520   4.120  0.7627  0.1328  0.0439
 9039SOL     OW38578   4.002   3.353   6.355  0.5045 -0.3080  0.8325
 9039SOL    HW138579   3.927   3.395   6.314 -0.4063 -0.5109  2.2899
 9039SOL    HW238580   3.972   3.364   6.445 -1.5268 -1.0291  0.2315
 9040SOL     OW38581   3.052   3.774   8.364  0.1442 -0.0423 -1.0864
 9040SOL    HW138582   3.039   3.778   8.459  1.3816 -3.3197 -0.7901
 9040SOL    HW238583   2.962   3.750   8.340  0.3141  0.6436 -2.4133
 9041SOL     OW38584   2.541   1.050  12.130  0.5408  0.2018  0.3978
 9041SOL    HW138585   2.508   0.961  12.142  1.2673  0.0070  0.9599
 9041SOL    HW238586   2.458   1.098  12.131 -0.8360 -2.1349 -0.2181
 9042SOL     OW38587   3.088   4.524   5.815 -0.2913  0.1982 -0.1553
 9042SOL    HW138588   3.106   4.515   5.909  0.1264 -1.6926 -0.4114
 9042SOL    HW238589   3.113   4.611   5.786  2.1841 -0.1624  0.8051
 9043SOL     OW38590   1.163   2.242  10.802 -0.0793 -0.1520 -0.3687
 9043SOL    HW138591   1.088   2.297  10.782 -0.3904 -1.0854 -1.7819
 9043SOL    HW238592   1.110   2.163  10.815  0.4414 -0.4277  0.1254
 9044SOL     OW38593   1.824   3.250   3.235 -0.1671 -0.3965  0.0302
 9044SOL    HW138594   1.802   3.284   3.322  1.0365 -1.4148  0.7271
 9044SOL    HW238595   1.734   3.220   3.221 -1.1702  2.4303  0.3878
 9045SOL     OW38596   3.814   0.948   8.454 -0.1465  0.3372 -0.1716
 9045SOL    HW138597   3.740   0.987   8.501 -1.6477 -1.2884 -1.1652
 9045SOL    HW238598   3.877   1.020   8.454  0.3819 -0.1266 -0.6604
 9046SOL     OW38599   3.546   3.700   9.528  0.2948 -0.2380 -0.0228
 9046SOL    HW138600   3.478   3.737   9.472 -0.9359 -1.3711  0.6934
 9046SOL    HW238601   3.584   3.778   9.568  2.8950 -1.3448 -0.3558
 9047SOL     OW38602   2.267   1.858   0.101 -0.2541 -0.7271 -0.1921
 9047SOL    HW138603   2.229   1.809   0.174 -1.3636  0.6866  0.1745
 9047SOL    HW238604   2.190   1.866   0.045 -0.0676  1.6457 -0.0970
 9048SOL     OW38605   3.965   1.684  10.020  0.0040 -0.1458 -0.1083
 9048SOL    HW138606   3.896   1.749  10.008 -1.0338 -1.4028 -1.0074
 9048SOL    HW238607   3.969   1.639   9.935 -1.5897  0.7618 -0.6772
 9049SOL     OW38608   4.453   0.741   4.513  0.0305  0.3832  0.5073
 9049SOL    HW138609   4.456   0.776   4.602  0.9965 -0.2323  0.7101
 9049SOL    HW238610   4.529   0.779   4.469  0.0662 -0.8968 -0.5392
 9050SOL     OW38611   0.755   3.406   6.126  0.5879  0.4932  0.0540
 9050SOL    HW138612   0.742   3.322   6.082  0.2785 -0.4046  1.8670
 9050SOL    HW238613   0.780   3.466   6.056 -0.7402 -0.7922 -1.5126
 9051SOL     OW38614   1.743   0.254  12.237  1.0443  0.2279  0.4953
 9051SOL    HW138615   1.721   0.341  12.273  1.0988 -0.2257  1.6100
 9051SOL    HW238616   1.780   0.207  12.311  1.7527 -2.4309 -1.5581
 9052SOL     OW38617   0.073   3.884   3.980  0.1255 -0.7243  0.1945
 9052SOL    HW138618   0.012   3.953   4.006 -0.3768  0.3436 -3.7699
 9052SOL    HW238619   0.031   3.806   4.017  0.9988 -1.5114 -0.4799
 9053SOL     OW38620   1.767   1.264  13.433 -0.1311 -0.2469 -0.0980
 9053SOL    HW138621   1.722   1.230  13.510  0.9888 -2.8163 -0.5868
 9053SOL    HW238622   1.693   1.264  13.373  0.0655 -2.4653 -0.3285
 9054SOL     OW38623   3.520   2.186  11.388  0.0155 -0.0469 -0.8163
 9054SOL    HW138624   3.507   2.182  11.293 -1.4784  0.4303 -0.6389
 9054SOL    HW238625   3.430   2.188  11.421  0.3478 -0.8054  0.1363
 9055SOL     OW38626   0.817   1.138  10.000 -0.2862 -0.3885  0.4294
 9055SOL    HW138627   0.773   1.062   9.963  0.4299 -1.0514  0.9682
 9055SOL    HW238628   0.762   1.206   9.960  1.6047  1.6050  1.1925
 9056SOL     OW38629   3.524   3.490   9.297 -0.4713 -0.0292  0.3007
 9056SOL    HW138630   3.458   3.473   9.365  1.4163 -2.0324  1.6313
 9056SOL    HW238631   3.601   3.512   9.350 -0.1205  0.8579 -0.5924
 9057SOL     OW38632   3.837   0.832   4.568 -0.0436 -0.4605  0.6681
 9057SOL    HW138633   3.840   0.737   4.579  1.1429 -0.6507 -1.2909
 9057SOL    HW238634   3.906   0.841   4.503 -0.4060  2.8715  0.7856
 9058SOL     OW38635   3.473   2.405   6.222  0.2941 -0.2486  0.2064
 9058SOL    HW138636   3.392   2.386   6.268 -0.0031 -2.2818 -1.1899
 9058SOL    HW238637   3.448   2.367   6.138 -1.6995  0.9132  0.2720
 9059SOL     OW38638   0.856   0.627   7.596 -0.3127 -0.0221  0.2462
 9059SOL    HW138639   0.813   0.580   7.525  0.7931 -0.4164 -0.1439
 9059SOL    HW238640   0.800   0.705   7.592 -1.6126 -0.9146  0.9732
 9060SOL     OW38641   0.583   1.753   4.278  0.1479  0.6159  0.0542
 9060SOL    HW138642   0.656   1.734   4.336 -0.8721 -1.5064  0.6626
 9060SOL    HW238643   0.572   1.666   4.238  2.5280  0.2914  0.1073
 9061SOL     OW38644   4.118   1.881  13.718  0.6483  0.1117 -0.4908
 9061SOL    HW138645   4.101   1.924  13.802  1.4784 -1.0665  0.2728
 9061SOL    HW238646   4.205   1.843  13.733  1.1034  1.5236  0.5214
 9062SOL     OW38647   0.169   2.763   6.517 -0.2636 -0.4496 -0.1828
 9062SOL    HW138648   0.219   2.738   6.439  1.1543 -0.4469  0.7307
 9062SOL    HW238649   0.079   2.747   6.487 -0.4827  1.3636 -0.5254
 9063SOL     OW38650   3.660   2.267   7.838 -0.1195 -0.1246 -0.1886
 9063SOL    HW138651   3.569   2.286   7.860 -0.4097 -0.8670 -0.7439
 9063SOL    HW238652   3.645   2.195   7.777 -2.7644  2.5556 -2.6524
 9064SOL     OW38653   4.237   2.523   9.747  0.0638 -0.0295  0.1473
 9064SOL    HW138654   4.280   2.535   9.831 -3.2770 -1.2214  2.0252
 9064SOL    HW238655   4.246   2.604   9.696 -1.2519 -0.8317 -1.3731
 9065SOL     OW38656   1.963   2.050  13.613  0.2552  0.1135  0.5102
 9065SOL    HW138657   2.022   2.046  13.688 -1.6362  0.4121  1.9924
 9065SOL    HW238658   1.874   2.051  13.649  0.1632 -3.5965  0.3597
 9066SOL     OW38659   1.749   3.498  15.791 -0.1338 -0.0055 -1.0333
 9066SOL    HW138660   1.692   3.527  15.720 -1.2162  0.6717  0.0919
 9066SOL    HW238661   1.698   3.516  15.870 -0.2334  0.7779 -1.2767
 9067SOL     OW38662   4.551   0.625   5.184  0.3363  0.9035 -0.4772
 9067SOL    HW138663   4.510   0.696   5.233 -1.7449 -0.2243 -0.6152
 9067SOL    HW238664   4.490   0.554   5.205  1.3599 -0.5034 -2.2276
 9068SOL     OW38665   1.221   3.686   0.736  0.1308  0.5266  0.5829
 9068SOL    HW138666   1.281   3.711   0.806  1.2554  0.2585 -0.2974
 9068SOL    HW238667   1.225   3.591   0.737  0.9297  0.5565 -0.4320
 9069SOL     OW38668   1.829   0.711   7.200 -0.5099  0.0132  0.6762
 9069SOL    HW138669   1.776   0.772   7.149 -0.1296  0.4422  0.7951
 9069SOL    HW238670   1.850   0.641   7.138 -1.2067 -0.0230  0.4804
 9070SOL     OW38671   0.962   0.848   8.382 -0.2725 -0.1495 -0.3016
 9070SOL    HW138672   0.887   0.905   8.401  1.1538  0.9985  1.9053
 9070SOL    HW238673   0.923   0.783   8.323  2.4944 -1.7256 -0.3394
 9071SOL     OW38674   4.322   3.182   5.533 -0.1266  0.1910  0.7275
 9071SOL    HW138675   4.359   3.260   5.573  1.7995 -0.9537  1.1717
 9071SOL    HW238676   4.256   3.145   5.592  2.6612 -1.4731  2.7641
 9072SOL     OW38677   1.215   3.978  17.520 -0.0324 -0.0976 -0.2595
 9072SOL    HW138678   1.235   4.066  17.487 -1.8128 -0.6215 -2.7380
 9072SOL    HW238679   1.158   3.935  17.456  0.4552  0.7619 -1.2812
 9073SOL     OW38680   2.806   3.591   7.169 -1.1192 -0.2506  0.5294
 9073SOL    HW138681   2.745   3.660   7.145 -0.1336  0.7417  0.8837
 9073SOL    HW238682   2.746   3.516   7.170 -1.1456 -0.2858 -2.0387
 9074SOL     OW38683   0.890   0.235  11.425 -0.0149 -0.5273  0.5002
 9074SOL    HW138684   0.917   0.280  11.345  0.5357 -0.0536  0.9550
 9074SOL    HW238685   0.957   0.267  11.485 -0.1689  0.0648  0.3620
 9075SOL     OW38686   2.115   1.661   8.392  0.2823 -0.0328 -0.3950
 9075SOL    HW138687   2.188   1.610   8.358  0.7562  0.1330  0.3795
 9075SOL    HW238688   2.152   1.701   8.471 -2.1695 -0.0491  0.7371
 9076SOL     OW38689   3.468   2.617  12.492  0.1912 -0.3698 -0.6561
 9076SOL    HW138690   3.432   2.616  12.581  1.6936  2.7372 -0.0274
 9076SOL    HW238691   3.433   2.534  12.460  0.5427 -0.4994 -0.7052
 9077SOL     OW38692   3.859   3.464   2.318 -0.4908 -0.6891 -0.1102
 9077SOL    HW138693   3.815   3.482   2.235  2.6276 -0.4252 -1.7191
 9077SOL    HW238694   3.904   3.548   2.329 -1.0322 -0.2522 -1.1994
 9078SOL     OW38695   2.795   3.060   3.971 -0.0762  0.3320  0.0514
 9078SOL    HW138696   2.734   3.055   3.898  1.4074  0.8841 -1.2444
 9078SOL    HW238697   2.800   3.155   3.984 -1.0231  0.6216 -1.6679
 9079SOL     OW38698   0.509   4.602   1.914  0.2699 -0.2330 -1.0383
 9079SOL    HW138699   0.559   4.550   1.851  0.4038  1.1345 -2.0794
 9079SOL    HW238700   0.500   4.680   1.859 -0.8546  1.3085  1.3614
 9080SOL     OW38701   1.361   2.655  16.557  0.1051 -0.2266  0.5037
 9080SOL    HW138702   1.382   2.580  16.612 -1.2927 -1.1505 -0.2240
 9080SOL    HW238703   1.449   2.667  16.522  0.7591 -1.0649  1.8624
 9081SOL     OW38704   1.076   3.472   3.267  0.6581 -0.5105  0.4259
 9081SOL    HW138705   1.055   3.517   3.348 -0.2483  0.3643 -0.2923
 9081SOL    HW238706   0.995   3.434   3.232  0.5092  1.4734 -1.4451
 9082SOL     OW38707   0.041   3.819   7.326  0.2698  0.1615 -0.4366
 9082SOL    HW138708   4.702   3.784   7.386  0.0044 -0.0514 -0.8459
 9082SOL    HW238709   0.021   3.913   7.323  1.3766  0.3390 -2.5668
 9083SOL     OW38710   4.482   2.081   3.996 -0.6026 -0.1494  0.3461
 9083SOL    HW138711   4.490   1.986   3.991 -1.1778 -0.1649 -0.1796
 9083SOL    HW238712   4.464   2.114   3.908 -2.7661  3.1808  2.0119
 9084SOL     OW38713   4.323   0.183   7.087 -0.2860 -0.0757  0.1637
 9084SOL    HW138714   4.307   0.091   7.110  1.6009 -0.3628  0.3332
 9084SOL    HW238715   4.267   0.185   7.010  1.2971  2.5571 -0.9198
 9085SOL     OW38716   1.283   2.196   6.098 -0.3691  0.5586 -0.3352
 9085SOL    HW138717   1.216   2.162   6.158 -0.9389  0.8731 -0.7855
 9085SOL    HW238718   1.366   2.154   6.120 -0.6606  0.0327 -0.2436
 9086SOL     OW38719   2.024   1.325   6.149 -0.0647 -0.3558  0.4210
 9086SOL    HW138720   2.072   1.407   6.157  1.6991 -1.4019  0.6375
 9086SOL    HW238721   2.069   1.265   6.208  1.5962 -0.1349 -0.6299
 9087SOL     OW38722   0.422   1.510   1.800  1.0179  0.3174 -0.4305
 9087SOL    HW138723   0.386   1.432   1.842  0.2398  0.8941 -0.0249
 9087SOL    HW238724   0.505   1.476   1.769  0.2805  0.1638 -2.2635
 9088SOL     OW38725   4.025   1.686   2.983 -0.3372  0.2347 -1.0806
 9088SOL    HW138726   3.968   1.641   2.920 -1.2160 -0.2560  0.0748
 9088SOL    HW238727   3.972   1.766   2.990  0.5622  0.6454  1.0745
 9089SOL     OW38728   1.347   3.967  16.275 -0.2322  0.3508 -0.0742
 9089SOL    HW138729   1.347   4.004  16.363 -1.0661  0.6819 -0.2186
 9089SOL    HW238730   1.255   3.941  16.276 -0.4618  1.1460 -0.7479
 9090SOL     OW38731   4.215   0.681  15.943  0.2130  0.0577 -0.2807
 9090SOL    HW138732   4.228   0.749  16.009 -0.7855 -1.1724  1.1522
 9090SOL    HW238733   4.237   0.728  15.862 -0.8929  0.4174 -0.3719
 9091SOL     OW38734   0.397   1.028   9.223 -0.3612 -0.0221 -0.1423
 9091SOL    HW138735   0.484   1.004   9.257 -1.2562 -1.7388  0.9142
 9091SOL    HW238736   0.386   1.113   9.265  4.1372  0.5505 -0.0527
 9092SOL     OW38737   2.240   0.687   8.879 -0.2076 -0.4408  0.3401
 9092SOL    HW138738   2.323   0.671   8.834  0.7717 -0.5007  2.2028
 9092SOL    HW238739   2.231   0.781   8.863 -2.2006 -0.9217 -1.4728
 9093SOL     OW38740   4.366   1.521   9.431  0.0901 -0.0148  0.1199
 9093SOL    HW138741   4.338   1.444   9.480  1.0697 -1.1311 -1.0570
 9093SOL    HW238742   4.294   1.583   9.429  0.5302  0.4886 -0.2791
 9094SOL     OW38743   2.167   2.722   6.297  0.4270 -0.2269 -0.2663
 9094SOL    HW138744   2.220   2.765   6.231  0.5357 -0.8270 -0.5729
 9094SOL    HW238745   2.234   2.708   6.364 -0.6364  0.3991  0.9348
 9095SOL     OW38746   3.255   3.651   2.363 -0.4206  0.6319 -0.2621
 9095SOL    HW138747   3.190   3.597   2.410 -1.4509  0.5780 -1.7613
 9095SOL    HW238748   3.215   3.645   2.277 -0.0874 -0.5708 -0.3372
 9096SOL     OW38749   4.611   2.216   6.884 -0.4873  0.1940 -0.5485
 9096SOL    HW138750   4.614   2.267   6.803  0.2306  4.0064  1.8782
 9096SOL    HW238751   4.573   2.132   6.857 -0.5315  0.0395 -0.0154
 9097SOL     OW38752   3.381   2.844   0.633  0.6708 -0.7807 -0.6918
 9097SOL    HW138753   3.374   2.778   0.564 -0.7966  1.9776 -3.1546
 9097SOL    HW238754   3.294   2.884   0.629 -0.0193 -2.2522 -0.4679
 9098SOL     OW38755   1.728   2.992   0.817  0.2578  0.4298 -0.5873
 9098SOL    HW138756   1.813   2.959   0.846  0.6960  0.7084 -1.5415
 9098SOL    HW238757   1.692   3.022   0.900  2.8565 -1.6648  1.2729
 9099SOL     OW38758   2.708   1.455   2.452  0.1054  0.1814  0.2879
 9099SOL    HW138759   2.776   1.521   2.466  1.3150 -1.4563  2.0745
 9099SOL    HW238760   2.633   1.496   2.495 -1.0677 -1.4127 -0.2026
 9100SOL     OW38761   1.539   2.013   5.186  0.2259 -0.2954  0.0002
 9100SOL    HW138762   1.566   2.090   5.135 -0.5228 -0.4981 -0.7010
 9100SOL    HW238763   1.464   2.057   5.227  0.7773 -0.8577  1.6063
 9101SOL     OW38764   3.852   0.249   2.448  0.4986  0.4556 -0.7941
 9101SOL    HW138765   3.869   0.249   2.543 -0.4490  1.0851 -0.6280
 9101SOL    HW238766   3.826   0.159   2.427 -0.1576  0.8064 -1.4955
 9102SOL     OW38767   3.771   2.209   2.740  0.3041  0.0179  0.0917
 9102SOL    HW138768   3.737   2.123   2.716  2.1552 -0.7795  0.3240
 9102SOL    HW238769   3.687   2.252   2.754  0.6821  1.5495 -2.1932
 9103SOL     OW38770   0.752   4.006   7.591 -0.4208 -0.2371 -0.4739
 9103SOL    HW138771   0.665   3.996   7.629  0.2263 -2.6360  0.3994
 9103SOL    HW238772   0.772   4.098   7.573 -0.5831 -0.2423 -0.6880
 9104SOL     OW38773   3.219   0.313   7.859 -0.2566 -0.6544 -0.6916
 9104SOL    HW138774   3.151   0.310   7.926  1.2175 -0.2836  0.8202
 9104SOL    HW238775   3.180   0.269   7.784 -2.2213 -3.7243  2.1081
 9105SOL     OW38776   0.396   1.277   5.176 -0.2343 -0.1700 -0.0635
 9105SOL    HW138777   0.380   1.297   5.268 -0.7605 -0.3268 -0.1195
 9105SOL    HW238778   0.491   1.264   5.180 -0.6148 -2.8630  0.3149
 9106SOL     OW38779   1.882   3.232   0.294  0.5948  0.3038 -0.6729
 9106SOL    HW138780   1.961   3.186   0.320  0.7711  1.0536  0.1258
 9106SOL    HW238781   1.875   3.310   0.350  0.4403 -1.0474  1.1695
 9107SOL     OW38782   3.718   1.791   7.150  0.4388 -0.4287 -0.2870
 9107SOL    HW138783   3.764   1.724   7.099 -0.6884 -0.1954 -1.5865
 9107SOL    HW238784   3.651   1.742   7.197  1.2292 -2.9721 -1.8285
 9108SOL     OW38785   1.959   3.416   2.602  0.0643  0.0946 -0.2033
 9108SOL    HW138786   1.964   3.322   2.620  0.1587  0.4539  1.7151
 9108SOL    HW238787   2.004   3.456   2.677  2.0765 -1.0298 -0.8221
 9109SOL     OW38788   1.253   0.342  12.306 -0.5124  0.0303  0.2446
 9109SOL    HW138789   1.274   0.296  12.387 -0.1702 -2.5073 -1.3111
 9109SOL    HW238790   1.251   0.272  12.242  3.6235  1.6128 -1.6310
 9110SOL     OW38791   0.724   2.866   6.955 -0.0305  0.0875  0.1420
 9110SOL    HW138792   0.633   2.855   6.982 -1.0829  4.2677 -1.8223
 9110SOL    HW238793   0.722   2.945   6.903 -0.3913 -0.1538 -0.2089
 9111SOL     OW38794   2.063   2.459   9.546  0.2950  0.1095  0.0418
 9111SOL    HW138795   2.035   2.530   9.604  0.8380  0.5776 -0.2709
 9111SOL    HW238796   2.021   2.386   9.593  1.3285 -1.8612 -2.0997
 9112SOL     OW38797   1.284   1.194   7.520 -0.3189  0.1694  0.1254
 9112SOL    HW138798   1.214   1.147   7.475  1.6874 -2.4419 -0.2998
 9112SOL    HW238799   1.265   1.287   7.504  0.6032  0.4446  0.6427
 9113SOL     OW38800   2.300   4.427   3.897 -0.1920 -0.2419  0.1049
 9113SOL    HW138801   2.379   4.376   3.881  0.0077 -0.5331  2.0792
 9113SOL    HW238802   2.258   4.411   3.813 -0.0656  1.8193 -0.3417
 9114SOL     OW38803   4.458   3.180   6.219 -0.2872 -0.4269  0.0315
 9114SOL    HW138804   4.406   3.176   6.299 -0.8962 -0.5758 -0.3729
 9114SOL    HW238805   4.545   3.199   6.254 -0.3432  0.4319 -0.3072
 9115SOL     OW38806   0.004   2.445   4.782  0.1201 -0.0941  0.2499
 9115SOL    HW138807   4.723   2.372   4.843 -1.1562 -0.8713 -0.8069
 9115SOL    HW238808   0.028   2.396   4.704 -2.6891  1.0557 -1.3718
 9116SOL     OW38809   2.068   1.507   5.075 -0.2519  0.2802 -0.0667
 9116SOL    HW138810   2.151   1.539   5.039 -0.5306  2.9432  1.6612
 9116SOL    HW238811   2.108   1.424   5.102 -0.9103 -0.5579 -1.6544
 9117SOL     OW38812   4.654   3.354   4.994 -0.0136  0.4741  0.1146
 9117SOL    HW138813   4.564   3.352   5.026  0.1839 -2.5216  0.5148
 9117SOL    HW238814   4.630   3.397   4.912  1.1112  1.3080  0.2179
 9118SOL     OW38815   4.040   2.460   2.126  0.3897 -0.6577  0.0518
 9118SOL    HW138816   4.121   2.467   2.074  0.4210 -1.1679  0.0264
 9118SOL    HW238817   3.986   2.408   2.066  0.5803 -1.8873  0.9274
 9119SOL     OW38818   3.918   3.741   7.414 -0.5884 -0.8089 -0.4388
 9119SOL    HW138819   3.886   3.788   7.337  0.5359  0.5571 -0.0677
 9119SOL    HW238820   3.837   3.705   7.451 -1.6678  2.6017  0.4497
 9120SOL     OW38821   1.441   4.199   0.913 -0.7302  0.3268  0.0002
 9120SOL    HW138822   1.433   4.139   0.838  0.7967 -0.2729  0.3203
 9120SOL    HW238823   1.351   4.192   0.943 -1.0560  1.5263 -0.6944
 9121SOL     OW38824   0.825   2.360  17.318  0.5519 -0.0814 -0.1321
 9121SOL    HW138825   0.798   2.403  17.399  1.1502 -0.1165  0.0875
 9121SOL    HW238826   0.814   2.429  17.253  1.3990  2.0013  1.9171
 9122SOL     OW38827   2.211   3.645   5.619  0.1047 -0.8799  0.2858
 9122SOL    HW138828   2.207   3.591   5.698 -0.8041  2.3258  2.4342
 9122SOL    HW238829   2.132   3.699   5.627  2.7236  3.0936 -0.4855
 9123SOL     OW38830   1.730   0.349   9.829 -0.0759  0.4164 -0.0169
 9123SOL    HW138831   1.696   0.260   9.840  0.5801 -0.0293 -1.6663
 9123SOL    HW238832   1.812   0.316   9.865 -0.6277 -1.5598 -0.5601
 9124SOL     OW38833   4.719   0.789   0.087  0.6141 -0.0078  0.5523
 9124SOL    HW138834   0.076   0.749   0.112  1.1136 -0.2366 -1.4754
 9124SOL    HW238835   4.654   0.719   0.080  2.3776 -1.4573 -1.4772
 9125SOL     OW38836   0.402   1.534  13.930 -0.7057  0.8248  0.0939
 9125SOL    HW138837   0.393   1.482  14.010  0.8708  0.8382  0.2614
 9125SOL    HW238838   0.358   1.467  13.877 -1.7280  1.8501 -0.3627
 9126SOL     OW38839   0.647   0.877   4.155  0.0829  0.0809  0.2068
 9126SOL    HW138840   0.730   0.881   4.107 -0.3598 -0.0805 -0.5634
 9126SOL    HW238841   0.649   0.782   4.165 -1.2018 -0.0685 -0.8625
 9127SOL     OW38842   1.657   2.937   8.313  0.0219  0.0025 -0.1988
 9127SOL    HW138843   1.641   2.871   8.382  0.1278 -0.3380 -0.5008
 9127SOL    HW238844   1.596   3.007   8.335  0.9042  0.9478 -0.7491
 9128SOL     OW38845   1.629   2.395   6.122  0.4291 -0.1510 -0.0934
 9128SOL    HW138846   1.567   2.385   6.194  0.8863 -0.8299  0.2031
 9128SOL    HW238847   1.567   2.400   6.049  0.9765  2.5496 -0.3585
 9129SOL     OW38848   1.752   3.334   8.559 -0.1779 -0.7204 -0.1843
 9129SOL    HW138849   1.701   3.254   8.547 -0.9653 -0.0662 -1.2388
 9129SOL    HW238850   1.697   3.397   8.512  0.4449 -0.4132 -0.4961
 9130SOL     OW38851   2.877   2.022  11.288  0.4881  0.4882 -0.1000
 9130SOL    HW138852   2.787   2.027  11.320 -0.8448 -2.5079 -3.4222
 9130SOL    HW238853   2.857   2.086  11.220 -0.2880  2.3978  1.9232
 9131SOL     OW38854   3.593   4.027   7.577  0.4660  0.0817  0.1643
 9131SOL    HW138855   3.687   4.038   7.569  0.3039  2.5734  1.5594
 9131SOL    HW238856   3.584   3.948   7.631 -0.2847 -1.6644 -2.5324
 9132SOL     OW38857   0.437   4.509   8.348  0.2722 -0.0701 -0.1786
 9132SOL    HW138858   0.345   4.488   8.364 -0.1834  2.0215 -0.0180
 9132SOL    HW238859   0.444   4.509   8.253 -1.7286  3.7745 -0.3367
 9133SOL     OW38860   2.809   0.029  13.076 -0.7028 -0.0116 -0.3059
 9133SOL    HW138861   2.756   0.108  13.088 -0.6723  0.0421 -0.5207
 9133SOL    HW238862   2.870   0.029  13.149  0.1811 -1.0087 -1.0529
 9134SOL     OW38863   2.143   0.873   3.583 -0.3189 -0.2448  0.3455
 9134SOL    HW138864   2.106   0.959   3.560  0.1555 -0.8543 -2.6175
 9134SOL    HW238865   2.082   0.857   3.655 -0.7236  0.2674  0.1170
 9135SOL     OW38866   0.599   0.686   3.349  0.0854 -0.2368  0.0037
 9135SOL    HW138867   0.509   0.655   3.347 -1.2604  3.6396  1.4904
 9135SOL    HW238868   0.610   0.712   3.258  1.3531 -1.3549 -0.1754
 9136SOL     OW38869   0.179   2.890   3.195 -0.0925 -0.1995  0.0610
 9136SOL    HW138870   0.125   2.814   3.174 -3.0254  2.0252 -0.4922
 9136SOL    HW238871   0.121   2.965   3.177  0.1215  0.0038  0.2130
 9137SOL     OW38872   3.765   0.210   8.805  0.2035 -0.6003 -0.0128
 9137SOL    HW138873   3.824   0.180   8.736  0.8582 -1.0497  0.7378
 9137SOL    HW238874   3.780   0.303   8.790  0.9822 -0.9448 -1.3550
 9138SOL     OW38875   3.954   2.291  13.671  0.2671 -0.1553 -1.0433
 9138SOL    HW138876   3.908   2.209  13.654  0.9543 -0.7497 -0.0208
 9138SOL    HW238877   3.959   2.276  13.765 -0.7570 -0.6791 -1.0667
 9139SOL     OW38878   1.832   0.690   5.429 -0.1381  0.1926  0.5429
 9139SOL    HW138879   1.904   0.637   5.395 -0.5993 -0.0645 -0.0270
 9139SOL    HW238880   1.862   0.724   5.514  0.2184  0.0285  0.4813
 9140SOL     OW38881   2.694   3.442   5.820  0.2474  0.3034 -0.1230
 9140SOL    HW138882   2.751   3.367   5.801 -0.9769 -1.0411  1.4989
 9140SOL    HW238883   2.759   3.512   5.821 -0.4134  0.8871  0.8653
 9141SOL     OW38884   1.680   1.860  12.092  0.3874 -0.4063  0.3350
 9141SOL    HW138885   1.636   1.898  12.168 -0.0470  0.7608 -0.4845
 9141SOL    HW238886   1.628   1.781  12.078  1.5780 -1.1963  0.4435
 9142SOL     OW38887   4.592   0.478   2.282  0.2101  0.6641 -0.0002
 9142SOL    HW138888   4.638   0.401   2.317 -0.8205  2.0141  4.2371
 9142SOL    HW238889   4.518   0.484   2.342  0.5965  0.2236  0.5216
 9143SOL     OW38890   3.830   0.468   8.768  0.2464  0.1236 -0.4311
 9143SOL    HW138891   3.912   0.490   8.811  0.2543  0.9080 -0.8364
 9143SOL    HW238892   3.839   0.530   8.695  0.9445 -0.3073 -0.7096
 9144SOL     OW38893   0.550   3.770  16.549 -0.5626  0.6187  0.0177
 9144SOL    HW138894   0.509   3.686  16.529 -1.1472  1.1280 -0.8860
 9144SOL    HW238895   0.621   3.731  16.601 -0.0059  1.9505  0.2378
 9145SOL     OW38896   1.447   3.218  16.044  0.3858 -0.6143 -0.1491
 9145SOL    HW138897   1.388   3.293  16.031  1.6737  0.1289 -1.6303
 9145SOL    HW238898   1.416   3.156  15.978 -0.8891  0.3927 -0.5184
 9146SOL     OW38899   1.768   2.493   4.190 -0.4981  0.7629  0.4433
 9146SOL    HW138900   1.753   2.420   4.130 -0.5435 -0.5590  2.0446
 9146SOL    HW238901   1.852   2.529   4.160 -0.5115 -0.9960 -1.6694
 9147SOL     OW38902   1.943   0.016   3.634  0.3044  0.0840 -0.3609
 9147SOL    HW138903   2.027   0.023   3.589  1.3732  1.0866  1.8171
 9147SOL    HW238904   1.889   0.089   3.602 -1.1084 -1.2251 -0.9938
 9148SOL     OW38905   0.694   1.545   9.097  0.0247  0.0098  0.6539
 9148SOL    HW138906   0.603   1.514   9.094 -0.9345  2.8450 -0.0565
 9148SOL    HW238907   0.672   1.620   9.042 -0.8243 -0.5826  0.1851
 9149SOL     OW38908   2.569   1.017   4.627  0.4531 -0.0769  0.3772
 9149SOL    HW138909   2.606   1.069   4.698 -1.3185 -0.8126  1.8409
 9149SOL    HW238910   2.601   0.928   4.644  0.5934 -0.0065  0.4796
 9150SOL     OW38911   1.349   1.799   8.743  0.0293 -0.3912 -0.0871
 9150SOL    HW138912   1.335   1.846   8.661 -1.4652 -1.9538 -0.7183
 9150SOL    HW238913   1.291   1.851   8.798  0.5659 -0.9795  1.0325
 9151SOL     OW38914   2.993   3.792  15.919 -0.1677 -0.0476 -0.3877
 9151SOL    HW138915   3.000   3.696  15.914 -1.6481 -0.0403 -2.8498
 9151SOL    HW238916   2.901   3.796  15.892 -0.5597 -1.0549  0.8055
 9152SOL     OW38917   3.644   3.496   5.002  0.2380  0.4370  0.2069
 9152SOL    HW138918   3.659   3.499   5.097  2.4038  0.4945 -0.1354
 9152SOL    HW238919   3.703   3.563   4.969 -1.3658  1.4745 -0.5432
 9153SOL     OW38920   0.538   2.112   5.889 -0.1990 -0.3610  0.3520
 9153SOL    HW138921   0.549   2.173   5.816  0.6308 -1.0245 -0.0669
 9153SOL    HW238922   0.511   2.170   5.960 -0.5067  1.0277 -0.8831
 9154SOL     OW38923   0.293   4.341   0.352 -0.2625 -0.3340  0.2288
 9154SOL    HW138924   0.244   4.375   0.427  2.9841 -0.9757  2.6857
 9154SOL    HW238925   0.247   4.398   0.291  1.2412 -0.7395 -1.2864
 9155SOL     OW38926   1.256   0.676  12.379 -0.8759  0.2367 -0.0531
 9155SOL    HW138927   1.191   0.676  12.450  0.6342 -0.7898  1.3330
 9155SOL    HW238928   1.275   0.769  12.367  2.5174 -0.2473  1.7051
 9156SOL     OW38929   4.104   4.482   5.731  0.3700  0.2852 -0.2991
 9156SOL    HW138930   4.173   4.535   5.692  0.9274  0.1635  0.5065
 9156SOL    HW238931   4.058   4.537   5.795 -0.4151 -0.9969  0.2540
 9157SOL     OW38932   2.934   0.235   6.208 -0.1003  0.0035 -0.4113
 9157SOL    HW138933   2.995   0.166   6.235 -0.2053  0.3490  0.7274
 9157SOL    HW238934   2.986   0.313   6.227  1.3915 -1.6447  2.3763
 9158SOL     OW38935   0.476   0.434  16.635  0.1564 -0.5631 -0.8998
 9158SOL    HW138936   0.420   0.372  16.587 -0.2803 -1.6138  0.9452
 9158SOL    HW238937   0.412   0.501  16.658 -0.4318 -2.0823  1.9017
 9159SOL     OW38938   3.870   0.537   7.183  0.1906 -0.0605  0.1273
 9159SOL    HW138939   3.922   0.456   7.193  0.8926  0.0733 -2.3957
 9159SOL    HW238940   3.893   0.572   7.269 -1.0550 -0.2114  0.5175
 9160SOL     OW38941   3.015   0.617   7.763  0.1010 -0.4014 -0.3537
 9160SOL    HW138942   2.971   0.547   7.811  0.6230 -1.8022 -1.9196
 9160SOL    HW238943   2.951   0.656   7.704 -1.4682 -0.7781  1.1189
 9161SOL     OW38944   1.291   4.324  16.459  0.5002  0.3893  0.2986
 9161SOL    HW138945   1.249   4.403  16.426  0.1816  0.0407 -0.1200
 9161SOL    HW238946   1.349   4.365  16.523  0.4582 -0.8979  1.1622
 9162SOL     OW38947   3.875   1.382   8.055 -0.1993  0.2577 -0.1624
 9162SOL    HW138948   3.802   1.351   8.002 -0.7362  3.4529 -1.3274
 9162SOL    HW238949   3.883   1.470   8.017  0.9541 -0.3521 -1.3134
 9163SOL     OW38950   3.900   4.232   2.485 -0.2053  0.2453 -0.4984
 9163SOL    HW138951   3.965   4.166   2.461 -0.7439 -0.2925 -0.4734
 9163SOL    HW238952   3.901   4.230   2.581  0.7620  1.7148 -0.4879
 9164SOL     OW38953   2.570   1.019   7.338 -0.1294 -0.2658  0.6480
 9164SOL    HW138954   2.646   1.011   7.396  0.0793  1.9175  0.6760
 9164SOL    HW238955   2.525   0.934   7.344 -1.1883  0.2491  0.0988
 9165SOL     OW38956   2.399   0.238   1.258 -0.5332 -0.4892  0.1126
 9165SOL    HW138957   2.401   0.253   1.164 -2.8036 -0.2243  0.1027
 9165SOL    HW238958   2.384   0.144   1.254 -0.3378 -0.5024 -0.2498
 9166SOL     OW38959   2.649   4.372  12.537  0.5898  0.2665  0.4625
 9166SOL    HW138960   2.740   4.366  12.510  1.4195  2.4346  2.8098
 9166SOL    HW238961   2.613   4.311  12.472  1.5039  1.4459 -1.1466
 9167SOL     OW38962   2.775   0.559  17.501 -0.7072 -0.0213 -0.0742
 9167SOL    HW138963   2.727   0.481  17.528 -3.2727  0.7718 -2.2877
 9167SOL    HW238964   2.698   0.610  17.473  0.3240  0.9115 -1.2275
 9168SOL     OW38965   1.734   2.320   9.448  0.0021 -0.4286  0.5576
 9168SOL    HW138966   1.767   2.348   9.533  0.1160  0.5325  0.2009
 9168SOL    HW238967   1.678   2.396   9.433  0.5457 -0.0775  0.2885
 9169SOL     OW38968   2.133   0.896   0.396 -0.3742 -0.0323  0.0510
 9169SOL    HW138969   2.064   0.884   0.331  0.0060 -2.8358  0.1931
 9169SOL    HW238970   2.157   0.988   0.381 -0.2351  0.0663  0.8690
 9170SOL     OW38971   0.251   0.760  11.240 -0.1520 -0.1385  0.1592
 9170SOL    HW138972   0.167   0.750  11.286 -0.5569  1.1909 -0.2912
 9170SOL    HW238973   0.306   0.707  11.298 -1.3667 -0.7112  0.8065
 9171SOL     OW38974   1.477   4.257   6.911  0.1269 -0.1158  0.4771
 9171SOL    HW138975   1.413   4.201   6.955  1.4209 -2.0712 -0.0834
 9171SOL    HW238976   1.473   4.346   6.946  2.3008  0.3821 -0.5530
 9172SOL     OW38977   2.587   1.534   0.698 -0.2978 -0.2855 -0.3431
 9172SOL    HW138978   2.564   1.492   0.615  2.6920  0.7274 -1.6640
 9172SOL    HW238979   2.519   1.500   0.756 -0.7297 -0.5138 -0.9803
 9173SOL     OW38980   4.721   4.223   7.900  0.5137  0.3676  0.0145
 9173SOL    HW138981   4.654   4.190   7.961 -0.4514  0.2170 -1.1333
 9173SOL    HW238982   0.050   4.270   7.962 -1.5286  2.9251 -0.0851
 9174SOL     OW38983   2.066   3.032   7.100 -0.5208  0.0996  0.4199
 9174SOL    HW138984   1.978   3.032   7.138 -1.3998  2.8197 -1.5887
 9174SOL    HW238985   2.045   2.992   7.015  0.2911 -0.7744  0.6369
 9175SOL     OW38986   1.276   0.116   7.260  0.8475 -0.4269  0.4021
 9175SOL    HW138987   1.237   0.064   7.190  1.1652  0.0530 -0.1303
 9175SOL    HW238988   1.303   0.199   7.221  0.6180 -0.9905 -0.9482
 9176SOL     OW38989   3.258   0.880   7.234  0.5235  0.4730 -0.3838
 9176SOL    HW138990   3.312   0.815   7.280 -1.3589  0.0527  1.2131
 9176SOL    HW238991   3.320   0.902   7.164  0.7108  1.7173  0.1672
 9177SOL     OW38992   4.407   1.220   4.663 -0.1668 -0.2108  0.4058
 9177SOL    HW138993   4.322   1.243   4.626  0.5466  2.2312  0.2563
 9177SOL    HW238994   4.416   1.269   4.745 -3.5679 -1.1857  1.3678
 9178SOL     OW38995   4.624   0.971   3.935  0.1083  0.4151  0.3759
 9178SOL    HW138996   4.578   1.054   3.922  2.4036  1.5053 -0.9121
 9178SOL    HW238997   4.678   0.979   3.856  0.7287  1.5869  0.9172
 9179SOL     OW38998   3.940   0.286   7.290  0.2090 -0.4744  0.0981
 9179SOL    HW138999   3.873   0.264   7.354 -0.0817  0.4988  0.1197
 9179SOL    HW239000   3.997   0.208   7.292  1.9807  0.7914 -0.8439
 9180SOL     OW39001   2.580   0.095   7.882  0.1891  0.2546 -0.4140
 9180SOL    HW139002   2.556   0.182   7.912 -0.9258  0.6366 -2.3717
 9180SOL    HW239003   2.495   0.055   7.862  0.0198  0.1324  0.5488
 9181SOL     OW39004   3.469   2.904   3.144  0.2913 -0.0268  0.0453
 9181SOL    HW139005   3.487   2.996   3.163  0.6309 -0.2717  0.9371
 9181SOL    HW239006   3.381   2.898   3.182  0.3547  0.4733  0.2647
 9182SOL     OW39007   2.431   1.119   3.325  0.3431 -0.1223  0.3487
 9182SOL    HW139008   2.396   1.198   3.367 -2.3736 -1.5565  0.7892
 9182SOL    HW239009   2.344   1.079   3.327  0.4943 -0.5186 -1.5470
 9183SOL     OW39010   3.842   3.634  13.121 -0.0021  0.0281 -0.0346
 9183SOL    HW139011   3.849   3.711  13.065  2.4441  0.3802  0.7837
 9183SOL    HW239012   3.872   3.674  13.203 -0.2316 -0.1341  0.1305
 9184SOL     OW39013   2.029   3.093   6.091  0.5591 -0.1543  0.2613
 9184SOL    HW139014   1.943   3.118   6.057  0.5472 -0.2579  0.2146
 9184SOL    HW239015   2.023   2.998   6.103 -2.4157  0.2226  1.7924
 9185SOL     OW39016   1.205   1.490   7.200 -0.0080  0.7552 -0.0483
 9185SOL    HW139017   1.116   1.524   7.195 -1.3048 -2.8519 -1.3793
 9185SOL    HW239018   1.195   1.396   7.187  1.6215  0.8128 -1.8653
 9186SOL     OW39019   0.511   4.621   6.004 -1.1066 -0.0007 -0.2644
 9186SOL    HW139020   0.426   4.577   5.996 -0.8541 -0.7306  1.2296
 9186SOL    HW239021   0.557   4.537   5.998 -0.2683  0.6795 -3.7420
 9187SOL     OW39022   0.448   3.170   8.646 -0.0643  0.9572  0.3656
 9187SOL    HW139023   0.506   3.241   8.674  3.8992 -1.6645 -1.2241
 9187SOL    HW239024   0.365   3.194   8.687 -0.6111  1.7053 -1.1600
 9188SOL     OW39025   4.159   3.502  10.923  0.0673 -0.5038 -0.1989
 9188SOL    HW139026   4.136   3.563  10.853 -0.4471  0.1407  0.5385
 9188SOL    HW239027   4.249   3.482  10.898 -0.4481 -0.1585 -2.3833
 9189SOL     OW39028   2.188   1.474   7.003  0.2279 -0.3170  0.5467
 9189SOL    HW139029   2.104   1.487   6.959  0.3854  0.9056  0.6065
 9189SOL    HW239030   2.251   1.530   6.956 -1.3320  1.0949  0.1381
 9190SOL     OW39031   3.103   2.141   8.630  0.0873  0.1174 -1.1394
 9190SOL    HW139032   3.196   2.118   8.621 -0.2403 -1.7752  0.2602
 9190SOL    HW239033   3.096   2.230   8.597 -0.6386  0.5370  0.1834
 9191SOL     OW39034   4.049   1.543  14.939 -0.3656  0.0490  0.2148
 9191SOL    HW139035   4.119   1.485  14.909 -0.5461 -0.8760  1.5956
 9191SOL    HW239036   4.072   1.555  15.031 -0.3703 -1.0162  0.3471
 9192SOL     OW39037   0.304   2.909   2.438 -0.5635  0.6786 -0.5840
 9192SOL    HW139038   0.210   2.930   2.435 -0.9610 -1.2522 -1.8475
 9192SOL    HW239039   0.305   2.828   2.386 -0.6913  0.2849  0.0296
 9193SOL     OW39040   3.906   4.000  17.569 -0.1197 -0.2635 -0.1683
 9193SOL    HW139041   3.849   3.924  17.575 -1.3018  0.9388  3.3141
 9193SOL    HW239042   3.978   3.938  17.551  0.0620 -0.1335  0.1059
 9194SOL     OW39043   4.601   4.152   1.528 -0.3044  0.0563  0.1305
 9194SOL    HW139044   4.643   4.176   1.611 -2.5860  0.2171  1.2584
 9194SOL    HW239045   4.622   4.234   1.484 -0.0231 -0.3140 -0.4200
 9195SOL     OW39046   3.605   2.908   6.696  0.2825 -0.4376  0.3557
 9195SOL    HW139047   3.585   2.815   6.709  1.3638 -0.8471 -0.8177
 9195SOL    HW239048   3.655   2.899   6.614 -0.3175 -0.9250  0.0410
 9196SOL     OW39049   4.242   0.191  10.316  0.3457  0.1964  0.3995
 9196SOL    HW139050   4.248   0.279  10.355  1.0004  0.3963 -0.1486
 9196SOL    HW239051   4.336   0.171  10.319  0.0326 -1.2076  0.8143
 9197SOL     OW39052   1.245   2.931  10.434  0.1670 -0.1274 -0.0961
 9197SOL    HW139053   1.171   2.983  10.403 -0.9617 -1.9998 -0.5092
 9197SOL    HW239054   1.308   2.930  10.361 -0.4480 -1.2472 -0.6112
 9198SOL     OW39055   2.243   3.473   5.891 -0.8056 -0.0749 -0.3724
 9198SOL    HW139056   2.228   3.405   5.958 -1.5823  0.0962 -0.3725
 9198SOL    HW239057   2.274   3.414   5.823 -0.7376  0.6018 -0.9196
 9199SOL     OW39058   1.909   4.214   2.093  0.0370 -0.3054 -0.0608
 9199SOL    HW139059   1.969   4.225   2.167 -2.4024  0.4512  1.7752
 9199SOL    HW239060   1.936   4.127   2.064  0.0896 -0.7264  1.2539
 9200SOL     OW39061   3.049   3.688   6.650  0.1090  0.2235  0.0443
 9200SOL    HW139062   3.094   3.772   6.662 -0.4448  0.1757  2.6882
 9200SOL    HW239063   3.010   3.682   6.738  2.4999 -1.5117  0.9769
 9201SOL     OW39064   1.789   2.568  13.159 -0.2876  0.3939  0.6794
 9201SOL    HW139065   1.732   2.551  13.234 -0.5187 -0.9549  0.1864
 9201SOL    HW239066   1.857   2.514  13.199  0.7258 -1.6974 -3.9087
 9202SOL     OW39067   3.042   0.034   7.418  0.1988  0.2391 -0.9008
 9202SOL    HW139068   3.015   0.077   7.499  2.2832 -0.7304  0.3050
 9202SOL    HW239069   2.976   0.056   7.352 -1.0256  1.6830  0.8182
 9203SOL     OW39070   1.293   3.996   8.250  0.0948  0.0003  0.2992
 9203SOL    HW139071   1.230   4.028   8.314  0.6067  0.1378  0.7353
 9203SOL    HW239072   1.323   3.917   8.294 -0.0313 -1.2670 -1.9084
 9204SOL     OW39073   0.614   0.004   7.928  0.1158  0.0778 -0.2969
 9204SOL    HW139074   0.693   0.045   7.893 -1.4586  2.5410 -1.0168
 9204SOL    HW239075   0.556   0.080   7.916 -0.2735 -0.2933 -0.7721
 9205SOL     OW39076   4.281   4.489   3.590 -0.3692  0.0449  0.2941
 9205SOL    HW139077   4.280   4.516   3.498  0.1990 -4.6218 -1.0602
 9205SOL    HW239078   4.303   4.570   3.636  0.8679  0.8423 -1.6928
 9206SOL     OW39079   2.421   1.742   6.034 -0.5116  0.3279  0.2358
 9206SOL    HW139080   2.382   1.784   6.111  3.0449  0.6286  1.9188
 9206SOL    HW239081   2.508   1.782   6.034  0.0741 -0.9314 -0.1960
 9207SOL     OW39082   4.587   2.225   4.201 -0.4241  0.0840  0.2485
 9207SOL    HW139083   4.557   2.182   4.120  0.5055 -2.4369  1.2366
 9207SOL    HW239084   4.612   2.149   4.254  1.2187  0.3693 -0.1079
 9208SOL     OW39085   0.304   2.293   7.672 -0.1272  0.0306 -0.2082
 9208SOL    HW139086   0.351   2.248   7.602 -2.0043  0.3235 -1.6472
 9208SOL    HW239087   0.345   2.249   7.747  0.8756 -3.6891 -2.9636
 9209SOL     OW39088   2.375   2.523  17.151 -0.1343  0.1144  0.7910
 9209SOL    HW139089   2.381   2.453  17.086 -0.4546  0.9777 -0.1764
 9209SOL    HW239090   2.414   2.589  17.093  2.3520  0.1765  2.5279
 9210SOL     OW39091   4.188   0.583   5.891  0.4222 -0.3000  0.4538
 9210SOL    HW139092   4.116   0.645   5.900  1.4879  1.3637 -2.3652
 9210SOL    HW239093   4.262   0.638   5.918 -0.2743  1.1639 -0.5833
 9211SOL     OW39094   4.620   0.550   4.917 -0.1584  0.3035  0.5263
 9211SOL    HW139095   4.532   0.542   4.879  0.3964  0.6112 -0.8370
 9211SOL    HW239096   4.599   0.575   5.007 -0.5354  0.9758  0.2483
 9212SOL     OW39097   0.646   4.482  17.582  0.1448 -0.1148  0.0008
 9212SOL    HW139098   0.564   4.433  17.573 -0.4475  1.0079 -0.7027
 9212SOL    HW239099   0.628   4.550  17.517  1.0519  0.0340 -0.0972
 9213SOL     OW39100   2.655   3.466   2.141  0.1536 -0.3983 -0.3893
 9213SOL    HW139101   2.565   3.475   2.173  0.5411 -1.7852  1.0821
 9213SOL    HW239102   2.684   3.527   2.209 -0.7363  0.5099 -0.8148
 9214SOL     OW39103   1.133   1.467   6.297  0.1502  0.2494  0.2041
 9214SOL    HW139104   1.083   1.547   6.311 -1.2404 -1.1392  3.1066
 9214SOL    HW239105   1.067   1.421   6.348  0.6157 -1.2127 -0.5078
 9215SOL     OW39106   0.062   4.517  10.808 -0.0021 -0.3963 -0.0261
 9215SOL    HW139107   0.018   4.446  10.762  0.2486 -0.9976  0.6712
 9215SOL    HW239108   4.720   4.556  10.864  1.1907  3.8670 -1.5632
 9216SOL     OW39109   3.754   3.219  16.397 -0.6931 -0.0211  0.1369
 9216SOL    HW139110   3.801   3.300  16.378 -2.9092  1.7705  2.3051
 9216SOL    HW239111   3.708   3.207  16.314 -0.8758  0.1035  0.2189
 9217SOL     OW39112   1.757   2.548   9.882  0.2996  0.3109  0.7572
 9217SOL    HW139113   1.791   2.494   9.954  0.1488 -1.6710 -0.6557
 9217SOL    HW239114   1.693   2.481   9.858  0.0267  1.0315 -0.4885
 9218SOL     OW39115   2.700   0.832  11.121  0.6134 -0.6395  0.4610
 9218SOL    HW139116   2.704   0.748  11.076 -1.8936 -0.7348  0.4216
 9218SOL    HW239117   2.793   0.848  11.139  0.0889  0.2406  2.4650
 9219SOL     OW39118   2.909   3.766   2.555  0.2655 -0.2589  0.1934
 9219SOL    HW139119   2.903   3.770   2.650  0.3461 -1.5414  0.2543
 9219SOL    HW239120   2.989   3.817   2.539 -0.4963  0.8550 -0.1026
 9220SOL     OW39121   4.361   2.286  15.515  0.2855  0.4118  0.2553
 9220SOL    HW139122   4.344   2.361  15.457 -2.3000  1.4063  2.3497
 9220SOL    HW239123   4.328   2.317  15.599 -2.2474 -0.6515 -0.3649
 9221SOL     OW39124   3.741   4.291   7.140 -0.1249 -0.0782 -0.2137
 9221SOL    HW139125   3.732   4.199   7.115 -0.7253 -0.2010  0.4453
 9221SOL    HW239126   3.678   4.297   7.212 -0.5307  0.4672 -0.6088
 9222SOL     OW39127   3.518   0.522   5.132  0.4900 -0.3507  0.4440
 9222SOL    HW139128   3.533   0.492   5.222 -1.1969 -1.6958  0.2725
 9222SOL    HW239129   3.434   0.568   5.129  0.4770 -0.5268 -2.2739
 9223SOL     OW39130   3.595   2.403   8.589 -0.0133  0.0531  0.3906
 9223SOL    HW139131   3.600   2.331   8.652 -1.9045 -0.2966  0.1554
 9223SOL    HW239132   3.677   2.389   8.543  0.6803  1.3772  1.2446
 9224SOL     OW39133   3.226   1.820  12.776 -0.4301 -0.5406  0.2431
 9224SOL    HW139134   3.321   1.826  12.785 -0.2841 -0.7802 -1.1250
 9224SOL    HW239135   3.195   1.773  12.853  0.6500  0.7722  1.4638
 9225SOL     OW39136   3.355   2.968   0.001  0.0875  0.0027 -0.0544
 9225SOL    HW139137   3.349   3.049   0.050  1.0490  0.3859 -0.5788
 9225SOL    HW239138   3.334   2.907   0.072  0.7180 -0.0797  0.0576
 9226SOL     OW39139   0.376   3.292  17.111 -0.3162 -0.6119 -0.2087
 9226SOL    HW139140   0.467   3.280  17.086 -0.4750 -0.0317 -1.0649
 9226SOL    HW239141   0.323   3.307  17.032 -1.1190  2.1609  0.8762
 9227SOL     OW39142   3.107   1.176   2.750  0.0361 -0.4829  0.1846
 9227SOL    HW139143   3.194   1.135   2.753  1.6237  2.8094 -0.1764
 9227SOL    HW239144   3.054   1.124   2.811  0.5919 -0.0379  1.0597
 9228SOL     OW39145   1.355   3.159   2.085 -0.2718 -0.4656 -0.0380
 9228SOL    HW139146   1.431   3.100   2.086 -1.4801 -2.0563 -1.5898
 9228SOL    HW239147   1.303   3.098   2.136  1.9333 -1.0213  1.5187
 9229SOL     OW39148   3.937   3.633  10.614 -0.6558 -0.6069  0.0450
 9229SOL    HW139149   3.970   3.585  10.538 -2.0163  0.2154 -1.0567
 9229SOL    HW239150   3.880   3.561  10.642 -0.5222 -0.6611  0.1753
 9230SOL     OW39151   2.970   3.130   0.295 -0.1109  0.2856 -0.5365
 9230SOL    HW139152   2.881   3.110   0.326 -0.5700 -1.0239 -2.6485
 9230SOL    HW239153   2.964   3.159   0.204  0.8199  1.2383 -0.2952
 9231SOL     OW39154   1.321   0.881  17.216  0.5824 -0.5418  0.1041
 9231SOL    HW139155   1.273   0.914  17.140 -0.4192 -0.9320  0.5730
 9231SOL    HW239156   1.384   0.832  17.163  0.5350 -0.1399 -0.3292
 9232SOL     OW39157   2.847   3.372   0.466 -0.5051  0.2747  0.1274
 9232SOL    HW139158   2.811   3.309   0.529  0.8071  0.0075  0.6180
 9232SOL    HW239159   2.776   3.374   0.402  0.2744 -4.7667 -0.9295
 9233SOL     OW39160   0.871   1.855   2.774 -0.4848 -0.2125  0.6887
 9233SOL    HW139161   0.788   1.818   2.804 -1.0763  1.4987  1.1375
 9233SOL    HW239162   0.925   1.864   2.852  0.0287  3.1370 -0.0656
 9234SOL     OW39163   1.499   1.228   4.945 -0.2337 -0.1328  0.4744
 9234SOL    HW139164   1.470   1.138   4.959  2.0051 -1.2573 -2.1389
 9234SOL    HW239165   1.419   1.276   4.925 -1.1848 -2.9634 -2.5691
 9235SOL     OW39166   2.058   1.241  13.452  0.2312 -0.4491  0.3963
 9235SOL    HW139167   1.965   1.257  13.438 -0.0504 -1.8605  0.6496
 9235SOL    HW239168   2.066   1.154  13.411 -0.1640 -0.1029 -0.4254
 9236SOL     OW39169   1.617   4.068   3.127  0.3816 -0.1308 -0.3650
 9236SOL    HW139170   1.588   4.153   3.094  2.1992  0.9255  0.7910
 9236SOL    HW239171   1.596   4.076   3.220 -1.0529 -1.1457 -0.6011
 9237SOL     OW39172   4.106   2.490  13.532  0.4898 -0.2865  0.2056
 9237SOL    HW139173   4.109   2.440  13.450  0.5976 -0.0999  0.0960
 9237SOL    HW239174   4.051   2.437  13.590  1.2931 -3.1095 -1.6056
 9238SOL     OW39175   3.046   2.392   6.713  0.3452  0.0686 -1.0887
 9238SOL    HW139176   3.031   2.469   6.769 -1.8833  0.7499 -2.6063
 9238SOL    HW239177   3.120   2.427   6.664  1.0202  0.1730 -0.0051
 9239SOL     OW39178   4.532   2.124   6.270  0.3619 -0.1659 -0.3799
 9239SOL    HW139179   4.610   2.086   6.310 -0.8609  0.5563  2.7237
 9239SOL    HW239180   4.481   2.141   6.350 -1.9709  1.2140 -2.1440
 9240SOL     OW39181   1.919   0.130   5.333  0.3823  0.0235  0.0771
 9240SOL    HW139182   1.836   0.090   5.358 -0.8361  2.6188  0.1026
 9240SOL    HW239183   1.883   0.195   5.273  1.4996  1.5165  1.0428
 9241SOL     OW39184   1.593   2.507  14.814  0.9033 -0.2044  0.0369
 9241SOL    HW139185   1.659   2.531  14.749 -2.2636  4.5453 -1.3693
 9241SOL    HW239186   1.522   2.481  14.755  2.2929  0.8702 -2.0757
 9242SOL     OW39187   3.792   1.368   6.405 -0.1233  0.2719 -0.0015
 9242SOL    HW139188   3.712   1.341   6.451  0.2135 -0.4617  0.1531
 9242SOL    HW239189   3.834   1.409   6.480  0.1305  2.4488 -1.3240
 9243SOL     OW39190   2.266   4.137   4.538  0.1782 -0.2703  0.1955
 9243SOL    HW139191   2.225   4.106   4.619  0.7500  2.7009  1.6022
 9243SOL    HW239192   2.239   4.227   4.553  2.1186  0.1613  1.0722
 9244SOL     OW39193   3.124   2.801   4.383  0.0818  0.2299  0.2461
 9244SOL    HW139194   3.084   2.884   4.359 -3.4344 -1.8747 -1.2793
 9244SOL    HW239195   3.139   2.816   4.476  1.5524  2.0286 -0.2971
 9245SOL     OW39196   2.169   4.158  12.701  0.1548  0.2430 -0.4224
 9245SOL    HW139197   2.236   4.114  12.754  0.0514  1.1422  0.4663
 9245SOL    HW239198   2.177   4.249  12.730  1.1809  0.0262 -0.0245
 9246SOL     OW39199   0.903   4.127   3.324 -0.3014 -0.3546 -0.6834
 9246SOL    HW139200   0.813   4.160   3.332 -0.0575 -0.1127  1.0896
 9246SOL    HW239201   0.898   4.037   3.293 -0.5348 -0.5845  0.0217
 9247SOL     OW39202   3.878   2.955   8.424  0.4037  0.5749  0.4537
 9247SOL    HW139203   3.792   2.917   8.442  1.2344 -1.3934  0.3575
 9247SOL    HW239204   3.914   2.889   8.364  1.1031  1.1224  0.2769
 9248SOL     OW39205   2.102   0.408   8.305  0.5372  0.6691  0.3014
 9248SOL    HW139206   2.118   0.389   8.213  1.3700 -3.3948  1.3034
 9248SOL    HW239207   2.162   0.345   8.345  0.5457  0.3112 -0.2732
 9249SOL     OW39208   4.267   1.548   3.398  0.5313 -0.3054 -0.5165
 9249SOL    HW139209   4.250   1.505   3.314  0.0896  2.5069 -1.8692
 9249SOL    HW239210   4.349   1.509   3.430  0.6607 -0.8510 -1.5141
 9250SOL     OW39211   1.295   2.883   5.484 -0.1300 -0.3534  0.2201
 9250SOL    HW139212   1.344   2.934   5.420 -0.5332 -0.4560 -0.1674
 9250SOL    HW239213   1.239   2.953   5.518 -1.9758 -1.6565 -0.1251
 9251SOL     OW39214   3.534   1.650   9.768 -0.2838  0.3266  0.5678
 9251SOL    HW139215   3.524   1.625   9.860 -1.8115 -2.2846 -0.3266
 9251SOL    HW239216   3.458   1.708   9.759 -0.7789 -0.3255  0.5959
 9252SOL     OW39217   3.019   3.429   7.203 -0.4783  0.8090 -0.0438
 9252SOL    HW139218   2.933   3.466   7.183 -1.0258 -0.6151 -0.3367
 9252SOL    HW239219   3.027   3.361   7.137  1.5513 -0.2521  1.2888
 9253SOL     OW39220   0.172   4.484   3.275 -0.8338  0.2170 -0.3425
 9253SOL    HW139221   0.102   4.439   3.322 -2.1584  1.8219 -0.8103
 9253SOL    HW239222   0.165   4.574   3.306 -1.6482 -0.4293  1.2900
 9254SOL     OW39223   4.186   4.279   6.594  0.2594  0.4531 -0.2555
 9254SOL    HW139224   4.131   4.227   6.535 -0.1901 -0.5518  1.0609
 9254SOL    HW239225   4.196   4.359   6.541  0.7024  0.3671 -0.3009
 9255SOL     OW39226   1.843   4.101   4.007  0.2938 -0.2174  0.5050
 9255SOL    HW139227   1.865   4.057   4.089 -0.2473 -1.2351  0.1149
 9255SOL    HW239228   1.924   4.148   3.993 -1.1888  1.3422 -2.9310
 9256SOL     OW39229   0.191   4.357   1.499 -0.3432  0.7179  0.2439
 9256SOL    HW139230   0.098   4.378   1.489 -0.7543 -1.4780 -0.7147
 9256SOL    HW239231   0.214   4.360   1.407 -2.6666 -0.5306 -0.3903
 9257SOL     OW39232   4.318   0.421   7.331 -0.5217  0.0873 -0.3193
 9257SOL    HW139233   4.359   0.446   7.413  0.3377 -1.1502 -0.3665
 9257SOL    HW239234   4.242   0.366   7.350  0.4452 -0.4161  2.0566
 9258SOL     OW39235   3.769   2.586  16.657  0.4769 -0.5405 -0.0261
 9258SOL    HW139236   3.785   2.645  16.583 -1.1587 -0.2046 -0.1151
 9258SOL    HW239237   3.855   2.567  16.693  1.1206  0.9226 -0.7975
 9259SOL     OW39238   1.042   2.790   8.257 -0.1593  0.9206  0.0367
 9259SOL    HW139239   0.954   2.796   8.221 -0.4665  3.0102  1.1591
 9259SOL    HW239240   1.049   2.695   8.273 -1.1884  0.9222  0.4896
 9260SOL     OW39241   4.713   2.059   2.454 -0.3258  0.3672  0.3272
 9260SOL    HW139242   0.026   2.083   2.370  1.3882 -0.3312  0.9431
 9260SOL    HW239243   0.068   2.053   2.504 -1.5759 -0.8475  2.1955
 9261SOL     OW39244   0.914   4.410   7.018  0.1224  0.2854  0.2512
 9261SOL    HW139245   0.903   4.340   7.082  0.5254  0.6174  0.6821
 9261SOL    HW239246   0.889   4.483   7.075 -2.1071  1.4014 -2.1438
 9262SOL     OW39247   1.797   3.787  13.977  0.2209  0.2846  0.3218
 9262SOL    HW139248   1.782   3.854  13.910  0.6571  0.6112  0.5562
 9262SOL    HW239249   1.749   3.719  13.929 -1.3924  1.1028  0.7814
 9263SOL     OW39250   3.618   2.648   8.270 -0.3342 -0.3289 -0.1256
 9263SOL    HW139251   3.656   2.714   8.327 -0.1052 -1.1922  0.7192
 9263SOL    HW239252   3.688   2.615   8.214 -1.0417 -1.8899 -0.1024
 9264SOL     OW39253   4.449   0.955   5.021 -0.2422  0.1005 -0.4864
 9264SOL    HW139254   4.414   0.885   5.076  2.3740 -0.3903  0.5159
 9264SOL    HW239255   4.543   0.950   5.034 -0.1198 -1.7136 -2.0633
 9265SOL     OW39256   3.786   0.474  16.045 -0.0767 -0.4522  0.1336
 9265SOL    HW139257   3.815   0.548  15.993  1.9509 -0.2378  1.5409
 9265SOL    HW239258   3.819   0.395  16.003 -0.0748 -1.4654  1.9892
 9266SOL     OW39259   0.215   1.270  12.675  0.8613  0.2841  0.3047
 9266SOL    HW139260   0.294   1.243  12.629  1.0290  0.8502  0.2694
 9266SOL    HW239261   0.167   1.328  12.617  1.7738  1.6608  0.9113
 9267SOL     OW39262   4.279   0.607   1.708  0.3115  0.2038 -0.5096
 9267SOL    HW139263   4.245   0.522   1.682 -3.2835  1.0405  1.3937
 9267SOL    HW239264   4.312   0.636   1.623  2.4544 -1.2357 -0.1427
 9268SOL     OW39265   1.078   4.498   7.733 -0.2689 -0.4294  0.0431
 9268SOL    HW139266   0.999   4.468   7.777 -1.2783  3.7092  1.1117
 9268SOL    HW239267   1.140   4.451   7.789 -0.7480 -1.0546  0.0376
 9269SOL     OW39268   2.825   0.768  15.056  0.2484  0.2062  0.2066
 9269SOL    HW139269   2.893   0.707  15.027  1.4525  1.7021 -0.0952
 9269SOL    HW239270   2.765   0.755  14.983 -0.3003  0.7537  0.5653
 9270SOL     OW39271   2.494   1.612   8.126  0.4462 -0.2214  0.1844
 9270SOL    HW139272   2.542   1.686   8.162 -0.2093  0.3063 -0.0344
 9270SOL    HW239273   2.430   1.601   8.196  0.2351  2.8100  0.4656
 9271SOL     OW39274   1.253   3.807  13.428 -0.0646 -0.0648 -0.0290
 9271SOL    HW139275   1.241   3.888  13.379 -1.2122 -0.5886 -0.6083
 9271SOL    HW239276   1.248   3.742  13.357  4.7726 -0.2992 -0.1894
 9272SOL     OW39277   0.541   3.086   1.919  0.1443 -0.1407  0.1542
 9272SOL    HW139278   0.462   3.031   1.920 -0.7270  1.1443  0.8641
 9272SOL    HW239279   0.533   3.153   1.987  1.0860  1.6799 -1.5317
 9273SOL     OW39280   4.320   1.015   3.768 -0.0320 -0.1432  0.2158
 9273SOL    HW139281   4.357   1.085   3.822  1.2486  0.0527 -0.8968
 9273SOL    HW239282   4.259   0.967   3.824  0.0376 -2.7437 -1.9747
 9274SOL     OW39283   2.764   2.761   3.516  0.1126 -0.5033  0.2604
 9274SOL    HW139284   2.699   2.692   3.514 -0.9432  0.5029 -0.1586
 9274SOL    HW239285   2.720   2.826   3.461 -1.1818 -1.4756  0.1473
 9275SOL     OW39286   2.365   1.117  17.509  0.2722 -0.3930  0.1497
 9275SOL    HW139287   2.399   1.193  17.556 -1.5113 -0.1453  1.0463
 9275SOL    HW239288   2.443   1.090  17.460  1.1181 -1.7526  2.2632
 9276SOL     OW39289   1.771   1.546   4.247 -0.2825 -0.5011 -0.0442
 9276SOL    HW139290   1.827   1.550   4.324  0.9139  0.2129 -0.9391
 9276SOL    HW239291   1.757   1.452   4.249  0.0703 -0.5151  1.2074
 9277SOL     OW39292   3.897   3.392   4.472 -0.3215 -0.1497 -0.2668
 9277SOL    HW139293   3.823   3.400   4.411 -0.5507  1.5700  0.2575
 9277SOL    HW239294   3.964   3.341   4.426 -1.4772 -1.9100 -0.0355
 9278SOL     OW39295   0.101   0.637   6.504  0.1317 -0.4786 -0.0133
 9278SOL    HW139296   0.141   0.557   6.539 -2.6150 -1.7147  0.2938
 9278SOL    HW239297   0.162   0.656   6.432 -0.3417  2.0491  0.2705
 9279SOL     OW39298   3.140   2.171   8.191 -0.2553 -0.2320  0.4140
 9279SOL    HW139299   3.058   2.164   8.239  0.3203 -0.8388  1.3049
 9279SOL    HW239300   3.116   2.198   8.103  0.4699  1.3412  0.6955
 9280SOL     OW39301   1.637   3.585   7.719  0.0878 -0.4933  0.6011
 9280SOL    HW139302   1.690   3.608   7.643 -0.2238 -1.0352  0.2159
 9280SOL    HW239303   1.703   3.552   7.780  0.3605  0.2976  0.7222
 9281SOL     OW39304   2.296   2.301   1.696  0.3899  0.7402  0.8004
 9281SOL    HW139305   2.297   2.326   1.789  3.0458  2.2731  0.3641
 9281SOL    HW239306   2.307   2.390   1.663 -2.3803  0.9968  0.5556
 9282SOL     OW39307   1.327   3.458   0.619  0.1112  0.0158 -0.4758
 9282SOL    HW139308   1.372   3.538   0.594  0.3311  0.3579  1.0383
 9282SOL    HW239309   1.337   3.402   0.542 -0.0771 -1.0087  0.2376
 9283SOL     OW39310   1.030   3.035   5.888  0.7609  0.2106  0.1394
 9283SOL    HW139311   0.938   3.046   5.915  0.9095 -2.2268  1.6457
 9283SOL    HW239312   1.055   2.947   5.917 -0.1984 -0.1547 -0.1402
 9284SOL     OW39313   0.605   4.134   3.297  0.2120  0.2509  0.5508
 9284SOL    HW139314   0.540   4.201   3.318 -1.9221 -1.7980  0.3619
 9284SOL    HW239315   0.584   4.119   3.204 -0.1896 -0.4123  0.7504
 9285SOL     OW39316   3.428   3.788   1.971  0.1558  0.1298  0.0019
 9285SOL    HW139317   3.429   3.818   2.062  1.1784 -0.4319  0.1781
 9285SOL    HW239318   3.507   3.734   1.972 -0.2587 -0.4788  0.0257
 9286SOL     OW39319   2.740   4.594   3.090 -0.4700  0.2176 -0.0565
 9286SOL    HW139320   2.810   4.651   3.121 -2.1031  1.8450  0.6176
 9286SOL    HW239321   2.796   4.535   3.041  0.4126  2.6636 -1.9534
 9287SOL     OW39322   3.278   1.910   7.146 -0.1686  0.0460  0.0827
 9287SOL    HW139323   3.359   1.960   7.139 -0.4008  0.2523 -1.1561
 9287SOL    HW239324   3.312   1.821   7.132  2.2704  0.7674  1.4816
 9288SOL     OW39325   3.722   1.887  10.621 -0.1958  0.5476  0.4843
 9288SOL    HW139326   3.736   1.932  10.538  0.0308  1.2848  0.9190
 9288SOL    HW239327   3.778   1.811  10.611 -1.7109 -0.6998  1.5010
 9289SOL     OW39328   3.492   4.701   2.362 -0.3928  0.7341  0.1869
 9289SOL    HW139329   3.452   4.620   2.328 -0.4080  0.3287  1.1695
 9289SOL    HW239330   3.429   4.719   2.431  0.0137  0.5477  0.6093
 9290SOL     OW39331   0.356   1.548  11.657  1.1319 -0.0495  0.4124
 9290SOL    HW139332   0.427   1.570  11.597 -0.0648 -0.9134 -1.3067
 9290SOL    HW239333   0.398   1.471  11.695 -1.6410 -1.3487  0.8319
 9291SOL     OW39334   1.853   1.295  15.087 -0.2675 -0.1737 -0.2495
 9291SOL    HW139335   1.833   1.378  15.131  0.0714 -0.1951 -0.0576
 9291SOL    HW239336   1.762   1.286  15.058  0.2733 -0.2444 -1.9217
 9292SOL     OW39337   4.631   2.469   1.498  0.1779 -0.3998 -0.3777
 9292SOL    HW139338   4.564   2.509   1.442  0.8366  0.9724 -0.1896
 9292SOL    HW239339   4.607   2.378   1.514  1.5209 -0.8686 -1.0601
 9293SOL     OW39340   3.126   2.968   8.390 -0.7180 -0.3533 -0.3713
 9293SOL    HW139341   3.080   2.899   8.438 -0.2758  0.1741  0.8075
 9293SOL    HW239342   3.214   2.933   8.384 -1.4196 -1.7927 -2.1035
 9294SOL     OW39343   3.267   3.715  16.930 -0.7929  0.2535 -0.3099
 9294SOL    HW139344   3.187   3.670  16.956 -1.1149  0.6438 -0.6161
 9294SOL    HW239345   3.217   3.784  16.886 -1.5205  0.0727  0.2261
 9295SOL     OW39346   2.454   4.348   4.393  0.4654 -0.2226 -0.1035
 9295SOL    HW139347   2.365   4.316   4.382  0.3088  0.4911 -0.9252
 9295SOL    HW239348   2.445   4.400   4.313 -0.2195  0.1940  0.2448
 9296SOL     OW39349   2.812   4.545   5.904 -0.3552  0.0583 -0.2382
 9296SOL    HW139350   2.861   4.529   5.985  0.7184 -2.1038 -1.3215
 9296SOL    HW239351   2.876   4.510   5.842 -0.0880 -0.8506  0.5581
 9297SOL     OW39352   1.387   3.232   2.410  0.3722 -0.3995  0.2791
 9297SOL    HW139353   1.371   3.199   2.322  0.0144  0.1990  0.1182
 9297SOL    HW239354   1.355   3.171   2.476  0.4282  0.5120  1.1518
 9298SOL     OW39355   1.761   1.991   4.701 -0.3946 -0.2145 -0.4037
 9298SOL    HW139356   1.688   2.053   4.699 -1.2157 -1.2669 -2.6416
 9298SOL    HW239357   1.724   1.906   4.725 -1.0954 -0.0755 -0.9927
 9299SOL     OW39358   1.195   1.778   6.920 -0.3083  0.1056  0.1413
 9299SOL    HW139359   1.119   1.806   6.869  0.6625 -0.8074 -1.8004
 9299SOL    HW239360   1.266   1.788   6.857 -0.4963  1.8413  0.1812
 9300SOL     OW39361   3.959   3.777   4.514 -0.0256  0.3632 -0.8361
 9300SOL    HW139362   3.884   3.749   4.462  0.2962 -0.8442 -0.6499
 9300SOL    HW239363   4.027   3.735   4.461  1.7073  0.8198  1.0424
 9301SOL     OW39364   3.025   4.527   2.491 -0.7394  0.0667  0.0378
 9301SOL    HW139365   3.088   4.552   2.558  0.1953 -0.4155 -0.6662
 9301SOL    HW239366   2.980   4.609   2.469  1.8380  1.6621  0.7757
 9302SOL     OW39367   2.775   0.580   3.860  0.1588  0.2598  0.2407
 9302SOL    HW139368   2.721   0.658   3.847 -1.1201 -0.6497  0.0668
 9302SOL    HW239369   2.830   0.626   3.923 -1.6388  0.7165  1.4867
 9303SOL     OW39370   1.289   1.315   8.620  0.5771 -0.2742  0.0269
 9303SOL    HW139371   1.349   1.376   8.578 -0.8212  2.0646  1.4522
 9303SOL    HW239372   1.338   1.234   8.634 -2.3123 -2.1375 -0.3475
 9304SOL     OW39373   4.532   3.435   6.463  0.3333 -0.5052  0.3547
 9304SOL    HW139374   4.572   3.364   6.512  0.9121 -0.1758  0.3609
 9304SOL    HW239375   4.442   3.402   6.459 -0.5868  1.7945  1.5384
 9305SOL     OW39376   0.041   1.567   6.763  0.1025  0.4626 -0.3487
 9305SOL    HW139377   0.097   1.499   6.726 -2.6076 -0.8540 -1.9715
 9305SOL    HW239378   4.681   1.548   6.727  0.0366  2.2482 -1.1370
 9306SOL     OW39379   0.362   3.535   8.505 -0.4302  0.3107  0.4388
 9306SOL    HW139380   0.323   3.620   8.484 -0.3591 -0.0318 -1.0933
 9306SOL    HW239381   0.358   3.531   8.601  0.1047  0.6727  0.4777
 9307SOL     OW39382   0.499   4.078   7.688 -0.2435 -0.1699  0.0548
 9307SOL    HW139383   0.508   4.139   7.615 -0.2017 -0.5235 -0.2358
 9307SOL    HW239384   0.405   4.089   7.699 -0.3846 -1.9607  0.7171
 9308SOL     OW39385   4.084   1.168   4.020 -0.2657  0.1085 -0.7056
 9308SOL    HW139386   4.063   1.217   4.100  0.1486 -0.1440 -0.4431
 9308SOL    HW239387   4.081   1.233   3.951 -2.1790 -0.5039 -1.2007
 9309SOL     OW39388   0.042   0.801   2.606  0.4481  0.1535  0.1153
 9309SOL    HW139389   4.697   0.737   2.612 -1.3182  1.8487 -2.9838
 9309SOL    HW239390   0.112   0.739   2.581  0.7367 -0.8972  3.4804
 9310SOL     OW39391   1.877   1.078   7.941 -0.4107  0.0864 -0.5160
 9310SOL    HW139392   1.873   1.173   7.928  1.4273  0.2236 -0.0150
 9310SOL    HW239393   1.804   1.048   7.886  0.5831 -1.2382 -1.1192
 9311SOL     OW39394   2.166   4.473   5.710  0.3681 -0.2484  0.1421
 9311SOL    HW139395   2.091   4.495   5.655 -0.3035  0.7859  1.4720
 9311SOL    HW239396   2.147   4.534   5.781  0.9362  1.4271 -1.1487
 9312SOL     OW39397   0.827   4.203   8.627 -0.4941 -0.4003  0.2291
 9312SOL    HW139398   0.775   4.184   8.705 -0.2485  0.2781  0.5634
 9312SOL    HW239399   0.760   4.234   8.566 -0.4827 -0.9937 -0.0814
 9313SOL     OW39400   1.206   3.623   8.292 -0.5521 -0.1237 -0.0942
 9313SOL    HW139401   1.198   3.576   8.209 -2.5650 -1.3232  0.7860
 9313SOL    HW239402   1.296   3.651   8.310 -0.0504 -0.7890 -1.5858
 9314SOL     OW39403   2.285   4.000   7.787 -0.7359 -0.6296  0.4074
 9314SOL    HW139404   2.269   4.062   7.717  1.1638 -0.5032  0.1048
 9314SOL    HW239405   2.344   3.936   7.747  1.4735 -0.0097  2.7064
 9315SOL     OW39406   4.509   2.982   2.842 -0.4089  1.0519 -0.5851
 9315SOL    HW139407   4.584   3.039   2.861  0.5703 -0.0991 -1.0018
 9315SOL    HW239408   4.453   3.002   2.917 -1.7047 -1.0894 -0.9811
 9316SOL     OW39409   3.585   1.832   8.929 -0.2385  0.2911  0.2810
 9316SOL    HW139410   3.646   1.859   8.860  0.2134 -0.0378  0.5543
 9316SOL    HW239411   3.631   1.758   8.969  1.2269  1.1788  0.2259
 9317SOL     OW39412   2.285   0.745   6.288  0.5949 -0.1444  0.1467
 9317SOL    HW139413   2.243   0.817   6.242  1.7939 -0.1106 -0.9081
 9317SOL    HW239414   2.297   0.788   6.372  0.4396  0.0001  0.0947
 9318SOL     OW39415   3.568   3.279  16.201 -0.1575 -0.1687 -0.2499
 9318SOL    HW139416   3.494   3.336  16.221  1.0939  0.8533  1.5169
 9318SOL    HW239417   3.543   3.231  16.122  1.8566  0.0110 -0.9847
 9319SOL     OW39418   2.946   3.707  13.108  0.4049  0.2049  0.2706
 9319SOL    HW139419   3.033   3.677  13.134 -0.0749 -1.5928 -0.2235
 9319SOL    HW239420   2.962   3.801  13.105  1.5490 -0.0434 -1.4829
 9320SOL     OW39421   4.491   0.721   9.384  0.2616 -0.0962  0.2235
 9320SOL    HW139422   4.515   0.655   9.449 -2.2095  0.3369  1.5614
 9320SOL    HW239423   4.538   0.799   9.413 -1.3859  0.5281  1.1968
 9321SOL     OW39424   1.902   4.157   4.420 -0.3205 -0.2714 -0.7191
 9321SOL    HW139425   1.855   4.097   4.479  1.9080 -3.1524 -1.8754
 9321SOL    HW239426   1.917   4.097   4.347 -1.5203 -0.8102 -0.5405
 9322SOL     OW39427   2.493   0.659  13.081 -0.1365 -0.6061 -0.1439
 9322SOL    HW139428   2.533   0.585  13.036 -0.4810  0.4319 -2.1744
 9322SOL    HW239429   2.499   0.628  13.171  0.4523  0.7030  0.2760
 9323SOL     OW39430   1.505   3.837   4.885  0.4446 -0.7260 -0.1757
 9323SOL    HW139431   1.507   3.931   4.903 -1.6847 -0.5941 -0.6823
 9323SOL    HW239432   1.597   3.814   4.903  1.0335  0.9624 -1.0601
 9324SOL     OW39433   4.564   1.992   8.877 -0.2416  0.0307 -0.2369
 9324SOL    HW139434   4.609   2.071   8.907 -0.5818  0.7343 -1.5848
 9324SOL    HW239435   4.606   1.923   8.928 -0.5008  1.7109  2.2645
 9325SOL     OW39436   1.856   2.481  15.738  0.4403 -0.1326 -0.2012
 9325SOL    HW139437   1.920   2.430  15.688 -0.9756 -2.8176  0.7360
 9325SOL    HW239438   1.856   2.558  15.682 -2.4124  1.6736  2.2692
 9326SOL     OW39439   0.280   4.275   8.135  0.2953  0.4903 -0.0260
 9326SOL    HW139440   0.278   4.333   8.059 -1.3859  1.7986  1.0062
 9326SOL    HW239441   0.272   4.193   8.085  1.5470  0.7334 -0.6348
 9327SOL     OW39442   0.622   4.342   7.114  0.4849  0.2466  0.0834
 9327SOL    HW139443   0.585   4.255   7.128  0.4658 -0.0484 -1.9210
 9327SOL    HW239444   0.715   4.331   7.135  0.4264 -1.6741 -0.6418
 9328SOL     OW39445   2.480   0.187  12.661  0.3522  0.3444  0.3186
 9328SOL    HW139446   2.556   0.140  12.696  0.5248  0.6224  0.3255
 9328SOL    HW239447   2.415   0.118  12.674 -1.5311  2.0857  0.0493
 9329SOL     OW39448   2.464   0.355   3.144 -0.1618  0.1306  0.6299
 9329SOL    HW139449   2.496   0.312   3.223  0.6872  0.7091  0.5934
 9329SOL    HW239450   2.370   0.366   3.152 -0.1300  0.6239  0.3020
 9330SOL     OW39451   4.249   2.934  10.142  0.2067  0.5059  0.1934
 9330SOL    HW139452   4.211   2.849  10.163 -2.6952  1.7495 -0.1317
 9330SOL    HW239453   4.332   2.899  10.108 -0.5006 -0.0271 -0.9876
 9331SOL     OW39454   3.761   1.472  11.164 -0.1246  0.6861  1.2406
 9331SOL    HW139455   3.674   1.501  11.190 -0.5191 -0.7552  1.5338
 9331SOL    HW239456   3.750   1.377  11.161 -1.0156  0.8413 -0.5150
 9332SOL     OW39457   1.237   3.870   9.104  0.4833 -0.1426 -0.3847
 9332SOL    HW139458   1.329   3.888   9.120  0.5727 -1.0477  0.0771
 9332SOL    HW239459   1.212   3.961   9.086 -0.4038 -0.4402 -0.6934
 9333SOL     OW39460   1.864   1.541  15.254  0.3420  0.2614 -0.3042
 9333SOL    HW139461   1.830   1.625  15.285 -0.0989 -0.0881  0.1633
 9333SOL    HW239462   1.891   1.503  15.338  2.7135 -0.7525 -1.5299
 9334SOL     OW39463   2.290   0.673   2.360  1.0733 -0.3628 -0.3830
 9334SOL    HW139464   2.219   0.609   2.368  0.5177  0.4767  1.5117
 9334SOL    HW239465   2.254   0.752   2.320 -2.0437 -2.2527 -1.3229
 9335SOL     OW39466   0.647   2.946   3.201  0.3563 -0.1077  0.1464
 9335SOL    HW139467   0.654   3.014   3.134 -0.9941  0.2194  0.3430
 9335SOL    HW239468   0.727   2.967   3.249 -0.0882  0.4999  0.6183
 9336SOL     OW39469   3.375   3.923  17.082 -0.4331  0.6482  0.0491
 9336SOL    HW139470   3.435   3.979  17.033 -0.5712  2.2124  1.6452
 9336SOL    HW239471   3.358   3.854  17.018  1.1859 -1.3180  1.7561
 9337SOL     OW39472   1.360   2.788   6.064  0.1241 -0.4643  0.1262
 9337SOL    HW139473   1.413   2.858   6.101  0.6598 -0.7983 -0.0140
 9337SOL    HW239474   1.277   2.815   6.104  0.2026  0.1390 -0.1172
 9338SOL     OW39475   2.026   3.095   8.665 -0.6665 -0.1320  0.1018
 9338SOL    HW139476   2.100   3.065   8.718  0.3943 -1.4496 -2.1443
 9338SOL    HW239477   1.973   3.018   8.645  0.9657 -1.5630  1.2495
 9339SOL     OW39478   3.016   2.081   3.964 -0.4339 -0.0714 -0.3102
 9339SOL    HW139479   2.973   2.157   3.926 -1.2273 -0.5137 -0.3098
 9339SOL    HW239480   2.954   2.042   4.026 -1.1580  0.0379 -0.9554
 9340SOL     OW39481   2.026   0.573   0.170  0.0890  0.2297  0.1365
 9340SOL    HW139482   2.040   0.666   0.151 -2.4280  1.0603  2.4094
 9340SOL    HW239483   1.935   0.582   0.200  0.1315  0.7205  0.1197
 9341SOL     OW39484   1.965   2.191   4.775 -0.1483 -0.5165 -0.4338
 9341SOL    HW139485   1.980   2.197   4.869  0.4202 -0.4557 -0.5278
 9341SOL    HW239486   1.900   2.121   4.768 -0.3513 -0.4883  1.1491
 9342SOL     OW39487   2.297   1.550   7.343 -0.3512 -0.8564  0.2208
 9342SOL    HW139488   2.277   1.599   7.423  0.8256  1.4629 -0.8898
 9342SOL    HW239489   2.390   1.568   7.328 -0.3139 -0.3275  1.0638
 9343SOL     OW39490   1.074   0.480   8.488 -0.0992 -0.0554  0.5860
 9343SOL    HW139491   1.141   0.426   8.529 -0.1283  0.2748  1.0808
 9343SOL    HW239492   1.067   0.448   8.399  0.3370 -0.4037  0.6788
 9344SOL     OW39493   1.740   1.739   0.030  0.0572 -0.1944  0.3935
 9344SOL    HW139494   1.760   1.680  17.664  1.7969 -0.8806  1.4308
 9344SOL    HW239495   1.712   1.812  17.682  0.6508  1.4458  2.3182
 9345SOL     OW39496   1.507   2.930   6.920  0.2374 -0.2821  0.4440
 9345SOL    HW139497   1.571   2.905   6.987  0.0576 -0.7179  0.4509
 9345SOL    HW239498   1.444   2.859   6.912 -1.6347  1.7821 -2.9617
 9346SOL     OW39499   2.040   2.920   6.849  0.3572 -0.1400 -0.3852
 9346SOL    HW139500   2.013   2.960   6.766  1.6451 -0.6250 -1.0466
 9346SOL    HW239501   1.989   2.839   6.861 -1.3387  1.0205  0.2859
 9347SOL     OW39502   3.755   2.119   9.955  0.3593 -0.1065 -0.2519
 9347SOL    HW139503   3.743   2.127   9.860 -0.5895  3.3264  0.1805
 9347SOL    HW239504   3.828   2.175   9.979  1.1906 -1.3287  0.0929
 9348SOL     OW39505   4.046   0.423   8.042  0.3501  0.0987 -0.0574
 9348SOL    HW139506   4.027   0.491   7.977  0.0080 -3.0190 -3.2045
 9348SOL    HW239507   4.139   0.437   8.059  0.1317  0.2286  1.0132
 9349SOL     OW39508   4.327   4.240   3.685  0.1727 -0.4699  0.0788
 9349SOL    HW139509   4.318   4.319   3.633  0.8766 -0.4983 -0.0868
 9349SOL    HW239510   4.421   4.227   3.679  0.3729  0.2013  1.6285
 9350SOL     OW39511   0.527   2.248   4.683 -0.3054  0.3741  0.2539
 9350SOL    HW139512   0.605   2.298   4.706  0.8064 -1.6607  0.9558
 9350SOL    HW239513   0.510   2.270   4.591  2.0954 -0.9750 -0.5095
 9351SOL     OW39514   0.204   1.008   5.709  0.3689  0.4293  0.1569
 9351SOL    HW139515   0.181   1.097   5.735  1.7376  0.5040  1.1447
 9351SOL    HW239516   0.187   1.021   5.615 -2.9531 -0.9653  0.5772
 9352SOL     OW39517   1.932   1.610   3.407  0.8689  0.4370  0.2322
 9352SOL    HW139518   1.926   1.580   3.316 -0.6288 -2.2256  1.1970
 9352SOL    HW239519   1.876   1.688   3.406 -1.4645 -1.2438  0.4223
 9353SOL     OW39520   2.307   2.604   6.934 -0.7391 -0.1644 -0.5586
 9353SOL    HW139521   2.395   2.568   6.925  0.0570  1.1607  1.8664
 9353SOL    HW239522   2.312   2.613   7.029  1.4791 -0.4915 -0.6457
 9354SOL     OW39523   0.769   3.149   5.998  0.2978 -0.3293  0.0619
 9354SOL    HW139524   0.699   3.090   6.027 -1.0727  0.4636 -1.6843
 9354SOL    HW239525   0.730   3.174   5.915 -2.7311 -0.3453  1.4825
 9355SOL     OW39526   3.446   1.774  12.937 -0.4283  0.5538 -0.2773
 9355SOL    HW139527   3.521   1.722  12.966 -1.7242 -0.7293  0.8093
 9355SOL    HW239528   3.373   1.738  12.987 -0.6308  0.5256 -0.5968
 9356SOL     OW39529   1.413   0.477   0.545 -0.6675  0.0395 -0.3646
 9356SOL    HW139530   1.461   0.545   0.592  0.7866 -1.1939 -0.0826
 9356SOL    HW239531   1.345   0.453   0.608 -1.0722 -0.2410 -0.9097
 9357SOL     OW39532   2.189   3.548   9.038  0.3406  0.3976 -0.0715
 9357SOL    HW139533   2.210   3.465   8.996  0.8740 -0.5818  2.1486
 9357SOL    HW239534   2.271   3.597   9.034 -0.8253  2.1131 -3.8961
 9358SOL     OW39535   0.790   3.145   1.893 -0.2076  0.4636  0.1237
 9358SOL    HW139536   0.699   3.118   1.907 -0.2154  0.8963  0.8610
 9358SOL    HW239537   0.822   3.063   1.931  1.8135  1.3400  0.2743
 9359SOL     OW39538   3.181   3.136   5.257 -0.3156 -0.3986 -0.3813
 9359SOL    HW139539   3.119   3.158   5.187  0.1235 -0.6453 -0.8469
 9359SOL    HW239540   3.191   3.223   5.295  0.5257  0.6671 -2.9878
 9360SOL     OW39541   0.038   0.364  10.662  0.0843 -0.5001 -0.0364
 9360SOL    HW139542   0.059   0.422  10.588  3.7383 -1.1743  0.4779
 9360SOL    HW239543   4.670   0.359  10.647  0.2503 -0.7279 -1.0027
 9361SOL     OW39544   1.811   0.943   6.191  0.1809 -0.1882  0.2332
 9361SOL    HW139545   1.718   0.954   6.169  0.3315 -1.5050 -1.0375
 9361SOL    HW239546   1.817   1.004   6.264  0.5220 -1.3398  1.1655
 9362SOL     OW39547   0.365   1.255  12.456  0.1352  0.0782  0.3286
 9362SOL    HW139548   0.448   1.239  12.411 -1.3118 -0.8876 -1.9744
 9362SOL    HW239549   0.303   1.200  12.408  0.5720  0.3786 -0.5844
 9363SOL     OW39550   4.021   0.171   9.850  0.5154  0.1951 -0.2169
 9363SOL    HW139551   4.041   0.239   9.786  0.8872 -0.6335 -0.9835
 9363SOL    HW239552   4.057   0.208   9.931 -0.4643 -0.3766  0.4844
 9364SOL     OW39553   0.834   0.882   3.074 -0.1063  0.6283  0.9911
 9364SOL    HW139554   0.857   0.822   3.003  3.3347  0.3328  2.3267
 9364SOL    HW239555   0.747   0.914   3.050 -0.3540 -2.0742 -1.8195
 9365SOL     OW39556   3.788   2.938   1.371 -0.3377  0.0490 -0.0326
 9365SOL    HW139557   3.833   2.865   1.328  0.6287  0.3340  0.5023
 9365SOL    HW239558   3.713   2.958   1.314 -0.0283  1.5226  0.0655
 9366SOL     OW39559   0.831   0.629   8.317  0.2599 -0.5477  0.0264
 9366SOL    HW139560   0.758   0.619   8.256 -1.6647 -2.5138  2.6725
 9366SOL    HW239561   0.855   0.543   8.352  0.1261 -0.8974 -0.7537
 9367SOL     OW39562   1.103   0.333   9.882  0.0044 -0.6628 -0.0879
 9367SOL    HW139563   1.054   0.416   9.879 -0.6685 -1.0322  0.4787
 9367SOL    HW239564   1.052   0.281   9.820 -0.0453  0.5937 -1.1085
 9368SOL     OW39565   4.196   0.950   2.801 -0.3382 -0.2331  0.1905
 9368SOL    HW139566   4.141   1.000   2.741  0.5560  0.2026 -0.2532
 9368SOL    HW239567   4.224   1.017   2.864  0.1582  0.5116 -0.8373
 9369SOL     OW39568   1.327   0.023   9.958 -0.0331  0.7729 -0.2991
 9369SOL    HW139569   1.350   0.102  10.007 -0.4281 -0.0838  1.2622
 9369SOL    HW239570   1.402   4.697   9.987 -0.7502  0.7557  1.5177
 9370SOL     OW39571   2.928   1.262   5.475 -0.1602 -0.1450  0.0927
 9370SOL    HW139572   2.877   1.193   5.517  1.2800 -0.9202  0.5652
 9370SOL    HW239573   2.864   1.297   5.413  0.4198  1.9902  0.7234
 9371SOL     OW39574   1.477   2.467   8.043 -0.1338  0.3119  0.2502
 9371SOL    HW139575   1.501   2.559   8.027 -0.5576  0.1978 -0.9816
 9371SOL    HW239576   1.505   2.421   7.964  1.2687 -0.4317  1.1699
 9372SOL     OW39577   3.594   3.471   9.706 -0.5240 -0.4066 -0.0326
 9372SOL    HW139578   3.560   3.513   9.627  2.1836  2.5592  0.3722
 9372SOL    HW239579   3.677   3.517   9.717 -1.2146  0.4772  1.3517
 9373SOL     OW39580   0.359   3.362   7.293  0.0586 -0.4581  0.5285
 9373SOL    HW139581   0.300   3.425   7.252  0.8886 -0.6695 -1.0033
 9373SOL    HW239582   0.409   3.344   7.213 -2.4430  0.8299 -1.3360
 9374SOL     OW39583   0.962   4.314  12.078 -0.3790 -0.4432 -0.0105
 9374SOL    HW139584   0.894   4.247  12.087 -0.5173 -0.0926  1.5252
 9374SOL    HW239585   0.994   4.286  11.992 -0.8271  0.5432 -0.4999
 9375SOL     OW39586   4.039   2.823   2.974 -0.4326  0.4299 -0.2325
 9375SOL    HW139587   4.077   2.861   2.895 -0.0813  0.0321 -0.2534
 9375SOL    HW239588   3.999   2.748   2.931 -0.3793 -0.3730  1.0946
 9376SOL     OW39589   2.926   2.625   2.314  0.0706 -0.4817 -0.5044
 9376SOL    HW139590   2.907   2.540   2.353 -0.4923 -1.6573 -3.3664
 9376SOL    HW239591   2.999   2.607   2.254 -0.7792 -2.4312 -0.9575
 9377SOL     OW39592   1.361   2.690   7.184  0.6440  0.4568 -0.4219
 9377SOL    HW139593   1.391   2.662   7.097  1.8133  0.0554  0.1204
 9377SOL    HW239594   1.317   2.768   7.149  1.0287 -0.0206 -1.9911
 9378SOL     OW39595   4.449   3.338   3.939 -0.2441  0.0254  0.4141
 9378SOL    HW139596   4.486   3.265   3.890  2.8295  0.9800  1.3599
 9378SOL    HW239597   4.370   3.354   3.887 -1.8382 -0.6328  2.6483
 9379SOL     OW39598   4.660   3.996   5.442 -0.2346  0.0657  0.2474
 9379SOL    HW139599   4.618   4.063   5.388  1.3032  3.2364  2.9604
 9379SOL    HW239600   0.017   4.036   5.469 -1.5043  2.3866  0.7421
 9380SOL     OW39601   1.100   2.923   3.007 -0.2617  0.1189 -0.1411
 9380SOL    HW139602   1.050   3.002   3.028  1.9114  1.3752  0.2485
 9380SOL    HW239603   1.034   2.857   3.024  1.5474 -1.2763  1.4142
 9381SOL     OW39604   3.419   4.579   7.841  0.5087  0.4349  0.1477
 9381SOL    HW139605   3.409   4.504   7.898  0.3017  1.8751  2.0069
 9381SOL    HW239606   3.504   4.611   7.871  0.7470  0.3005 -0.3832
 9382SOL     OW39607   0.232   1.845   3.075 -0.5981  0.0212  0.2550
 9382SOL    HW139608   0.170   1.779   3.105 -0.5307 -1.0253 -1.8829
 9382SOL    HW239609   0.293   1.781   3.037 -1.2833 -0.4275 -0.0904
 9383SOL     OW39610   2.008   0.239   5.929  0.1967  0.3627  0.4962
 9383SOL    HW139611   1.950   0.307   5.964  0.7153  0.0205  2.0065
 9383SOL    HW239612   2.092   0.285   5.918  0.7858 -0.5132  1.4057
 9384SOL     OW39613   3.973   2.288   6.458  0.9996 -0.0276 -0.6215
 9384SOL    HW139614   4.010   2.255   6.376 -0.0536  0.4134 -1.2698
 9384SOL    HW239615   4.040   2.245   6.513  0.6121  0.4006  0.1881
 9385SOL     OW39616   1.557   3.722   2.357 -0.4439  0.6086 -0.0767
 9385SOL    HW139617   1.630   3.715   2.418 -0.8507 -1.4993  0.1926
 9385SOL    HW239618   1.593   3.751   2.273  0.2618 -1.5733 -0.5448
 9386SOL     OW39619   0.416   4.593   3.122  0.1436  0.4159  0.4150
 9386SOL    HW139620   0.330   4.562   3.152  0.3953 -0.9895 -0.2866
 9386SOL    HW239621   0.396   4.651   3.049 -1.4284  0.1623  0.6434
 9387SOL     OW39622   0.489   4.534   8.075 -0.1625  0.2453  0.0601
 9387SOL    HW139623   0.438   4.491   8.006 -1.3628 -0.9476  1.6763
 9387SOL    HW239624   0.534   4.608   8.034  3.5489 -1.6272  0.7645
 9388SOL     OW39625   1.985   0.331   2.369 -0.2188  0.3102  0.0897
 9388SOL    HW139626   2.017   0.334   2.279  0.7872 -0.2824  0.4305
 9388SOL    HW239627   2.051   0.276   2.410  1.3200  2.8543  0.9749
 9389SOL     OW39628   3.231   0.293   1.608 -0.2215 -0.3121 -0.2984
 9389SOL    HW139629   3.312   0.274   1.561  0.3115  0.1920  0.4126
 9389SOL    HW239630   3.267   0.357   1.669  0.5730  1.8008 -2.9502
 9390SOL     OW39631   0.679   3.553   7.118  0.0082 -0.2759 -0.1939
 9390SOL    HW139632   0.719   3.568   7.032  0.4775 -0.7101 -0.0516
 9390SOL    HW239633   0.585   3.549   7.106 -0.0823 -0.2990  0.5312
 9391SOL     OW39634   3.335   4.725   2.582 -0.1032 -0.0733 -1.0011
 9391SOL    HW139635   3.286   0.075   2.554  1.9867  2.5860  2.5553
 9391SOL    HW239636   3.359   0.016   2.673 -1.1736 -2.0332 -0.3483
 9392SOL     OW39637   1.005   1.433   3.790 -0.0483 -0.0530 -0.2545
 9392SOL    HW139638   1.041   1.516   3.757 -2.3437 -0.1533 -3.0467
 9392SOL    HW239639   1.084   1.382   3.809  0.4479  0.2524 -1.4874
 9393SOL     OW39640   0.832   4.503   7.260  0.2100 -0.0364 -0.2046
 9393SOL    HW139641   0.751   4.527   7.304  0.4635  0.0745  0.2013
 9393SOL    HW239642   0.901   4.490   7.325 -0.9061 -1.7688  0.6458
 9394SOL     OW39643   0.326   1.181   1.654  0.3618  0.2975  0.6547
 9394SOL    HW139644   0.241   1.224   1.669 -0.0445 -0.3343  0.1367
 9394SOL    HW239645   0.302   1.096   1.690 -0.0845  0.3723  0.5279
 9395SOL     OW39646   2.476   1.808   7.147  0.5166 -0.3296 -0.1768
 9395SOL    HW139647   2.539   1.864   7.102  0.0085 -0.2525 -0.7917
 9395SOL    HW239648   2.409   1.872   7.172 -0.4647 -0.8401 -1.4803
 9396SOL     OW39649   4.353   0.698   7.581  0.1671  0.4284 -0.8010
 9396SOL    HW139650   4.353   0.606   7.609 -1.0554  0.6996  0.0781
 9396SOL    HW239651   4.435   0.688   7.534  1.1019 -0.3964  1.0251
 9397SOL     OW39652   4.380   0.302   4.634  0.2358  0.0364 -0.3811
 9397SOL    HW139653   4.466   0.265   4.620  1.1113  2.0761 -0.4680
 9397SOL    HW239654   4.333   0.245   4.574 -0.4013  0.4431 -0.2766
 9398SOL     OW39655   3.618   3.211   9.705  0.2247 -0.1834  0.0102
 9398SOL    HW139656   3.611   3.306   9.690  2.5264 -0.3268 -1.9477
 9398SOL    HW239657   3.634   3.222   9.799 -3.4577 -3.0647  0.9281
 9399SOL     OW39658   0.221   2.515   6.834 -0.4484  0.0548  0.4589
 9399SOL    HW139659   0.219   2.469   6.918  0.8442 -1.0482 -0.1097
 9399SOL    HW239660   0.313   2.540   6.836  0.1642 -2.1527  0.3265
 9400SOL     OW39661   4.601   2.346   2.283 -0.6680  0.1454  0.4362
 9400SOL    HW139662   4.610   2.419   2.223  1.4996  0.3888  1.0575
 9400SOL    HW239663   4.516   2.358   2.325 -0.9579 -2.2579  0.5435
 9401SOL     OW39664   2.689   0.471   6.760  0.5031  0.6865  0.3914
 9401SOL    HW139665   2.613   0.430   6.720  2.0896  0.1193 -2.0291
 9401SOL    HW239666   2.668   0.564   6.750  0.1908  0.4542 -1.1305
 9402SOL     OW39667   1.045   2.372   9.209  0.2756  0.3643  0.1496
 9402SOL    HW139668   1.101   2.310   9.257 -0.4970 -0.2372  0.2813
 9402SOL    HW239669   0.962   2.359   9.255  0.6091 -0.0543  0.6397
 9403SOL     OW39670   3.771   2.690  10.761 -0.0951  0.3382 -0.3503
 9403SOL    HW139671   3.829   2.724  10.830 -2.0720  1.3611  0.8243
 9403SOL    HW239672   3.709   2.650  10.823 -2.0377 -0.4225 -2.7874
 9404SOL     OW39673   2.193   0.052   8.570  0.4127 -0.8235 -0.1851
 9404SOL    HW139674   2.225   0.058   8.480  2.5010 -0.2151  0.5923
 9404SOL    HW239675   2.264   0.104   8.607 -0.3905  0.4150 -0.3721
 9405SOL     OW39676   2.496   3.189   0.481  0.2528 -0.6751 -0.4205
 9405SOL    HW139677   2.433   3.136   0.531 -0.5032  0.9255  0.3236
 9405SOL    HW239678   2.479   3.274   0.522  3.2278 -0.4068  0.2477
 9406SOL     OW39679   0.332   2.994   7.782 -0.7886  0.0062 -0.0417
 9406SOL    HW139680   0.306   2.972   7.871  0.3701 -0.4662  0.1742
 9406SOL    HW239681   0.389   2.924   7.752  2.1704  1.9555  1.0420
 9407SOL     OW39682   4.621   1.800  17.344  0.7336 -0.4123 -0.6954
 9407SOL    HW139683   4.630   1.891  17.372 -1.6634 -0.0863 -0.9661
 9407SOL    HW239684   4.550   1.763  17.396 -0.4031  2.5648 -0.1421
 9408SOL     OW39685   3.952   0.171  11.416 -0.6025  0.3797 -0.6246
 9408SOL    HW139686   3.934   0.260  11.388 -0.3367  0.9466  0.9831
 9408SOL    HW239687   4.047   0.170  11.431 -0.8557  0.9825  1.0183
 9409SOL     OW39688   3.705   2.074   9.199 -0.7690  0.2706 -0.4889
 9409SOL    HW139689   3.657   2.030   9.269 -2.1298  0.1587 -1.5036
 9409SOL    HW239690   3.770   2.003   9.193 -1.5329 -0.3683 -1.1730
 9410SOL     OW39691   0.689   1.577   0.291 -0.2374 -0.5049 -0.3990
 9410SOL    HW139692   0.600   1.593   0.261  0.4829  2.4184 -1.0496
 9410SOL    HW239693   0.733   1.655   0.256 -0.4886  0.4847  1.5119
 9411SOL     OW39694   1.584   0.614   2.058  0.4924 -0.0737 -0.2762
 9411SOL    HW139695   1.498   0.591   2.023  0.0968  0.4716  0.3231
 9411SOL    HW239696   1.625   0.676   1.998  2.0885  1.6522  2.5989
 9412SOL     OW39697   4.248   1.617  10.378 -0.4905  0.0929 -0.4076
 9412SOL    HW139698   4.315   1.549  10.388  0.4041  1.3537  2.3816
 9412SOL    HW239699   4.281   1.663  10.301 -0.5209 -2.4047 -1.8957
 9413SOL     OW39700   3.520   4.611   5.219 -0.1405 -0.3877  0.2210
 9413SOL    HW139701   3.481   4.528   5.246  0.5995 -0.1605  1.9979
 9413SOL    HW239702   3.603   4.579   5.184 -0.0464 -3.4096  3.1586
 9414SOL     OW39703   0.347   4.122   4.885 -0.3118 -0.2921 -0.0310
 9414SOL    HW139704   0.385   4.210   4.890 -0.3592 -0.2345 -0.6365
 9414SOL    HW239705   0.385   4.080   4.962  0.9751  0.7629 -0.0879
 9415SOL     OW39706   0.652   2.058   5.194  0.2290 -0.6223  0.1336
 9415SOL    HW139707   0.690   2.073   5.107  0.2555  0.1497  0.2786
 9415SOL    HW239708   0.585   1.995   5.166 -0.3591 -0.3910  1.0203
 9416SOL     OW39709   4.405   0.615   8.283  0.0108  0.0158 -0.3876
 9416SOL    HW139710   4.458   0.690   8.254  1.4463 -0.8927 -0.1231
 9416SOL    HW239711   4.368   0.652   8.364 -0.1632  0.3323 -0.6113
 9417SOL     OW39712   3.491   4.435  12.532  0.3584  0.1441  0.2132
 9417SOL    HW139713   3.450   4.432  12.619 -0.1240 -2.9858 -0.1427
 9417SOL    HW239714   3.419   4.414  12.473  0.0101  2.4118 -0.1642
 9418SOL     OW39715   4.322   4.351   3.177  0.1091 -0.1870  0.4296
 9418SOL    HW139716   4.296   4.270   3.222 -0.9713 -0.1672 -0.1522
 9418SOL    HW239717   4.418   4.346   3.182  0.0989 -2.3959 -1.5815
 9419SOL     OW39718   3.916   0.981   5.353 -0.2514  0.2034  0.1612
 9419SOL    HW139719   3.945   1.008   5.266 -0.0957 -1.8539 -0.4101
 9419SOL    HW239720   3.826   1.013   5.353 -1.3269 -2.8994 -0.3316
 9420SOL     OW39721   2.744   4.584   7.358  0.1905  0.1064 -0.4471
 9420SOL    HW139722   2.734   4.667   7.403  1.5343  1.3225 -2.3870
 9420SOL    HW239723   2.659   4.591   7.314 -0.8415  1.4997  1.8119
 9421SOL     OW39724   2.617   3.804  13.635  0.5576 -0.0846 -0.2440
 9421SOL    HW139725   2.564   3.849  13.569 -0.4398 -0.4312  0.3084
 9421SOL    HW239726   2.705   3.825  13.604 -0.8984  1.8847 -3.0623
 9422SOL     OW39727   2.146   3.622   6.863  0.4318 -0.7290 -0.1776
 9422SOL    HW139728   2.188   3.543   6.827  2.7328  0.6680 -0.5300
 9422SOL    HW239729   2.200   3.688   6.819  0.5846  0.1081  1.2800
 9423SOL     OW39730   2.923   0.791   6.378  0.4862  0.3705  0.2412
 9423SOL    HW139731   2.902   0.884   6.390 -0.5466  0.2568 -0.6278
 9423SOL    HW239732   2.971   0.796   6.295  0.6473 -1.7454  0.2142
 9424SOL     OW39733   1.328   0.467   9.968  0.1503  0.1364  0.5744
 9424SOL    HW139734   1.285   0.387   9.940 -0.5549  0.8697 -0.4273
 9424SOL    HW239735   1.398   0.474   9.904 -0.0596  1.1657  0.4562
 9425SOL     OW39736   3.464   4.022   1.320 -0.1062  0.0525 -0.6415
 9425SOL    HW139737   3.417   4.074   1.255 -1.1733  0.3983  0.4125
 9425SOL    HW239738   3.459   3.934   1.282  0.1194  0.7538 -2.3029
 9426SOL     OW39739   0.903   1.154   7.550  0.0954  0.0828  0.1940
 9426SOL    HW139740   0.970   1.131   7.614 -1.1942  0.9450  1.8710
 9426SOL    HW239741   0.951   1.178   7.471 -0.6036  1.2144  0.1016
 9427SOL     OW39742   3.963   3.683   2.697 -0.2918  0.5233 -0.1157
 9427SOL    HW139743   3.875   3.715   2.678 -0.7032 -0.4516  0.1748
 9427SOL    HW239744   3.976   3.737   2.775 -1.6040  0.2304  0.3122
 9428SOL     OW39745   0.891   0.158   9.013 -0.4163  0.5857  0.4180
 9428SOL    HW139746   0.841   0.222   9.063  1.3980  0.4694  2.3852
 9428SOL    HW239747   0.924   0.094   9.077  1.4199  0.6033 -0.5083
 9429SOL     OW39748   4.398   4.286   0.339  0.0739  0.0455  0.1677
 9429SOL    HW139749   4.440   4.360   0.382  1.5538  0.1820 -1.4902
 9429SOL    HW239750   4.310   4.311   0.366  0.2482  0.0225  0.7530
 9430SOL     OW39751   0.778   2.209   3.548 -0.0879  0.0514  0.3704
 9430SOL    HW139752   0.711   2.185   3.485  1.4146  0.6558 -1.4400
 9430SOL    HW239753   0.771   2.305   3.550 -0.8830  0.0030 -0.7625
 9431SOL     OW39754   4.555   4.401   5.414  0.0300  0.3879 -0.3204
 9431SOL    HW139755   4.560   4.309   5.387  0.1517  0.2972  0.0183
 9431SOL    HW239756   4.469   4.431   5.384  0.5752  0.7815 -1.5384
 9432SOL     OW39757   1.762   0.419   6.120  0.1975 -0.0093  0.0549
 9432SOL    HW139758   1.763   0.324   6.130 -0.4582  0.1099  1.3632
 9432SOL    HW239759   1.804   0.431   6.205 -0.5707 -1.3446  0.6225
 9433SOL     OW39760   0.614   4.440   0.164  0.0661  0.3330  0.1300
 9433SOL    HW139761   0.619   4.485   0.080 -2.3969  1.0393  0.3854
 9433SOL    HW239762   0.552   4.500   0.206  2.2226  1.2702  2.0111
 9434SOL     OW39763   3.067   0.486   6.274 -0.0180 -0.1203 -0.4051
 9434SOL    HW139764   3.019   0.518   6.350  1.3276 -2.0630  1.2662
 9434SOL    HW239765   3.069   0.567   6.223  1.9065  0.3126  0.3815
 9435SOL     OW39766   2.512   4.121   6.624  0.0401 -0.4484  0.3899
 9435SOL    HW139767   2.490   4.145   6.714 -0.8175 -0.6771  0.2416
 9435SOL    HW239768   2.603   4.098   6.644  0.4262 -0.1016 -0.9647
 9436SOL     OW39769   2.749   4.580   8.386 -0.5336  0.3262 -0.0998
 9436SOL    HW139770   2.667   4.568   8.433 -0.2638  2.9721  1.0438
 9436SOL    HW239771   2.711   4.612   8.305 -0.5003 -1.8069 -0.9530
 9437SOL     OW39772   2.579   3.120  16.072  0.5230  0.1077  0.3202
 9437SOL    HW139773   2.554   3.154  16.158 -1.7184  1.1229 -0.7412
 9437SOL    HW239774   2.500   3.072  16.047  1.7753 -0.8968 -1.7158
 9438SOL     OW39775   1.437   3.808   8.421  0.7177  0.7596  0.1589
 9438SOL    HW139776   1.526   3.792   8.390  0.2707  1.5411 -1.5334
 9438SOL    HW239777   1.456   3.884   8.476  1.6832  0.1466  0.6862
 9439SOL     OW39778   0.845   3.177   8.310  0.3891  0.3705  0.1162
 9439SOL    HW139779   0.815   3.090   8.285 -0.9839  1.2047 -1.1771
 9439SOL    HW239780   0.826   3.224   8.228  1.7699  1.4761  0.4325
 9440SOL     OW39781   2.805   0.756   9.076 -0.0645 -0.1751  0.2632
 9440SOL    HW139782   2.867   0.686   9.095 -0.8318 -0.6479  1.0162
 9440SOL    HW239783   2.869   0.827   9.069 -0.6584  0.4167  0.8433
 9441SOL     OW39784   2.391   4.467   8.804 -0.2746  0.3426  0.2862
 9441SOL    HW139785   2.362   4.376   8.803  0.2812  0.1802 -1.1055
 9441SOL    HW239786   2.308   4.502   8.835 -0.9155 -0.8435 -0.0976
 9442SOL     OW39787   4.140   4.542   7.754  0.3507  0.0389  0.1118
 9442SOL    HW139788   4.155   4.513   7.664  1.6738 -0.2210  0.4097
 9442SOL    HW239789   4.153   4.634   7.735 -0.9105 -0.1012 -1.4780
 9443SOL     OW39790   2.452   1.468   5.582  0.1034 -0.8645 -0.6418
 9443SOL    HW139791   2.441   1.416   5.502  0.1735 -1.0475 -0.5332
 9443SOL    HW239792   2.370   1.515   5.569 -0.0413 -1.3632 -1.5384
 9444SOL     OW39793   3.127   3.892   6.164  0.4200  0.5750  0.6400
 9444SOL    HW139794   3.079   3.836   6.225 -0.1938  1.8298  1.3128
 9444SOL    HW239795   3.079   3.974   6.182 -0.7430 -0.0606  0.4674
 9445SOL     OW39796   1.728   1.090   6.430 -0.0667 -0.2052 -0.0829
 9445SOL    HW139797   1.711   1.162   6.369  0.8394  1.5389  1.6905
 9445SOL    HW239798   1.642   1.076   6.469  0.4391  1.0137  1.4924
 9446SOL     OW39799   1.401   3.403   3.994 -0.6414 -0.3475  0.3032
 9446SOL    HW139800   1.464   3.399   4.066 -0.0560  0.4245 -0.1766
 9446SOL    HW239801   1.395   3.498   3.985 -0.2341 -0.6020 -2.8435
 9447SOL     OW39802   0.976   1.443  15.261  0.3540 -0.3048 -0.3826
 9447SOL    HW139803   0.883   1.418  15.262  0.5629 -1.1310 -1.4359
 9447SOL    HW239804   1.000   1.434  15.169  2.5254  3.1203 -0.1333
 9448SOL     OW39805   2.768   4.425   3.403  0.0683 -0.1684 -0.1355
 9448SOL    HW139806   2.694   4.453   3.349 -0.7957  0.8203  1.5464
 9448SOL    HW239807   2.725   4.374   3.471 -1.5159 -2.1598 -2.6136
 9449SOL     OW39808   0.125   2.760  16.885  0.2548 -0.0720  0.1291
 9449SOL    HW139809   0.147   2.816  16.810 -2.3523 -0.6402 -1.0595
 9449SOL    HW239810   0.202   2.778  16.940  1.6102 -0.0932 -1.7712
 9450SOL     OW39811   0.975   1.859   2.525 -0.0634  0.3672  0.0399
 9450SOL    HW139812   1.047   1.921   2.536 -1.8813  2.1761  1.7658
 9450SOL    HW239813   0.928   1.864   2.609  0.2969 -0.7865  0.3058
 9451SOL     OW39814   2.406   2.431   4.341  0.0206 -0.3608 -0.5478
 9451SOL    HW139815   2.432   2.446   4.250 -1.4161 -0.5608 -0.9986
 9451SOL    HW239816   2.449   2.347   4.356  1.3091  0.2128 -0.9694
 9452SOL     OW39817   0.080   1.856   5.812  0.2787 -0.1177  0.6604
 9452SOL    HW139818   4.718   1.818   5.811 -0.2264  1.0953 -0.2698
 9452SOL    HW239819   0.135   1.779   5.829 -0.1543 -0.4663  0.5037
 9453SOL     OW39820   2.924   3.377   3.975  0.2596  0.5970  0.3493
 9453SOL    HW139821   2.931   3.441   4.046 -1.0555  0.1837  0.8405
 9453SOL    HW239822   2.983   3.303   3.988  0.5773  0.4793 -1.8347
 9454SOL     OW39823   4.711   3.733   5.602  0.5433 -0.3950 -0.5282
 9454SOL    HW139824   0.052   3.681   5.646 -1.8571 -1.4452  1.9036
 9454SOL    HW239825   4.646   3.663   5.599 -0.7538  0.7129  1.4619
 9455SOL     OW39826   0.221   0.618   2.546 -0.0143 -0.7985  0.1175
 9455SOL    HW139827   0.236   0.614   2.451  1.8947  0.3220  0.3664
 9455SOL    HW239828   0.306   0.654   2.572 -0.4610 -0.2023  0.7554
 9456SOL     OW39829   2.814   3.685   1.253  0.3934 -0.2761 -0.5556
 9456SOL    HW139830   2.846   3.614   1.196  2.4145 -0.0124  0.2579
 9456SOL    HW239831   2.741   3.720   1.201  0.2095 -0.1372 -0.1991
 9457SOL     OW39832   2.746   0.804   3.618 -0.0390 -0.2122 -0.1532
 9457SOL    HW139833   2.771   0.839   3.704 -2.5552  0.9126  0.1412
 9457SOL    HW239834   2.688   0.868   3.576 -0.3466 -0.4692 -0.1162
 9458SOL     OW39835   1.466   0.958   2.181 -0.5750  0.3097 -0.5418
 9458SOL    HW139836   1.378   0.920   2.188 -0.2006 -0.2896  0.9051
 9458SOL    HW239837   1.465   0.985   2.089 -1.3442  0.2033 -0.5669
 9459SOL     OW39838   4.031   0.907  15.881 -0.2511  0.2119 -0.3163
 9459SOL    HW139839   4.102   0.970  15.895 -0.4123  0.5403 -0.9443
 9459SOL    HW239840   4.075   0.865  15.807 -1.0443  1.8824 -1.7555
 9460SOL     OW39841   0.101   0.024   3.398  0.0820  0.1762 -0.4711
 9460SOL    HW139842   0.161   0.083   3.444  1.4401 -1.2168 -0.4779
 9460SOL    HW239843   0.014   0.057   3.424  0.2986 -0.5703  1.2221
 9461SOL     OW39844   4.337   2.444   6.301 -0.3565 -0.4181 -0.4998
 9461SOL    HW139845   4.328   2.424   6.207  0.6530 -0.5636 -0.5676
 9461SOL    HW239846   4.346   2.540   6.298  0.8578 -0.5249 -0.1047
 9462SOL     OW39847   1.546   4.528   5.918 -0.7651 -0.0918  0.3444
 9462SOL    HW139848   1.523   4.474   5.994  0.3818  0.8816  1.3923
 9462SOL    HW239849   1.465   4.578   5.923  1.1806  2.9725  1.7185
 9463SOL     OW39850   0.160   4.055  17.596 -0.0328  0.1280  0.4043
 9463SOL    HW139851   0.236   3.996  17.605 -0.9819 -1.0103  0.8988
 9463SOL    HW239852   0.190   4.137  17.558 -0.5369 -0.7026 -1.7797
 9464SOL     OW39853   0.183   1.308   4.241 -0.5853 -0.6279  0.2686
 9464SOL    HW139854   0.175   1.394   4.198 -0.1761 -1.1713 -0.9100
 9464SOL    HW239855   0.244   1.266   4.180 -2.2485 -0.1482 -1.7298
 9465SOL     OW39856   0.781   1.792   6.996  0.5861 -0.3714 -0.0235
 9465SOL    HW139857   0.735   1.735   6.934 -2.3342  0.9008  0.9367
 9465SOL    HW239858   0.819   1.867   6.950 -0.8965  1.0855  1.1094
 9466SOL     OW39859   3.113   2.376   1.141  0.1622 -0.2972  0.3294
 9466SOL    HW139860   3.145   2.299   1.189  1.7506  1.0847  1.5086
 9466SOL    HW239861   3.018   2.364   1.138  0.3855 -2.0297  0.2312
 9467SOL     OW39862   4.718   3.263   6.257  0.0265  0.3907 -0.4768
 9467SOL    HW139863   0.042   3.184   6.276  0.7309  0.7447 -0.8730
 9467SOL    HW239864   4.724   3.315   6.337  1.7770 -1.9040  0.8741
 9468SOL     OW39865   1.044   2.569  15.450 -0.7713 -0.0666 -0.0880
 9468SOL    HW139866   1.072   2.518  15.527 -2.8259 -0.0697  0.6382
 9468SOL    HW239867   1.057   2.500  15.385  1.8875  0.6511 -0.3349
 9469SOL     OW39868   3.449   0.844  13.891  0.1383 -0.3923  0.2662
 9469SOL    HW139869   3.507   0.921  13.886  0.0478 -0.3443 -0.0443
 9469SOL    HW239870   3.510   0.781  13.852 -1.1090 -1.6142  0.3114
 9470SOL     OW39871   3.494   2.647  16.389 -0.2484 -0.3994  0.6511
 9470SOL    HW139872   3.522   2.736  16.365 -0.1860  0.0329  2.3166
 9470SOL    HW239873   3.452   2.664  16.473  0.6099 -0.5742  1.1209
 9471SOL     OW39874   1.712   1.539   2.584  0.1295 -0.8374 -0.5485
 9471SOL    HW139875   1.658   1.478   2.532 -1.0451  0.6525 -1.0924
 9471SOL    HW239876   1.763   1.481   2.640 -0.7893  0.3714  1.5256
 9472SOL     OW39877   3.534   0.028   4.062  0.1844  0.5073 -0.0047
 9472SOL    HW139878   3.466   0.076   4.109 -0.7742 -0.6558 -0.2179
 9472SOL    HW239879   3.615   0.076   4.082  1.5439 -1.4674 -0.8306
 9473SOL     OW39880   1.072   4.228  16.703  0.4915 -0.3099  0.1556
 9473SOL    HW139881   0.982   4.212  16.731  0.3405  0.9376  0.3831
 9473SOL    HW239882   1.049   4.260  16.616  1.2068  0.1513  0.1363
 9474SOL     OW39883   1.974   4.697   8.967  0.5767  0.0456 -0.1320
 9474SOL    HW139884   2.022   0.046   9.001 -0.0928  0.4495 -0.0939
 9474SOL    HW239885   1.884   4.723   8.946  0.9353  1.4557  0.1130
 9475SOL     OW39886   1.145   4.226   3.224  0.3499  0.4473  0.0724
 9475SOL    HW139887   1.065   4.237   3.276 -0.3928 -0.4852 -0.8684
 9475SOL    HW239888   1.125   4.275   3.144  0.4820  2.2538  1.1537
 9476SOL     OW39889   4.663   4.112   3.449  0.1978  0.1095 -0.4407
 9476SOL    HW139890   4.627   4.126   3.537  0.5644 -2.7878  0.1836
 9476SOL    HW239891   4.610   4.046   3.404  2.9973 -0.6466 -2.5720
 9477SOL     OW39892   2.724   1.644   2.039  0.2866 -0.4010 -1.0653
 9477SOL    HW139893   2.720   1.739   2.026  1.1724  0.0043  1.6030
 9477SOL    HW239894   2.633   1.622   2.019  0.0800 -0.7160  0.2575
 9478SOL     OW39895   0.116   0.413   4.131 -0.2848  0.1896  0.3695
 9478SOL    HW139896   0.092   0.333   4.083  2.2782  0.5346 -1.4802
 9478SOL    HW239897   0.114   0.483   4.066  2.6714  0.0694  0.1574
 9479SOL     OW39898   0.018   1.755   8.427  0.1731 -0.2135  0.0864
 9479SOL    HW139899   4.694   1.810   8.487  1.8871  0.5596  0.8240
 9479SOL    HW239900   4.712   1.666   8.436 -0.6679  0.2387  1.5460
 9480SOL     OW39901   1.226   3.221   1.540  0.3571 -0.1650  0.5110
 9480SOL    HW139902   1.157   3.210   1.474 -0.1427  3.7354  0.3647
 9480SOL    HW239903   1.175   3.244   1.617 -0.9630 -1.0689 -0.0799
 9481SOL     OW39904   4.702   2.781   6.323  0.1688 -0.0440 -0.5328
 9481SOL    HW139905   4.624   2.829   6.353  0.9295 -0.1711  1.6323
 9481SOL    HW239906   4.674   2.759   6.234  1.2680 -1.7674 -0.4407
 9482SOL     OW39907   0.665   0.508   2.733  0.1088 -0.0205  0.1332
 9482SOL    HW139908   0.599   0.559   2.778  0.4046 -1.1685  1.8890
 9482SOL    HW239909   0.628   0.464   2.656 -0.8819 -1.6534  1.5392
 9483SOL     OW39910   4.404   3.735  12.783 -0.0861  0.0785  0.2315
 9483SOL    HW139911   4.459   3.795  12.733 -1.2716  1.0479  0.0626
 9483SOL    HW239912   4.467   3.682  12.832  0.1954  0.5934  0.4309
 9484SOL     OW39913   1.161   2.378   2.042 -0.0649  0.2086  0.0384
 9484SOL    HW139914   1.215   2.325   2.101 -1.3653  0.3264  1.3145
 9484SOL    HW239915   1.197   2.373   1.953  2.0004 -0.7738  0.9252
 9485SOL     OW39916   1.374   3.182   6.437 -0.0030 -0.0230 -0.3193
 9485SOL    HW139917   1.407   3.117   6.498  1.8940  0.7105 -0.5834
 9485SOL    HW239918   1.288   3.184   6.480  0.3837 -0.7045  0.4669
 9486SOL     OW39919   2.761   0.095   5.344  0.1677  0.0246 -0.1843
 9486SOL    HW139920   2.730   0.028   5.283  0.6106 -2.6931  2.6124
 9486SOL    HW239921   2.676   0.134   5.367  0.2023 -1.2669  2.0286
 9487SOL     OW39922   0.276   0.081   8.131 -0.0024  0.3035  0.3225
 9487SOL    HW139923   0.312   4.720   8.147 -0.8774  0.4329  3.0120
 9487SOL    HW239924   0.185   0.066   8.155 -0.2612  0.4770 -0.5783
 9488SOL     OW39925   1.282   4.416  11.778 -0.7845  0.3538 -0.1992
 9488SOL    HW139926   1.217   4.482  11.753  0.1347  1.0962 -0.6164
 9488SOL    HW239927   1.231   4.356  11.833 -0.2105  0.1324  0.0927
 9489SOL     OW39928   1.663   2.391   4.490 -0.1123 -0.1717  0.1099
 9489SOL    HW139929   1.665   2.421   4.400  1.3034  0.1874  0.2549
 9489SOL    HW239930   1.709   2.463   4.534 -0.1762  0.4443 -0.8481
 9490SOL     OW39931   2.713   0.415   6.265 -0.2714 -0.4286 -0.2049
 9490SOL    HW139932   2.755   0.448   6.345 -1.1592  2.1037 -0.7685
 9490SOL    HW239933   2.785   0.364   6.228 -1.4730 -3.2797  1.4343
 9491SOL     OW39934   1.381   3.953   1.889 -0.6279  0.4246  0.3816
 9491SOL    HW139935   1.422   3.956   1.975  0.9283  0.9361 -0.3731
 9491SOL    HW239936   1.358   4.043   1.867 -2.6770 -1.2146 -4.3449
 9492SOL     OW39937   3.956   1.806   1.177 -0.7833  0.0179  0.5823
 9492SOL    HW139938   3.874   1.849   1.153  0.0124  0.5741 -1.1334
 9492SOL    HW239939   4.026   1.838   1.121 -0.9449 -1.5260 -0.5212
 9493SOL     OW39940   2.221   3.777   4.827  0.3211 -0.0220  0.4508
 9493SOL    HW139941   2.305   3.801   4.788  0.5792 -1.1247  0.3323
 9493SOL    HW239942   2.231   3.682   4.818  0.2718  0.1311 -1.2864
 9494SOL     OW39943   1.133   1.910  15.556  0.1226 -0.3246  0.0270
 9494SOL    HW139944   1.226   1.903  15.532  0.2052 -2.0618  0.8557
 9494SOL    HW239945   1.109   1.970  15.485 -0.2124 -0.1360  0.3021
 9495SOL     OW39946   2.868   0.266   4.667 -0.1593  0.0717  0.0803
 9495SOL    HW139947   2.785   0.244   4.709  0.9811 -2.6832  0.8990
 9495SOL    HW239948   2.879   0.185   4.618 -1.4753  0.6707 -1.2171
 9496SOL     OW39949   2.813   3.391  15.659 -0.1413 -0.2951 -0.1516
 9496SOL    HW139950   2.736   3.344  15.690 -1.4381  1.2475 -1.0851
 9496SOL    HW239951   2.861   3.312  15.635  0.8821  0.3319 -0.1653
 9497SOL     OW39952   3.184   0.834   6.899  0.9088  0.1322  0.8001
 9497SOL    HW139953   3.220   0.766   6.956 -0.6481  0.2634  1.9370
 9497SOL    HW239954   3.113   0.872   6.950 -0.3992 -0.6597 -0.4361
 9498SOL     OW39955   2.872   1.654   5.843 -0.0925 -0.1249 -0.0460
 9498SOL    HW139956   2.923   1.678   5.921  0.6273 -1.2531 -0.1785
 9498SOL    HW239957   2.844   1.565   5.864 -0.1931 -0.3421 -1.1099
 9499SOL     OW39958   0.373   3.606  17.605 -0.6481 -0.3704 -0.3227
 9499SOL    HW139959   0.468   3.598  17.608 -0.5789  0.3827 -0.6152
 9499SOL    HW239960   0.353   3.515  17.625  2.1784 -1.0463 -0.5278
 9500SOL     OW39961   0.006   3.678   3.596  0.2261  0.3871 -0.7971
 9500SOL    HW139962   0.010   3.597   3.646 -0.8839  0.0126 -1.3252
 9500SOL    HW239963   4.652   3.671   3.546  0.9592 -2.1726 -1.6117
 9501SOL     OW39964   2.007   3.765   2.309  0.1786 -0.6883 -0.4458
 9501SOL    HW139965   1.922   3.763   2.353 -0.0893 -0.6125 -0.9570
 9501SOL    HW239966   2.043   3.833   2.366  0.5959  0.2922 -1.8730
 9502SOL     OW39967   1.160   1.142   5.401 -0.0559  0.0916 -0.2715
 9502SOL    HW139968   1.152   1.217   5.460 -0.8096 -0.0882 -0.1479
 9502SOL    HW239969   1.229   1.173   5.342  1.1103 -2.0934 -0.0478
 9503SOL     OW39970   3.303   2.523  10.412 -0.1524  0.2994 -0.0654
 9503SOL    HW139971   3.294   2.442  10.363 -0.7991 -0.1191  0.7413
 9503SOL    HW239972   3.251   2.580  10.355  0.3571 -0.0180 -0.8468
 9504SOL     OW39973   4.639   0.787   6.595 -0.2578 -0.4742 -0.1631
 9504SOL    HW139974   4.705   0.731   6.554 -0.2750  0.0155 -0.8546
 9504SOL    HW239975   4.615   0.739   6.674  1.6874  0.5510  1.0638
 9505SOL     OW39976   4.110   3.456  11.398  0.0977  0.4056  0.6162
 9505SOL    HW139977   4.102   3.518  11.470 -0.2117  0.3927  0.5925
 9505SOL    HW239978   4.187   3.488  11.349  0.3284 -1.0562  0.0172
 9506SOL     OW39979   1.545   1.168   8.063  0.2176  0.3242 -0.3809
 9506SOL    HW139980   1.599   1.125   7.996  0.5631  0.4380 -0.1738
 9506SOL    HW239981   1.454   1.148   8.042  0.1250  0.2586  0.0881
 9507SOL     OW39982   2.007   2.456   4.763  0.1018  0.3501 -0.1200
 9507SOL    HW139983   1.982   2.476   4.673  0.3356  2.3608  0.2629
 9507SOL    HW239984   2.001   2.361   4.758  2.0305  0.2038  0.5476
 9508SOL     OW39985   1.833   1.866  14.729  0.2881  0.1302 -0.2954
 9508SOL    HW139986   1.882   1.946  14.751 -0.2482  0.6582 -0.9976
 9508SOL    HW239987   1.828   1.880  14.634 -2.9556 -1.1857 -0.3188
 9509SOL     OW39988   4.475   3.376   8.722 -0.0110 -0.0522  0.0583
 9509SOL    HW139989   4.539   3.312   8.691 -0.6135 -0.1093 -1.0518
 9509SOL    HW239990   4.394   3.336   8.692  1.0190 -1.1950 -1.2087
 9510SOL     OW39991   1.073   2.384  15.263  0.0620 -0.2713  0.0250
 9510SOL    HW139992   1.117   2.357  15.183  2.5905  1.3051  0.8720
 9510SOL    HW239993   1.059   2.298  15.303  1.5598 -0.3640  0.3487
 9511SOL     OW39994   0.027   0.504   2.058 -0.0390  0.0128 -0.1406
 9511SOL    HW139995   4.703   0.504   2.139  0.7969 -2.8940  0.3834
 9511SOL    HW239996   4.695   0.511   1.982  1.8951 -0.8886 -1.7199
 9512SOL     OW39997   3.030   1.426  15.339  0.4421 -0.2255  0.3770
 9512SOL    HW139998   2.985   1.415  15.423  0.5019  1.0026  0.5605
 9512SOL    HW239999   2.961   1.414  15.273  1.6938 -1.9003 -0.6369
 9513SOL     OW40000   4.109   0.899   6.474 -0.0200 -0.5289 -0.3281
 9513SOL    HW140001   4.072   0.951   6.403  0.1944  0.7791  0.5158
 9513SOL    HW240002   4.052   0.822   6.471 -2.6841  1.4268  0.9557
 9514SOL     OW40003   0.016   1.162   7.919  0.4801 -0.8485 -0.0126
 9514SOL    HW140004   0.050   1.075   7.936  3.0603  0.0742 -0.4641
 9514SOL    HW240005   4.704   1.162   7.832 -0.4122  1.7551  0.3707
 9515SOL     OW40006   3.244   0.643   5.219  0.5369 -0.1144  0.0320
 9515SOL    HW140007   3.199   0.571   5.263  1.9680 -0.3646  1.0927
 9515SOL    HW240008   3.295   0.687   5.288  0.4404 -0.8549  0.5792
 9516SOL     OW40009   0.875   2.960   2.058  0.3193  0.0121 -0.1520
 9516SOL    HW140010   0.858   2.918   2.142  0.1739 -1.9551 -1.1339
 9516SOL    HW240011   0.938   2.895   2.026 -2.1480 -2.3310 -0.3892
 9517SOL     OW40012   0.555   1.047  10.208 -0.2661  0.2743  0.0959
 9517SOL    HW140013   0.581   1.136  10.231 -1.0379  0.3984  0.5084
 9517SOL    HW240014   0.639   1.007  10.227 -0.5597 -0.2082  0.3728
 9518SOL     OW40015   1.823   4.346   5.097  0.3393  0.0086  0.1904
 9518SOL    HW140016   1.757   4.290   5.138  0.5690 -0.8712 -0.6563
 9518SOL    HW240017   1.780   4.429   5.118 -1.3448 -0.7222 -0.2952
 9519SOL     OW40018   4.145   0.987  11.573 -0.1558 -0.7812 -0.6499
 9519SOL    HW140019   4.121   0.947  11.489  1.1009  0.1352 -1.4611
 9519SOL    HW240020   4.223   1.039  11.552 -0.7315  0.2577 -0.2186
 9520SOL     OW40021   4.528   4.052   8.008 -0.0836 -0.5593  0.2413
 9520SOL    HW140022   4.531   4.058   8.103 -0.1694 -2.2337  0.3586
 9520SOL    HW240023   4.451   4.105   7.986  0.8792  0.1134 -1.5235
 9521SOL     OW40024   0.552   4.621   6.498 -0.1349 -0.1829  0.3803
 9521SOL    HW140025   0.564   4.702   6.548  3.1098  0.5149 -1.5765
 9521SOL    HW240026   0.640   4.584   6.508 -0.3893 -1.4018 -1.9244
 9522SOL     OW40027   3.343   4.170   9.241  0.0397  0.1343 -0.0437
 9522SOL    HW140028   3.266   4.201   9.288 -0.2155  0.2522 -0.5495
 9522SOL    HW240029   3.413   4.228   9.270 -0.5194  0.1022  1.3758
 9523SOL     OW40030   0.410   2.592  13.279  0.4549 -0.1935 -0.3562
 9523SOL    HW140031   0.447   2.521  13.331  2.1285 -0.6299 -2.1122
 9523SOL    HW240032   0.351   2.544  13.221  3.3248 -0.0415 -3.4340
 9524SOL     OW40033   0.897   2.321   2.053 -0.4154 -0.1311 -0.3033
 9524SOL    HW140034   0.869   2.402   2.097  1.4010  0.0055  0.6051
 9524SOL    HW240035   0.978   2.341   2.006  0.8343 -0.2408  1.8066
 9525SOL     OW40036   4.103   2.783   8.767  0.3410  0.3162  0.2923
 9525SOL    HW140037   4.129   2.712   8.825 -0.3118 -0.4356 -0.3498
 9525SOL    HW240038   4.035   2.830   8.817 -0.4250  0.0582 -0.5229
 9526SOL     OW40039   1.002   1.796  17.428  0.4269 -0.2232 -0.1067
 9526SOL    HW140040   1.026   1.782  17.520 -0.9882 -1.8174  0.0237
 9526SOL    HW240041   0.911   1.825  17.433  0.4511 -0.1580 -0.0467
 9527SOL     OW40042   1.605   1.833   3.738  0.1720  0.0359 -0.4702
 9527SOL    HW140043   1.581   1.870   3.823 -2.3439  0.7755 -1.4990
 9527SOL    HW240044   1.554   1.891   3.682 -1.3655 -0.5093  0.3567
 9528SOL     OW40045   4.351   4.647   9.531 -0.4812  0.0736 -0.3607
 9528SOL    HW140046   4.291   4.691   9.471  0.8039  0.4389 -1.3706
 9528SOL    HW240047   4.439   4.647   9.494  0.3678  2.3140  1.6323
 9529SOL     OW40048   2.452   1.736   9.547  0.0466 -0.2954 -0.4426
 9529SOL    HW140049   2.489   1.797   9.483 -2.2986  2.1819  0.5668
 9529SOL    HW240050   2.492   1.765   9.629  2.2552 -3.8883 -0.2543
 9530SOL     OW40051   0.513   0.477   4.870 -0.3637  0.0288 -0.0098
 9530SOL    HW140052   0.500   0.512   4.958 -0.1385 -0.4786  0.2275
 9530SOL    HW240053   0.467   0.541   4.816 -1.3546 -0.4604  0.2579
 9531SOL     OW40054   0.593   3.981   5.762 -0.2172 -0.1905 -0.2769
 9531SOL    HW140055   0.645   4.037   5.820 -1.0590 -3.6285  3.8061
 9531SOL    HW240056   0.580   3.905   5.818 -1.3119 -0.3303 -0.7388
 9532SOL     OW40057   3.456   3.670   1.474 -0.0021 -0.7723  0.3300
 9532SOL    HW140058   3.467   3.639   1.564  1.2478 -1.4532 -0.0575
 9532SOL    HW240059   3.363   3.662   1.455  0.4316  1.8187 -2.7893
 9533SOL     OW40060   3.466   2.754   7.473 -0.0844  0.9509 -0.1663
 9533SOL    HW140061   3.404   2.706   7.419  2.4331 -0.0854 -2.1069
 9533SOL    HW240062   3.527   2.684   7.495 -0.1714  1.1479  0.6970
 9534SOL     OW40063   0.263   4.533   5.936 -0.3175 -0.0123 -0.0781
 9534SOL    HW140064   0.216   4.607   5.896 -1.3390 -0.3246  0.5600
 9534SOL    HW240065   0.261   4.470   5.863  3.3188 -0.8187  0.5143
 9535SOL     OW40066   0.671   1.315   6.836  0.4882 -0.5381  0.4646
 9535SOL    HW140067   0.764   1.326   6.816  0.6109 -0.0111  1.3019
 9535SOL    HW240068   0.679   1.247   6.904 -2.0905 -0.1464  1.1377
 9536SOL     OW40069   0.315   1.814   4.129  0.6481 -0.6058  0.1343
 9536SOL    HW140070   0.326   1.831   4.035 -2.9397 -0.9418 -0.3498
 9536SOL    HW240071   0.312   1.904   4.162 -3.0780 -0.7488  0.1579
 9537SOL     OW40072   3.918   2.647   9.137  0.0375 -0.3781 -0.0212
 9537SOL    HW140073   3.847   2.617   9.195  0.0171 -1.1294 -0.4296
 9537SOL    HW240074   3.873   2.623   9.055 -0.5964  0.3578  0.1158
 9538SOL     OW40075   4.234   4.707  13.305  0.0031 -0.1229 -0.6438
 9538SOL    HW140076   4.142   0.002  13.292  0.0911  1.8369  2.0609
 9538SOL    HW240077   4.251   4.676  13.394 -1.9018 -1.3860 -0.7127
 9539SOL     OW40078   3.109   2.818   2.566 -0.0017  0.1659 -0.3596
 9539SOL    HW140079   3.054   2.823   2.488  2.4862  0.2275 -2.1448
 9539SOL    HW240080   3.179   2.770   2.520 -0.2823 -1.2125  0.6371
 9540SOL     OW40081   3.650   3.953   7.966 -0.0370  0.1524 -0.1566
 9540SOL    HW140082   3.634   3.923   7.877 -1.1693 -4.0000  1.4523
 9540SOL    HW240083   3.648   3.866   8.006 -0.8356  0.8747  1.3535
 9541SOL     OW40084   3.670   4.311   2.009  0.2180 -0.5394 -0.1026
 9541SOL    HW140085   3.696   4.221   1.988 -0.3316 -0.9251  0.8877
 9541SOL    HW240086   3.576   4.301   1.996 -0.1279  3.5544 -0.8515
 9542SOL     OW40087   3.268   1.639  13.090  0.5031  0.2140  0.9617
 9542SOL    HW140088   3.260   1.621  13.184  0.5586 -1.9346  0.5422
 9542SOL    HW240089   3.178   1.628  13.058  1.8104 -1.5652 -2.0728
 9543SOL     OW40090   0.392   3.222   5.038  0.5797 -0.3577  0.1302
 9543SOL    HW140091   0.316   3.226   4.980 -0.9536  1.6387  2.2921
 9543SOL    HW240092   0.455   3.198   4.970  1.4609 -0.7030  1.0663
 9544SOL     OW40093   4.512   0.559  16.841  0.5657 -0.3860 -0.2569
 9544SOL    HW140094   4.419   0.577  16.826  0.3869 -0.6496  0.5652
 9544SOL    HW240095   4.542   0.643  16.805  4.1372 -1.6925 -0.3012
 9545SOL     OW40096   3.216   2.504   6.501  0.1033  1.1574 -0.0447
 9545SOL    HW140097   3.166   2.468   6.428 -1.3534  0.3876  1.3363
 9545SOL    HW240098   3.197   2.596   6.482  0.3356  1.3964  0.8837
 9546SOL     OW40099   4.248   0.851   5.592  0.3103 -0.2207 -0.0650
 9546SOL    HW140100   4.199   0.920   5.638 -0.6678 -2.6984  2.6511
 9546SOL    HW240101   4.177   0.808   5.543  0.0463  1.0774 -0.8349
 9547SOL     OW40102   3.525   4.266   1.734  0.5877  0.3515 -0.7852
 9547SOL    HW140103   3.528   4.174   1.760  5.1210  0.9410  0.8651
 9547SOL    HW240104   3.443   4.288   1.778 -0.3862 -1.0577 -1.9146
 9548SOL     OW40105   2.295   2.730   1.165  0.2771 -0.0522 -0.1376
 9548SOL    HW140106   2.331   2.759   1.081  0.6552 -0.6417 -0.1826
 9548SOL    HW240107   2.212   2.775   1.155 -0.8064 -2.1881 -0.7167
 9549SOL     OW40108   1.939   3.525   5.514  0.3155 -0.0356 -0.2541
 9549SOL    HW140109   1.866   3.481   5.471 -0.4424 -1.7521  2.7914
 9549SOL    HW240110   1.990   3.542   5.435  0.3987  2.7142  0.3991
 9550SOL     OW40111   2.089   2.534   3.652  0.0374  0.0933  0.4085
 9550SOL    HW140112   2.148   2.542   3.577  1.0927 -3.3814  0.8852
 9550SOL    HW240113   2.107   2.616   3.699  0.9671 -0.4061  0.9191
 9551SOL     OW40114   4.062   4.027   2.428 -0.3158  0.2865 -0.5160
 9551SOL    HW140115   4.072   3.942   2.470  2.1328  0.5996 -0.4851
 9551SOL    HW240116   4.128   4.020   2.359  0.7436 -0.3746  0.5694
 9552SOL     OW40117   0.181   2.396   5.588 -0.0266  0.3023 -0.0917
 9552SOL    HW140118   0.157   2.321   5.642  1.9093  0.8016  1.4443
 9552SOL    HW240119   0.196   2.346   5.508 -1.1557  1.8849 -1.2872
 9553SOL     OW40120   0.330   1.997   1.166  0.4739 -0.3309  0.4898
 9553SOL    HW140121   0.265   2.066   1.154 -0.8650 -1.6246  0.2661
 9553SOL    HW240122   0.364   1.982   1.078  0.9284  1.1065  0.4195
 9554SOL     OW40123   0.133   2.925   5.076  0.3501 -0.1312 -0.1412
 9554SOL    HW140124   0.208   2.892   5.027  0.2757  0.6997 -0.8063
 9554SOL    HW240125   0.112   2.848   5.130  1.4616  1.5441  2.6694
 9555SOL     OW40126   4.166   1.050   1.253 -0.1161 -0.0812 -0.3534
 9555SOL    HW140127   4.145   1.122   1.313  1.7682 -0.7205  1.1003
 9555SOL    HW240128   4.129   1.087   1.173 -0.3533 -0.8235 -0.5850
 9556SOL     OW40129   0.082   3.735   5.916 -0.0678 -0.2903 -0.3007
 9556SOL    HW140130   0.101   3.828   5.903 -1.2784 -0.2681 -1.9136
 9556SOL    HW240131   0.019   3.742   5.988  0.8524  0.3698  0.4375
 9557SOL     OW40132   1.835   0.991   2.952  0.1238  0.1456  0.3666
 9557SOL    HW140133   1.785   0.933   2.895  1.9806  0.7903 -1.9311
 9557SOL    HW240134   1.919   0.985   2.906  0.4915 -0.5174  1.1297
 9558SOL     OW40135   4.403   0.973  16.021  0.5326 -0.4014 -0.2636
 9558SOL    HW140136   4.347   1.042  15.986  1.8653  1.4857  1.2313
 9558SOL    HW240137   4.474   0.959  15.958  0.9407  0.1761  0.0582
 9559SOL     OW40138   1.435   3.052   0.063 -0.3429  0.6248  0.1682
 9559SOL    HW140139   1.439   3.021   0.154 -3.8561 -1.5047 -0.3961
 9559SOL    HW240140   1.362   3.112   0.078  0.5275  1.5693  0.6676
 9560SOL     OW40141   4.679   0.706   8.332  0.3539 -0.2583 -0.3199
 9560SOL    HW140142   4.617   0.717   8.404 -1.1200 -0.6046 -1.5341
 9560SOL    HW240143   0.024   0.761   8.366  0.2871  0.0851 -0.7413
 9561SOL     OW40144   0.410   4.474   6.325 -0.3211  0.3140  0.0074
 9561SOL    HW140145   0.443   4.521   6.402  2.1763 -0.1539 -0.7913
 9561SOL    HW240146   0.328   4.435   6.357  0.7769 -2.3089 -0.4285
 9562SOL     OW40147   4.413   0.238   0.419  0.3471  0.3460  0.3652
 9562SOL    HW140148   4.351   0.307   0.444 -2.0713 -1.0592 -1.7418
 9562SOL    HW240149   4.360   0.161   0.437  0.8763  0.1654  1.1411
 9563SOL     OW40150   4.392   3.845  14.956  0.0493  0.4551 -0.7864
 9563SOL    HW140151   4.376   3.897  15.035  2.0479  0.1154 -0.1453
 9563SOL    HW240152   4.301   3.842  14.928 -0.0896  0.2268 -0.3041
 9564SOL     OW40153   3.998   2.425  15.453  0.0255  0.9515  0.4750
 9564SOL    HW140154   4.063   2.390  15.514 -0.6863  1.3826  1.4752
 9564SOL    HW240155   4.056   2.497  15.426 -0.6725  1.2448 -0.2351
 9565SOL     OW40156   1.682   0.712   3.985 -0.5659  0.0888 -0.3732
 9565SOL    HW140157   1.755   0.651   3.973 -0.7032 -0.0099 -0.7032
 9565SOL    HW240158   1.622   0.669   4.046 -0.2955  0.9755  0.5136
 9566SOL     OW40159   0.503   3.018   0.487  0.1610 -0.4031 -0.6314
 9566SOL    HW140160   0.447   3.042   0.412  1.1073 -3.8322 -2.4333
 9566SOL    HW240161   0.509   3.098   0.539  0.8285 -0.9705  0.1578
 9567SOL     OW40162   2.820   3.342   4.392  0.4650  0.4623  0.0813
 9567SOL    HW140163   2.815   3.306   4.304  0.8485  0.3892  0.0888
 9567SOL    HW240164   2.781   3.429   4.384  0.4572  0.7161  2.7668
 9568SOL     OW40165   3.539   2.006   2.191  0.4671  0.6130 -0.2641
 9568SOL    HW140166   3.490   1.984   2.112 -0.5291 -0.7351  0.7377
 9568SOL    HW240167   3.564   2.097   2.174  2.4658 -0.0263 -0.7899
   4.72639   4.72639  17.70660
